<?xml version="1.0" encoding="ISO-8859-1"?>
<modeling>
 <generator>
  <i name="program" type="string">vasp </i>
  <i name="version" type="string">5.3.5  </i>
  <i name="subversion" type="string">31Mar14 (build Oct 29 2014 16:16:03) complex                          parallel </i>
  <i name="platform" type="string">Linux-UFHPC </i>
  <i name="date" type="string">2016 02 09 </i>
  <i name="time" type="string">18:22:04 </i>
 </generator>
 <incar>
  <i type="string" name="PREC">accurate</i>
  <i type="int" name="IBRION">     2</i>
  <i name="EDIFF">      0.00000100</i>
  <i type="int" name="NSW">     0</i>
  <i type="int" name="ISIF">     3</i>
  <i name="ENCUT">    300.00000000</i>
  <i type="string" name="LREAL"> Auto</i>
  <i type="int" name="ISMEAR">     0</i>
  <i name="SIGMA">      0.10000000</i>
  <i type="logical" name="LWAVE"> F  </i>
  <i type="logical" name="LCHARG"> F  </i>
  <i type="logical" name="LAECHG"> F  </i>
  <i type="string" name="GGA"> Bo</i>
  <i name="PARAM1">      0.18333333</i>
  <i name="PARAM2">      0.22000000</i>
  <i type="logical" name="LUSE_VDW"> T  </i>
  <i name="AGGAC">      0.00000000</i>
 </incar>
 <kpoints>
  <generation param="Gamma">
   <v type="int" name="divisions">      13        4        2 </v>
   <v name="usershift">      0.00000000       0.00000000       0.00000000 </v>
   <v name="genvec1">      0.07692308      -0.00000000       0.00000000 </v>
   <v name="genvec2">      0.00000000       0.25000000       0.00000000 </v>
   <v name="genvec3">      0.00000000       0.00000000       0.50000000 </v>
   <v name="shift">      0.00000000       0.00000000       0.00000000 </v>
  </generation>
  <varray name="kpointlist" >
   <v>       0.00000000       0.00000000       0.00000000 </v>
   <v>       0.07692308      -0.00000000       0.00000000 </v>
   <v>       0.15384615      -0.00000000       0.00000000 </v>
   <v>       0.23076923      -0.00000000       0.00000000 </v>
   <v>       0.30769231      -0.00000000       0.00000000 </v>
   <v>       0.38461538      -0.00000000       0.00000000 </v>
   <v>       0.46153846      -0.00000000       0.00000000 </v>
   <v>       0.00000000       0.25000000       0.00000000 </v>
   <v>       0.07692308       0.25000000       0.00000000 </v>
   <v>       0.15384615       0.25000000       0.00000000 </v>
   <v>       0.23076923       0.25000000       0.00000000 </v>
   <v>       0.30769231       0.25000000       0.00000000 </v>
   <v>       0.38461538       0.25000000       0.00000000 </v>
   <v>       0.46153846       0.25000000       0.00000000 </v>
   <v>      -0.46153846       0.25000000       0.00000000 </v>
   <v>      -0.38461538       0.25000000       0.00000000 </v>
   <v>      -0.30769231       0.25000000       0.00000000 </v>
   <v>      -0.23076923       0.25000000       0.00000000 </v>
   <v>      -0.15384615       0.25000000       0.00000000 </v>
   <v>      -0.07692308       0.25000000       0.00000000 </v>
   <v>       0.00000000       0.50000000       0.00000000 </v>
   <v>       0.07692308       0.50000000       0.00000000 </v>
   <v>       0.15384615       0.50000000       0.00000000 </v>
   <v>       0.23076923       0.50000000       0.00000000 </v>
   <v>       0.30769231       0.50000000       0.00000000 </v>
   <v>       0.38461538       0.50000000       0.00000000 </v>
   <v>       0.46153846       0.50000000       0.00000000 </v>
   <v>       0.00000000       0.00000000       0.50000000 </v>
   <v>       0.07692308      -0.00000000       0.50000000 </v>
   <v>       0.15384615      -0.00000000       0.50000000 </v>
   <v>       0.23076923      -0.00000000       0.50000000 </v>
   <v>       0.30769231      -0.00000000       0.50000000 </v>
   <v>       0.38461538      -0.00000000       0.50000000 </v>
   <v>       0.46153846      -0.00000000       0.50000000 </v>
   <v>       0.00000000       0.25000000       0.50000000 </v>
   <v>       0.07692308       0.25000000       0.50000000 </v>
   <v>       0.15384615       0.25000000       0.50000000 </v>
   <v>       0.23076923       0.25000000       0.50000000 </v>
   <v>       0.30769231       0.25000000       0.50000000 </v>
   <v>       0.38461538       0.25000000       0.50000000 </v>
   <v>       0.46153846       0.25000000       0.50000000 </v>
   <v>      -0.46153846       0.25000000       0.50000000 </v>
   <v>      -0.38461538       0.25000000       0.50000000 </v>
   <v>      -0.30769231       0.25000000       0.50000000 </v>
   <v>      -0.23076923       0.25000000       0.50000000 </v>
   <v>      -0.15384615       0.25000000       0.50000000 </v>
   <v>      -0.07692308       0.25000000       0.50000000 </v>
   <v>       0.00000000       0.50000000       0.50000000 </v>
   <v>       0.07692308       0.50000000       0.50000000 </v>
   <v>       0.15384615       0.50000000       0.50000000 </v>
   <v>       0.23076923       0.50000000       0.50000000 </v>
   <v>       0.30769231       0.50000000       0.50000000 </v>
   <v>       0.38461538       0.50000000       0.50000000 </v>
   <v>       0.46153846       0.50000000       0.50000000 </v>
  </varray>
  <varray name="weights" >
   <v>       0.00961538 </v>
   <v>       0.01923077 </v>
   <v>       0.01923077 </v>
   <v>       0.01923077 </v>
   <v>       0.01923077 </v>
   <v>       0.01923077 </v>
   <v>       0.01923077 </v>
   <v>       0.01923077 </v>
   <v>       0.01923077 </v>
   <v>       0.01923077 </v>
   <v>       0.01923077 </v>
   <v>       0.01923077 </v>
   <v>       0.01923077 </v>
   <v>       0.01923077 </v>
   <v>       0.01923077 </v>
   <v>       0.01923077 </v>
   <v>       0.01923077 </v>
   <v>       0.01923077 </v>
   <v>       0.01923077 </v>
   <v>       0.01923077 </v>
   <v>       0.00961538 </v>
   <v>       0.01923077 </v>
   <v>       0.01923077 </v>
   <v>       0.01923077 </v>
   <v>       0.01923077 </v>
   <v>       0.01923077 </v>
   <v>       0.01923077 </v>
   <v>       0.00961538 </v>
   <v>       0.01923077 </v>
   <v>       0.01923077 </v>
   <v>       0.01923077 </v>
   <v>       0.01923077 </v>
   <v>       0.01923077 </v>
   <v>       0.01923077 </v>
   <v>       0.01923077 </v>
   <v>       0.01923077 </v>
   <v>       0.01923077 </v>
   <v>       0.01923077 </v>
   <v>       0.01923077 </v>
   <v>       0.01923077 </v>
   <v>       0.01923077 </v>
   <v>       0.01923077 </v>
   <v>       0.01923077 </v>
   <v>       0.01923077 </v>
   <v>       0.01923077 </v>
   <v>       0.01923077 </v>
   <v>       0.01923077 </v>
   <v>       0.00961538 </v>
   <v>       0.01923077 </v>
   <v>       0.01923077 </v>
   <v>       0.01923077 </v>
   <v>       0.01923077 </v>
   <v>       0.01923077 </v>
   <v>       0.01923077 </v>
  </varray>
 </kpoints>
 <parameters>
  <separator name="general" >
   <i type="string" name="SYSTEM">unknown system</i>
   <i type="logical" name="LCOMPAT"> F  </i>
  </separator>
  <separator name="electronic" >
   <i type="string" name="PREC">accura</i>
   <i name="ENMAX">    300.00000000</i>
   <i name="ENAUG">    342.92400000</i>
   <i name="EDIFF">      0.00000100</i>
   <i type="int" name="IALGO">    38</i>
   <i type="int" name="IWAVPR">    10</i>
   <i type="int" name="NBANDS">    68</i>
   <i name="NELECT">    108.00000000</i>
   <i type="int" name="TURBO">     0</i>
   <i type="int" name="IRESTART">     0</i>
   <i type="int" name="NREBOOT">     0</i>
   <i type="int" name="NMIN">     0</i>
   <i name="EREF">      0.00000000</i>
   <separator name="electronic smearing" >
    <i type="int" name="ISMEAR">     0</i>
    <i name="SIGMA">      0.10000000</i>
    <i name="KSPACING">      0.50000000</i>
    <i type="logical" name="KGAMMA"> T  </i>
   </separator>
   <separator name="electronic projectors" >
    <i type="logical" name="LREAL"> T  </i>
    <v name="ROPT">     -0.00025000     -0.00025000</v>
    <i type="int" name="LMAXPAW">  -100</i>
    <i type="int" name="LMAXMIX">     2</i>
    <i type="logical" name="NLSPLINE"> F  </i>
   </separator>
   <separator name="electronic startup" >
    <i type="int" name="ISTART">     0</i>
    <i type="int" name="ICHARG">     2</i>
    <i type="int" name="INIWAV">     1</i>
   </separator>
   <separator name="electronic spin" >
    <i type="int" name="ISPIN">     1</i>
    <i type="logical" name="LNONCOLLINEAR"> F  </i>
    <v name="MAGMOM">      1.00000000      1.00000000      1.00000000      1.00000000      1.00000000      1.00000000      1.00000000      1.00000000      1.00000000      1.00000000      1.00000000      1.00000000      1.00000000      1.00000000      1.00000000      1.00000000      1.00000000      1.00000000      1.00000000      1.00000000
      1.00000000      1.00000000      1.00000000      1.00000000</v>
    <i name="NUPDOWN">     -1.00000000</i>
    <i type="logical" name="LSORBIT"> F  </i>
    <v name="SAXIS">      0.00000000      0.00000000      1.00000000</v>
    <i type="logical" name="LSPIRAL"> F  </i>
    <v name="QSPIRAL">      0.00000000      0.00000000      0.00000000</v>
    <i type="logical" name="LZEROZ"> F  </i>
   </separator>
   <separator name="electronic exchange-correlation" >
    <i type="logical" name="LASPH"> F  </i>
    <i type="logical" name="LMETAGGA"> F  </i>
   </separator>
   <separator name="electronic convergence" >
    <i type="int" name="NELM">    60</i>
    <i type="int" name="NELMDL">    -5</i>
    <i type="int" name="NELMIN">     2</i>
    <i name="ENINI">    300.00000000</i>
    <separator name="electronic convergence detail" >
     <i type="logical" name="LDIAG"> T  </i>
     <i type="logical" name="LSUBROT"> F  </i>
     <i name="WEIMIN">      0.00000000</i>
     <i name="EBREAK">      0.00000000</i>
     <i name="DEPER">      0.30000000</i>
     <i type="int" name="NRMM">     4</i>
     <i name="TIME">      0.40000000</i>
    </separator>
   </separator>
   <separator name="electronic mixer" >
    <i name="AMIX">      0.40000000</i>
    <i name="BMIX">      1.00000000</i>
    <i name="AMIN">      0.10000000</i>
    <i name="AMIX_MAG">      1.60000000</i>
    <i name="BMIX_MAG">      1.00000000</i>
    <separator name="electronic mixer details" >
     <i type="int" name="IMIX">     4</i>
     <i type="int" name="MAXMIX">   -45</i>
     <i name="WC">    100.00000000</i>
     <i type="int" name="INIMIX">     1</i>
     <i type="int" name="MIXPRE">     1</i>
     <i type="int" name="MREMOVE">     5</i>
    </separator>
   </separator>
   <separator name="electronic dipolcorrection" >
    <i type="logical" name="LDIPOL"> F  </i>
    <i type="logical" name="LMONO"> F  </i>
    <i type="int" name="IDIPOL">     0</i>
    <i name="EPSILON">      1.00000000</i>
    <v name="DIPOL">   -100.00000000   -100.00000000   -100.00000000</v>
    <i name="EFIELD">      0.00000000</i>
   </separator>
  </separator>
  <separator name="grids" >
   <i type="int" name="NGX">    20</i>
   <i type="int" name="NGY">    60</i>
   <i type="int" name="NGZ">   160</i>
   <i type="int" name="NGXF">    40</i>
   <i type="int" name="NGYF">   120</i>
   <i type="int" name="NGZF">   320</i>
   <i type="logical" name="ADDGRID"> F  </i>
  </separator>
  <separator name="ionic" >
   <i type="int" name="NSW">     0</i>
   <i type="int" name="IBRION">    -1</i>
   <i type="int" name="ISIF">     3</i>
   <i name="PSTRESS">      0.00000000</i>
   <i name="EDIFFG">      0.00001000</i>
   <i type="int" name="NFREE">     1</i>
   <i name="POTIM">      0.50000000</i>
   <i name="SMASS">     -3.00000000</i>
   <i name="SCALEE">      1.00000000</i>
  </separator>
  <separator name="ionic md" >
   <i name="TEBEG">      0.00010000</i>
   <i name="TEEND">      0.00010000</i>
   <i type="int" name="NBLOCK">     1</i>
   <i type="int" name="KBLOCK">     1</i>
   <i type="int" name="NPACO">   256</i>
   <i name="APACO">     16.00000000</i>
  </separator>
  <separator name="symmetry" >
   <i type="int" name="ISYM">     2</i>
   <i name="SYMPREC">      0.00001000</i>
  </separator>
  <separator name="dos" >
   <i type="logical" name="LORBIT"> F  </i>
   <v name="RWIGS">     -1.00000000     -1.00000000</v>
   <i type="int" name="NEDOS">   301</i>
   <i name="EMIN">     10.00000000</i>
   <i name="EMAX">    -10.00000000</i>
   <i name="EFERMI">      0.00000000</i>
  </separator>
  <separator name="writing" >
   <i type="int" name="NWRITE">     2</i>
   <i type="logical" name="LWAVE"> F  </i>
   <i type="logical" name="LCHARG"> F  </i>
   <i type="logical" name="LPARD"> F  </i>
   <i type="logical" name="LVTOT"> F  </i>
   <i type="logical" name="LVHAR"> F  </i>
   <i type="logical" name="LELF"> F  </i>
   <i type="logical" name="LOPTICS"> F  </i>
   <v name="STM">      0.00000000      0.00000000      0.00000000      0.00000000      0.00000000      0.00000000      0.00000000</v>
  </separator>
  <separator name="performance" >
   <i type="int" name="NPAR">     4</i>
   <i type="int" name="NSIM">     4</i>
   <i type="int" name="NBLK">    -1</i>
   <i type="logical" name="LPLANE"> T  </i>
   <i type="logical" name="LSCALAPACK"> T  </i>
   <i type="logical" name="LSCAAWARE"> F  </i>
   <i type="logical" name="LSCALU"> F  </i>
   <i type="logical" name="LASYNC"> F  </i>
   <i type="logical" name="LORBITALREAL"> F  </i>
  </separator>
  <separator name="miscellaneous" >
   <i type="int" name="IDIOT">     3</i>
   <i type="logical" name="LMUSIC"> F  </i>
   <v name="POMASS">     30.97400000     28.08500000</v>
   <v name="DARWINR">      0.00000000      0.00000000</v>
   <v name="DARWINV">      1.00000000      1.00000000</v>
   <i type="logical" name="LCORR"> T  </i>
  </separator>
  <i type="logical" name="GGA_COMPAT"> T  </i>
  <i type="logical" name="LBERRY"> F  </i>
  <i type="int" name="ICORELEVEL">     0</i>
  <i type="logical" name="LDAU"> F  </i>
  <i type="int" name="I_CONSTRAINED_M">     0</i>
  <separator name="electronic exchange-correlation" >
   <i type="string" name="GGA">BO</i>
   <i type="int" name="VOSKOWN">     0</i>
   <i type="logical" name="LHFCALC"> F  </i>
   <i type="string" name="PRECFOCK"></i>
   <i type="logical" name="LSYMGRAD"> F  </i>
   <i type="logical" name="LHFONE"> F  </i>
   <i type="logical" name="LRHFCALC"> F  </i>
   <i type="logical" name="LTHOMAS"> F  </i>
   <i type="logical" name="LMODELHF"> F  </i>
   <i name="ENCUT4O">     -1.00000000</i>
   <i type="int" name="EXXOEP">     0</i>
   <i type="int" name="FOURORBIT">     0</i>
   <i name="AEXX">      0.00000000</i>
   <i name="HFALPHA">      0.00000000</i>
   <i name="MCALPHA">      0.00000000</i>
   <i name="ALDAX">      1.00000000</i>
   <i name="AGGAX">      1.00000000</i>
   <i name="ALDAC">      1.00000000</i>
   <i name="AGGAC">      0.00000000</i>
   <i type="int" name="NKREDX">     1</i>
   <i type="int" name="NKREDY">     1</i>
   <i type="int" name="NKREDZ">     1</i>
   <i type="logical" name="SHIFTRED"> F  </i>
   <i type="logical" name="ODDONLY"> F  </i>
   <i type="logical" name="EVENONLY"> F  </i>
   <i type="int" name="LMAXFOCK">     0</i>
   <i type="int" name="NMAXFOCKAE">     0</i>
   <i type="logical" name="LFOCKAEDFT"> F  </i>
   <i name="HFSCREEN">      0.00000000</i>
   <i name="HFSCREENC">      0.00000000</i>
   <i type="int" name="NBANDSGWLOW">     0</i>
  </separator>
  <separator name="vdW DFT" >
   <i type="logical" name="LUSE_VDW"> T  </i>
   <i name="Zab_VDW">     -0.84910000</i>
   <i name="PARAM1">      0.18333333</i>
   <i name="PARAM2">      0.22000000</i>
   <i name="PARAM3">      0.00000000</i>
  </separator>
  <separator name="model GW" >
   <i type="int" name="MODEL_GW">     0</i>
   <i name="MODEL_EPS0">     25.05800243</i>
   <i name="MODEL_ALPHA">      1.00000000</i>
  </separator>
  <separator name="linear response parameters" >
   <i type="logical" name="LEPSILON"> F  </i>
   <i type="logical" name="LRPA"> F  </i>
   <i type="logical" name="LNABLA"> F  </i>
   <i type="logical" name="LVEL"> F  </i>
   <i type="int" name="KINTER">     0</i>
   <i name="CSHIFT">      0.10000000</i>
   <i name="OMEGAMAX">     -1.00000000</i>
   <i name="DEG_THRESHOLD">      0.00200000</i>
  </separator>
  <separator name="orbital magnetization" >
   <i type="logical" name="NUCIND"> F  </i>
   <v name="MAGPOS">      0.00000000      0.00000000      0.00000000</v>
   <i type="logical" name="LNICSALL"> T  </i>
   <i type="logical" name="ORBITALMAG"> F  </i>
   <i type="logical" name="LMAGBLOCH"> F  </i>
   <i type="logical" name="LCHIMAG"> F  </i>
   <i type="logical" name="LGAUGE"> T  </i>
   <i type="int" name="MAGATOM">     0</i>
   <v name="MAGDIPOL">      0.00000000      0.00000000      0.00000000</v>
   <v name="AVECCONST">      0.00000000      0.00000000      0.00000000</v>
  </separator>
  <separator name="response functions" >
   <i type="logical" name="LADDER"> F  </i>
   <i type="logical" name="LFXC"> F  </i>
   <i type="logical" name="LHARTREE"> T  </i>
   <i type="int" name="IBSE">     0</i>
   <i type="logical" name="LTCTE"> F  </i>
   <i type="logical" name="LTETE"> F  </i>
   <i type="logical" name="LTRIPLET"> F  </i>
   <i type="logical" name="LFXCEPS"> F  </i>
   <i type="logical" name="LFXHEG"> F  </i>
   <i type="logical" name="L2ORDER"> F  </i>
   <i type="logical" name="LUSEW"> F  </i>
   <i name="ENCUTGW">     -2.00000000</i>
   <i name="ENCUTGWSOFT">     -2.00000000</i>
   <i name="ENCUTLF">     -1.00000000</i>
   <i type="int" name="LMAXMP2">    -1</i>
   <i name="SCISSOR">      0.00000000</i>
   <i type="int" name="NOMEGA">     0</i>
   <i type="int" name="NOMEGAR">     0</i>
   <i type="int" name="NBANDSGW">    -1</i>
   <i type="int" name="NBANDSO">    -1</i>
   <i type="int" name="NBANDSV">    -1</i>
   <i type="int" name="NELM">     1</i>
   <i type="int" name="DIM">     3</i>
   <i type="int" name="ANTIRES">     0</i>
   <i name="OMEGAMAX">    -30.00000000</i>
   <i name="OMEGAMIN">    -30.00000000</i>
   <i name="OMEGATL">   -200.00000000</i>
   <i type="int" name="OMEGAGRID">     0</i>
   <i name="CSHIFT">     -0.10000000</i>
   <i type="logical" name="SELFENERGY"> F  </i>
   <i type="logical" name="LSPECTRAL"> F  </i>
   <i type="logical" name="ODDONLYGW"> F  </i>
   <i type="logical" name="EVENONLYGW"> F  </i>
   <i type="int" name="NKREDLFX">     1</i>
   <i type="int" name="NKREDLFY">     1</i>
   <i type="int" name="NKREDLFZ">     1</i>
   <i type="int" name="MAXMEM">  1800</i>
   <i type="int" name="TELESCOPE">     0</i>
   <i type="int" name="TAUPAR">     1</i>
  </separator>
  <separator name="External order field" >
   <i name="OFIELD_KAPPA">      0.00000000</i>
   <v name="OFIELD_K">      0.00000000      0.00000000      0.00000000</v>
   <i name="OFIELD_Q6_NEAR">      0.00000000</i>
   <i name="OFIELD_Q6_FAR">      0.00000000</i>
   <i name="OFIELD_A">      0.00000000</i>
  </separator>
 </parameters>
 <atominfo>
  <atoms>      24 </atoms>
  <types>       2 </types>
  <array name="atoms" >
   <dimension dim="1">ion</dimension>
   <field type="string">element</field>
   <field type="int">atomtype</field>
   <set>
    <rc><c>P </c><c>   1</c></rc>
    <rc><c>P </c><c>   1</c></rc>
    <rc><c>P </c><c>   1</c></rc>
    <rc><c>P </c><c>   1</c></rc>
    <rc><c>P </c><c>   1</c></rc>
    <rc><c>P </c><c>   1</c></rc>
    <rc><c>P </c><c>   1</c></rc>
    <rc><c>P </c><c>   1</c></rc>
    <rc><c>P </c><c>   1</c></rc>
    <rc><c>P </c><c>   1</c></rc>
    <rc><c>P </c><c>   1</c></rc>
    <rc><c>P </c><c>   1</c></rc>
    <rc><c>Si</c><c>   2</c></rc>
    <rc><c>Si</c><c>   2</c></rc>
    <rc><c>Si</c><c>   2</c></rc>
    <rc><c>Si</c><c>   2</c></rc>
    <rc><c>Si</c><c>   2</c></rc>
    <rc><c>Si</c><c>   2</c></rc>
    <rc><c>Si</c><c>   2</c></rc>
    <rc><c>Si</c><c>   2</c></rc>
    <rc><c>Si</c><c>   2</c></rc>
    <rc><c>Si</c><c>   2</c></rc>
    <rc><c>Si</c><c>   2</c></rc>
    <rc><c>Si</c><c>   2</c></rc>
   </set>
  </array>
  <array name="atomtypes" >
   <dimension dim="1">type</dimension>
   <field type="int">atomspertype</field>
   <field type="string">element</field>
   <field>mass</field>
   <field>valence</field>
   <field type="string">pseudopotential</field>
   <set>
    <rc><c>  12</c><c>P </c><c>     30.97400000</c><c>      5.00000000</c><c>  PAW_PBE P 17Jan2003                   </c></rc>
    <rc><c>  12</c><c>Si</c><c>     28.08500000</c><c>      4.00000000</c><c> PAW_PBE Si 05Jan2001                   </c></rc>
   </set>
  </array>
 </atominfo>
 <structure name="initialpos" >
  <crystal>
   <varray name="basis" >
    <v>       3.54040000       0.00000000       0.00000000 </v>
    <v>      -1.77020000      10.29434800       0.00000000 </v>
    <v>       0.00000000       0.00000000      27.50142900 </v>
   </varray>
   <i name="volume">   1002.32009712 </i>
   <varray name="rec_basis" >
    <v>       0.28245396       0.04857034       0.00000000 </v>
    <v>       0.00000000       0.09714068       0.00000000 </v>
    <v>       0.00000000       0.00000000       0.03636175 </v>
   </varray>
  </crystal>
  <varray name="positions" >
   <v>       0.11402300       0.22804500       0.23316207 </v>
   <v>       0.71402300       0.12804500       0.51499159 </v>
   <v>       0.45808900       0.91617900       0.20939482 </v>
   <v>       0.05808900       0.81617900       0.49122434 </v>
   <v>       0.31085400       0.62170900       0.08414979 </v>
   <v>       0.31085400       0.62170900       0.36597930 </v>
   <v>       0.99923000       0.99846000       0.08631254 </v>
   <v>       0.99923000       0.99846000       0.36814206 </v>
   <v>       0.65492700       0.30985400       0.06041748 </v>
   <v>       0.65492700       0.30985400       0.34224700 </v>
   <v>       0.76973800       0.53947500       0.20725292 </v>
   <v>       0.36973800       0.43947500       0.48908244 </v>
   <v>       0.93971600       0.87943300       0.15783749 </v>
   <v>       0.53971600       0.77943300       0.43966701 </v>
   <v>       0.20515200       0.41030300       0.18578822 </v>
   <v>       0.80515200       0.31030300       0.46761774 </v>
   <v>       0.20184900       0.40369900       0.09969156 </v>
   <v>       0.20184900       0.40369900       0.38152107 </v>
   <v>       0.56380500       0.12761000       0.10779021 </v>
   <v>       0.56380500       0.12761000       0.38961973 </v>
   <v>       0.56710600       0.13421200       0.19387616 </v>
   <v>       0.16710600       0.03421200       0.47570568 </v>
   <v>       0.82923400       0.65846800       0.13571444 </v>
   <v>       0.42923400       0.55846800       0.41754396 </v>
  </varray>
 </structure>
 <calculation>
  <scstep>
   <time name="dav">   64.20   64.25</time>
   <time name="total">   80.87   80.96</time>
   <energy>
    <i name="alphaZ">     36.80884744 </i>
    <i name="ewald">  11930.73761304 </i>
    <i name="hartreedc"> -14970.69973424 </i>
    <i name="XCdc">    -87.80822786 </i>
    <i name="pawpsdc">   1056.43050070 </i>
    <i name="pawaedc">   -732.41190547 </i>
    <i name="eentropy">     -0.03970145 </i>
    <i name="bandstr">    -91.43159442 </i>
    <i name="atom">   3354.04126044 </i>
    <i name="e_fr_energy">    495.62705818 </i>
    <i name="e_wo_entrp">    495.66675963 </i>
    <i name="e_0_energy">    495.64690891 </i>
   </energy>
  </scstep>
  <scstep>
   <time name="dav">   80.53   80.60</time>
   <time name="total">   80.55   80.62</time>
   <energy>
    <i name="e_fr_energy">    -63.72925468 </i>
    <i name="e_wo_entrp">    -63.70855640 </i>
    <i name="e_0_energy">    -63.71890554 </i>
   </energy>
  </scstep>
  <scstep>
   <time name="dav">   74.67   74.68</time>
   <time name="total">   74.68   74.70</time>
   <energy>
    <i name="e_fr_energy">   -120.97884921 </i>
    <i name="e_wo_entrp">   -120.95445227 </i>
    <i name="e_0_energy">   -120.96665074 </i>
   </energy>
  </scstep>
  <scstep>
   <time name="dav">   85.75   85.77</time>
   <time name="total">   85.76   85.78</time>
   <energy>
    <i name="e_fr_energy">   -123.56280357 </i>
    <i name="e_wo_entrp">   -123.53862787 </i>
    <i name="e_0_energy">   -123.55071572 </i>
   </energy>
  </scstep>
  <scstep>
   <time name="dav">   82.35   82.37</time>
   <time name="total">   86.57   86.59</time>
   <energy>
    <i name="e_fr_energy">   -123.63352738 </i>
    <i name="e_wo_entrp">   -123.60925643 </i>
    <i name="e_0_energy">   -123.62139190 </i>
   </energy>
  </scstep>
  <scstep>
   <time name="dav">   71.21   71.22</time>
   <time name="total">   90.61   90.63</time>
   <energy>
    <i name="e_fr_energy">   -119.68913525 </i>
    <i name="e_wo_entrp">   -119.66431363 </i>
    <i name="e_0_energy">   -119.67672444 </i>
   </energy>
  </scstep>
  <scstep>
   <time name="dav">   71.30   71.32</time>
   <time name="total">   91.13   91.14</time>
   <energy>
    <i name="e_fr_energy">   -119.51486252 </i>
    <i name="e_wo_entrp">   -119.49213273 </i>
    <i name="e_0_energy">   -119.50349762 </i>
   </energy>
  </scstep>
  <scstep>
   <time name="dav">   74.13   74.14</time>
   <time name="total">   93.12   93.14</time>
   <energy>
    <i name="e_fr_energy">   -119.53735482 </i>
    <i name="e_wo_entrp">   -119.51431501 </i>
    <i name="e_0_energy">   -119.52583491 </i>
   </energy>
  </scstep>
  <scstep>
   <time name="dav">   74.46   74.49</time>
   <time name="total">   93.38   93.41</time>
   <energy>
    <i name="e_fr_energy">   -119.53075397 </i>
    <i name="e_wo_entrp">   -119.50729039 </i>
    <i name="e_0_energy">   -119.51902218 </i>
   </energy>
  </scstep>
  <scstep>
   <time name="dav">   72.66   72.67</time>
   <time name="total">   91.56   91.57</time>
   <energy>
    <i name="e_fr_energy">   -119.52246241 </i>
    <i name="e_wo_entrp">   -119.49888727 </i>
    <i name="e_0_energy">   -119.51067484 </i>
   </energy>
  </scstep>
  <scstep>
   <time name="dav">   74.80   74.82</time>
   <time name="total">   93.70   93.72</time>
   <energy>
    <i name="e_fr_energy">   -119.51642730 </i>
    <i name="e_wo_entrp">   -119.49289296 </i>
    <i name="e_0_energy">   -119.50466013 </i>
   </energy>
  </scstep>
  <scstep>
   <time name="dav">   74.62   74.64</time>
   <time name="total">   93.54   93.56</time>
   <energy>
    <i name="e_fr_energy">   -119.51038829 </i>
    <i name="e_wo_entrp">   -119.48697384 </i>
    <i name="e_0_energy">   -119.49868107 </i>
   </energy>
  </scstep>
  <scstep>
   <time name="dav">   74.20   74.21</time>
   <time name="total">   93.58   93.60</time>
   <energy>
    <i name="e_fr_energy">   -119.50727977 </i>
    <i name="e_wo_entrp">   -119.48382855 </i>
    <i name="e_0_energy">   -119.49555416 </i>
   </energy>
  </scstep>
  <scstep>
   <time name="dav">   75.03   75.04</time>
   <time name="total">   94.39   94.41</time>
   <energy>
    <i name="e_fr_energy">   -119.50620221 </i>
    <i name="e_wo_entrp">   -119.48277814 </i>
    <i name="e_0_energy">   -119.49449018 </i>
   </energy>
  </scstep>
  <scstep>
   <time name="dav">   70.64   70.65</time>
   <time name="total">   90.02   90.04</time>
   <energy>
    <i name="e_fr_energy">   -119.50571743 </i>
    <i name="e_wo_entrp">   -119.48229354 </i>
    <i name="e_0_energy">   -119.49400549 </i>
   </energy>
  </scstep>
  <scstep>
   <time name="dav">   68.66   68.67</time>
   <time name="total">   88.00   88.02</time>
   <energy>
    <i name="e_fr_energy">   -119.50603782 </i>
    <i name="e_wo_entrp">   -119.48261095 </i>
    <i name="e_0_energy">   -119.49432439 </i>
   </energy>
  </scstep>
  <scstep>
   <time name="dav">   69.53   69.55</time>
   <time name="total">   88.93   88.95</time>
   <energy>
    <i name="e_fr_energy">   -119.50651933 </i>
    <i name="e_wo_entrp">   -119.48309101 </i>
    <i name="e_0_energy">   -119.49480517 </i>
   </energy>
  </scstep>
  <scstep>
   <time name="dav">   65.41   65.42</time>
   <time name="total">   85.01   85.03</time>
   <energy>
    <i name="e_fr_energy">   -119.50663397 </i>
    <i name="e_wo_entrp">   -119.48320664 </i>
    <i name="e_0_energy">   -119.49492031 </i>
   </energy>
  </scstep>
  <scstep>
   <time name="dav">   56.53   56.54</time>
   <time name="total">   75.85   75.87</time>
   <energy>
    <i name="e_fr_energy">   -119.50666179 </i>
    <i name="e_wo_entrp">   -119.48323307 </i>
    <i name="e_0_energy">   -119.49494743 </i>
   </energy>
  </scstep>
  <scstep>
   <time name="dav">   63.43   63.44</time>
   <time name="total">   82.42   82.44</time>
   <energy>
    <i name="e_fr_energy">   -119.50669568 </i>
    <i name="e_wo_entrp">   -119.48326618 </i>
    <i name="e_0_energy">   -119.49498093 </i>
   </energy>
  </scstep>
  <scstep>
   <time name="dav">   61.03   61.04</time>
   <time name="total">   80.21   80.22</time>
   <energy>
    <i name="e_fr_energy">   -119.50667412 </i>
    <i name="e_wo_entrp">   -119.48324461 </i>
    <i name="e_0_energy">   -119.49495936 </i>
   </energy>
  </scstep>
  <scstep>
   <time name="dav">   57.24   57.25</time>
   <time name="total">   76.21   76.23</time>
   <energy>
    <i name="e_fr_energy">   -119.50660842 </i>
    <i name="e_wo_entrp">   -119.48317946 </i>
    <i name="e_0_energy">   -119.49489394 </i>
   </energy>
  </scstep>
  <scstep>
   <time name="dav">   56.18   56.19</time>
   <time name="total">   75.20   75.22</time>
   <energy>
    <i name="e_fr_energy">   -119.50657169 </i>
    <i name="e_wo_entrp">   -119.48314270 </i>
    <i name="e_0_energy">   -119.49485720 </i>
   </energy>
  </scstep>
  <scstep>
   <time name="dav">   60.40   60.41</time>
   <time name="total">   79.62   79.64</time>
   <energy>
    <i name="e_fr_energy">   -119.50654673 </i>
    <i name="e_wo_entrp">   -119.48311766 </i>
    <i name="e_0_energy">   -119.49483219 </i>
   </energy>
  </scstep>
  <scstep>
   <time name="dav">   58.61   58.62</time>
   <time name="total">   77.87   77.89</time>
   <energy>
    <i name="e_fr_energy">   -119.50653894 </i>
    <i name="e_wo_entrp">   -119.48311002 </i>
    <i name="e_0_energy">   -119.49482448 </i>
   </energy>
  </scstep>
  <scstep>
   <time name="dav">   58.24   58.25</time>
   <time name="total">   77.49   77.50</time>
   <energy>
    <i name="e_fr_energy">   -119.50653587 </i>
    <i name="e_wo_entrp">   -119.48310692 </i>
    <i name="e_0_energy">   -119.49482140 </i>
   </energy>
  </scstep>
  <scstep>
   <time name="dav">   51.09   51.10</time>
   <time name="total">   66.07   66.08</time>
   <energy>
    <i name="alphaZ">     36.80884744 </i>
    <i name="ewald">  11930.73761304 </i>
    <i name="hartreedc"> -15069.15271554 </i>
    <i name="XCdc">    -79.93636183 </i>
    <i name="pawpsdc">   1174.75988743 </i>
    <i name="pawaedc">   -854.08749352 </i>
    <i name="eentropy">     -0.02342897 </i>
    <i name="bandstr">   -612.65414372 </i>
    <i name="atom">   3354.04126044 </i>
    <i name="e_fr_energy">   -119.50653522 </i>
    <i name="e_wo_entrp">   -119.48310625 </i>
    <i name="e_0_energy">   -119.49482073 </i>
   </energy>
  </scstep>
  <structure>
   <crystal>
    <varray name="basis" >
     <v>       3.54040000       0.00000000       0.00000000 </v>
     <v>      -1.77020000      10.29434800       0.00000000 </v>
     <v>       0.00000000       0.00000000      27.50142900 </v>
    </varray>
    <i name="volume">   1002.32009712 </i>
    <varray name="rec_basis" >
     <v>       0.28245396       0.04857034       0.00000000 </v>
     <v>       0.00000000       0.09714068       0.00000000 </v>
     <v>       0.00000000       0.00000000       0.03636175 </v>
    </varray>
   </crystal>
   <varray name="positions" >
    <v>       0.11402300       0.22804500       0.23316207 </v>
    <v>       0.71402300       0.12804500       0.51499159 </v>
    <v>       0.45808900       0.91617900       0.20939482 </v>
    <v>       0.05808900       0.81617900       0.49122434 </v>
    <v>       0.31085400       0.62170900       0.08414979 </v>
    <v>       0.31085400       0.62170900       0.36597930 </v>
    <v>       0.99923000       0.99846000       0.08631254 </v>
    <v>       0.99923000       0.99846000       0.36814206 </v>
    <v>       0.65492700       0.30985400       0.06041748 </v>
    <v>       0.65492700       0.30985400       0.34224700 </v>
    <v>       0.76973800       0.53947500       0.20725292 </v>
    <v>       0.36973800       0.43947500       0.48908244 </v>
    <v>       0.93971600       0.87943300       0.15783749 </v>
    <v>       0.53971600       0.77943300       0.43966701 </v>
    <v>       0.20515200       0.41030300       0.18578822 </v>
    <v>       0.80515200       0.31030300       0.46761774 </v>
    <v>       0.20184900       0.40369900       0.09969156 </v>
    <v>       0.20184900       0.40369900       0.38152107 </v>
    <v>       0.56380500       0.12761000       0.10779021 </v>
    <v>       0.56380500       0.12761000       0.38961973 </v>
    <v>       0.56710600       0.13421200       0.19387616 </v>
    <v>       0.16710600       0.03421200       0.47570568 </v>
    <v>       0.82923400       0.65846800       0.13571444 </v>
    <v>       0.42923400       0.55846800       0.41754396 </v>
   </varray>
  </structure>
  <varray name="forces" >
   <v>      -0.02621822      -0.03517597       0.04397815 </v>
   <v>       0.39345055      -0.20969189       0.46349747 </v>
   <v>      -0.00281214      -0.00964244       0.08323635 </v>
   <v>       0.20534857       0.10542699       0.08931339 </v>
   <v>       0.00203476      -0.00346735       0.00606054 </v>
   <v>      -7.45108622       8.81441454     -19.87362363 </v>
   <v>      -0.00498110      -0.00327901      -0.00072107 </v>
   <v>      -0.62251316       0.44725534       1.06088117 </v>
   <v>       0.00067731      -0.00053854       0.01634514 </v>
   <v>      -0.43639396       0.29998762      -0.49283513 </v>
   <v>      -0.00053297       0.00639556       0.09303363 </v>
   <v>       0.51537548      -0.05457234       0.93118930 </v>
   <v>       0.00331228      -0.00338292       0.00472244 </v>
   <v>       0.41584056       0.76136246       0.51010953 </v>
   <v>      -0.00188969       0.01194029       0.06852683 </v>
   <v>       0.13295342      -0.70422220      -0.47782910 </v>
   <v>      -0.00197411       0.00076649      -0.02515096 </v>
   <v>      -2.29909774      -6.73889363      -4.86060955 </v>
   <v>      -0.00752219      -0.01536065      -0.01353060 </v>
   <v>       0.11604949      -0.03853815      -0.27097917 </v>
   <v>       0.00520631      -0.02016748       0.00616416 </v>
   <v>       0.13007282      -0.26392606      -0.35903447 </v>
   <v>      -0.00003843       0.01177484      -0.00294692 </v>
   <v>       8.93473838      -2.35846551      23.00020247 </v>
  </varray>
  <varray name="stress" >
   <v>       5.75671702      -0.40602078      28.50898078 </v>
   <v>      -0.40602067      27.37099736     -12.86235392 </v>
   <v>      28.50898107     -12.86235376      51.90260636 </v>
  </varray>
  <energy>
   <i name="e_fr_energy">   -119.50653522 </i>
   <i name="e_wo_entrp">   -119.49482073 </i>
   <i name="e_0_energy">     -0.02342897 </i>
  </energy>
  <time name="totalsc"> 2407.16 2407.84</time>
  <eigenvalues>
   <array>
    <dimension dim="1">band</dimension>
    <dimension dim="2">kpoint</dimension>
    <dimension dim="3">spin</dimension>
    <field>eigene</field>
    <field>occ</field>
    <set>
     <set comment="spin 1">
      <set comment="kpoint 1">
       <r>  -14.4510    1.0000 </r>
       <r>  -13.5661    1.0000 </r>
       <r>  -12.9138    1.0000 </r>
       <r>  -12.8274    1.0000 </r>
       <r>  -12.5135    1.0000 </r>
       <r>  -12.3029    1.0000 </r>
       <r>  -12.1776    1.0000 </r>
       <r>  -12.0934    1.0000 </r>
       <r>  -11.4588    1.0000 </r>
       <r>  -11.3492    1.0000 </r>
       <r>  -11.0207    1.0000 </r>
       <r>  -10.9253    1.0000 </r>
       <r>   -8.1976    1.0000 </r>
       <r>   -8.0478    1.0000 </r>
       <r>   -7.8540    1.0000 </r>
       <r>   -7.1145    1.0000 </r>
       <r>   -6.9230    1.0000 </r>
       <r>   -6.7746    1.0000 </r>
       <r>   -6.5197    1.0000 </r>
       <r>   -6.4831    1.0000 </r>
       <r>   -5.8555    1.0000 </r>
       <r>   -5.6468    1.0000 </r>
       <r>   -4.7757    1.0000 </r>
       <r>   -4.5541    1.0000 </r>
       <r>   -4.0732    1.0000 </r>
       <r>   -3.7245    1.0000 </r>
       <r>   -3.7069    1.0000 </r>
       <r>   -3.5298    1.0000 </r>
       <r>   -3.2117    1.0000 </r>
       <r>   -3.0891    1.0000 </r>
       <r>   -3.0610    1.0000 </r>
       <r>   -2.8833    1.0000 </r>
       <r>   -2.8708    1.0000 </r>
       <r>   -2.6276    1.0000 </r>
       <r>   -2.4784    1.0000 </r>
       <r>   -2.4264    1.0000 </r>
       <r>   -2.4151    1.0000 </r>
       <r>   -2.2925    1.0000 </r>
       <r>   -2.2285    1.0000 </r>
       <r>   -2.0643    1.0000 </r>
       <r>   -1.8677    1.0000 </r>
       <r>   -1.7563    1.0000 </r>
       <r>   -1.6873    1.0000 </r>
       <r>   -1.6651    1.0000 </r>
       <r>   -1.6068    1.0000 </r>
       <r>   -1.5459    1.0000 </r>
       <r>   -1.4661    1.0000 </r>
       <r>   -1.4579    1.0000 </r>
       <r>   -1.2272    1.0000 </r>
       <r>   -1.0400    1.0000 </r>
       <r>   -1.0121    1.0000 </r>
       <r>   -0.6516    1.0000 </r>
       <r>   -0.0044    0.9929 </r>
       <r>    0.0866    0.8777 </r>
       <r>    0.3749    0.0018 </r>
       <r>    0.8293    0.0000 </r>
       <r>    0.9922    0.0000 </r>
       <r>    1.1819    0.0000 </r>
       <r>    1.2902    0.0000 </r>
       <r>    1.5396    0.0000 </r>
       <r>    1.6948    0.0000 </r>
       <r>    1.8758    0.0000 </r>
       <r>    1.9606    0.0000 </r>
       <r>    2.1085    0.0000 </r>
       <r>    2.3547    0.0000 </r>
       <r>    2.4086    0.0000 </r>
       <r>    2.5349    0.0000 </r>
       <r>    2.6380    0.0000 </r>
      </set>
      <set comment="kpoint 2">
       <r>  -14.4130    1.0000 </r>
       <r>  -13.5048    1.0000 </r>
       <r>  -12.8614    1.0000 </r>
       <r>  -12.7752    1.0000 </r>
       <r>  -12.4579    1.0000 </r>
       <r>  -12.2474    1.0000 </r>
       <r>  -12.1205    1.0000 </r>
       <r>  -12.0325    1.0000 </r>
       <r>  -11.4099    1.0000 </r>
       <r>  -11.3027    1.0000 </r>
       <r>  -10.9720    1.0000 </r>
       <r>  -10.8730    1.0000 </r>
       <r>   -8.1869    1.0000 </r>
       <r>   -8.0838    1.0000 </r>
       <r>   -7.8161    1.0000 </r>
       <r>   -7.1092    1.0000 </r>
       <r>   -6.8892    1.0000 </r>
       <r>   -6.7485    1.0000 </r>
       <r>   -6.5133    1.0000 </r>
       <r>   -6.4610    1.0000 </r>
       <r>   -5.8217    1.0000 </r>
       <r>   -5.6234    1.0000 </r>
       <r>   -4.7776    1.0000 </r>
       <r>   -4.5246    1.0000 </r>
       <r>   -4.0684    1.0000 </r>
       <r>   -3.7640    1.0000 </r>
       <r>   -3.7150    1.0000 </r>
       <r>   -3.6597    1.0000 </r>
       <r>   -3.5000    1.0000 </r>
       <r>   -3.4730    1.0000 </r>
       <r>   -3.3078    1.0000 </r>
       <r>   -3.2318    1.0000 </r>
       <r>   -2.9546    1.0000 </r>
       <r>   -2.9266    1.0000 </r>
       <r>   -2.7562    1.0000 </r>
       <r>   -2.6234    1.0000 </r>
       <r>   -2.5070    1.0000 </r>
       <r>   -2.4469    1.0000 </r>
       <r>   -2.2496    1.0000 </r>
       <r>   -2.2137    1.0000 </r>
       <r>   -2.0588    1.0000 </r>
       <r>   -1.9923    1.0000 </r>
       <r>   -1.9789    1.0000 </r>
       <r>   -1.8935    1.0000 </r>
       <r>   -1.8527    1.0000 </r>
       <r>   -1.7496    1.0000 </r>
       <r>   -1.5929    1.0000 </r>
       <r>   -1.5278    1.0000 </r>
       <r>   -1.2667    1.0000 </r>
       <r>   -1.1441    1.0000 </r>
       <r>   -0.9453    1.0000 </r>
       <r>   -0.6305    1.0000 </r>
       <r>    0.0123    0.9866 </r>
       <r>    0.2030    0.3147 </r>
       <r>    0.4460    0.0000 </r>
       <r>    0.9920    0.0000 </r>
       <r>    1.3135    0.0000 </r>
       <r>    1.5496    0.0000 </r>
       <r>    1.7020    0.0000 </r>
       <r>    1.7612    0.0000 </r>
       <r>    2.0967    0.0000 </r>
       <r>    2.1726    0.0000 </r>
       <r>    2.2244    0.0000 </r>
       <r>    2.2759    0.0000 </r>
       <r>    2.5399    0.0000 </r>
       <r>    2.5836    0.0000 </r>
       <r>    2.7412    0.0000 </r>
       <r>    2.8742    0.0000 </r>
      </set>
      <set comment="kpoint 3">
       <r>  -14.3040    1.0000 </r>
       <r>  -13.3218    1.0000 </r>
       <r>  -12.7048    1.0000 </r>
       <r>  -12.6195    1.0000 </r>
       <r>  -12.2932    1.0000 </r>
       <r>  -12.0836    1.0000 </r>
       <r>  -11.9544    1.0000 </r>
       <r>  -11.8532    1.0000 </r>
       <r>  -11.2681    1.0000 </r>
       <r>  -11.1672    1.0000 </r>
       <r>  -10.8323    1.0000 </r>
       <r>  -10.7194    1.0000 </r>
       <r>   -8.2040    1.0000 </r>
       <r>   -8.1478    1.0000 </r>
       <r>   -7.7741    1.0000 </r>
       <r>   -7.1035    1.0000 </r>
       <r>   -6.8210    1.0000 </r>
       <r>   -6.7015    1.0000 </r>
       <r>   -6.5246    1.0000 </r>
       <r>   -6.4085    1.0000 </r>
       <r>   -5.7464    1.0000 </r>
       <r>   -5.5927    1.0000 </r>
       <r>   -4.8926    1.0000 </r>
       <r>   -4.6827    1.0000 </r>
       <r>   -4.3101    1.0000 </r>
       <r>   -4.2523    1.0000 </r>
       <r>   -4.1321    1.0000 </r>
       <r>   -4.0858    1.0000 </r>
       <r>   -3.9964    1.0000 </r>
       <r>   -3.8733    1.0000 </r>
       <r>   -3.7042    1.0000 </r>
       <r>   -3.5490    1.0000 </r>
       <r>   -3.4721    1.0000 </r>
       <r>   -3.2713    1.0000 </r>
       <r>   -3.1694    1.0000 </r>
       <r>   -3.0333    1.0000 </r>
       <r>   -2.9921    1.0000 </r>
       <r>   -2.9293    1.0000 </r>
       <r>   -2.7351    1.0000 </r>
       <r>   -2.6454    1.0000 </r>
       <r>   -2.4181    1.0000 </r>
       <r>   -2.3286    1.0000 </r>
       <r>   -2.1877    1.0000 </r>
       <r>   -2.1592    1.0000 </r>
       <r>   -2.0316    1.0000 </r>
       <r>   -1.9345    1.0000 </r>
       <r>   -1.7698    1.0000 </r>
       <r>   -1.6696    1.0000 </r>
       <r>   -1.2771    1.0000 </r>
       <r>   -1.1773    1.0000 </r>
       <r>   -0.9553    1.0000 </r>
       <r>   -0.6517    1.0000 </r>
       <r>    0.0212    0.9816 </r>
       <r>    0.2352    0.1742 </r>
       <r>    0.4876    0.0000 </r>
       <r>    1.1096    0.0000 </r>
       <r>    1.5196    0.0000 </r>
       <r>    1.9187    0.0000 </r>
       <r>    1.9799    0.0000 </r>
       <r>    2.2370    0.0000 </r>
       <r>    2.3950    0.0000 </r>
       <r>    2.5378    0.0000 </r>
       <r>    2.6275    0.0000 </r>
       <r>    2.6505    0.0000 </r>
       <r>    2.8254    0.0000 </r>
       <r>    2.9044    0.0000 </r>
       <r>    2.9632    0.0000 </r>
       <r>    3.0413    0.0000 </r>
      </set>
      <set comment="kpoint 4">
       <r>  -14.1398    1.0000 </r>
       <r>  -13.0208    1.0000 </r>
       <r>  -12.4470    1.0000 </r>
       <r>  -12.3632    1.0000 </r>
       <r>  -12.0264    1.0000 </r>
       <r>  -11.8200    1.0000 </r>
       <r>  -11.6941    1.0000 </r>
       <r>  -11.5686    1.0000 </r>
       <r>  -11.0514    1.0000 </r>
       <r>  -10.9581    1.0000 </r>
       <r>  -10.6280    1.0000 </r>
       <r>  -10.4765    1.0000 </r>
       <r>   -8.3849    1.0000 </r>
       <r>   -8.2109    1.0000 </r>
       <r>   -7.8487    1.0000 </r>
       <r>   -7.1492    1.0000 </r>
       <r>   -6.8559    1.0000 </r>
       <r>   -6.7133    1.0000 </r>
       <r>   -6.6583    1.0000 </r>
       <r>   -6.3723    1.0000 </r>
       <r>   -5.7744    1.0000 </r>
       <r>   -5.7583    1.0000 </r>
       <r>   -5.3749    1.0000 </r>
       <r>   -5.3514    1.0000 </r>
       <r>   -4.8436    1.0000 </r>
       <r>   -4.8292    1.0000 </r>
       <r>   -4.6331    1.0000 </r>
       <r>   -4.5368    1.0000 </r>
       <r>   -4.2804    1.0000 </r>
       <r>   -4.1953    1.0000 </r>
       <r>   -4.0834    1.0000 </r>
       <r>   -3.9627    1.0000 </r>
       <r>   -3.8258    1.0000 </r>
       <r>   -3.7816    1.0000 </r>
       <r>   -3.5229    1.0000 </r>
       <r>   -3.4930    1.0000 </r>
       <r>   -3.2603    1.0000 </r>
       <r>   -3.1133    1.0000 </r>
       <r>   -3.0054    1.0000 </r>
       <r>   -2.7688    1.0000 </r>
       <r>   -2.6375    1.0000 </r>
       <r>   -2.5249    1.0000 </r>
       <r>   -2.4523    1.0000 </r>
       <r>   -2.2724    1.0000 </r>
       <r>   -2.0842    1.0000 </r>
       <r>   -1.9247    1.0000 </r>
       <r>   -1.8409    1.0000 </r>
       <r>   -1.7379    1.0000 </r>
       <r>   -1.4907    1.0000 </r>
       <r>   -1.1700    1.0000 </r>
       <r>   -1.1009    1.0000 </r>
       <r>   -0.7200    1.0000 </r>
       <r>   -0.0699    0.9996 </r>
       <r>    0.0834    0.8867 </r>
       <r>    0.3402    0.0077 </r>
       <r>    1.0830    0.0000 </r>
       <r>    1.2239    0.0000 </r>
       <r>    1.7298    0.0000 </r>
       <r>    1.8555    0.0000 </r>
       <r>    1.9944    0.0000 </r>
       <r>    2.2230    0.0000 </r>
       <r>    2.2481    0.0000 </r>
       <r>    2.3455    0.0000 </r>
       <r>    2.6098    0.0000 </r>
       <r>    2.6830    0.0000 </r>
       <r>    2.8553    0.0000 </r>
       <r>    2.8887    0.0000 </r>
       <r>    2.9642    0.0000 </r>
      </set>
      <set comment="kpoint 5">
       <r>  -13.9496    1.0000 </r>
       <r>  -12.6090    1.0000 </r>
       <r>  -12.0954    1.0000 </r>
       <r>  -12.0149    1.0000 </r>
       <r>  -11.6743    1.0000 </r>
       <r>  -11.4769    1.0000 </r>
       <r>  -11.3687    1.0000 </r>
       <r>  -11.2127    1.0000 </r>
       <r>  -10.8075    1.0000 </r>
       <r>  -10.7195    1.0000 </r>
       <r>  -10.4410    1.0000 </r>
       <r>  -10.1734    1.0000 </r>
       <r>   -8.6793    1.0000 </r>
       <r>   -8.4226    1.0000 </r>
       <r>   -8.1097    1.0000 </r>
       <r>   -7.3560    1.0000 </r>
       <r>   -7.1361    1.0000 </r>
       <r>   -7.0189    1.0000 </r>
       <r>   -6.9270    1.0000 </r>
       <r>   -6.5335    1.0000 </r>
       <r>   -6.2750    1.0000 </r>
       <r>   -6.1873    1.0000 </r>
       <r>   -5.9896    1.0000 </r>
       <r>   -5.8598    1.0000 </r>
       <r>   -5.2362    1.0000 </r>
       <r>   -5.1303    1.0000 </r>
       <r>   -4.8229    1.0000 </r>
       <r>   -4.7292    1.0000 </r>
       <r>   -4.6429    1.0000 </r>
       <r>   -4.5269    1.0000 </r>
       <r>   -4.3310    1.0000 </r>
       <r>   -4.2453    1.0000 </r>
       <r>   -4.1543    1.0000 </r>
       <r>   -3.8775    1.0000 </r>
       <r>   -3.5746    1.0000 </r>
       <r>   -3.4162    1.0000 </r>
       <r>   -3.1573    1.0000 </r>
       <r>   -3.1067    1.0000 </r>
       <r>   -3.0571    1.0000 </r>
       <r>   -2.8743    1.0000 </r>
       <r>   -2.8134    1.0000 </r>
       <r>   -2.6495    1.0000 </r>
       <r>   -2.6164    1.0000 </r>
       <r>   -2.3628    1.0000 </r>
       <r>   -2.1725    1.0000 </r>
       <r>   -2.0795    1.0000 </r>
       <r>   -1.9056    1.0000 </r>
       <r>   -1.8894    1.0000 </r>
       <r>   -1.7366    1.0000 </r>
       <r>   -1.3358    1.0000 </r>
       <r>   -1.1552    1.0000 </r>
       <r>   -0.7923    1.0000 </r>
       <r>   -0.3644    1.0000 </r>
       <r>   -0.1301    1.0000 </r>
       <r>    0.1313    0.7023 </r>
       <r>    0.7706    0.0000 </r>
       <r>    0.9370    0.0000 </r>
       <r>    1.4914    0.0000 </r>
       <r>    1.5752    0.0000 </r>
       <r>    1.7556    0.0000 </r>
       <r>    1.9414    0.0000 </r>
       <r>    1.9812    0.0000 </r>
       <r>    2.2022    0.0000 </r>
       <r>    2.3528    0.0000 </r>
       <r>    2.4136    0.0000 </r>
       <r>    2.6399    0.0000 </r>
       <r>    2.7242    0.0000 </r>
       <r>    2.7941    0.0000 </r>
      </set>
      <set comment="kpoint 6">
       <r>  -13.7765    1.0000 </r>
       <r>  -12.1006    1.0000 </r>
       <r>  -11.6680    1.0000 </r>
       <r>  -11.5957    1.0000 </r>
       <r>  -11.2750    1.0000 </r>
       <r>  -11.1078    1.0000 </r>
       <r>  -11.0310    1.0000 </r>
       <r>  -10.8717    1.0000 </r>
       <r>  -10.6533    1.0000 </r>
       <r>  -10.5693    1.0000 </r>
       <r>  -10.4809    1.0000 </r>
       <r>   -9.8776    1.0000 </r>
       <r>   -8.8558    1.0000 </r>
       <r>   -8.7034    1.0000 </r>
       <r>   -8.4022    1.0000 </r>
       <r>   -7.7224    1.0000 </r>
       <r>   -7.5366    1.0000 </r>
       <r>   -7.4844    1.0000 </r>
       <r>   -7.4363    1.0000 </r>
       <r>   -7.0921    1.0000 </r>
       <r>   -6.7867    1.0000 </r>
       <r>   -6.6892    1.0000 </r>
       <r>   -6.6551    1.0000 </r>
       <r>   -6.1364    1.0000 </r>
       <r>   -5.2551    1.0000 </r>
       <r>   -5.2252    1.0000 </r>
       <r>   -5.0522    1.0000 </r>
       <r>   -4.6878    1.0000 </r>
       <r>   -4.5563    1.0000 </r>
       <r>   -4.5059    1.0000 </r>
       <r>   -4.2602    1.0000 </r>
       <r>   -4.1099    1.0000 </r>
       <r>   -4.0341    1.0000 </r>
       <r>   -3.7107    1.0000 </r>
       <r>   -3.6808    1.0000 </r>
       <r>   -3.4399    1.0000 </r>
       <r>   -3.2927    1.0000 </r>
       <r>   -3.1887    1.0000 </r>
       <r>   -3.1194    1.0000 </r>
       <r>   -3.0354    1.0000 </r>
       <r>   -2.8219    1.0000 </r>
       <r>   -2.7012    1.0000 </r>
       <r>   -2.6126    1.0000 </r>
       <r>   -2.4985    1.0000 </r>
       <r>   -2.3684    1.0000 </r>
       <r>   -2.2893    1.0000 </r>
       <r>   -2.0864    1.0000 </r>
       <r>   -2.0455    1.0000 </r>
       <r>   -1.8640    1.0000 </r>
       <r>   -1.4561    1.0000 </r>
       <r>   -1.2337    1.0000 </r>
       <r>   -0.8419    1.0000 </r>
       <r>   -0.6546    1.0000 </r>
       <r>   -0.3815    1.0000 </r>
       <r>   -0.0195    0.9961 </r>
       <r>    0.5203    0.0000 </r>
       <r>    0.6270    0.0000 </r>
       <r>    1.2795    0.0000 </r>
       <r>    1.3933    0.0000 </r>
       <r>    1.6485    0.0000 </r>
       <r>    1.7077    0.0000 </r>
       <r>    1.8848    0.0000 </r>
       <r>    2.0631    0.0000 </r>
       <r>    2.2285    0.0000 </r>
       <r>    2.2596    0.0000 </r>
       <r>    2.3304    0.0000 </r>
       <r>    2.4805    0.0000 </r>
       <r>    2.7271    0.0000 </r>
      </set>
      <set comment="kpoint 7">
       <r>  -13.6714    1.0000 </r>
       <r>  -11.5268    1.0000 </r>
       <r>  -11.2198    1.0000 </r>
       <r>  -11.1732    1.0000 </r>
       <r>  -10.9695    1.0000 </r>
       <r>  -10.8947    1.0000 </r>
       <r>  -10.8690    1.0000 </r>
       <r>  -10.7764    1.0000 </r>
       <r>  -10.7543    1.0000 </r>
       <r>  -10.6609    1.0000 </r>
       <r>  -10.6368    1.0000 </r>
       <r>   -9.7158    1.0000 </r>
       <r>   -8.7891    1.0000 </r>
       <r>   -8.7136    1.0000 </r>
       <r>   -8.4651    1.0000 </r>
       <r>   -8.1045    1.0000 </r>
       <r>   -8.0342    1.0000 </r>
       <r>   -7.8292    1.0000 </r>
       <r>   -7.5943    1.0000 </r>
       <r>   -7.4075    1.0000 </r>
       <r>   -7.3092    1.0000 </r>
       <r>   -7.2081    1.0000 </r>
       <r>   -7.1592    1.0000 </r>
       <r>   -6.1406    1.0000 </r>
       <r>   -5.4050    1.0000 </r>
       <r>   -5.1326    1.0000 </r>
       <r>   -4.9409    1.0000 </r>
       <r>   -4.5282    1.0000 </r>
       <r>   -4.3359    1.0000 </r>
       <r>   -4.2088    1.0000 </r>
       <r>   -4.0785    1.0000 </r>
       <r>   -3.9831    1.0000 </r>
       <r>   -3.8569    1.0000 </r>
       <r>   -3.8218    1.0000 </r>
       <r>   -3.6750    1.0000 </r>
       <r>   -3.6032    1.0000 </r>
       <r>   -3.4870    1.0000 </r>
       <r>   -3.2842    1.0000 </r>
       <r>   -3.2259    1.0000 </r>
       <r>   -3.0356    1.0000 </r>
       <r>   -2.9822    1.0000 </r>
       <r>   -2.8208    1.0000 </r>
       <r>   -2.7143    1.0000 </r>
       <r>   -2.6115    1.0000 </r>
       <r>   -2.4243    1.0000 </r>
       <r>   -2.3620    1.0000 </r>
       <r>   -2.2176    1.0000 </r>
       <r>   -2.1101    1.0000 </r>
       <r>   -1.7439    1.0000 </r>
       <r>   -1.5548    1.0000 </r>
       <r>   -1.3345    1.0000 </r>
       <r>   -0.9037    1.0000 </r>
       <r>   -0.8472    1.0000 </r>
       <r>   -0.4207    1.0000 </r>
       <r>   -0.2043    1.0000 </r>
       <r>    0.4049    0.0004 </r>
       <r>    0.4808    0.0000 </r>
       <r>    1.1525    0.0000 </r>
       <r>    1.3484    0.0000 </r>
       <r>    1.5468    0.0000 </r>
       <r>    1.6383    0.0000 </r>
       <r>    1.8435    0.0000 </r>
       <r>    1.8905    0.0000 </r>
       <r>    2.0583    0.0000 </r>
       <r>    2.1136    0.0000 </r>
       <r>    2.3609    0.0000 </r>
       <r>    2.4456    0.0000 </r>
       <r>    2.5102    0.0000 </r>
      </set>
      <set comment="kpoint 8">
       <r>  -14.4461    1.0000 </r>
       <r>  -13.5106    1.0000 </r>
       <r>  -13.0019    1.0000 </r>
       <r>  -12.9703    1.0000 </r>
       <r>  -12.5118    1.0000 </r>
       <r>  -12.2719    1.0000 </r>
       <r>  -12.1020    1.0000 </r>
       <r>  -11.8937    1.0000 </r>
       <r>  -11.5038    1.0000 </r>
       <r>  -11.3817    1.0000 </r>
       <r>  -11.0283    1.0000 </r>
       <r>  -10.9226    1.0000 </r>
       <r>   -8.5428    1.0000 </r>
       <r>   -8.1728    1.0000 </r>
       <r>   -7.4768    1.0000 </r>
       <r>   -7.3979    1.0000 </r>
       <r>   -6.7566    1.0000 </r>
       <r>   -6.6951    1.0000 </r>
       <r>   -6.6083    1.0000 </r>
       <r>   -6.2258    1.0000 </r>
       <r>   -5.7762    1.0000 </r>
       <r>   -5.5484    1.0000 </r>
       <r>   -4.6722    1.0000 </r>
       <r>   -4.3773    1.0000 </r>
       <r>   -4.1453    1.0000 </r>
       <r>   -4.0365    1.0000 </r>
       <r>   -3.7025    1.0000 </r>
       <r>   -3.6444    1.0000 </r>
       <r>   -3.3703    1.0000 </r>
       <r>   -3.1548    1.0000 </r>
       <r>   -3.0841    1.0000 </r>
       <r>   -2.9295    1.0000 </r>
       <r>   -2.7356    1.0000 </r>
       <r>   -2.6012    1.0000 </r>
       <r>   -2.5505    1.0000 </r>
       <r>   -2.4154    1.0000 </r>
       <r>   -2.3796    1.0000 </r>
       <r>   -2.3141    1.0000 </r>
       <r>   -2.2129    1.0000 </r>
       <r>   -2.1384    1.0000 </r>
       <r>   -1.9951    1.0000 </r>
       <r>   -1.9093    1.0000 </r>
       <r>   -1.7789    1.0000 </r>
       <r>   -1.6532    1.0000 </r>
       <r>   -1.5490    1.0000 </r>
       <r>   -1.4720    1.0000 </r>
       <r>   -1.4090    1.0000 </r>
       <r>   -1.3894    1.0000 </r>
       <r>   -1.1684    1.0000 </r>
       <r>   -1.0553    1.0000 </r>
       <r>   -0.9632    1.0000 </r>
       <r>   -0.8753    1.0000 </r>
       <r>   -0.0030    0.9925 </r>
       <r>    0.4097    0.0003 </r>
       <r>    0.4899    0.0000 </r>
       <r>    0.9194    0.0000 </r>
       <r>    1.0539    0.0000 </r>
       <r>    1.1872    0.0000 </r>
       <r>    1.3669    0.0000 </r>
       <r>    1.5542    0.0000 </r>
       <r>    1.7041    0.0000 </r>
       <r>    1.8017    0.0000 </r>
       <r>    1.8712    0.0000 </r>
       <r>    2.2322    0.0000 </r>
       <r>    2.3355    0.0000 </r>
       <r>    2.5316    0.0000 </r>
       <r>    2.6217    0.0000 </r>
       <r>    2.6956    0.0000 </r>
      </set>
      <set comment="kpoint 9">
       <r>  -14.4073    1.0000 </r>
       <r>  -13.4337    1.0000 </r>
       <r>  -12.9825    1.0000 </r>
       <r>  -12.9272    1.0000 </r>
       <r>  -12.4547    1.0000 </r>
       <r>  -12.2105    1.0000 </r>
       <r>  -12.0370    1.0000 </r>
       <r>  -11.7945    1.0000 </r>
       <r>  -11.4624    1.0000 </r>
       <r>  -11.3370    1.0000 </r>
       <r>  -10.9836    1.0000 </r>
       <r>  -10.8722    1.0000 </r>
       <r>   -8.6009    1.0000 </r>
       <r>   -8.1600    1.0000 </r>
       <r>   -7.5010    1.0000 </r>
       <r>   -7.3539    1.0000 </r>
       <r>   -6.7300    1.0000 </r>
       <r>   -6.6956    1.0000 </r>
       <r>   -6.5463    1.0000 </r>
       <r>   -6.1458    1.0000 </r>
       <r>   -5.7267    1.0000 </r>
       <r>   -5.5018    1.0000 </r>
       <r>   -4.7161    1.0000 </r>
       <r>   -4.4142    1.0000 </r>
       <r>   -4.1754    1.0000 </r>
       <r>   -4.0985    1.0000 </r>
       <r>   -3.7297    1.0000 </r>
       <r>   -3.6715    1.0000 </r>
       <r>   -3.5785    1.0000 </r>
       <r>   -3.4883    1.0000 </r>
       <r>   -3.4085    1.0000 </r>
       <r>   -3.0637    1.0000 </r>
       <r>   -3.0065    1.0000 </r>
       <r>   -2.8866    1.0000 </r>
       <r>   -2.7071    1.0000 </r>
       <r>   -2.6647    1.0000 </r>
       <r>   -2.5765    1.0000 </r>
       <r>   -2.5081    1.0000 </r>
       <r>   -2.3399    1.0000 </r>
       <r>   -2.2513    1.0000 </r>
       <r>   -2.1648    1.0000 </r>
       <r>   -2.1185    1.0000 </r>
       <r>   -2.0289    1.0000 </r>
       <r>   -1.8721    1.0000 </r>
       <r>   -1.8390    1.0000 </r>
       <r>   -1.7711    1.0000 </r>
       <r>   -1.5266    1.0000 </r>
       <r>   -1.3852    1.0000 </r>
       <r>   -1.2197    1.0000 </r>
       <r>   -1.1019    1.0000 </r>
       <r>   -0.9191    1.0000 </r>
       <r>   -0.8579    1.0000 </r>
       <r>    0.0465    0.9583 </r>
       <r>    0.4499    0.0000 </r>
       <r>    0.5839    0.0000 </r>
       <r>    1.1834    0.0000 </r>
       <r>    1.3236    0.0000 </r>
       <r>    1.5685    0.0000 </r>
       <r>    1.7059    0.0000 </r>
       <r>    1.8210    0.0000 </r>
       <r>    1.9312    0.0000 </r>
       <r>    2.1187    0.0000 </r>
       <r>    2.2076    0.0000 </r>
       <r>    2.4760    0.0000 </r>
       <r>    2.5697    0.0000 </r>
       <r>    2.6305    0.0000 </r>
       <r>    2.9090    0.0000 </r>
       <r>    2.9752    0.0000 </r>
      </set>
      <set comment="kpoint 10">
       <r>  -14.2986    1.0000 </r>
       <r>  -13.2371    1.0000 </r>
       <r>  -12.8460    1.0000 </r>
       <r>  -12.7707    1.0000 </r>
       <r>  -12.2883    1.0000 </r>
       <r>  -12.0428    1.0000 </r>
       <r>  -11.8786    1.0000 </r>
       <r>  -11.5969    1.0000 </r>
       <r>  -11.3229    1.0000 </r>
       <r>  -11.1942    1.0000 </r>
       <r>  -10.8419    1.0000 </r>
       <r>  -10.7238    1.0000 </r>
       <r>   -8.6662    1.0000 </r>
       <r>   -8.1397    1.0000 </r>
       <r>   -7.4844    1.0000 </r>
       <r>   -7.3257    1.0000 </r>
       <r>   -6.6892    1.0000 </r>
       <r>   -6.6478    1.0000 </r>
       <r>   -6.5145    1.0000 </r>
       <r>   -6.0911    1.0000 </r>
       <r>   -5.6785    1.0000 </r>
       <r>   -5.5395    1.0000 </r>
       <r>   -4.8686    1.0000 </r>
       <r>   -4.7805    1.0000 </r>
       <r>   -4.4109    1.0000 </r>
       <r>   -4.3321    1.0000 </r>
       <r>   -4.2490    1.0000 </r>
       <r>   -4.1455    1.0000 </r>
       <r>   -3.9994    1.0000 </r>
       <r>   -3.7062    1.0000 </r>
       <r>   -3.6444    1.0000 </r>
       <r>   -3.5867    1.0000 </r>
       <r>   -3.4510    1.0000 </r>
       <r>   -3.2324    1.0000 </r>
       <r>   -3.1296    1.0000 </r>
       <r>   -3.0230    1.0000 </r>
       <r>   -2.9866    1.0000 </r>
       <r>   -2.8451    1.0000 </r>
       <r>   -2.7446    1.0000 </r>
       <r>   -2.6281    1.0000 </r>
       <r>   -2.5802    1.0000 </r>
       <r>   -2.5421    1.0000 </r>
       <r>   -2.3426    1.0000 </r>
       <r>   -2.1614    1.0000 </r>
       <r>   -2.0262    1.0000 </r>
       <r>   -1.9158    1.0000 </r>
       <r>   -1.8589    1.0000 </r>
       <r>   -1.5127    1.0000 </r>
       <r>   -1.2730    1.0000 </r>
       <r>   -1.1611    1.0000 </r>
       <r>   -0.9186    1.0000 </r>
       <r>   -0.8118    1.0000 </r>
       <r>    0.0138    0.9859 </r>
       <r>    0.3470    0.0059 </r>
       <r>    0.6086    0.0000 </r>
       <r>    1.2617    0.0000 </r>
       <r>    1.4766    0.0000 </r>
       <r>    1.6917    0.0000 </r>
       <r>    2.0245    0.0000 </r>
       <r>    2.0914    0.0000 </r>
       <r>    2.3132    0.0000 </r>
       <r>    2.4463    0.0000 </r>
       <r>    2.6989    0.0000 </r>
       <r>    2.8035    0.0000 </r>
       <r>    2.8937    0.0000 </r>
       <r>    3.0087    0.0000 </r>
       <r>    3.0677    0.0000 </r>
       <r>    3.1050    0.0000 </r>
      </set>
      <set comment="kpoint 11">
       <r>  -14.1356    1.0000 </r>
       <r>  -12.9257    1.0000 </r>
       <r>  -12.5946    1.0000 </r>
       <r>  -12.5040    1.0000 </r>
       <r>  -12.0206    1.0000 </r>
       <r>  -11.7777    1.0000 </r>
       <r>  -11.6400    1.0000 </r>
       <r>  -11.3205    1.0000 </r>
       <r>  -11.1012    1.0000 </r>
       <r>  -10.9705    1.0000 </r>
       <r>  -10.6238    1.0000 </r>
       <r>  -10.4894    1.0000 </r>
       <r>   -8.7971    1.0000 </r>
       <r>   -8.1811    1.0000 </r>
       <r>   -7.4690    1.0000 </r>
       <r>   -7.4153    1.0000 </r>
       <r>   -6.7215    1.0000 </r>
       <r>   -6.6855    1.0000 </r>
       <r>   -6.6157    1.0000 </r>
       <r>   -6.1631    1.0000 </r>
       <r>   -5.9700    1.0000 </r>
       <r>   -5.8452    1.0000 </r>
       <r>   -5.3706    1.0000 </r>
       <r>   -5.2299    1.0000 </r>
       <r>   -5.0561    1.0000 </r>
       <r>   -4.6956    1.0000 </r>
       <r>   -4.6648    1.0000 </r>
       <r>   -4.5750    1.0000 </r>
       <r>   -4.3478    1.0000 </r>
       <r>   -4.2344    1.0000 </r>
       <r>   -4.0504    1.0000 </r>
       <r>   -3.9592    1.0000 </r>
       <r>   -3.7614    1.0000 </r>
       <r>   -3.5804    1.0000 </r>
       <r>   -3.3819    1.0000 </r>
       <r>   -3.2467    1.0000 </r>
       <r>   -3.2121    1.0000 </r>
       <r>   -3.1430    1.0000 </r>
       <r>   -3.1158    1.0000 </r>
       <r>   -2.7908    1.0000 </r>
       <r>   -2.6987    1.0000 </r>
       <r>   -2.5920    1.0000 </r>
       <r>   -2.5524    1.0000 </r>
       <r>   -2.2435    1.0000 </r>
       <r>   -2.1428    1.0000 </r>
       <r>   -1.9929    1.0000 </r>
       <r>   -1.8842    1.0000 </r>
       <r>   -1.7938    1.0000 </r>
       <r>   -1.4156    1.0000 </r>
       <r>   -1.2236    1.0000 </r>
       <r>   -1.0635    1.0000 </r>
       <r>   -0.7934    1.0000 </r>
       <r>   -0.1966    1.0000 </r>
       <r>    0.1116    0.7911 </r>
       <r>    0.4397    0.0001 </r>
       <r>    0.9840    0.0000 </r>
       <r>    1.1776    0.0000 </r>
       <r>    1.4425    0.0000 </r>
       <r>    1.5850    0.0000 </r>
       <r>    1.7545    0.0000 </r>
       <r>    2.1217    0.0000 </r>
       <r>    2.1926    0.0000 </r>
       <r>    2.5264    0.0000 </r>
       <r>    2.6397    0.0000 </r>
       <r>    2.6853    0.0000 </r>
       <r>    3.0117    0.0000 </r>
       <r>    3.0380    0.0000 </r>
       <r>    3.2121    0.0000 </r>
      </set>
      <set comment="kpoint 12">
       <r>  -13.9471    1.0000 </r>
       <r>  -12.5089    1.0000 </r>
       <r>  -12.2355    1.0000 </r>
       <r>  -12.1365    1.0000 </r>
       <r>  -11.6691    1.0000 </r>
       <r>  -11.4383    1.0000 </r>
       <r>  -11.3408    1.0000 </r>
       <r>  -11.0070    1.0000 </r>
       <r>  -10.8375    1.0000 </r>
       <r>  -10.7206    1.0000 </r>
       <r>  -10.4175    1.0000 </r>
       <r>  -10.1949    1.0000 </r>
       <r>   -8.9961    1.0000 </r>
       <r>   -8.3616    1.0000 </r>
       <r>   -7.7326    1.0000 </r>
       <r>   -7.5740    1.0000 </r>
       <r>   -7.1390    1.0000 </r>
       <r>   -6.9864    1.0000 </r>
       <r>   -6.8940    1.0000 </r>
       <r>   -6.6163    1.0000 </r>
       <r>   -6.3659    1.0000 </r>
       <r>   -6.2095    1.0000 </r>
       <r>   -5.9461    1.0000 </r>
       <r>   -5.8901    1.0000 </r>
       <r>   -5.4065    1.0000 </r>
       <r>   -5.0229    1.0000 </r>
       <r>   -4.9587    1.0000 </r>
       <r>   -4.7846    1.0000 </r>
       <r>   -4.5029    1.0000 </r>
       <r>   -4.4392    1.0000 </r>
       <r>   -4.3364    1.0000 </r>
       <r>   -4.1765    1.0000 </r>
       <r>   -4.0366    1.0000 </r>
       <r>   -3.7585    1.0000 </r>
       <r>   -3.3791    1.0000 </r>
       <r>   -3.3289    1.0000 </r>
       <r>   -3.1840    1.0000 </r>
       <r>   -3.0562    1.0000 </r>
       <r>   -2.9977    1.0000 </r>
       <r>   -2.8907    1.0000 </r>
       <r>   -2.7965    1.0000 </r>
       <r>   -2.6673    1.0000 </r>
       <r>   -2.5516    1.0000 </r>
       <r>   -2.4362    1.0000 </r>
       <r>   -2.2906    1.0000 </r>
       <r>   -2.1388    1.0000 </r>
       <r>   -1.9757    1.0000 </r>
       <r>   -1.8976    1.0000 </r>
       <r>   -1.7716    1.0000 </r>
       <r>   -1.3421    1.0000 </r>
       <r>   -1.2000    1.0000 </r>
       <r>   -0.8214    1.0000 </r>
       <r>   -0.4857    1.0000 </r>
       <r>   -0.2165    1.0000 </r>
       <r>    0.2192    0.2382 </r>
       <r>    0.5089    0.0000 </r>
       <r>    0.8397    0.0000 </r>
       <r>    1.2048    0.0000 </r>
       <r>    1.2520    0.0000 </r>
       <r>    1.4978    0.0000 </r>
       <r>    1.8610    0.0000 </r>
       <r>    2.1433    0.0000 </r>
       <r>    2.2428    0.0000 </r>
       <r>    2.3458    0.0000 </r>
       <r>    2.4425    0.0000 </r>
       <r>    2.6051    0.0000 </r>
       <r>    2.8743    0.0000 </r>
       <r>    2.9672    0.0000 </r>
      </set>
      <set comment="kpoint 13">
       <r>  -13.7755    1.0000 </r>
       <r>  -12.0053    1.0000 </r>
       <r>  -11.7855    1.0000 </r>
       <r>  -11.6905    1.0000 </r>
       <r>  -11.2734    1.0000 </r>
       <r>  -11.0874    1.0000 </r>
       <r>  -11.0115    1.0000 </r>
       <r>  -10.7494    1.0000 </r>
       <r>  -10.6267    1.0000 </r>
       <r>  -10.5812    1.0000 </r>
       <r>  -10.4936    1.0000 </r>
       <r>   -9.8929    1.0000 </r>
       <r>   -8.9864    1.0000 </r>
       <r>   -8.6272    1.0000 </r>
       <r>   -8.1364    1.0000 </r>
       <r>   -7.8407    1.0000 </r>
       <r>   -7.8047    1.0000 </r>
       <r>   -7.4420    1.0000 </r>
       <r>   -7.3776    1.0000 </r>
       <r>   -7.1129    1.0000 </r>
       <r>   -6.7247    1.0000 </r>
       <r>   -6.7102    1.0000 </r>
       <r>   -6.6829    1.0000 </r>
       <r>   -6.1940    1.0000 </r>
       <r>   -5.3702    1.0000 </r>
       <r>   -5.2568    1.0000 </r>
       <r>   -5.0412    1.0000 </r>
       <r>   -4.8119    1.0000 </r>
       <r>   -4.5851    1.0000 </r>
       <r>   -4.4158    1.0000 </r>
       <r>   -4.1526    1.0000 </r>
       <r>   -3.9974    1.0000 </r>
       <r>   -3.8860    1.0000 </r>
       <r>   -3.6241    1.0000 </r>
       <r>   -3.4051    1.0000 </r>
       <r>   -3.3741    1.0000 </r>
       <r>   -3.3079    1.0000 </r>
       <r>   -3.1537    1.0000 </r>
       <r>   -3.1247    1.0000 </r>
       <r>   -2.9447    1.0000 </r>
       <r>   -2.9158    1.0000 </r>
       <r>   -2.7846    1.0000 </r>
       <r>   -2.6948    1.0000 </r>
       <r>   -2.5394    1.0000 </r>
       <r>   -2.3566    1.0000 </r>
       <r>   -2.2702    1.0000 </r>
       <r>   -2.1108    1.0000 </r>
       <r>   -2.0718    1.0000 </r>
       <r>   -1.8788    1.0000 </r>
       <r>   -1.5210    1.0000 </r>
       <r>   -1.3078    1.0000 </r>
       <r>   -0.9219    1.0000 </r>
       <r>   -0.6127    1.0000 </r>
       <r>   -0.4530    1.0000 </r>
       <r>   -0.1029    0.9999 </r>
       <r>    0.4079    0.0004 </r>
       <r>    0.5334    0.0000 </r>
       <r>    1.1523    0.0000 </r>
       <r>    1.2517    0.0000 </r>
       <r>    1.3177    0.0000 </r>
       <r>    1.7190    0.0000 </r>
       <r>    1.8180    0.0000 </r>
       <r>    2.0176    0.0000 </r>
       <r>    2.0872    0.0000 </r>
       <r>    2.2270    0.0000 </r>
       <r>    2.5739    0.0000 </r>
       <r>    2.6329    0.0000 </r>
       <r>    2.7682    0.0000 </r>
      </set>
      <set comment="kpoint 14">
       <r>  -13.6712    1.0000 </r>
       <r>  -11.4556    1.0000 </r>
       <r>  -11.2904    1.0000 </r>
       <r>  -11.2272    1.0000 </r>
       <r>  -10.9823    1.0000 </r>
       <r>  -10.8984    1.0000 </r>
       <r>  -10.8811    1.0000 </r>
       <r>  -10.7664    1.0000 </r>
       <r>  -10.7260    1.0000 </r>
       <r>  -10.6452    1.0000 </r>
       <r>  -10.6057    1.0000 </r>
       <r>   -9.7084    1.0000 </r>
       <r>   -8.8067    1.0000 </r>
       <r>   -8.5804    1.0000 </r>
       <r>   -8.4257    1.0000 </r>
       <r>   -8.3527    1.0000 </r>
       <r>   -8.0229    1.0000 </r>
       <r>   -7.7823    1.0000 </r>
       <r>   -7.5398    1.0000 </r>
       <r>   -7.4380    1.0000 </r>
       <r>   -7.3385    1.0000 </r>
       <r>   -7.1671    1.0000 </r>
       <r>   -7.1597    1.0000 </r>
       <r>   -6.1914    1.0000 </r>
       <r>   -5.4857    1.0000 </r>
       <r>   -5.0604    1.0000 </r>
       <r>   -5.0258    1.0000 </r>
       <r>   -4.4998    1.0000 </r>
       <r>   -4.2993    1.0000 </r>
       <r>   -4.1764    1.0000 </r>
       <r>   -4.1323    1.0000 </r>
       <r>   -3.9601    1.0000 </r>
       <r>   -3.8079    1.0000 </r>
       <r>   -3.6860    1.0000 </r>
       <r>   -3.6589    1.0000 </r>
       <r>   -3.5426    1.0000 </r>
       <r>   -3.5064    1.0000 </r>
       <r>   -3.2912    1.0000 </r>
       <r>   -3.1971    1.0000 </r>
       <r>   -3.0193    1.0000 </r>
       <r>   -2.9956    1.0000 </r>
       <r>   -2.8202    1.0000 </r>
       <r>   -2.6731    1.0000 </r>
       <r>   -2.6325    1.0000 </r>
       <r>   -2.6026    1.0000 </r>
       <r>   -2.3568    1.0000 </r>
       <r>   -2.1714    1.0000 </r>
       <r>   -2.1385    1.0000 </r>
       <r>   -1.7394    1.0000 </r>
       <r>   -1.5887    1.0000 </r>
       <r>   -1.3630    1.0000 </r>
       <r>   -1.0074    1.0000 </r>
       <r>   -0.7249    1.0000 </r>
       <r>   -0.4432    1.0000 </r>
       <r>   -0.1849    1.0000 </r>
       <r>    0.3836    0.0012 </r>
       <r>    0.4736    0.0000 </r>
       <r>    1.1231    0.0000 </r>
       <r>    1.4023    0.0000 </r>
       <r>    1.4660    0.0000 </r>
       <r>    1.5233    0.0000 </r>
       <r>    1.7004    0.0000 </r>
       <r>    1.7811    0.0000 </r>
       <r>    2.0114    0.0000 </r>
       <r>    2.1624    0.0000 </r>
       <r>    2.4126    0.0000 </r>
       <r>    2.4650    0.0000 </r>
       <r>    2.5657    0.0000 </r>
      </set>
      <set comment="kpoint 15">
       <r>  -13.6716    1.0000 </r>
       <r>  -11.5606    1.0000 </r>
       <r>  -11.2211    1.0000 </r>
       <r>  -11.0971    1.0000 </r>
       <r>  -10.9562    1.0000 </r>
       <r>  -10.8881    1.0000 </r>
       <r>  -10.8345    1.0000 </r>
       <r>  -10.7826    1.0000 </r>
       <r>  -10.7692    1.0000 </r>
       <r>  -10.7274    1.0000 </r>
       <r>  -10.6438    1.0000 </r>
       <r>   -9.7133    1.0000 </r>
       <r>   -8.8390    1.0000 </r>
       <r>   -8.7820    1.0000 </r>
       <r>   -8.4588    1.0000 </r>
       <r>   -7.9730    1.0000 </r>
       <r>   -7.9682    1.0000 </r>
       <r>   -7.8924    1.0000 </r>
       <r>   -7.6278    1.0000 </r>
       <r>   -7.3070    1.0000 </r>
       <r>   -7.2969    1.0000 </r>
       <r>   -7.2446    1.0000 </r>
       <r>   -7.1782    1.0000 </r>
       <r>   -6.1686    1.0000 </r>
       <r>   -5.5330    1.0000 </r>
       <r>   -4.9878    1.0000 </r>
       <r>   -4.7590    1.0000 </r>
       <r>   -4.6036    1.0000 </r>
       <r>   -4.3958    1.0000 </r>
       <r>   -4.1806    1.0000 </r>
       <r>   -4.0588    1.0000 </r>
       <r>   -4.0172    1.0000 </r>
       <r>   -3.9155    1.0000 </r>
       <r>   -3.9031    1.0000 </r>
       <r>   -3.6771    1.0000 </r>
       <r>   -3.6454    1.0000 </r>
       <r>   -3.5054    1.0000 </r>
       <r>   -3.3784    1.0000 </r>
       <r>   -3.1920    1.0000 </r>
       <r>   -2.9898    1.0000 </r>
       <r>   -2.8892    1.0000 </r>
       <r>   -2.8245    1.0000 </r>
       <r>   -2.7579    1.0000 </r>
       <r>   -2.7057    1.0000 </r>
       <r>   -2.4267    1.0000 </r>
       <r>   -2.3648    1.0000 </r>
       <r>   -2.1924    1.0000 </r>
       <r>   -2.1304    1.0000 </r>
       <r>   -1.7302    1.0000 </r>
       <r>   -1.5365    1.0000 </r>
       <r>   -1.2986    1.0000 </r>
       <r>   -0.9029    1.0000 </r>
       <r>   -0.7235    1.0000 </r>
       <r>   -0.3925    1.0000 </r>
       <r>   -0.1579    1.0000 </r>
       <r>    0.4237    0.0002 </r>
       <r>    0.6248    0.0000 </r>
       <r>    1.1430    0.0000 </r>
       <r>    1.3507    0.0000 </r>
       <r>    1.6117    0.0000 </r>
       <r>    1.6726    0.0000 </r>
       <r>    1.7642    0.0000 </r>
       <r>    1.7956    0.0000 </r>
       <r>    1.9863    0.0000 </r>
       <r>    2.2118    0.0000 </r>
       <r>    2.3465    0.0000 </r>
       <r>    2.5004    0.0000 </r>
       <r>    2.5450    0.0000 </r>
      </set>
      <set comment="kpoint 16">
       <r>  -13.7770    1.0000 </r>
       <r>  -12.1272    1.0000 </r>
       <r>  -11.6593    1.0000 </r>
       <r>  -11.5114    1.0000 </r>
       <r>  -11.2731    1.0000 </r>
       <r>  -11.1164    1.0000 </r>
       <r>  -11.0240    1.0000 </r>
       <r>  -10.9467    1.0000 </r>
       <r>  -10.6562    1.0000 </r>
       <r>  -10.5888    1.0000 </r>
       <r>  -10.4763    1.0000 </r>
       <r>   -9.8833    1.0000 </r>
       <r>   -8.7681    1.0000 </r>
       <r>   -8.6527    1.0000 </r>
       <r>   -8.5156    1.0000 </r>
       <r>   -7.8491    1.0000 </r>
       <r>   -7.5527    1.0000 </r>
       <r>   -7.4634    1.0000 </r>
       <r>   -7.3542    1.0000 </r>
       <r>   -6.9104    1.0000 </r>
       <r>   -6.8356    1.0000 </r>
       <r>   -6.6929    1.0000 </r>
       <r>   -6.6590    1.0000 </r>
       <r>   -6.1667    1.0000 </r>
       <r>   -5.3591    1.0000 </r>
       <r>   -5.0792    1.0000 </r>
       <r>   -4.9422    1.0000 </r>
       <r>   -4.8703    1.0000 </r>
       <r>   -4.4787    1.0000 </r>
       <r>   -4.4157    1.0000 </r>
       <r>   -4.2958    1.0000 </r>
       <r>   -4.1925    1.0000 </r>
       <r>   -4.1004    1.0000 </r>
       <r>   -3.7482    1.0000 </r>
       <r>   -3.6581    1.0000 </r>
       <r>   -3.4516    1.0000 </r>
       <r>   -3.4150    1.0000 </r>
       <r>   -3.2064    1.0000 </r>
       <r>   -3.1241    1.0000 </r>
       <r>   -3.0448    1.0000 </r>
       <r>   -2.7984    1.0000 </r>
       <r>   -2.7689    1.0000 </r>
       <r>   -2.6701    1.0000 </r>
       <r>   -2.5342    1.0000 </r>
       <r>   -2.3506    1.0000 </r>
       <r>   -2.2561    1.0000 </r>
       <r>   -2.0670    1.0000 </r>
       <r>   -1.9708    1.0000 </r>
       <r>   -1.8386    1.0000 </r>
       <r>   -1.4394    1.0000 </r>
       <r>   -1.1849    1.0000 </r>
       <r>   -0.8418    1.0000 </r>
       <r>   -0.5231    1.0000 </r>
       <r>   -0.2992    1.0000 </r>
       <r>   -0.0971    0.9999 </r>
       <r>    0.5813    0.0000 </r>
       <r>    0.8502    0.0000 </r>
       <r>    1.2845    0.0000 </r>
       <r>    1.4042    0.0000 </r>
       <r>    1.6587    0.0000 </r>
       <r>    1.7934    0.0000 </r>
       <r>    1.8803    0.0000 </r>
       <r>    2.0519    0.0000 </r>
       <r>    2.1078    0.0000 </r>
       <r>    2.2462    0.0000 </r>
       <r>    2.4025    0.0000 </r>
       <r>    2.5426    0.0000 </r>
       <r>    2.6060    0.0000 </r>
      </set>
      <set comment="kpoint 17">
       <r>  -13.9501    1.0000 </r>
       <r>  -12.6213    1.0000 </r>
       <r>  -12.0864    1.0000 </r>
       <r>  -11.9735    1.0000 </r>
       <r>  -11.6741    1.0000 </r>
       <r>  -11.4888    1.0000 </r>
       <r>  -11.3641    1.0000 </r>
       <r>  -11.2558    1.0000 </r>
       <r>  -10.7993    1.0000 </r>
       <r>  -10.7314    1.0000 </r>
       <r>  -10.4471    1.0000 </r>
       <r>  -10.1798    1.0000 </r>
       <r>   -8.5807    1.0000 </r>
       <r>   -8.3322    1.0000 </r>
       <r>   -8.2116    1.0000 </r>
       <r>   -7.5277    1.0000 </r>
       <r>   -7.1036    1.0000 </r>
       <r>   -7.0240    1.0000 </r>
       <r>   -6.8984    1.0000 </r>
       <r>   -6.5281    1.0000 </r>
       <r>   -6.1830    1.0000 </r>
       <r>   -6.1199    1.0000 </r>
       <r>   -5.9989    1.0000 </r>
       <r>   -5.9238    1.0000 </r>
       <r>   -5.1743    1.0000 </r>
       <r>   -5.1124    1.0000 </r>
       <r>   -4.9156    1.0000 </r>
       <r>   -4.7530    1.0000 </r>
       <r>   -4.6698    1.0000 </r>
       <r>   -4.4000    1.0000 </r>
       <r>   -4.3426    1.0000 </r>
       <r>   -4.2770    1.0000 </r>
       <r>   -4.2317    1.0000 </r>
       <r>   -3.8662    1.0000 </r>
       <r>   -3.5732    1.0000 </r>
       <r>   -3.4784    1.0000 </r>
       <r>   -3.1467    1.0000 </r>
       <r>   -3.0994    1.0000 </r>
       <r>   -3.0293    1.0000 </r>
       <r>   -2.9267    1.0000 </r>
       <r>   -2.8305    1.0000 </r>
       <r>   -2.6561    1.0000 </r>
       <r>   -2.6032    1.0000 </r>
       <r>   -2.3727    1.0000 </r>
       <r>   -2.1810    1.0000 </r>
       <r>   -2.0482    1.0000 </r>
       <r>   -1.8986    1.0000 </r>
       <r>   -1.8807    1.0000 </r>
       <r>   -1.7313    1.0000 </r>
       <r>   -1.3319    1.0000 </r>
       <r>   -1.1294    1.0000 </r>
       <r>   -0.7984    1.0000 </r>
       <r>   -0.2830    1.0000 </r>
       <r>   -0.1254    1.0000 </r>
       <r>    0.1203    0.7542 </r>
       <r>    0.8199    0.0000 </r>
       <r>    0.9643    0.0000 </r>
       <r>    1.5252    0.0000 </r>
       <r>    1.6278    0.0000 </r>
       <r>    1.8365    0.0000 </r>
       <r>    1.8988    0.0000 </r>
       <r>    1.9820    0.0000 </r>
       <r>    2.2309    0.0000 </r>
       <r>    2.2966    0.0000 </r>
       <r>    2.3668    0.0000 </r>
       <r>    2.6409    0.0000 </r>
       <r>    2.7346    0.0000 </r>
       <r>    2.8206    0.0000 </r>
      </set>
      <set comment="kpoint 18">
       <r>  -14.1397    1.0000 </r>
       <r>  -13.0165    1.0000 </r>
       <r>  -12.4494    1.0000 </r>
       <r>  -12.3778    1.0000 </r>
       <r>  -12.0266    1.0000 </r>
       <r>  -11.8217    1.0000 </r>
       <r>  -11.6831    1.0000 </r>
       <r>  -11.5520    1.0000 </r>
       <r>  -11.0552    1.0000 </r>
       <r>  -10.9655    1.0000 </r>
       <r>  -10.6266    1.0000 </r>
       <r>  -10.4815    1.0000 </r>
       <r>   -8.4252    1.0000 </r>
       <r>   -8.1423    1.0000 </r>
       <r>   -7.8067    1.0000 </r>
       <r>   -7.2988    1.0000 </r>
       <r>   -6.7535    1.0000 </r>
       <r>   -6.7121    1.0000 </r>
       <r>   -6.6625    1.0000 </r>
       <r>   -6.4675    1.0000 </r>
       <r>   -5.7674    1.0000 </r>
       <r>   -5.6910    1.0000 </r>
       <r>   -5.3618    1.0000 </r>
       <r>   -5.3251    1.0000 </r>
       <r>   -4.8602    1.0000 </r>
       <r>   -4.7880    1.0000 </r>
       <r>   -4.6270    1.0000 </r>
       <r>   -4.5406    1.0000 </r>
       <r>   -4.3780    1.0000 </r>
       <r>   -4.2167    1.0000 </r>
       <r>   -4.1308    1.0000 </r>
       <r>   -3.9658    1.0000 </r>
       <r>   -3.8082    1.0000 </r>
       <r>   -3.7001    1.0000 </r>
       <r>   -3.4901    1.0000 </r>
       <r>   -3.4701    1.0000 </r>
       <r>   -3.2595    1.0000 </r>
       <r>   -3.0333    1.0000 </r>
       <r>   -2.9782    1.0000 </r>
       <r>   -2.8988    1.0000 </r>
       <r>   -2.6743    1.0000 </r>
       <r>   -2.4900    1.0000 </r>
       <r>   -2.4003    1.0000 </r>
       <r>   -2.3322    1.0000 </r>
       <r>   -2.1015    1.0000 </r>
       <r>   -1.9177    1.0000 </r>
       <r>   -1.8395    1.0000 </r>
       <r>   -1.7578    1.0000 </r>
       <r>   -1.4861    1.0000 </r>
       <r>   -1.1993    1.0000 </r>
       <r>   -1.0969    1.0000 </r>
       <r>   -0.6861    1.0000 </r>
       <r>   -0.0873    0.9999 </r>
       <r>    0.1864    0.4021 </r>
       <r>    0.3418    0.0072 </r>
       <r>    0.8385    0.0000 </r>
       <r>    1.2654    0.0000 </r>
       <r>    1.7682    0.0000 </r>
       <r>    1.8180    0.0000 </r>
       <r>    1.9797    0.0000 </r>
       <r>    2.1866    0.0000 </r>
       <r>    2.2478    0.0000 </r>
       <r>    2.3773    0.0000 </r>
       <r>    2.6069    0.0000 </r>
       <r>    2.6912    0.0000 </r>
       <r>    2.8873    0.0000 </r>
       <r>    2.9460    0.0000 </r>
[...]
       <r>    2.6641    0.0000 </r>
      </set>
      <set comment="kpoint 54">
       <r>  -13.6713    1.0000 </r>
       <r>  -11.5153    1.0000 </r>
       <r>  -11.2288    1.0000 </r>
       <r>  -11.1954    1.0000 </r>
       <r>  -10.9724    1.0000 </r>
       <r>  -10.8892    1.0000 </r>
       <r>  -10.8709    1.0000 </r>
       <r>  -10.7577    1.0000 </r>
       <r>  -10.7474    1.0000 </r>
       <r>  -10.6549    1.0000 </r>
       <r>  -10.6450    1.0000 </r>
       <r>   -9.7057    1.0000 </r>
       <r>   -8.8539    1.0000 </r>
       <r>   -8.6908    1.0000 </r>
       <r>   -8.4654    1.0000 </r>
       <r>   -8.1448    1.0000 </r>
       <r>   -8.0039    1.0000 </r>
       <r>   -7.7962    1.0000 </r>
       <r>   -7.5838    1.0000 </r>
       <r>   -7.3509    1.0000 </r>
       <r>   -7.3128    1.0000 </r>
       <r>   -7.2000    1.0000 </r>
       <r>   -7.1674    1.0000 </r>
       <r>   -6.2091    1.0000 </r>
       <r>   -5.5630    1.0000 </r>
       <r>   -4.9938    1.0000 </r>
       <r>   -4.9551    1.0000 </r>
       <r>   -4.5036    1.0000 </r>
       <r>   -4.3248    1.0000 </r>
       <r>   -4.1463    1.0000 </r>
       <r>   -4.0899    1.0000 </r>
       <r>   -3.9746    1.0000 </r>
       <r>   -3.8830    1.0000 </r>
       <r>   -3.7939    1.0000 </r>
       <r>   -3.6236    1.0000 </r>
       <r>   -3.5857    1.0000 </r>
       <r>   -3.4130    1.0000 </r>
       <r>   -3.2851    1.0000 </r>
       <r>   -3.2208    1.0000 </r>
       <r>   -3.1156    1.0000 </r>
       <r>   -3.0365    1.0000 </r>
       <r>   -2.9102    1.0000 </r>
       <r>   -2.7472    1.0000 </r>
       <r>   -2.7036    1.0000 </r>
       <r>   -2.4083    1.0000 </r>
       <r>   -2.3209    1.0000 </r>
       <r>   -2.1921    1.0000 </r>
       <r>   -2.1220    1.0000 </r>
       <r>   -1.7475    1.0000 </r>
       <r>   -1.5701    1.0000 </r>
       <r>   -1.3487    1.0000 </r>
       <r>   -0.8817    1.0000 </r>
       <r>   -0.6698    1.0000 </r>
       <r>   -0.4564    1.0000 </r>
       <r>   -0.1290    1.0000 </r>
       <r>    0.3392    0.0080 </r>
       <r>    0.6469    0.0000 </r>
       <r>    1.1750    0.0000 </r>
       <r>    1.3446    0.0000 </r>
       <r>    1.5130    0.0000 </r>
       <r>    1.6014    0.0000 </r>
       <r>    1.6543    0.0000 </r>
       <r>    1.8355    0.0000 </r>
       <r>    1.9009    0.0000 </r>
       <r>    2.0365    0.0000 </r>
       <r>    2.3392    0.0000 </r>
       <r>    2.4596    0.0000 </r>
       <r>    2.6038    0.0000 </r>
      </set>
     </set>
    </set>
   </array>
  </eigenvalues>
  <separator name="orbital magnetization" >
   <v name="MAGDIPOLOUT">      0.00000000      0.00000000      0.00000000</v>
  </separator>
  <dos>
   <i name="efermi">      0.16888981 </i>
   <total>
    <array>
     <dimension dim="1">gridpoints</dimension>
     <dimension dim="2">spin</dimension>
     <field>energy</field>
     <field>total</field>
     <field>integrated</field>
     <set>
      <set comment="spin 1">
       <r>   -15.4510     0.0000     0.0000 </r>
       <r>   -15.3854     0.0000     0.0000 </r>
       <r>   -15.3198     0.0000     0.0000 </r>
       <r>   -15.2541     0.0000     0.0000 </r>
       <r>   -15.1885     0.0000     0.0000 </r>
       <r>   -15.1229     0.0000     0.0000 </r>
       <r>   -15.0573     0.0000     0.0000 </r>
       <r>   -14.9917     0.0000     0.0000 </r>
       <r>   -14.9261     0.0000     0.0000 </r>
       <r>   -14.8605     0.0000     0.0000 </r>
       <r>   -14.7949     0.0000     0.0000 </r>
       <r>   -14.7292     0.0001     0.0000 </r>
       <r>   -14.6636     0.0031     0.0002 </r>
       <r>   -14.5980     0.0516     0.0036 </r>
       <r>   -14.5324     0.3962     0.0296 </r>
       <r>   -14.4668     1.4565     0.1252 </r>
       <r>   -14.4012     2.7205     0.3037 </r>
       <r>   -14.3356     3.0222     0.5019 </r>
       <r>   -14.2700     2.5223     0.6674 </r>
       <r>   -14.2044     1.9443     0.7950 </r>
       <r>   -14.1387     1.8877     0.9189 </r>
       <r>   -14.0731     1.7417     1.0331 </r>
       <r>   -14.0075     1.4650     1.1293 </r>
       <r>   -13.9419     1.7565     1.2445 </r>
       <r>   -13.8763     1.7939     1.3622 </r>
       <r>   -13.8107     1.8056     1.4807 </r>
       <r>   -13.7451     2.3723     1.6363 </r>
       <r>   -13.6795     2.6346     1.8092 </r>
       <r>   -13.6138     2.2144     1.9545 </r>
       <r>   -13.5482     1.7426     2.0688 </r>
       <r>   -13.4826     1.8726     2.1917 </r>
       <r>   -13.4170     2.0353     2.3252 </r>
       <r>   -13.3514     1.9419     2.4526 </r>
       <r>   -13.2858     1.8535     2.5743 </r>
       <r>   -13.2202     1.7300     2.6878 </r>
       <r>   -13.1546     1.5729     2.7910 </r>
       <r>   -13.0889     1.6974     2.9023 </r>
       <r>   -13.0233     2.7938     3.0856 </r>
       <r>   -12.9577     4.5198     3.3822 </r>
       <r>   -12.8921     5.2159     3.7244 </r>
       <r>   -12.8265     4.4240     4.0147 </r>
       <r>   -12.7609     3.5113     4.2451 </r>
       <r>   -12.6953     3.2025     4.4552 </r>
       <r>   -12.6297     3.4347     4.6805 </r>
       <r>   -12.5640     4.1802     4.9548 </r>
       <r>   -12.4984     5.1510     5.2928 </r>
       <r>   -12.4328     5.3186     5.6417 </r>
       <r>   -12.3672     4.4171     5.9316 </r>
       <r>   -12.3016     4.3559     6.2174 </r>
       <r>   -12.2360     5.3275     6.5669 </r>
       <r>   -12.1704     6.2312     6.9758 </r>
       <r>   -12.1048     7.8288     7.4894 </r>
       <r>   -12.0391     9.4476     8.1093 </r>
       <r>   -11.9735     8.5367     8.6694 </r>
       <r>   -11.9079     6.1666     9.0740 </r>
       <r>   -11.8423     5.2312     9.4172 </r>
       <r>   -11.7767     5.6280     9.7865 </r>
       <r>   -11.7111     6.7370    10.2285 </r>
       <r>   -11.6455     7.8906    10.7463 </r>
       <r>   -11.5799     7.7667    11.2558 </r>
       <r>   -11.5142     7.6150    11.7555 </r>
       <r>   -11.4486     7.9748    12.2787 </r>
       <r>   -11.3830     8.4489    12.8331 </r>
       <r>   -11.3174     9.7840    13.4750 </r>
       <r>   -11.2518    10.5655    14.1682 </r>
       <r>   -11.1862     9.5298    14.7935 </r>
       <r>   -11.1206     8.4187    15.3459 </r>
       <r>   -11.0550     9.2665    15.9539 </r>
       <r>   -10.9894    11.4852    16.7075 </r>
       <r>   -10.9237    12.9799    17.5591 </r>
       <r>   -10.8581    13.4001    18.4383 </r>
       <r>   -10.7925    13.3192    19.3122 </r>
       <r>   -10.7269    13.0275    20.1670 </r>
       <r>   -10.6613    12.3507    20.9773 </r>
       <r>   -10.5957    10.5760    21.6712 </r>
       <r>   -10.5301     7.9749    22.1945 </r>
       <r>   -10.4645     6.2953    22.6075 </r>
       <r>   -10.3988     4.5515    22.9062 </r>
       <r>   -10.3332     2.1403    23.0466 </r>
       <r>   -10.2676     1.0019    23.1123 </r>
       <r>   -10.2020     1.4023    23.2043 </r>
       <r>   -10.1364     1.6182    23.3105 </r>
       <r>   -10.0708     0.9069    23.3700 </r>
       <r>   -10.0052     0.4294    23.3982 </r>
       <r>    -9.9396     0.8919    23.4567 </r>
       <r>    -9.8739     1.6606    23.5657 </r>
       <r>    -9.8083     1.7075    23.6777 </r>
       <r>    -9.7427     1.6550    23.7863 </r>
       <r>    -9.6771     1.7627    23.9020 </r>
       <r>    -9.6115     1.1169    23.9752 </r>
       <r>    -9.5459     0.3308    23.9969 </r>
       <r>    -9.4803     0.0440    23.9998 </r>
       <r>    -9.4147     0.0026    24.0000 </r>
       <r>    -9.3490     0.0001    24.0000 </r>
       <r>    -9.2834     0.0000    24.0000 </r>
       <r>    -9.2178     0.0017    24.0001 </r>
       <r>    -9.1522     0.0289    24.0020 </r>
       <r>    -9.0866     0.2275    24.0169 </r>
       <r>    -9.0210     0.8701    24.0740 </r>
       <r>    -8.9554     1.8135    24.1930 </r>
       <r>    -8.8898     2.7651    24.3744 </r>
       <r>    -8.8241     4.1563    24.6471 </r>
       <r>    -8.7585     5.4123    25.0023 </r>
       <r>    -8.6929     5.4454    25.3595 </r>
       <r>    -8.6273     4.8338    25.6767 </r>
       <r>    -8.5617     4.4067    25.9658 </r>
       <r>    -8.4961     4.5178    26.2623 </r>
       <r>    -8.4305     5.1080    26.5974 </r>
       <r>    -8.3649     5.0069    26.9259 </r>
       <r>    -8.2992     4.1231    27.1964 </r>
       <r>    -8.2336     4.6095    27.4989 </r>
       <r>    -8.1680     6.9545    27.9552 </r>
       <r>    -8.1024     8.3102    28.5004 </r>
       <r>    -8.0368     6.9995    28.9597 </r>
       <r>    -7.9712     4.8712    29.2793 </r>
       <r>    -7.9056     3.9579    29.5390 </r>
       <r>    -7.8400     4.8743    29.8588 </r>
       <r>    -7.7744     5.9652    30.2502 </r>
       <r>    -7.7087     5.4338    30.6067 </r>
       <r>    -7.6431     4.7517    30.9185 </r>
       <r>    -7.5775     5.6373    31.2884 </r>
       <r>    -7.5119     7.3662    31.7717 </r>
       <r>    -7.4463     8.8385    32.3516 </r>
       <r>    -7.3807     9.5693    32.9794 </r>
       <r>    -7.3151     9.2612    33.5871 </r>
       <r>    -7.2495     8.0008    34.1120 </r>
       <r>    -7.1838     7.1996    34.5844 </r>
       <r>    -7.1182     7.2301    35.0588 </r>
       <r>    -7.0526     6.1991    35.4655 </r>
       <r>    -6.9870     4.8593    35.7844 </r>
       <r>    -6.9214     4.9305    36.1079 </r>
       <r>    -6.8558     5.8554    36.4921 </r>
       <r>    -6.7902     8.1108    37.0242 </r>
       <r>    -6.7246    12.4833    37.8433 </r>
       <r>    -6.6589    14.8446    38.8173 </r>
       <r>    -6.5933    12.4263    39.6326 </r>
       <r>    -6.5277     8.8951    40.2162 </r>
       <r>    -6.4621     6.5237    40.6443 </r>
       <r>    -6.3965     5.0738    40.9772 </r>
       <r>    -6.3309     4.4791    41.2710 </r>
       <r>    -6.2653     4.9996    41.5991 </r>
       <r>    -6.1997     6.6063    42.0325 </r>
       <r>    -6.1340     7.0633    42.4960 </r>
       <r>    -6.0684     5.3778    42.8488 </r>
       <r>    -6.0028     4.2382    43.1269 </r>
       <r>    -5.9372     4.5519    43.4256 </r>
       <r>    -5.8716     4.9941    43.7532 </r>
       <r>    -5.8060     5.4270    44.1093 </r>
       <r>    -5.7404     5.7240    44.4849 </r>
       <r>    -5.6748     5.3534    44.8361 </r>
       <r>    -5.6091     5.1343    45.1730 </r>
       <r>    -5.5435     5.4081    45.5278 </r>
       <r>    -5.4779     5.0785    45.8610 </r>
       <r>    -5.4123     5.1882    46.2015 </r>
       <r>    -5.3467     6.4464    46.6244 </r>
       <r>    -5.2811     6.4162    47.0454 </r>
       <r>    -5.2155     5.1522    47.3834 </r>
       <r>    -5.1499     4.4764    47.6772 </r>
       <r>    -5.0842     5.2495    48.0216 </r>
       <r>    -5.0186     6.9416    48.4770 </r>
       <r>    -4.9530     7.9123    48.9962 </r>
       <r>    -4.8874     7.9451    49.5175 </r>
       <r>    -4.8218     8.0440    50.0453 </r>
       <r>    -4.7562     8.6259    50.6112 </r>
       <r>    -4.6906     9.4377    51.2305 </r>
       <r>    -4.6250     9.9379    51.8825 </r>
       <r>    -4.5594    10.1788    52.5504 </r>
       <r>    -4.4937    10.4429    53.2355 </r>
       <r>    -4.4281    10.9139    53.9516 </r>
       <r>    -4.3625    11.8580    54.7297 </r>
       <r>    -4.2969    12.3496    55.5399 </r>
       <r>    -4.2313    12.4562    56.3572 </r>
       <r>    -4.1657    13.7235    57.2577 </r>
       <r>    -4.1001    15.4681    58.2725 </r>
       <r>    -4.0345    15.3035    59.2766 </r>
       <r>    -3.9688    13.0112    60.1303 </r>
       <r>    -3.9032    10.5593    60.8232 </r>
       <r>    -3.8376     9.9016    61.4728 </r>
       <r>    -3.7720    11.4518    62.2242 </r>
       <r>    -3.7064    13.8496    63.1329 </r>
       <r>    -3.6408    15.0977    64.1235 </r>
       <r>    -3.5752    14.9598    65.1050 </r>
       <r>    -3.5096    14.6788    66.0681 </r>
       <r>    -3.4439    14.4788    67.0181 </r>
       <r>    -3.3783    13.6091    67.9111 </r>
       <r>    -3.3127    12.7028    68.7445 </r>
       <r>    -3.2471    13.7049    69.6437 </r>
       <r>    -3.1815    15.8634    70.6846 </r>
       <r>    -3.1159    17.9408    71.8617 </r>
       <r>    -3.0503    19.4944    73.1408 </r>
       <r>    -2.9847    19.1106    74.3947 </r>
       <r>    -2.9190    17.0055    75.5104 </r>
       <r>    -2.8534    15.5629    76.5315 </r>
       <r>    -2.7878    15.7907    77.5676 </r>
       <r>    -2.7222    17.1592    78.6935 </r>
       <r>    -2.6566    18.7508    79.9237 </r>
       <r>    -2.5910    19.0499    81.1736 </r>
       <r>    -2.5254    17.2029    82.3024 </r>
       <r>    -2.4598    14.7397    83.2695 </r>
       <r>    -2.3941    14.5288    84.2227 </r>
       <r>    -2.3285    15.5563    85.2434 </r>
       <r>    -2.2629    15.9438    86.2895 </r>
       <r>    -2.1973    16.8040    87.3921 </r>
       <r>    -2.1317    17.7283    88.5553 </r>
       <r>    -2.0661    17.0838    89.6762 </r>
       <r>    -2.0005    15.4278    90.6884 </r>
       <r>    -1.9349    14.9536    91.6696 </r>
       <r>    -1.8693    15.8910    92.7122 </r>
       <r>    -1.8036    15.4563    93.7263 </r>
       <r>    -1.7380    12.9893    94.5786 </r>
       <r>    -1.6724     9.4469    95.1984 </r>
       <r>    -1.6068     7.3336    95.6796 </r>
       <r>    -1.5412     8.1917    96.2171 </r>
       <r>    -1.4756     9.5335    96.8426 </r>
       <r>    -1.4100     9.7833    97.4845 </r>
       <r>    -1.3444    10.1605    98.1511 </r>
       <r>    -1.2787    10.6821    98.8520 </r>
       <r>    -1.2131    10.5739    99.5458 </r>
       <r>    -1.1475     9.8471   100.1919 </r>
       <r>    -1.0819     8.1645   100.7276 </r>
       <r>    -1.0163     6.7519   101.1706 </r>
       <r>    -0.9507     7.6191   101.6705 </r>
       <r>    -0.8851     9.5974   102.3002 </r>
       <r>    -0.8195     9.8313   102.9452 </r>
       <r>    -0.7538     8.3855   103.4954 </r>
       <r>    -0.6882     6.6594   103.9324 </r>
       <r>    -0.6226     4.9798   104.2591 </r>
       <r>    -0.5570     3.5440   104.4916 </r>
       <r>    -0.4914     3.4452   104.7177 </r>
       <r>    -0.4258     4.1066   104.9871 </r>
       <r>    -0.3602     3.9293   105.2449 </r>
       <r>    -0.2946     3.1672   105.4528 </r>
       <r>    -0.2289     3.3257   105.6710 </r>
       <r>    -0.1633     4.7099   105.9800 </r>
       <r>    -0.0977     5.8177   106.3617 </r>
       <r>    -0.0321     6.0522   106.7588 </r>
       <r>     0.0335     6.4438   107.1816 </r>
       <r>     0.0991     6.6097   107.6153 </r>
       <r>     0.1647     5.5635   107.9803 </r>
       <r>     0.2303     4.1536   108.2528 </r>
       <r>     0.2960     3.8255   108.5038 </r>
       <r>     0.3616     5.2081   108.8456 </r>
       <r>     0.4272     7.2812   109.3233 </r>
       <r>     0.4928     8.5518   109.8844 </r>
       <r>     0.5584     8.3104   110.4296 </r>
       <r>     0.6240     6.8546   110.8794 </r>
       <r>     0.6896     4.9445   111.2038 </r>
       <r>     0.7552     3.2636   111.4179 </r>
       <r>     0.8209     3.0064   111.6152 </r>
       <r>     0.8865     3.6314   111.8535 </r>
       <r>     0.9521     4.0644   112.1201 </r>
       <r>     1.0177     4.2370   112.3982 </r>
       <r>     1.0833     4.7714   112.7112 </r>
       <r>     1.1489     6.6275   113.1461 </r>
       <r>     1.2145     8.6225   113.7118 </r>
       <r>     1.2801     9.3431   114.3248 </r>
       <r>     1.3457     9.0772   114.9204 </r>
       <r>     1.4114     8.4366   115.4739 </r>
       <r>     1.4770     8.8681   116.0558 </r>
       <r>     1.5426    10.5466   116.7478 </r>
       <r>     1.6082    11.6083   117.5094 </r>
       <r>     1.6738    12.0419   118.2995 </r>
       <r>     1.7394    12.7885   119.1386 </r>
       <r>     1.8050    13.4253   120.0195 </r>
       <r>     1.8706    12.8452   120.8623 </r>
       <r>     1.9363    11.1553   121.5942 </r>
       <r>     2.0019    10.6182   122.2909 </r>
       <r>     2.0675    11.6674   123.0564 </r>
       <r>     2.1331    12.9780   123.9079 </r>
       <r>     2.1987    14.4334   124.8549 </r>
       <r>     2.2643    14.9048   125.8329 </r>
       <r>     2.3299    13.5598   126.7225 </r>
       <r>     2.3955    12.5424   127.5455 </r>
       <r>     2.4612    12.5452   128.3686 </r>
       <r>     2.5268    13.3829   129.2467 </r>
       <r>     2.5924    15.0080   130.2314 </r>
       <r>     2.6580    15.5994   131.2549 </r>
       <r>     2.7236    13.9482   132.1701 </r>
       <r>     2.7892    11.5945   132.9308 </r>
       <r>     2.8548    10.2746   133.6050 </r>
       <r>     2.9204     9.5269   134.2300 </r>
       <r>     2.9861     8.4270   134.7829 </r>
       <r>     3.0517     7.1478   135.2519 </r>
       <r>     3.1173     5.4136   135.6071 </r>
       <r>     3.1829     3.3000   135.8236 </r>
       <r>     3.2485     1.7083   135.9357 </r>
       <r>     3.3141     0.7436   135.9845 </r>
       <r>     3.3797     0.2054   135.9980 </r>
       <r>     3.4453     0.0287   135.9999 </r>
       <r>     3.5110     0.0019   136.0000 </r>
       <r>     3.5766     0.0001   136.0000 </r>
       <r>     3.6422     0.0000   136.0000 </r>
       <r>     3.7078     0.0000   136.0000 </r>
       <r>     3.7734     0.0000   136.0000 </r>
       <r>     3.8390     0.0000   136.0000 </r>
       <r>     3.9046     0.0000   136.0000 </r>
       <r>     3.9702     0.0000   136.0000 </r>
       <r>     4.0359     0.0000   136.0000 </r>
       <r>     4.1015     0.0000   136.0000 </r>
       <r>     4.1671     0.0000   136.0000 </r>
       <r>     4.2327     0.0000   136.0000 </r>
      </set>
     </set>
    </array>
   </total>
  </dos>
 </calculation>
 <structure name="finalpos" >
  <crystal>
   <varray name="basis" >
    <v>       3.54040000       0.00000000       0.00000000 </v>
    <v>      -1.77020000      10.29434800       0.00000000 </v>
    <v>       0.00000000       0.00000000      27.50142900 </v>
   </varray>
   <i name="volume">   1002.32009712 </i>
   <varray name="rec_basis" >
    <v>       0.28245396       0.04857034       0.00000000 </v>
    <v>       0.00000000       0.09714068       0.00000000 </v>
    <v>       0.00000000       0.00000000       0.03636175 </v>
   </varray>
  </crystal>
  <varray name="positions" >
   <v>       0.11402300       0.22804500       0.23316207 </v>
   <v>       0.71402300       0.12804500       0.51499159 </v>
   <v>       0.45808900       0.91617900       0.20939482 </v>
   <v>       0.05808900       0.81617900       0.49122434 </v>
   <v>       0.31085400       0.62170900       0.08414979 </v>
   <v>       0.31085400       0.62170900       0.36597930 </v>
   <v>       0.99923000       0.99846000       0.08631254 </v>
   <v>       0.99923000       0.99846000       0.36814206 </v>
   <v>       0.65492700       0.30985400       0.06041748 </v>
   <v>       0.65492700       0.30985400       0.34224700 </v>
   <v>       0.76973800       0.53947500       0.20725292 </v>
   <v>       0.36973800       0.43947500       0.48908244 </v>
   <v>       0.93971600       0.87943300       0.15783749 </v>
   <v>       0.53971600       0.77943300       0.43966701 </v>
   <v>       0.20515200       0.41030300       0.18578822 </v>
   <v>       0.80515200       0.31030300       0.46761774 </v>
   <v>       0.20184900       0.40369900       0.09969156 </v>
   <v>       0.20184900       0.40369900       0.38152107 </v>
   <v>       0.56380500       0.12761000       0.10779021 </v>
   <v>       0.56380500       0.12761000       0.38961973 </v>
   <v>       0.56710600       0.13421200       0.19387616 </v>
   <v>       0.16710600       0.03421200       0.47570568 </v>
   <v>       0.82923400       0.65846800       0.13571444 </v>
   <v>       0.42923400       0.55846800       0.41754396 </v>
  </varray>
 </structure>
</modeling>
