 running on    8 total cores
 distrk:  each k-point on    8 cores,    1 groups
 distr:  one band on    2 cores,    4 groups
 using from now: INCAR     
 vasp.5.3.5 31Mar14 (build Oct 29 2014 16:16:03) complex                        
  
 POSCAR found type information on POSCAR  P  Si
 POSCAR found :  2 types and      24 ions
 scaLAPACK will be used

 ----------------------------------------------------------------------------- 
|                                                                             |
|  ADVICE TO THIS USER RUNNING 'VASP/VAMP'   (HEAR YOUR MASTER'S VOICE ...):  |
|                                                                             |
|      You have switched on vdW-DFT.                                          |
|      This routine was written and supplied by Jiri Klimes.                  |
|      We recommed that you carefully read and cite the following             |
|      publication                                                            |
|      J. Klimes, D.R. Bowler, A. Michelides                                  |
|        J. Phys.: Cond Matt. 22 022201 (2010)                                |
|      J. Klimes, D.R. Bowler, A. Michelides                                  |
|        Phys. Rev. B. 83, 195131 (2011)                                      |
|      and references therein.                                                |
|                                                                             |
 ----------------------------------------------------------------------------- 


 ----------------------------------------------------------------------------- 
|                                                                             |
|  ADVICE TO THIS USER RUNNING 'VASP/VAMP'   (HEAR YOUR MASTER'S VOICE ...):  |
|                                                                             |
|      You enforced a specific xc-type in the INCAR file,                     |
|      a different type was found on the POTCAR file                          |
|          I HOPE YOU KNOW, WHAT YOU ARE  DOING                               |
|                                                                             |
 ----------------------------------------------------------------------------- 

 LDA part: xc-table for Pade appr. of Perdew


 VERY BAD NEWS! internal error in subroutine IBZKPT:
 Reciprocal lattice and k-lattice belong to different class of lattices. Often results are still useful...      96


 VERY BAD NEWS! internal error in subroutine IBZKPT:
 Reciprocal lattice and k-lattice belong to different class of lattices. Often results are still useful...      96


 VERY BAD NEWS! internal error in subroutine IBZKPT:
 Reciprocal lattice and k-lattice belong to different class of lattices. Often results are still useful...      96


 VERY BAD NEWS! internal error in subroutine IBZKPT:
 Reciprocal lattice and k-lattice belong to different class of lattices. Often results are still useful...      96


 VERY BAD NEWS! internal error in subroutine IBZKPT:
 Reciprocal lattice and k-lattice belong to different class of lattices. Often results are still useful...      96


 VERY BAD NEWS! internal error in subroutine IBZKPT:
 Reciprocal lattice and k-lattice belong to different class of lattices. Often results are still useful...      96


 VERY BAD NEWS! internal error in subroutine IBZKPT:
 Reciprocal lattice and k-lattice belong to different class of lattices. Often results are still useful...      96


 VERY BAD NEWS! internal error in subroutine IBZKPT:
 Reciprocal lattice and k-lattice belong to different class of lattices. Often results are still useful...      96
 POSCAR, INCAR and KPOINTS ok, starting setup
 WARNING: small aliasing (wrap around) errors must be expected
 FFT: planning ...
 WAVECAR not read
 entering main loop
       N       E                     dE             d eps       ncg     rms          rms(c)
Total vdW correction in eV:     15.9556779
DAV:   1     0.500616942379E+03    0.50062E+03   -0.28710E+04  7360   0.790E+02
DAV:   2    -0.607162116146E+02   -0.56133E+03   -0.54667E+03  9764   0.190E+02
DAV:   3    -0.118673350569E+03   -0.57957E+02   -0.57041E+02  8904   0.627E+01
DAV:   4    -0.121371507412E+03   -0.26982E+01   -0.26789E+01 10704   0.145E+01
DAV:   5    -0.121444067606E+03   -0.72560E-01   -0.72465E-01 10088   0.238E+00    0.126E+01
Total vdW correction in eV:     16.3954040
DAV:   6    -0.116651681433E+03    0.47924E+01   -0.13648E+01  8680   0.990E+00    0.597E+00
Total vdW correction in eV:     16.7667144
DAV:   7    -0.116514157898E+03    0.13752E+00   -0.80627E+00  8472   0.701E+00    0.261E+00
Total vdW correction in eV:     16.9359019
DAV:   8    -0.116530734794E+03   -0.16577E-01   -0.82880E-01  8968   0.258E+00    0.136E+00
Total vdW correction in eV:     17.0739366
DAV:   9    -0.116531542249E+03   -0.80746E-03   -0.15559E-01  9016   0.119E+00    0.408E-01
Total vdW correction in eV:     17.1193391
DAV:  10    -0.116527598326E+03    0.39439E-02   -0.42700E-02  8872   0.598E-01    0.168E-01
Total vdW correction in eV:     17.1301726
DAV:  11    -0.116521133381E+03    0.64649E-02   -0.62742E-03  9120   0.233E-01    0.979E-02
Total vdW correction in eV:     17.1397261
DAV:  12    -0.116513409309E+03    0.77241E-02   -0.20133E-03  8968   0.137E-01    0.430E-02
Total vdW correction in eV:     17.1445501
DAV:  13    -0.116509779159E+03    0.36302E-02   -0.52058E-04  8912   0.715E-02    0.188E-02
Total vdW correction in eV:     17.1481313
DAV:  14    -0.116508643831E+03    0.11353E-02   -0.12122E-04  9240   0.293E-02    0.124E-02
Total vdW correction in eV:     17.1520714
DAV:  15    -0.116507810280E+03    0.83355E-03   -0.66311E-05  8544   0.223E-02    0.730E-03
Total vdW correction in eV:     17.1540028
DAV:  16    -0.116507919634E+03   -0.10935E-03   -0.42294E-05  8072   0.166E-02    0.464E-03
Total vdW correction in eV:     17.1551169
DAV:  17    -0.116508460051E+03   -0.54042E-03   -0.13150E-04  8296   0.211E-02    0.250E-03
Total vdW correction in eV:     17.1551751
DAV:  18    -0.116508624370E+03   -0.16432E-03   -0.77257E-05  7600   0.137E-02    0.149E-03
Total vdW correction in eV:     17.1548854
DAV:  19    -0.116508674336E+03   -0.49966E-04   -0.21997E-05  6720   0.102E-02    0.996E-04
Total vdW correction in eV:     17.1546907
DAV:  20    -0.116508702209E+03   -0.27873E-04   -0.72918E-06  6256   0.647E-03    0.633E-04
Total vdW correction in eV:     17.1545723
DAV:  21    -0.116508672966E+03    0.29243E-04   -0.25869E-05  7076   0.851E-03    0.435E-04
Total vdW correction in eV:     17.1544939
DAV:  22    -0.116508643979E+03    0.28987E-04   -0.16574E-05  6388   0.101E-02    0.228E-04
Total vdW correction in eV:     17.1544962
DAV:  23    -0.116508591211E+03    0.52769E-04   -0.76318E-06  6444   0.778E-03    0.129E-04
Total vdW correction in eV:     17.1544933
DAV:  24    -0.116508580013E+03    0.11198E-04   -0.79000E-06  6360   0.835E-03    0.808E-05
Total vdW correction in eV:     17.1544915
DAV:  25    -0.116508567314E+03    0.12699E-04   -0.33549E-06  6232   0.635E-03    0.368E-05
Total vdW correction in eV:     17.1544921
DAV:  26    -0.116508565976E+03    0.13379E-05   -0.26044E-06  6056   0.544E-03    0.224E-05
Total vdW correction in eV:     17.1544910
DAV:  27    -0.116508564878E+03    0.10980E-05   -0.18212E-06  5616   0.471E-03    0.111E-05
Total vdW correction in eV:     17.1544914
DAV:  28    -0.116508565290E+03   -0.41226E-06   -0.17822E-06  5548   0.448E-03
Total vdW correction in eV:     17.1544913
Total vdW correction in eV:     17.1544915
   1 F= -.11650857E+03 E0= -.11649147E+03  d E =-.341837E-01
