 vasp.5.3.5 31Mar14 (build Oct 29 2014 16:16:03) complex                        
  
 executed on          Linux-UFHPC date 2016.02.09  18:11:41
 running on    8 total cores
 distrk:  each k-point on    8 cores,    1 groups
 distr:  one band on NCORES_PER_BAND=   2 cores,    4 groups


--------------------------------------------------------------------------------------------------------


 INCAR:
 POTCAR:    PAW_PBE P 17Jan2003                   
 POTCAR:   PAW_PBE Si 05Jan2001                   

 ----------------------------------------------------------------------------- 
|                                                                             |
|  ADVICE TO THIS USER RUNNING 'VASP/VAMP'   (HEAR YOUR MASTER'S VOICE ...):  |
|                                                                             |
|      You have switched on vdW-DFT.                                          |
|      This routine was written and supplied by Jiri Klimes.                  |
|      We recommed that you carefully read and cite the following             |
|      publication                                                            |
|      J. Klimes, D.R. Bowler, A. Michelides                                  |
|        J. Phys.: Cond Matt. 22 022201 (2010)                                |
|      J. Klimes, D.R. Bowler, A. Michelides                                  |
|        Phys. Rev. B. 83, 195131 (2011)                                      |
|      and references therein.                                                |
|                                                                             |
 ----------------------------------------------------------------------------- 

 POTCAR:    PAW_PBE P 17Jan2003                   
   VRHFIN =P : s2p3                                                             
   LEXCH  = PE                                                                  
   EATOM  =   176.0430 eV,   12.9388 Ry                                         
                                                                                
   TITEL  = PAW_PBE P 17Jan2003                                                 
   LULTRA =        F    use ultrasoft PP ?                                      
   IUNSCR =        1    unscreen: 0-lin 1-nonlin 2-no                           
   RPACOR =    1.500    partial core radius                                     
   POMASS =   30.974; ZVAL   =    5.000    mass and valenz                      
   RCORE  =    1.900    outmost cutoff radius                                   
   RWIGS  =    2.330; RWIGS  =    1.233    wigner-seitz radius (au A)           
   ENMAX  =  270.000; ENMIN  =  191.280 eV                                      
   ICORE  =        2    local potential                                         
   LCOR   =        T    correct aug charges                                     
   LPAW   =        T    paw PP                                                  
   EAUG   =  342.924                                                            
   DEXC   =    -.002                                                            
   RMAX   =    2.887    core radius for proj-oper                               
   RAUG   =    1.300    factor for augmentation sphere                          
   RDEP   =    1.931    radius for radial grids                                 
   QCUT   =   -4.330; QGAM   =    8.659    optimization parameters              
                                                                                
   Description                                                                  
     l     E      TYP  RCUT    TYP  RCUT                                        
     0   .000     23  1.900                                                     
     0   .000     23  1.900                                                     
     1   .000     23  1.900                                                     
     1   .000     23  1.900                                                     
     2   .000     23  1.900                                                     
  local pseudopotential read in
  partial core-charges read in
  atomic valenz-charges read in
  non local Contribution for L=           0  read in
    real space projection operators read in
  non local Contribution for L=           0  read in
    real space projection operators read in
  non local Contribution for L=           1  read in
    real space projection operators read in
  non local Contribution for L=           1  read in
    real space projection operators read in
    PAW grid and wavefunctions read in
 
   number of l-projection  operators is LMAX  =           4
   number of lm-projection operators is LMMAX =           8
 
 POTCAR:   PAW_PBE Si 05Jan2001                   
   VRHFIN =Si: s2p2                                                             
   LEXCH  = PE                                                                  
   EATOM  =   103.0669 eV,    7.5752 Ry                                         
                                                                                
   TITEL  = PAW_PBE Si 05Jan2001                                                
   LULTRA =        F    use ultrasoft PP ?                                      
   IUNSCR =        1    unscreen: 0-lin 1-nonlin 2-no                           
   RPACOR =    1.500    partial core radius                                     
   POMASS =   28.085; ZVAL   =    4.000    mass and valenz                      
   RCORE  =    1.900    outmost cutoff radius                                   
   RWIGS  =    2.480; RWIGS  =    1.312    wigner-seitz radius (au A)           
   ENMAX  =  245.345; ENMIN  =  184.009 eV                                      
   ICORE  =        2    local potential                                         
   LCOR   =        T    correct aug charges                                     
   LPAW   =        T    paw PP                                                  
   EAUG   =  322.069                                                            
   DEXC   =    -.007                                                            
   RMAX   =    2.944    core radius for proj-oper                               
   RAUG   =    1.300    factor for augmentation sphere                          
   RDEP   =    1.993    radius for radial grids                                 
   QCUT   =   -4.246; QGAM   =    8.493    optimization parameters              
                                                                                
   Description                                                                  
     l     E      TYP  RCUT    TYP  RCUT                                        
     0   .000     23  1.900                                                     
     0   .000     23  1.900                                                     
     1   .000     23  1.900                                                     
     1   .000     23  1.900                                                     
     2   .000      7  1.900                                                     
  local pseudopotential read in
  partial core-charges read in
  atomic valenz-charges read in
  non local Contribution for L=           0  read in
    real space projection operators read in
  non local Contribution for L=           0  read in
    real space projection operators read in
  non local Contribution for L=           1  read in
    real space projection operators read in
  non local Contribution for L=           1  read in
    real space projection operators read in
    PAW grid and wavefunctions read in
 
   number of l-projection  operators is LMAX  =           4
   number of lm-projection operators is LMMAX =           8
 
 Optimization of the real space projectors (new method)

 maximal supplied QI-value         = 19.84
 optimisation between [QCUT,QGAM] = [  8.73, 17.66] = [ 21.34, 87.33] Ry 
 Optimized for a Real-space Cutoff    1.50 Angstroem

   l    n(q)    QCUT    max X(q) W(low)/X(q) W(high)/X(q)  e(spline) 
   0      8     8.731     6.651    0.16E-04    0.15E-04    0.77E-08
   0      8     8.731    90.285    0.16E-03    0.90E-04    0.16E-06
   1      7     8.731     4.328    0.47E-04    0.36E-04    0.45E-07
   1      7     8.731    54.583    0.13E-03    0.39E-03    0.20E-06
 Optimization of the real space projectors (new method)

 maximal supplied QI-value         = 19.84
 optimisation between [QCUT,QGAM] = [  8.73, 17.66] = [ 21.34, 87.33] Ry 
 Optimized for a Real-space Cutoff    1.46 Angstroem

   l    n(q)    QCUT    max X(q) W(low)/X(q) W(high)/X(q)  e(spline) 
   0      8     8.731     8.708    0.16E-04    0.11E-04    0.68E-08
   0      8     8.731   106.241    0.24E-03    0.77E-04    0.13E-06
   1      7     8.731     5.901    0.34E-04    0.38E-04    0.36E-07
   1      7     8.731    73.241    0.12E-03    0.39E-03    0.15E-06

 ----------------------------------------------------------------------------- 
|                                                                             |
|  ADVICE TO THIS USER RUNNING 'VASP/VAMP'   (HEAR YOUR MASTER'S VOICE ...):  |
|                                                                             |
|      You enforced a specific xc-type in the INCAR file,                     |
|      a different type was found on the POTCAR file                          |
|          I HOPE YOU KNOW, WHAT YOU ARE  DOING                               |
|                                                                             |
 ----------------------------------------------------------------------------- 

  PAW_PBE P 17Jan2003                   :
 energy of atom  1       EATOM= -176.0430
 kinetic energy error for atom=    0.0040 (will be added to EATOM!!)
 PAW_PBE Si 05Jan2001                   :
 energy of atom  2       EATOM= -103.0669
 kinetic energy error for atom=    0.0021 (will be added to EATOM!!)
 
 
 POSCAR: Si12                                    
  positions in direct lattice
  No initial velocities read in
 exchange correlation table for  LEXCH =       42
   RHO(1)=    0.500       N(1)  =     2000
   RHO(2)=  100.500       N(2)  =     4000
 


--------------------------------------------------------------------------------------------------------


 ion  position               nearest neighbor table
   1  0.114  0.228  0.233-  15 2.28  21 2.29  21 2.29
   2  0.614  0.128  0.515-  16 2.28  22 2.29  22 2.29
   3  0.458  0.916  0.209-  21 2.28  13 2.30  13 2.30
   4  0.958  0.816  0.491-  22 2.28  14 2.30  14 2.30
   5  0.311  0.622  0.084-  17 2.28  23 2.30  23 2.30
   6  0.311  0.622  0.366-  24 1.57  18 2.28  14 2.60
   7  0.999  0.998  0.086-  19 2.29  19 2.29  13 2.32
   8  0.999  0.998  0.368-  20 2.29  20 2.29  22 2.99
   9  0.655  0.310  0.060-  19 2.28  17 2.29  17 2.29
  10  0.655  0.310  0.342-  20 2.28  18 2.29  18 2.29
  11  0.770  0.539  0.207-  15 2.29  15 2.29  23 2.32
  12  0.270  0.439  0.489-  16 2.29  16 2.29  24 2.32  18 2.99
  13  0.940  0.879  0.158-   3 2.30   3 2.30   7 2.32  23 2.35
  14  0.440  0.779  0.440-   4 2.30   4 2.30  24 2.35   6 2.60
  15  0.205  0.410  0.186-   1 2.28  11 2.29  11 2.29  17 2.37
  16  0.705  0.310  0.468-   2 2.28  12 2.29  12 2.29  20 2.86  18 3.01
  17  0.202  0.404  0.100-   5 2.28   9 2.29   9 2.29  15 2.37
  18  0.202  0.404  0.382-  24 1.88   6 2.28  10 2.29  10 2.29  12 2.99  16 3.01
  19  0.564  0.128  0.108-   9 2.28   7 2.29   7 2.29  21 2.37
  20  0.564  0.128  0.390-  10 2.28   8 2.29   8 2.29  16 2.86  22 3.01
  21  0.567  0.134  0.194-   3 2.28   1 2.29   1 2.29  19 2.37
  22  0.067  0.034  0.476-   4 2.28   2 2.29   2 2.29   8 2.99  20 3.01
  23  0.829  0.658  0.136-   5 2.30   5 2.30  11 2.32  13 2.35
  24  0.329  0.558  0.418-   6 1.57  18 1.88  12 2.32  14 2.35
 
  LATTYP: Found a base centered orthorhombic cell.
 ALAT       =     3.5404000000
 B/A-ratio  =     5.8153587165
 C/A-ratio  =     7.7678875268
  
  Lattice vectors:
  
 A1 = (   1.7702000000,  10.2943480000,   0.0000000000)
 A2 = (   1.7702000000, -10.2943480000,   0.0000000000)
 A3 = (   0.0000000000,   0.0000000000, -27.5014290000)


Analysis of symmetry for initial positions (statically):
=====================================================================
 Subroutine PRICEL returns:
 Original cell was already a primitive cell.
 

 Routine SETGRP: Setting up the symmetry group for a 
 base centered orthorhombic supercell.


 Subroutine GETGRP returns: Found  1 space group operations
 (whereof  1 operations were pure point group operations)
 out of a pool of  8 trial point group operations.


The static configuration has the point symmetry C_1 .


Analysis of symmetry for dynamics (positions and initial velocities):
=====================================================================
 Subroutine PRICEL returns:
 Original cell was already a primitive cell.
 

 Routine SETGRP: Setting up the symmetry group for a 
 base centered orthorhombic supercell.


 Subroutine GETGRP returns: Found  1 space group operations
 (whereof  1 operations were pure point group operations)
 out of a pool of  8 trial point group operations.


The dynamic configuration has the point symmetry C_1 .
 
 
 KPOINTS: pymatgen generated KPOINTS with grid den

Automatic generation of k-mesh.
Space group operators:
 irot       det(A)        alpha          n_x          n_y          n_z        tau_x        tau_y        tau_z
    1     1.000000     0.000000     1.000000     0.000000     0.000000     0.000000     0.000000     0.000000
 
 Subroutine IBZKPT returns following result:
 ===========================================
 
 Found     54 irreducible k-points:
 
 Following reciprocal coordinates:
            Coordinates               Weight
  0.000000  0.000000  0.000000      1.000000
  0.076923 -0.000000  0.000000      2.000000
  0.153846 -0.000000  0.000000      2.000000
  0.230769 -0.000000  0.000000      2.000000
  0.307692 -0.000000  0.000000      2.000000
  0.384615 -0.000000  0.000000      2.000000
  0.461538 -0.000000  0.000000      2.000000
  0.000000  0.250000  0.000000      2.000000
  0.076923  0.250000  0.000000      2.000000
  0.153846  0.250000  0.000000      2.000000
  0.230769  0.250000  0.000000      2.000000
  0.307692  0.250000  0.000000      2.000000
  0.384615  0.250000  0.000000      2.000000
  0.461538  0.250000  0.000000      2.000000
 -0.461538  0.250000  0.000000      2.000000
 -0.384615  0.250000  0.000000      2.000000
 -0.307692  0.250000  0.000000      2.000000
 -0.230769  0.250000  0.000000      2.000000
 -0.153846  0.250000  0.000000      2.000000
 -0.076923  0.250000  0.000000      2.000000
  0.000000  0.500000  0.000000      1.000000
  0.076923  0.500000  0.000000      2.000000
  0.153846  0.500000  0.000000      2.000000
  0.230769  0.500000  0.000000      2.000000
  0.307692  0.500000  0.000000      2.000000
  0.384615  0.500000  0.000000      2.000000
  0.461538  0.500000  0.000000      2.000000
  0.000000  0.000000  0.500000      1.000000
  0.076923 -0.000000  0.500000      2.000000
  0.153846 -0.000000  0.500000      2.000000
  0.230769 -0.000000  0.500000      2.000000
  0.307692 -0.000000  0.500000      2.000000
  0.384615 -0.000000  0.500000      2.000000
  0.461538 -0.000000  0.500000      2.000000
  0.000000  0.250000  0.500000      2.000000
  0.076923  0.250000  0.500000      2.000000
  0.153846  0.250000  0.500000      2.000000
  0.230769  0.250000  0.500000      2.000000
  0.307692  0.250000  0.500000      2.000000
  0.384615  0.250000  0.500000      2.000000
  0.461538  0.250000  0.500000      2.000000
 -0.461538  0.250000  0.500000      2.000000
 -0.384615  0.250000  0.500000      2.000000
 -0.307692  0.250000  0.500000      2.000000
 -0.230769  0.250000  0.500000      2.000000
 -0.153846  0.250000  0.500000      2.000000
 -0.076923  0.250000  0.500000      2.000000
  0.000000  0.500000  0.500000      1.000000
  0.076923  0.500000  0.500000      2.000000
  0.153846  0.500000  0.500000      2.000000
  0.230769  0.500000  0.500000      2.000000
  0.307692  0.500000  0.500000      2.000000
  0.384615  0.500000  0.500000      2.000000
  0.461538  0.500000  0.500000      2.000000
 
 Following cartesian coordinates:
            Coordinates               Weight
  0.000000  0.000000  0.000000      1.000000
  0.021727  0.003736  0.000000      2.000000
  0.043454  0.007472  0.000000      2.000000
  0.065182  0.011209  0.000000      2.000000
  0.086909  0.014945  0.000000      2.000000
  0.108636  0.018681  0.000000      2.000000
  0.130363  0.022417  0.000000      2.000000
  0.000000  0.024285  0.000000      2.000000
  0.021727  0.028021  0.000000      2.000000
  0.043454  0.031758  0.000000      2.000000
  0.065182  0.035494  0.000000      2.000000
  0.086909  0.039230  0.000000      2.000000
  0.108636  0.042966  0.000000      2.000000
  0.130363  0.046702  0.000000      2.000000
 -0.130363  0.001868  0.000000      2.000000
 -0.108636  0.005604  0.000000      2.000000
 -0.086909  0.009340  0.000000      2.000000
 -0.065182  0.013077  0.000000      2.000000
 -0.043454  0.016813  0.000000      2.000000
 -0.021727  0.020549  0.000000      2.000000
  0.000000  0.048570  0.000000      1.000000
  0.021727  0.052307  0.000000      2.000000
  0.043454  0.056043  0.000000      2.000000
  0.065182  0.059779  0.000000      2.000000
  0.086909  0.063515  0.000000      2.000000
  0.108636  0.067251  0.000000      2.000000
  0.130363  0.070987  0.000000      2.000000
  0.000000  0.000000  0.018181      1.000000
  0.021727  0.003736  0.018181      2.000000
  0.043454  0.007472  0.018181      2.000000
  0.065182  0.011209  0.018181      2.000000
  0.086909  0.014945  0.018181      2.000000
  0.108636  0.018681  0.018181      2.000000
  0.130363  0.022417  0.018181      2.000000
  0.000000  0.024285  0.018181      2.000000
  0.021727  0.028021  0.018181      2.000000
  0.043454  0.031758  0.018181      2.000000
  0.065182  0.035494  0.018181      2.000000
  0.086909  0.039230  0.018181      2.000000
  0.108636  0.042966  0.018181      2.000000
  0.130363  0.046702  0.018181      2.000000
 -0.130363  0.001868  0.018181      2.000000
 -0.108636  0.005604  0.018181      2.000000
 -0.086909  0.009340  0.018181      2.000000
 -0.065182  0.013077  0.018181      2.000000
 -0.043454  0.016813  0.018181      2.000000
 -0.021727  0.020549  0.018181      2.000000
  0.000000  0.048570  0.018181      1.000000
  0.021727  0.052307  0.018181      2.000000
  0.043454  0.056043  0.018181      2.000000
  0.065182  0.059779  0.018181      2.000000
  0.086909  0.063515  0.018181      2.000000
  0.108636  0.067251  0.018181      2.000000
  0.130363  0.070987  0.018181      2.000000
 


--------------------------------------------------------------------------------------------------------




 Dimension of arrays:
   k-points           NKPTS =     54   k-points in BZ     NKDIM =     54   number of bands    NBANDS=     68
   number of dos      NEDOS =    301   number of ions     NIONS =     24
   non local maximal  LDIM  =      4   non local SUM 2l+1 LMDIM =      8
   total plane-waves  NPLWV = 192000
   max r-space proj   IRMAX =   2772   max aug-charges    IRDMAX=   6603
   dimension x,y,z NGX =    20 NGY =   60 NGZ =  160
   dimension x,y,z NGXF=    40 NGYF=  120 NGZF=  320
   support grid    NGXF=    40 NGYF=  120 NGZF=  320
   ions per type =              12  12
 NGX,Y,Z   is equivalent  to a cutoff of   9.39,  9.55,  9.67 a.u.
 NGXF,Y,Z  is equivalent  to a cutoff of  18.78, 19.10, 19.34 a.u.


 I would recommend the setting:
   dimension x,y,z NGX =    20 NGY =   59 NGZ =  155
 SYSTEM =  unknown system                          
 POSCAR =  Si12                                    

 Startparameter for this run:
   NWRITE =      2    write-flag & timer
   PREC   = accura    normal or accurate (medium, high low for compatibility)
   ISTART =      0    job   : 0-new  1-cont  2-samecut
   ICHARG =      2    charge: 1-file 2-atom 10-const
   ISPIN  =      1    spin polarized calculation?
   LNONCOLLINEAR =      F non collinear calculations
   LSORBIT =      F    spin-orbit coupling
   INIWAV =      1    electr: 0-lowe 1-rand  2-diag
   LASPH  =      F    aspherical Exc in radial PAW
   METAGGA=      F    non-selfconsistent MetaGGA calc.

 Electronic Relaxation 1
   ENCUT  =  300.0 eV  22.05 Ry    4.70 a.u.   5.00 14.75 38.84*2*pi/ulx,y,z
   ENINI  =  300.0     initial cutoff
   ENAUG  =  342.9 eV  augmentation charge cutoff
   NELM   =     60;   NELMIN=  2; NELMDL= -5     # of ELM steps 
   EDIFF  = 0.1E-05   stopping-criterion for ELM
   LREAL  =      T    real-space projection
   NLSPLINE    = F    spline interpolate recip. space projectors
   LCOMPAT=      F    compatible to vasp.4.4
   GGA_COMPAT  = T    GGA compatible to vasp.4.4-vasp.4.6
   LMAXPAW     = -100 max onsite density
   LMAXMIX     =    2 max onsite mixed and CHGCAR
   VOSKOWN=      0    Vosko Wilk Nusair interpolation
   ROPT   =   -0.00025  -0.00025
 Ionic relaxation
   EDIFFG = 0.1E-04   stopping-criterion for IOM
   NSW    =      0    number of steps for IOM
   NBLOCK =      1;   KBLOCK =      1    inner block; outer block 
   IBRION =     -1    ionic relax: 0-MD 1-quasi-New 2-CG
   NFREE  =      1    steps in history (QN), initial steepest desc. (CG)
   ISIF   =      3    stress and relaxation
   IWAVPR =     10    prediction:  0-non 1-charg 2-wave 3-comb
   ISYM   =      2    0-nonsym 1-usesym 2-fastsym
   LCORR  =      T    Harris-Foulkes like correction to forces

   POTIM  = 0.5000    time-step for ionic-motion
   TEIN   =    0.0    initial temperature
   TEBEG  =    0.0;   TEEND  =   0.0 temperature during run
   SMASS  =  -3.00    Nose mass-parameter (am)
   estimated Nose-frequenzy (Omega)   =  0.10E-29 period in steps =****** mass=  -0.286E-27a.u.
   SCALEE = 1.0000    scale energy and forces
   NPACO  =    256;   APACO  = 16.0  distance and # of slots for P.C.
   PSTRESS=    0.0 pullay stress

  Mass of Ions in am
   POMASS =  30.97 28.09
  Ionic Valenz
   ZVAL   =   5.00  4.00
  Atomic Wigner-Seitz radii
   RWIGS  =  -1.00 -1.00
  virtual crystal weights 
   VCA    =   1.00  1.00
   NELECT =     108.0000    total number of electrons
   NUPDOWN=      -1.0000    fix difference up-down

 DOS related values:
   EMIN   =  10.00;   EMAX   =-10.00  energy-range for DOS
   EFERMI =   0.00
   ISMEAR =     0;   SIGMA  =   0.10  broadening in eV -4-tet -1-fermi 0-gaus

 Electronic relaxation 2 (details)
   IALGO  =     38    algorithm
   LDIAG  =      T    sub-space diagonalisation (order eigenvalues)
   LSUBROT=      F    optimize rotation matrix (better conditioning)
   TURBO    =      0    0=normal 1=particle mesh
   IRESTART =      0    0=no restart 2=restart with 2 vectors
   NREBOOT  =      0    no. of reboots
   NMIN     =      0    reboot dimension
   EREF     =   0.00    reference energy to select bands
   IMIX   =      4    mixing-type and parameters
     AMIX     =   0.40;   BMIX     =  1.00
     AMIX_MAG =   1.60;   BMIX_MAG =  1.00
     AMIN     =   0.10
     WC   =   100.;   INIMIX=   1;  MIXPRE=   1;  MAXMIX= -45

 Intra band minimization:
   WEIMIN = 0.0000     energy-eigenvalue tresh-hold
   EBREAK =  0.37E-08  absolut break condition
   DEPER  =   0.30     relativ break condition  

   TIME   =   0.40     timestep for ELM

  volume/ion in A,a.u.               =      41.76       281.83
  Fermi-wavevector in a.u.,A,eV,Ry     =   0.779018  1.472130  8.256946  0.606868
  Thomas-Fermi vector in A             =   1.882034
 
 Write flags
   LWAVE  =      F    write WAVECAR
   LCHARG =      F    write CHGCAR
   LVTOT  =      F    write LOCPOT, total local potential
   LVHAR  =      F    write LOCPOT, Hartree potential only
   LELF   =      F    write electronic localiz. function (ELF)
   LORBIT =      0    0 simple, 1 ext, 2 COOP (PROOUT)


 Dipole corrections
   LMONO  =      F    monopole corrections only (constant potential shift)
   LDIPOL =      F    correct potential (dipole corrections)
   IDIPOL =      0    1-x, 2-y, 3-z, 4-all directions 
   EPSILON=  1.0000000 bulk dielectric constant

 Exchange correlation treatment:
   GGA     =    BO    GGA type
   LEXCH   =    42    internal setting for exchange type
   VOSKOWN=      0    Vosko Wilk Nusair interpolation
   LHFCALC =     F    Hartree Fock is set to
   LHFONE  =     F    Hartree Fock one center treatment
   AEXX    =    0.0000 exact exchange contribution

 vdW DFT:
   LUSE_VDW   =     T    switch on vdW DFT
   Zab_VDW    =-.8491    correlation parameter
   PARAM1     =0.1833
   PARAM2     =0.2200
   PARAM3     =0.0000

 Linear response parameters
   LEPSILON=     F    determine dielectric tensor
   LRPA    =     F    only Hartree local field effects (RPA)
   LNABLA  =     F    use nabla operator in PAW spheres
   LVEL    =     F    velocity operator in full k-point grid
   LINTERFAST=   F  fast interpolation
   KINTER  =     0    interpolate to denser k-point grid
   CSHIFT  =0.1000    complex shift for real part using Kramers Kronig
   OMEGAMAX=  -1.0    maximum frequency
   DEG_THRESHOLD= 0.2000000E-02 threshold for treating states as degnerate
   RTIME   =    0.100 relaxation time in fs

 Orbital magnetization related:
   ORBITALMAG=     F  switch on orbital magnetization
   LCHIMAG   =     F  perturbation theory with respect to B field
   DQ        =  0.001000  dq finite difference perturbation B field



--------------------------------------------------------------------------------------------------------


 Static calculation
 charge density and potential will be updated during run
 non-spin polarized calculation
 Variant of blocked Davidson
 Davidson routine will perform the subspace rotation
 perform sub-space diagonalisation
    after iterative eigenvector-optimisation
 modified Broyden-mixing scheme, WC =      100.0
 initial mixing is a Kerker type mixing with AMIX =  0.4000 and BMIX =      1.0000
 Hartree-type preconditioning will be used
 using additional bands           14
 real space projection scheme for non local part
 use partial core corrections
 calculate Harris-corrections to forces 
   (improved forces if not selfconsistent)
 use gradient corrections 
 use of overlap-Matrix (Vanderbilt PP)
 Gauss-broadening in eV      SIGMA  =   0.10


--------------------------------------------------------------------------------------------------------


  energy-cutoff  :      300.00
  volume of cell :     1002.32
      direct lattice vectors                 reciprocal lattice vectors
     3.540400000  0.000000000  0.000000000     0.282453960  0.048570342  0.000000000
    -1.770200000 10.294348000  0.000000000     0.000000000  0.097140683  0.000000000
     0.000000000  0.000000000 27.501429000     0.000000000  0.000000000  0.036361747

  length of vectors
     3.540400000 10.445439617 27.501429000     0.286599577  0.097140683  0.036361747


 
 k-points in units of 2pi/SCALE and weight: pymatgen generated KPOINTS with grid den
   0.00000000  0.00000000  0.00000000       0.010
   0.02172723  0.00373618  0.00000000       0.019
   0.04345446  0.00747236  0.00000000       0.019
   0.06518168  0.01120854  0.00000000       0.019
   0.08690891  0.01494472  0.00000000       0.019
   0.10863614  0.01868090  0.00000000       0.019
   0.13036337  0.02241708  0.00000000       0.019
   0.00000000  0.02428517  0.00000000       0.019
   0.02172723  0.02802135  0.00000000       0.019
   0.04345446  0.03175753  0.00000000       0.019
   0.06518168  0.03549371  0.00000000       0.019
   0.08690891  0.03922989  0.00000000       0.019
   0.10863614  0.04296607  0.00000000       0.019
   0.13036337  0.04670225  0.00000000       0.019
  -0.13036337  0.00186809  0.00000000       0.019
  -0.10863614  0.00560427  0.00000000       0.019
  -0.08690891  0.00934045  0.00000000       0.019
  -0.06518168  0.01307663  0.00000000       0.019
  -0.04345446  0.01681281  0.00000000       0.019
  -0.02172723  0.02054899  0.00000000       0.019
   0.00000000  0.04857034  0.00000000       0.010
   0.02172723  0.05230652  0.00000000       0.019
   0.04345446  0.05604270  0.00000000       0.019
   0.06518168  0.05977888  0.00000000       0.019
   0.08690891  0.06351506  0.00000000       0.019
   0.10863614  0.06725124  0.00000000       0.019
   0.13036337  0.07098742  0.00000000       0.019
   0.00000000  0.00000000  0.01818087       0.010
   0.02172723  0.00373618  0.01818087       0.019
   0.04345446  0.00747236  0.01818087       0.019
   0.06518168  0.01120854  0.01818087       0.019
   0.08690891  0.01494472  0.01818087       0.019
   0.10863614  0.01868090  0.01818087       0.019
   0.13036337  0.02241708  0.01818087       0.019
   0.00000000  0.02428517  0.01818087       0.019
   0.02172723  0.02802135  0.01818087       0.019
   0.04345446  0.03175753  0.01818087       0.019
   0.06518168  0.03549371  0.01818087       0.019
   0.08690891  0.03922989  0.01818087       0.019
   0.10863614  0.04296607  0.01818087       0.019
   0.13036337  0.04670225  0.01818087       0.019
  -0.13036337  0.00186809  0.01818087       0.019
  -0.10863614  0.00560427  0.01818087       0.019
  -0.08690891  0.00934045  0.01818087       0.019
  -0.06518168  0.01307663  0.01818087       0.019
  -0.04345446  0.01681281  0.01818087       0.019
  -0.02172723  0.02054899  0.01818087       0.019
   0.00000000  0.04857034  0.01818087       0.010
   0.02172723  0.05230652  0.01818087       0.019
   0.04345446  0.05604270  0.01818087       0.019
   0.06518168  0.05977888  0.01818087       0.019
   0.08690891  0.06351506  0.01818087       0.019
   0.10863614  0.06725124  0.01818087       0.019
   0.13036337  0.07098742  0.01818087       0.019
 
 k-points in reciprocal lattice and weights: pymatgen generated KPOINTS with grid den
   0.00000000  0.00000000  0.00000000       0.010
   0.07692308 -0.00000000  0.00000000       0.019
   0.15384615 -0.00000000  0.00000000       0.019
   0.23076923 -0.00000000  0.00000000       0.019
   0.30769231 -0.00000000  0.00000000       0.019
   0.38461538 -0.00000000  0.00000000       0.019
   0.46153846 -0.00000000  0.00000000       0.019
   0.00000000  0.25000000  0.00000000       0.019
   0.07692308  0.25000000  0.00000000       0.019
   0.15384615  0.25000000  0.00000000       0.019
   0.23076923  0.25000000  0.00000000       0.019
   0.30769231  0.25000000  0.00000000       0.019
   0.38461538  0.25000000  0.00000000       0.019
   0.46153846  0.25000000  0.00000000       0.019
  -0.46153846  0.25000000  0.00000000       0.019
  -0.38461538  0.25000000  0.00000000       0.019
  -0.30769231  0.25000000  0.00000000       0.019
  -0.23076923  0.25000000  0.00000000       0.019
  -0.15384615  0.25000000  0.00000000       0.019
  -0.07692308  0.25000000  0.00000000       0.019
   0.00000000  0.50000000  0.00000000       0.010
   0.07692308  0.50000000  0.00000000       0.019
   0.15384615  0.50000000  0.00000000       0.019
   0.23076923  0.50000000  0.00000000       0.019
   0.30769231  0.50000000  0.00000000       0.019
   0.38461538  0.50000000  0.00000000       0.019
   0.46153846  0.50000000  0.00000000       0.019
   0.00000000  0.00000000  0.50000000       0.010
   0.07692308 -0.00000000  0.50000000       0.019
   0.15384615 -0.00000000  0.50000000       0.019
   0.23076923 -0.00000000  0.50000000       0.019
   0.30769231 -0.00000000  0.50000000       0.019
   0.38461538 -0.00000000  0.50000000       0.019
   0.46153846 -0.00000000  0.50000000       0.019
   0.00000000  0.25000000  0.50000000       0.019
   0.07692308  0.25000000  0.50000000       0.019
   0.15384615  0.25000000  0.50000000       0.019
   0.23076923  0.25000000  0.50000000       0.019
   0.30769231  0.25000000  0.50000000       0.019
   0.38461538  0.25000000  0.50000000       0.019
   0.46153846  0.25000000  0.50000000       0.019
  -0.46153846  0.25000000  0.50000000       0.019
  -0.38461538  0.25000000  0.50000000       0.019
  -0.30769231  0.25000000  0.50000000       0.019
  -0.23076923  0.25000000  0.50000000       0.019
  -0.15384615  0.25000000  0.50000000       0.019
  -0.07692308  0.25000000  0.50000000       0.019
   0.00000000  0.50000000  0.50000000       0.010
   0.07692308  0.50000000  0.50000000       0.019
   0.15384615  0.50000000  0.50000000       0.019
   0.23076923  0.50000000  0.50000000       0.019
   0.30769231  0.50000000  0.50000000       0.019
   0.38461538  0.50000000  0.50000000       0.019
   0.46153846  0.50000000  0.50000000       0.019
 
 position of ions in fractional coordinates (direct lattice) 
   0.11402300  0.22804500  0.23316207
   0.61402300  0.12804500  0.51499159
   0.45808900  0.91617900  0.20939482
   0.95808900  0.81617900  0.49122434
   0.31085400  0.62170900  0.08414979
   0.31085400  0.62170900  0.36597930
   0.99923000  0.99846000  0.08631254
   0.99923000  0.99846000  0.36814206
   0.65492700  0.30985400  0.06041748
   0.65492700  0.30985400  0.34224700
   0.76973800  0.53947500  0.20725292
   0.26973800  0.43947500  0.48908244
   0.93971600  0.87943300  0.15783749
   0.43971600  0.77943300  0.43966701
   0.20515200  0.41030300  0.18578822
   0.70515200  0.31030300  0.46761774
   0.20184900  0.40369900  0.09969156
   0.20184900  0.40369900  0.38152107
   0.56380500  0.12761000  0.10779021
   0.56380500  0.12761000  0.38961973
   0.56710600  0.13421200  0.19387616
   0.06710600  0.03421200  0.47570568
   0.82923400  0.65846800  0.13571444
   0.32923400  0.55846800  0.41754396
 
 position of ions in cartesian coordinates  (Angst):
   0.00000177  2.34757459  6.41229012
   1.94722177  1.31813979 14.16300462
  -0.00000177  9.43146546  5.75865686
   1.94721823  8.40203066 13.50937136
  -0.00000177  6.40008880  2.31423934
  -0.00000177  6.40008880 10.06495384
   1.77020000 10.27849470  2.37371832
   1.77020000 10.27849470 10.12443282
   1.77020000  3.18974491  1.66156717
   1.77020000  3.18974491  9.41228167
   1.77020177  5.55354339  5.69975143
   0.17702177  4.52410859 13.45046593
   1.77019823  9.05318934  4.34075665
   0.17701823  8.02375454 12.09147115
   0.00000177  4.22380187  5.10944151
   1.94722177  3.19436707 12.86015601
  -0.00000177  4.15581799  2.74166024
  -0.00000177  4.15581799 10.49237474
   1.77020000  1.31366175  2.96438477
   1.77020000  1.31366175 10.71509927
   1.77020000  1.38162503  5.33187152
   0.17702000  0.35219023 13.08258602
   1.77020000  6.77849874  3.73234107
   0.17702000  5.74906394 11.48305557
 


--------------------------------------------------------------------------------------------------------


 k-point  1 :   0.0000 0.0000 0.0000  plane waves:   11717
 k-point  2 :   0.0769-0.0000 0.0000  plane waves:   11762
 k-point  3 :   0.1538-0.0000 0.0000  plane waves:   11805
 k-point  4 :   0.2308-0.0000 0.0000  plane waves:   11824
 k-point  5 :   0.3077-0.0000 0.0000  plane waves:   11875
 k-point  6 :   0.3846-0.0000 0.0000  plane waves:   11864
 k-point  7 :   0.4615-0.0000 0.0000  plane waves:   11883
 k-point  8 :   0.0000 0.2500 0.0000  plane waves:   11683
 k-point  9 :   0.0769 0.2500 0.0000  plane waves:   11756
 k-point 10 :   0.1538 0.2500 0.0000  plane waves:   11807
 k-point 11 :   0.2308 0.2500 0.0000  plane waves:   11853
 k-point 12 :   0.3077 0.2500 0.0000  plane waves:   11866
 k-point 13 :   0.3846 0.2500 0.0000  plane waves:   11889
 k-point 14 :   0.4615 0.2500 0.0000  plane waves:   11885
 k-point 15 :  -0.4615 0.2500 0.0000  plane waves:   11886
 k-point 16 :  -0.3846 0.2500 0.0000  plane waves:   11867
 k-point 17 :  -0.3077 0.2500 0.0000  plane waves:   11849
 k-point 18 :  -0.2308 0.2500 0.0000  plane waves:   11827
 k-point 19 :  -0.1538 0.2500 0.0000  plane waves:   11801
 k-point 20 :  -0.0769 0.2500 0.0000  plane waves:   11757
 k-point 21 :   0.0000 0.5000 0.0000  plane waves:   11710
 k-point 22 :   0.0769 0.5000 0.0000  plane waves:   11762
 k-point 23 :   0.1538 0.5000 0.0000  plane waves:   11782
 k-point 24 :   0.2308 0.5000 0.0000  plane waves:   11841
 k-point 25 :   0.3077 0.5000 0.0000  plane waves:   11876
 k-point 26 :   0.3846 0.5000 0.0000  plane waves:   11889
 k-point 27 :   0.4615 0.5000 0.0000  plane waves:   11881
 k-point 28 :   0.0000 0.0000 0.5000  plane waves:   11698
 k-point 29 :   0.0769-0.0000 0.5000  plane waves:   11752
 k-point 30 :   0.1538-0.0000 0.5000  plane waves:   11800
 k-point 31 :   0.2308-0.0000 0.5000  plane waves:   11834
 k-point 32 :   0.3077-0.0000 0.5000  plane waves:   11850
 k-point 33 :   0.3846-0.0000 0.5000  plane waves:   11888
 k-point 34 :   0.4615-0.0000 0.5000  plane waves:   11896
 k-point 35 :   0.0000 0.2500 0.5000  plane waves:   11714
 k-point 36 :   0.0769 0.2500 0.5000  plane waves:   11754
 k-point 37 :   0.1538 0.2500 0.5000  plane waves:   11802
 k-point 38 :   0.2308 0.2500 0.5000  plane waves:   11840
 k-point 39 :   0.3077 0.2500 0.5000  plane waves:   11858
 k-point 40 :   0.3846 0.2500 0.5000  plane waves:   11896
 k-point 41 :   0.4615 0.2500 0.5000  plane waves:   11886
 k-point 42 :  -0.4615 0.2500 0.5000  plane waves:   11852
 k-point 43 :  -0.3846 0.2500 0.5000  plane waves:   11838
 k-point 44 :  -0.3077 0.2500 0.5000  plane waves:   11842
 k-point 45 :  -0.2308 0.2500 0.5000  plane waves:   11840
 k-point 46 :  -0.1538 0.2500 0.5000  plane waves:   11804
 k-point 47 :  -0.0769 0.2500 0.5000  plane waves:   11748
 k-point 48 :   0.0000 0.5000 0.5000  plane waves:   11724
 k-point 49 :   0.0769 0.5000 0.5000  plane waves:   11748
 k-point 50 :   0.1538 0.5000 0.5000  plane waves:   11814
 k-point 51 :   0.2308 0.5000 0.5000  plane waves:   11832
 k-point 52 :   0.3077 0.5000 0.5000  plane waves:   11868
 k-point 53 :   0.3846 0.5000 0.5000  plane waves:   11892
 k-point 54 :   0.4615 0.5000 0.5000  plane waves:   11878

 maximum and minimum number of plane-waves per node :      5964     5832

 maximum number of plane-waves:     11896
 maximum index in each direction: 
   IXMAX=    5   IYMAX=   14   IZMAX=   38
   IXMIN=   -5   IYMIN=  -15   IZMIN=  -39

 WARNING: aliasing errors must be expected set NGX to  22 to avoid them
 NGY is ok and might be reduce to  60
 NGZ is ok and might be reduce to 156
 aliasing errors are usually negligible using standard VASP settings
 and one can safely disregard these warnings

 real space projection operators:
  total allocation   :       3793.25 KBytes
  max/ min on nodes  :       1899.38       1893.88


 parallel 3D FFT for wavefunctions:
    minimum data exchange during FFTs selected (reduces bandwidth)
 parallel 3D FFT for charge:
    minimum data exchange during FFTs selected (reduces bandwidth)


 total amount of memory used by VASP on root node   146493. kBytes
========================================================================

   base      :      30000. kBytes
   nonlr-proj:       3452. kBytes
   fftplans  :       9347. kBytes
   grid      :      14649. kBytes
   one-center:         36. kBytes
   wavefun   :      89009. kBytes
 
     INWAV:  cpu time    0.00: real time    0.00
 Broyden mixing: mesh for mixing (old mesh)
   NGX =  9   NGY = 29   NGZ = 77
  (NGX  = 40   NGY  =120   NGZ  =320)
  gives a total of  20097 points

 initial charge density was supplied:
 charge density of overlapping atoms calculated
 number of electron     108.0000000 magnetization 
 keeping initial charge density in first step


--------------------------------------------------------------------------------------------------------


 Maximum index for non-local projection operator         1333
 Maximum index for augmentation-charges          822 (set IRDMAX)


--------------------------------------------------------------------------------------------------------


 First call to EWALD:  gamma=   0.177
 Maximum number of real-space cells 7x 3x 1
 Maximum number of reciprocal cells 1x 3x 7

 FEWALD executed in parallel
    FEWALD:  cpu time    0.00: real time    0.00


----------------------------------------- Iteration    1(   1)  ---------------------------------------


vdW kernel read from vdw_kernel.bindat
  0.0000  0.2424  0.5071  0.7962  1.1119  1.4567  1.8333  2.2446  2.6937  3.1842
  3.7199  4.3049  4.9438  5.6415  6.4036  7.2358  8.1446  9.1372 10.2212 11.4050
 12.6979 14.1099 15.6519 17.3360 19.1751 21.1837 23.3773 25.7729 28.3892 31.2465
 34.3669 37.7748 41.4965 45.5611 50.0000
 
    POTLOK:  cpu time   15.97: real time   15.98
    SETDIJ:  cpu time    0.01: real time    0.01
     EDDAV:  cpu time   60.09: real time   60.12
       DOS:  cpu time    0.01: real time    0.01
    --------------------------------------------
      LOOP:  cpu time   76.08: real time   76.12

 eigenvalue-minimisations  :  7360
 total energy-change (2. order) : 0.5006169E+03  (-0.2871003E+04)
 number of electron     108.0000000 magnetization 
 augmentation part      108.0000000 magnetization 

 Free energy of the ion-electron system (eV)
  ---------------------------------------------------
  alpha Z        PSCENC =        36.80884744
  Ewald energy   TEWEN  =     11939.57897476
  -Hartree energ DENC   =    -14973.47198028
  -exchange      EXHF   =         0.00000000
  -V(xc)+E(xc)   XCENC  =       -87.71229030
  PAW double counting   =      1056.43050070     -732.41190547
  entropy T*S    EENTRO =        -0.04088495
  eigenvalues    EBANDS =       -92.60557998
  atomic energy  EATOM  =      3354.04126044
  ---------------------------------------------------
  free energy    TOTEN  =       500.61694238 eV

  energy without entropy =      500.65782733  energy(sigma->0) =      500.63738485


--------------------------------------------------------------------------------------------------------




----------------------------------------- Iteration    1(   2)  ---------------------------------------


     EDDAV:  cpu time   75.02: real time   75.06
       DOS:  cpu time    0.01: real time    0.01
    --------------------------------------------
      LOOP:  cpu time   75.03: real time   75.07

 eigenvalue-minimisations  :  9764
 total energy-change (2. order) :-0.5613332E+03  (-0.5466726E+03)
 number of electron     108.0000000 magnetization 
 augmentation part      108.0000000 magnetization 

 Free energy of the ion-electron system (eV)
  ---------------------------------------------------
  alpha Z        PSCENC =        36.80884744
  Ewald energy   TEWEN  =     11939.57897476
  -Hartree energ DENC   =    -14973.47198028
  -exchange      EXHF   =         0.00000000
  -V(xc)+E(xc)   XCENC  =       -87.71229030
  PAW double counting   =      1056.43050070     -732.41190547
  entropy T*S    EENTRO =        -0.02640088
  eigenvalues    EBANDS =      -653.95321804
  atomic energy  EATOM  =      3354.04126044
  ---------------------------------------------------
  free energy    TOTEN  =       -60.71621161 eV

  energy without entropy =      -60.68981073  energy(sigma->0) =      -60.70301117


--------------------------------------------------------------------------------------------------------




----------------------------------------- Iteration    1(   3)  ---------------------------------------


     EDDAV:  cpu time   73.12: real time   73.16
       DOS:  cpu time    0.01: real time    0.01
    --------------------------------------------
      LOOP:  cpu time   73.13: real time   73.43

 eigenvalue-minimisations  :  8904
 total energy-change (2. order) :-0.5795714E+02  (-0.5704112E+02)
 number of electron     108.0000000 magnetization 
 augmentation part      108.0000000 magnetization 

 Free energy of the ion-electron system (eV)
  ---------------------------------------------------
  alpha Z        PSCENC =        36.80884744
  Ewald energy   TEWEN  =     11939.57897476
  -Hartree energ DENC   =    -14973.47198028
  -exchange      EXHF   =         0.00000000
  -V(xc)+E(xc)   XCENC  =       -87.71229030
  PAW double counting   =      1056.43050070     -732.41190547
  entropy T*S    EENTRO =        -0.03242914
  eigenvalues    EBANDS =      -711.90432873
  atomic energy  EATOM  =      3354.04126044
  ---------------------------------------------------
  free energy    TOTEN  =      -118.67335057 eV

  energy without entropy =     -118.64092142  energy(sigma->0) =     -118.65713600


--------------------------------------------------------------------------------------------------------




----------------------------------------- Iteration    1(   4)  ---------------------------------------


     EDDAV:  cpu time   83.12: real time   83.15
       DOS:  cpu time    0.01: real time    0.01
    --------------------------------------------
      LOOP:  cpu time   83.13: real time   83.93

 eigenvalue-minimisations  : 10704
 total energy-change (2. order) :-0.2698157E+01  (-0.2678919E+01)
 number of electron     108.0000000 magnetization 
 augmentation part      108.0000000 magnetization 

 Free energy of the ion-electron system (eV)
  ---------------------------------------------------
  alpha Z        PSCENC =        36.80884744
  Ewald energy   TEWEN  =     11939.57897476
  -Hartree energ DENC   =    -14973.47198028
  -exchange      EXHF   =         0.00000000
  -V(xc)+E(xc)   XCENC  =       -87.71229030
  PAW double counting   =      1056.43050070     -732.41190547
  entropy T*S    EENTRO =        -0.03542940
  eigenvalues    EBANDS =      -714.59948532
  atomic energy  EATOM  =      3354.04126044
  ---------------------------------------------------
  free energy    TOTEN  =      -121.37150741 eV

  energy without entropy =     -121.33607801  energy(sigma->0) =     -121.35379271


--------------------------------------------------------------------------------------------------------




----------------------------------------- Iteration    1(   5)  ---------------------------------------


     EDDAV:  cpu time   77.73: real time   77.75
       DOS:  cpu time    0.01: real time    0.01
    CHARGE:  cpu time    3.95: real time    3.95
    MIXING:  cpu time    0.01: real time    0.01
    --------------------------------------------
      LOOP:  cpu time   81.69: real time   81.72

 eigenvalue-minimisations  : 10088
 total energy-change (2. order) :-0.7256019E-01  (-0.7246537E-01)
 number of electron     107.9999994 magnetization 
 augmentation part       -9.6927384 magnetization 

 Broyden mixing:
  rms(total) = 0.12565E+01    rms(broyden)= 0.12563E+01
  rms(prec ) = 0.13523E+01
  weight for this iteration     100.00

 Free energy of the ion-electron system (eV)
  ---------------------------------------------------
  alpha Z        PSCENC =        36.80884744
  Ewald energy   TEWEN  =     11939.57897476
  -Hartree energ DENC   =    -14973.47198028
  -exchange      EXHF   =         0.00000000
  -V(xc)+E(xc)   XCENC  =       -87.71229030
  PAW double counting   =      1056.43050070     -732.41190547
  entropy T*S    EENTRO =        -0.03555769
  eigenvalues    EBANDS =      -714.67191722
  atomic energy  EATOM  =      3354.04126044
  ---------------------------------------------------
  free energy    TOTEN  =      -121.44406761 eV

  energy without entropy =     -121.40850991  energy(sigma->0) =     -121.42628876


--------------------------------------------------------------------------------------------------------




----------------------------------------- Iteration    1(   6)  ---------------------------------------


    POTLOK:  cpu time   14.51: real time   14.51
    SETDIJ:  cpu time    0.01: real time    0.01
     EDDAV:  cpu time   69.15: real time   69.16
       DOS:  cpu time    0.01: real time    0.01
    CHARGE:  cpu time    4.01: real time    4.01
    MIXING:  cpu time    0.01: real time    0.01
    --------------------------------------------
      LOOP:  cpu time   87.71: real time   87.72

 eigenvalue-minimisations  :  8680
 total energy-change (2. order) : 0.4792386E+01  (-0.1364820E+01)
 number of electron     107.9999995 magnetization 
 augmentation part       -9.5147594 magnetization 

 Broyden mixing:
  rms(total) = 0.59695E+00    rms(broyden)= 0.59692E+00
  rms(prec ) = 0.63644E+00
  weight for this iteration     100.00

 eigenvalues of (default mixing * dielectric matrix)
  average eigenvalue GAMMA=   1.5305
  1.5305

 Free energy of the ion-electron system (eV)
  ---------------------------------------------------
  alpha Z        PSCENC =        36.80884744
  Ewald energy   TEWEN  =     11939.57897476
  -Hartree energ DENC   =    -15023.42197407
  -exchange      EXHF   =         0.00000000
  -V(xc)+E(xc)   XCENC  =       -84.24112372
  PAW double counting   =      1127.29772197     -805.27804058
  entropy T*S    EENTRO =        -0.02831763
  eigenvalues    EBANDS =      -661.40903005
  atomic energy  EATOM  =      3354.04126044
  ---------------------------------------------------
  free energy    TOTEN  =      -116.65168143 eV

  energy without entropy =     -116.62336381  energy(sigma->0) =     -116.63752262


--------------------------------------------------------------------------------------------------------




----------------------------------------- Iteration    1(   7)  ---------------------------------------


    POTLOK:  cpu time   14.46: real time   14.48
    SETDIJ:  cpu time    0.01: real time    0.01
     EDDAV:  cpu time   67.73: real time   67.76
       DOS:  cpu time    0.01: real time    0.01
    CHARGE:  cpu time    3.94: real time    3.95
    MIXING:  cpu time    0.01: real time    0.01
    --------------------------------------------
      LOOP:  cpu time   86.17: real time   86.23

 eigenvalue-minimisations  :  8472
 total energy-change (2. order) : 0.1375235E+00  (-0.8062681E+00)
 number of electron     107.9999995 magnetization 
 augmentation part       -9.4205433 magnetization 

 Broyden mixing:
  rms(total) = 0.26105E+00    rms(broyden)= 0.26100E+00
  rms(prec ) = 0.27508E+00
  weight for this iteration     100.00

 eigenvalues of (default mixing * dielectric matrix)
  average eigenvalue GAMMA=   1.3630
  1.0469  1.6790

 Free energy of the ion-electron system (eV)
  ---------------------------------------------------
  alpha Z        PSCENC =        36.80884744
  Ewald energy   TEWEN  =     11939.57897476
  -Hartree energ DENC   =    -15046.92786080
  -exchange      EXHF   =         0.00000000
  -V(xc)+E(xc)   XCENC  =       -81.66218915
  PAW double counting   =      1170.88452416     -850.09838408
  entropy T*S    EENTRO =        -0.03450605
  eigenvalues    EBANDS =      -639.10482463
  atomic energy  EATOM  =      3354.04126044
  ---------------------------------------------------
  free energy    TOTEN  =      -116.51415790 eV

  energy without entropy =     -116.47965184  energy(sigma->0) =     -116.49690487


--------------------------------------------------------------------------------------------------------




----------------------------------------- Iteration    1(   8)  ---------------------------------------


    POTLOK:  cpu time   14.36: real time   14.37
    SETDIJ:  cpu time    0.01: real time    0.01
     EDDAV:  cpu time   70.48: real time   70.52
       DOS:  cpu time    0.01: real time    0.01
    CHARGE:  cpu time    3.98: real time    3.98
    MIXING:  cpu time    0.01: real time    0.01
    --------------------------------------------
      LOOP:  cpu time   88.86: real time   88.91

 eigenvalue-minimisations  :  8968
 total energy-change (2. order) :-0.1657690E-01  (-0.8288028E-01)
 number of electron     107.9999995 magnetization 
 augmentation part       -9.4149568 magnetization 

 Broyden mixing:
  rms(total) = 0.13576E+00    rms(broyden)= 0.13575E+00
  rms(prec ) = 0.14292E+00
  weight for this iteration     100.00

 eigenvalues of (default mixing * dielectric matrix)
  average eigenvalue GAMMA=   1.4866
  2.2621  0.9913  1.2063

 Free energy of the ion-electron system (eV)
  ---------------------------------------------------
  alpha Z        PSCENC =        36.80884744
  Ewald energy   TEWEN  =     11939.57897476
  -Hartree energ DENC   =    -15056.59938922
  -exchange      EXHF   =         0.00000000
  -V(xc)+E(xc)   XCENC  =       -80.66470407
  PAW double counting   =      1181.63054086     -861.16006646
  entropy T*S    EENTRO =        -0.03497070
  eigenvalues    EBANDS =      -630.13122786
  atomic energy  EATOM  =      3354.04126044
  ---------------------------------------------------
  free energy    TOTEN  =      -116.53073479 eV

  energy without entropy =     -116.49576409  energy(sigma->0) =     -116.51324944


--------------------------------------------------------------------------------------------------------




----------------------------------------- Iteration    1(   9)  ---------------------------------------


    POTLOK:  cpu time   14.43: real time   14.45
    SETDIJ:  cpu time    0.01: real time    0.01
     EDDAV:  cpu time   67.62: real time   67.65
       DOS:  cpu time    0.01: real time    0.01
    CHARGE:  cpu time    4.01: real time    4.01
    MIXING:  cpu time    0.01: real time    0.01
    --------------------------------------------
      LOOP:  cpu time   86.10: real time   86.15

 eigenvalue-minimisations  :  9016
 total energy-change (2. order) :-0.8074556E-03  (-0.1555914E-01)
 number of electron     107.9999995 magnetization 
 augmentation part       -9.4119087 magnetization 

 Broyden mixing:
  rms(total) = 0.40766E-01    rms(broyden)= 0.40761E-01
  rms(prec ) = 0.44766E-01
  weight for this iteration     100.00

 eigenvalues of (default mixing * dielectric matrix)
  average eigenvalue GAMMA=   1.4498
  2.5458  1.3106  0.9715  0.9715

 Free energy of the ion-electron system (eV)
  ---------------------------------------------------
  alpha Z        PSCENC =        36.80884744
  Ewald energy   TEWEN  =     11939.57897476
  -Hartree energ DENC   =    -15065.43499715
  -exchange      EXHF   =         0.00000000
  -V(xc)+E(xc)   XCENC  =       -79.94609236
  PAW double counting   =      1186.67694883     -866.35694940
  entropy T*S    EENTRO =        -0.03404702
  eigenvalues    EBANDS =      -621.86548780
  atomic energy  EATOM  =      3354.04126044
  ---------------------------------------------------
  free energy    TOTEN  =      -116.53154225 eV

  energy without entropy =     -116.49749523  energy(sigma->0) =     -116.51451874


--------------------------------------------------------------------------------------------------------




----------------------------------------- Iteration    1(  10)  ---------------------------------------


    POTLOK:  cpu time   14.40: real time   14.40
    SETDIJ:  cpu time    0.01: real time    0.01
     EDDAV:  cpu time   76.67: real time   76.71
       DOS:  cpu time    0.01: real time    0.01
    CHARGE:  cpu time    3.99: real time    3.99
    MIXING:  cpu time    0.01: real time    0.01
    --------------------------------------------
      LOOP:  cpu time   95.09: real time   95.14

 eigenvalue-minimisations  :  8872
 total energy-change (2. order) : 0.3943924E-02  (-0.4270019E-02)
 number of electron     107.9999995 magnetization 
 augmentation part       -9.4110328 magnetization 

 Broyden mixing:
  rms(total) = 0.16840E-01    rms(broyden)= 0.16838E-01
  rms(prec ) = 0.19208E-01
  weight for this iteration     100.00

 eigenvalues of (default mixing * dielectric matrix)
  average eigenvalue GAMMA=   1.3561
  2.5928  1.3376  1.0383  1.0383  0.7735

 Free energy of the ion-electron system (eV)
  ---------------------------------------------------
  alpha Z        PSCENC =        36.80884744
  Ewald energy   TEWEN  =     11939.57897476
  -Hartree energ DENC   =    -15067.24226138
  -exchange      EXHF   =         0.00000000
  -V(xc)+E(xc)   XCENC  =       -79.74525907
  PAW double counting   =      1186.44463911     -866.12267850
  entropy T*S    EENTRO =        -0.03427225
  eigenvalues    EBANDS =      -620.25684889
  atomic energy  EATOM  =      3354.04126044
  ---------------------------------------------------
  free energy    TOTEN  =      -116.52759833 eV

  energy without entropy =     -116.49332607  energy(sigma->0) =     -116.51046220


--------------------------------------------------------------------------------------------------------




----------------------------------------- Iteration    1(  11)  ---------------------------------------


    POTLOK:  cpu time   14.39: real time   14.40
    SETDIJ:  cpu time    0.01: real time    0.01
     EDDAV:  cpu time   68.82: real time   68.86
       DOS:  cpu time    0.01: real time    0.01
    CHARGE:  cpu time    3.94: real time    3.94
    MIXING:  cpu time    0.01: real time    0.01
    --------------------------------------------
      LOOP:  cpu time   87.18: real time   87.23

 eigenvalue-minimisations  :  9120
 total energy-change (2. order) : 0.6464944E-02  (-0.6274153E-03)
 number of electron     107.9999995 magnetization 
 augmentation part       -9.4119294 magnetization 

 Broyden mixing:
  rms(total) = 0.97913E-02    rms(broyden)= 0.97907E-02
  rms(prec ) = 0.11140E-01
  weight for this iteration     100.00

 eigenvalues of (default mixing * dielectric matrix)
  average eigenvalue GAMMA=   1.4279
  2.6099  1.6572  1.6572  0.9703  0.9703  0.7026

 Free energy of the ion-electron system (eV)
  ---------------------------------------------------
  alpha Z        PSCENC =        36.80884744
  Ewald energy   TEWEN  =     11939.57897476
  -Hartree energ DENC   =    -15068.20481382
  -exchange      EXHF   =         0.00000000
  -V(xc)+E(xc)   XCENC  =       -79.71473267
  PAW double counting   =      1185.56929684     -865.22337044
  entropy T*S    EENTRO =        -0.03445363
  eigenvalues    EBANDS =      -619.34214231
  atomic energy  EATOM  =      3354.04126044
  ---------------------------------------------------
  free energy    TOTEN  =      -116.52113338 eV

  energy without entropy =     -116.48667975  energy(sigma->0) =     -116.50390657


--------------------------------------------------------------------------------------------------------




----------------------------------------- Iteration    1(  12)  ---------------------------------------


    POTLOK:  cpu time   14.42: real time   14.43
    SETDIJ:  cpu time    0.01: real time    0.01
     EDDAV:  cpu time   69.83: real time   69.86
       DOS:  cpu time    0.01: real time    0.01
    CHARGE:  cpu time    3.95: real time    3.95
    MIXING:  cpu time    0.01: real time    0.01
    --------------------------------------------
      LOOP:  cpu time   88.24: real time   88.28

 eigenvalue-minimisations  :  8968
 total energy-change (2. order) : 0.7724072E-02  (-0.2013312E-03)
 number of electron     107.9999995 magnetization 
 augmentation part       -9.4116144 magnetization 

 Broyden mixing:
  rms(total) = 0.42958E-02    rms(broyden)= 0.42953E-02
  rms(prec ) = 0.54665E-02
  weight for this iteration     100.00

 eigenvalues of (default mixing * dielectric matrix)
  average eigenvalue GAMMA=   1.4234
  2.6797  2.1636  1.2859  1.2859  0.9211  0.9211  0.7063

 Free energy of the ion-electron system (eV)
  ---------------------------------------------------
  alpha Z        PSCENC =        36.80884744
  Ewald energy   TEWEN  =     11939.57897476
  -Hartree energ DENC   =    -15069.62584681
  -exchange      EXHF   =         0.00000000
  -V(xc)+E(xc)   XCENC  =       -79.70007038
  PAW double counting   =      1184.40286086     -864.02605181
  entropy T*S    EENTRO =        -0.03424666
  eigenvalues    EBANDS =      -617.95913716
  atomic energy  EATOM  =      3354.04126044
  ---------------------------------------------------
  free energy    TOTEN  =      -116.51340931 eV

  energy without entropy =     -116.47916265  energy(sigma->0) =     -116.49628598


--------------------------------------------------------------------------------------------------------




----------------------------------------- Iteration    1(  13)  ---------------------------------------


    POTLOK:  cpu time   14.39: real time   14.40
    SETDIJ:  cpu time    0.01: real time    0.01
     EDDAV:  cpu time   67.40: real time   67.48
       DOS:  cpu time    0.01: real time    0.01
    CHARGE:  cpu time    3.99: real time    3.99
    MIXING:  cpu time    0.01: real time    0.01
    --------------------------------------------
      LOOP:  cpu time   85.82: real time   85.92

 eigenvalue-minimisations  :  8912
 total energy-change (2. order) : 0.3630150E-02  (-0.5205793E-04)
 number of electron     107.9999995 magnetization 
 augmentation part       -9.4121604 magnetization 

 Broyden mixing:
  rms(total) = 0.18754E-02    rms(broyden)= 0.18752E-02
  rms(prec ) = 0.29912E-02
  weight for this iteration     100.00

 eigenvalues of (default mixing * dielectric matrix)
  average eigenvalue GAMMA=   1.4193
  2.7341  2.2343  1.2993  1.2993  1.2619  0.9088  0.9088  0.7080

 Free energy of the ion-electron system (eV)
  ---------------------------------------------------
  alpha Z        PSCENC =        36.80884744
  Ewald energy   TEWEN  =     11939.57897476
  -Hartree energ DENC   =    -15070.32498733
  -exchange      EXHF   =         0.00000000
  -V(xc)+E(xc)   XCENC  =       -79.69776002
  PAW double counting   =      1183.77987829     -863.38702674
  entropy T*S    EENTRO =        -0.03420882
  eigenvalues    EBANDS =      -617.27475719
  atomic energy  EATOM  =      3354.04126044
  ---------------------------------------------------
  free energy    TOTEN  =      -116.50977916 eV

  energy without entropy =     -116.47557034  energy(sigma->0) =     -116.49267475


--------------------------------------------------------------------------------------------------------




----------------------------------------- Iteration    1(  14)  ---------------------------------------


    POTLOK:  cpu time   14.42: real time   14.43
    SETDIJ:  cpu time    0.01: real time    0.01
     EDDAV:  cpu time   69.62: real time   69.67
       DOS:  cpu time    0.01: real time    0.01
    CHARGE:  cpu time    3.98: real time    3.98
    MIXING:  cpu time    0.01: real time    0.01
    --------------------------------------------
      LOOP:  cpu time   88.07: real time   88.12

 eigenvalue-minimisations  :  9240
 total energy-change (2. order) : 0.1135329E-02  (-0.1212165E-04)
 number of electron     107.9999995 magnetization 
 augmentation part       -9.4119585 magnetization 

 Broyden mixing:
  rms(total) = 0.12403E-02    rms(broyden)= 0.12403E-02
  rms(prec ) = 0.21075E-02
  weight for this iteration     100.00

 eigenvalues of (default mixing * dielectric matrix)
  average eigenvalue GAMMA=   1.4733
  2.8982  2.5466  1.7482  1.3145  1.3145  0.9145  0.9145  0.9002  0.7084

 Free energy of the ion-electron system (eV)
  ---------------------------------------------------
  alpha Z        PSCENC =        36.80884744
  Ewald energy   TEWEN  =     11939.57897476
  -Hartree energ DENC   =    -15071.04785213
  -exchange      EXHF   =         0.00000000
  -V(xc)+E(xc)   XCENC  =       -79.69231162
  PAW double counting   =      1183.64379556     -863.24765479
  entropy T*S    EENTRO =        -0.03420617
  eigenvalues    EBANDS =      -616.55949733
  atomic energy  EATOM  =      3354.04126044
  ---------------------------------------------------
  free energy    TOTEN  =      -116.50864383 eV

  energy without entropy =     -116.47443766  energy(sigma->0) =     -116.49154075


--------------------------------------------------------------------------------------------------------




----------------------------------------- Iteration    1(  15)  ---------------------------------------


    POTLOK:  cpu time   14.41: real time   14.42
    SETDIJ:  cpu time    0.01: real time    0.01
     EDDAV:  cpu time   67.06: real time   67.10
       DOS:  cpu time    0.01: real time    0.01
    CHARGE:  cpu time    4.02: real time    4.02
    MIXING:  cpu time    0.01: real time    0.01
    --------------------------------------------
      LOOP:  cpu time   85.53: real time   85.58

 eigenvalue-minimisations  :  8544
 total energy-change (2. order) : 0.8335511E-03  (-0.6631132E-05)
 number of electron     107.9999995 magnetization 
 augmentation part       -9.4116707 magnetization 

 Broyden mixing:
  rms(total) = 0.72998E-03    rms(broyden)= 0.72993E-03
  rms(prec ) = 0.12829E-02
  weight for this iteration     100.00

 eigenvalues of (default mixing * dielectric matrix)
  average eigenvalue GAMMA=   1.5060
  3.2502  2.6221  1.8212  1.4025  1.2746  1.2746  0.8971  0.8971  0.7072  0.9131

 Free energy of the ion-electron system (eV)
  ---------------------------------------------------
  alpha Z        PSCENC =        36.80884744
  Ewald energy   TEWEN  =     11939.57897476
  -Hartree energ DENC   =    -15071.90719355
  -exchange      EXHF   =         0.00000000
  -V(xc)+E(xc)   XCENC  =       -79.68665220
  PAW double counting   =      1183.52288107     -863.12388702
  entropy T*S    EENTRO =        -0.03418168
  eigenvalues    EBANDS =      -615.70785955
  atomic energy  EATOM  =      3354.04126044
  ---------------------------------------------------
  free energy    TOTEN  =      -116.50781028 eV

  energy without entropy =     -116.47362860  energy(sigma->0) =     -116.49071944


--------------------------------------------------------------------------------------------------------




----------------------------------------- Iteration    1(  16)  ---------------------------------------


    POTLOK:  cpu time   14.43: real time   14.43
    SETDIJ:  cpu time    0.01: real time    0.01
     EDDAV:  cpu time   67.26: real time   67.30
       DOS:  cpu time    0.01: real time    0.01
    CHARGE:  cpu time    4.21: real time    4.21
    MIXING:  cpu time    0.01: real time    0.01
    --------------------------------------------
      LOOP:  cpu time   85.94: real time   85.98

 eigenvalue-minimisations  :  8072
 total energy-change (2. order) :-0.1093541E-03  (-0.4229384E-05)
 number of electron     107.9999995 magnetization 
 augmentation part       -9.4116173 magnetization 

 Broyden mixing:
  rms(total) = 0.46428E-03    rms(broyden)= 0.46427E-03
  rms(prec ) = 0.80176E-03
  weight for this iteration     100.00

 eigenvalues of (default mixing * dielectric matrix)
  average eigenvalue GAMMA=   1.6062
  4.0524  2.6808  2.2767  1.6243  1.2943  1.2943  1.0799  0.8893  0.8893  0.7052
  0.8816

 Free energy of the ion-electron system (eV)
  ---------------------------------------------------
  alpha Z        PSCENC =        36.80884744
  Ewald energy   TEWEN  =     11939.57897476
  -Hartree energ DENC   =    -15072.44426512
  -exchange      EXHF   =         0.00000000
  -V(xc)+E(xc)   XCENC  =       -79.68376984
  PAW double counting   =      1183.49904661     -863.09955377
  entropy T*S    EENTRO =        -0.03418211
  eigenvalues    EBANDS =      -615.17427805
  atomic energy  EATOM  =      3354.04126044
  ---------------------------------------------------
  free energy    TOTEN  =      -116.50791963 eV

  energy without entropy =     -116.47373752  energy(sigma->0) =     -116.49082858


--------------------------------------------------------------------------------------------------------




----------------------------------------- Iteration    1(  17)  ---------------------------------------


    POTLOK:  cpu time   14.67: real time   14.69
    SETDIJ:  cpu time    0.01: real time    0.01
     EDDAV:  cpu time   67.31: real time   67.34
       DOS:  cpu time    0.01: real time    0.01
    CHARGE:  cpu time    4.05: real time    4.06
    MIXING:  cpu time    0.01: real time    0.01
    --------------------------------------------
      LOOP:  cpu time   86.08: real time   86.14

 eigenvalue-minimisations  :  8296
 total energy-change (2. order) :-0.5404173E-03  (-0.1314990E-04)
 number of electron     107.9999995 magnetization 
 augmentation part       -9.4115596 magnetization 

 Broyden mixing:
  rms(total) = 0.25045E-03    rms(broyden)= 0.25043E-03
  rms(prec ) = 0.43021E-03
  weight for this iteration     100.00

 eigenvalues of (default mixing * dielectric matrix)
  average eigenvalue GAMMA=   1.7075
  5.2732  2.7993  2.4081  1.6998  1.2766  1.2766  1.3697  0.8892  0.8892  0.7061
  1.0265  0.8757

 Free energy of the ion-electron system (eV)
  ---------------------------------------------------
  alpha Z        PSCENC =        36.80884744
  Ewald energy   TEWEN  =     11939.57897476
  -Hartree energ DENC   =    -15072.94654932
  -exchange      EXHF   =         0.00000000
  -V(xc)+E(xc)   XCENC  =       -79.68097147
  PAW double counting   =      1183.53203008     -863.13335865
  entropy T*S    EENTRO =        -0.03418250
  eigenvalues    EBANDS =      -614.67451084
  atomic energy  EATOM  =      3354.04126044
  ---------------------------------------------------
  free energy    TOTEN  =      -116.50846005 eV

  energy without entropy =     -116.47427755  energy(sigma->0) =     -116.49136880


--------------------------------------------------------------------------------------------------------




----------------------------------------- Iteration    1(  18)  ---------------------------------------


    POTLOK:  cpu time   14.48: real time   14.49
    SETDIJ:  cpu time    0.01: real time    0.01
     EDDAV:  cpu time   60.20: real time   60.23
       DOS:  cpu time    0.01: real time    0.01
    CHARGE:  cpu time    4.20: real time    4.20
    MIXING:  cpu time    0.02: real time    0.02
    --------------------------------------------
      LOOP:  cpu time   78.93: real time   78.97

 eigenvalue-minimisations  :  7600
 total energy-change (2. order) :-0.1643190E-03  (-0.7725661E-05)
 number of electron     107.9999995 magnetization 
 augmentation part       -9.4115323 magnetization 

 Broyden mixing:
  rms(total) = 0.14859E-03    rms(broyden)= 0.14858E-03
  rms(prec ) = 0.27071E-03
  weight for this iteration     100.00

 eigenvalues of (default mixing * dielectric matrix)
  average eigenvalue GAMMA=   1.7952
  6.1054  2.9208  2.5961  2.0818  1.2991  1.2991  1.3891  1.1950  1.1172  0.8893
  0.8893  0.7065  0.8489

 Free energy of the ion-electron system (eV)
  ---------------------------------------------------
  alpha Z        PSCENC =        36.80884744
  Ewald energy   TEWEN  =     11939.57897476
  -Hartree energ DENC   =    -15073.18723030
  -exchange      EXHF   =         0.00000000
  -V(xc)+E(xc)   XCENC  =       -79.68004804
  PAW double counting   =      1183.54340834     -863.14492953
  entropy T*S    EENTRO =        -0.03418520
  eigenvalues    EBANDS =      -614.43472229
  atomic energy  EATOM  =      3354.04126044
  ---------------------------------------------------
  free energy    TOTEN  =      -116.50862437 eV

  energy without entropy =     -116.47443917  energy(sigma->0) =     -116.49153177


--------------------------------------------------------------------------------------------------------




----------------------------------------- Iteration    1(  19)  ---------------------------------------


    POTLOK:  cpu time   14.71: real time   14.71
    SETDIJ:  cpu time    0.01: real time    0.01
     EDDAV:  cpu time   62.02: real time   62.03
       DOS:  cpu time    0.01: real time    0.01
    CHARGE:  cpu time    4.45: real time    4.45
    MIXING:  cpu time    0.02: real time    0.02
    --------------------------------------------
      LOOP:  cpu time   81.22: real time   81.23

 eigenvalue-minimisations  :  6720
 total energy-change (2. order) :-0.4996645E-04  (-0.2199705E-05)
 number of electron     107.9999995 magnetization 
 augmentation part       -9.4115328 magnetization 

 Broyden mixing:
  rms(total) = 0.99640E-04    rms(broyden)= 0.99634E-04
  rms(prec ) = 0.17139E-03
  weight for this iteration     100.00

 eigenvalues of (default mixing * dielectric matrix)
  average eigenvalue GAMMA=   1.8182
  6.4617  3.0947  2.6459  2.1202  1.6654  1.4794  1.2676  1.2676  1.0563  1.0563
  0.8910  0.8910  0.7066  0.8517

 Free energy of the ion-electron system (eV)
  ---------------------------------------------------
  alpha Z        PSCENC =        36.80884744
  Ewald energy   TEWEN  =     11939.57897476
  -Hartree energ DENC   =    -15073.32411760
  -exchange      EXHF   =         0.00000000
  -V(xc)+E(xc)   XCENC  =       -79.67964457
  PAW double counting   =      1183.54610762     -863.14760778
  entropy T*S    EENTRO =        -0.03418496
  eigenvalues    EBANDS =      -614.29830970
  atomic energy  EATOM  =      3354.04126044
  ---------------------------------------------------
  free energy    TOTEN  =      -116.50867434 eV

  energy without entropy =     -116.47448938  energy(sigma->0) =     -116.49158186


--------------------------------------------------------------------------------------------------------




----------------------------------------- Iteration    1(  20)  ---------------------------------------


    POTLOK:  cpu time   14.98: real time   14.99
    SETDIJ:  cpu time    0.01: real time    0.01
     EDDAV:  cpu time   59.46: real time   59.48
       DOS:  cpu time    0.01: real time    0.01
    CHARGE:  cpu time    4.01: real time    4.01
    MIXING:  cpu time    0.01: real time    0.02
    --------------------------------------------
      LOOP:  cpu time   78.49: real time   78.52

 eigenvalue-minimisations  :  6256
 total energy-change (2. order) :-0.2787286E-04  (-0.7291767E-06)
 number of electron     107.9999995 magnetization 
 augmentation part       -9.4115356 magnetization 

 Broyden mixing:
  rms(total) = 0.63336E-04    rms(broyden)= 0.63333E-04
  rms(prec ) = 0.10967E-03
  weight for this iteration     100.00

 eigenvalues of (default mixing * dielectric matrix)
  average eigenvalue GAMMA=   1.8783
  6.9809  3.4361  2.7470  2.4114  1.8597  1.2829  1.2829  1.3450  1.3450  1.1645
  0.8919  0.8919  0.7066  0.9800  0.8484

 Free energy of the ion-electron system (eV)
  ---------------------------------------------------
  alpha Z        PSCENC =        36.80884744
  Ewald energy   TEWEN  =     11939.57897476
  -Hartree energ DENC   =    -15073.37035644
  -exchange      EXHF   =         0.00000000
  -V(xc)+E(xc)   XCENC  =       -79.67971109
  PAW double counting   =      1183.54496727     -863.14643925
  entropy T*S    EENTRO =        -0.03418516
  eigenvalues    EBANDS =      -614.25206019
  atomic energy  EATOM  =      3354.04126044
  ---------------------------------------------------
  free energy    TOTEN  =      -116.50870221 eV

  energy without entropy =     -116.47451705  energy(sigma->0) =     -116.49160963


--------------------------------------------------------------------------------------------------------




----------------------------------------- Iteration    1(  21)  ---------------------------------------


    POTLOK:  cpu time   14.51: real time   14.52
    SETDIJ:  cpu time    0.01: real time    0.01
     EDDAV:  cpu time   56.99: real time   57.00
       DOS:  cpu time    0.01: real time    0.01
    CHARGE:  cpu time    3.98: real time    3.98
    MIXING:  cpu time    0.01: real time    0.02
    --------------------------------------------
      LOOP:  cpu time   75.51: real time   75.54

 eigenvalue-minimisations  :  7076
 total energy-change (2. order) : 0.2924300E-04  (-0.2586915E-05)
 number of electron     107.9999995 magnetization 
 augmentation part       -9.4115317 magnetization 

 Broyden mixing:
  rms(total) = 0.43549E-04    rms(broyden)= 0.43546E-04
  rms(prec ) = 0.64383E-04
  weight for this iteration     100.00

 eigenvalues of (default mixing * dielectric matrix)
  average eigenvalue GAMMA=   1.9576
  7.0489  4.5360  2.8282  2.5448  1.9381  1.9381  1.2625  1.2625  1.3014  1.3014
  0.7066  0.8914  0.8914  1.0114  1.0114  0.8479

 Free energy of the ion-electron system (eV)
  ---------------------------------------------------
  alpha Z        PSCENC =        36.80884744
  Ewald energy   TEWEN  =     11939.57897476
  -Hartree energ DENC   =    -15073.42011088
  -exchange      EXHF   =         0.00000000
  -V(xc)+E(xc)   XCENC  =       -79.67965922
  PAW double counting   =      1183.54133481     -863.14272666
  entropy T*S    EENTRO =        -0.03418390
  eigenvalues    EBANDS =      -614.20240976
  atomic energy  EATOM  =      3354.04126044
  ---------------------------------------------------
  free energy    TOTEN  =      -116.50867297 eV

  energy without entropy =     -116.47448906  energy(sigma->0) =     -116.49158101


--------------------------------------------------------------------------------------------------------




----------------------------------------- Iteration    1(  22)  ---------------------------------------


    POTLOK:  cpu time   14.38: real time   14.41
    SETDIJ:  cpu time    0.01: real time    0.01
     EDDAV:  cpu time   54.70: real time   54.72
       DOS:  cpu time    0.01: real time    0.01
    CHARGE:  cpu time    4.06: real time    4.06
    MIXING:  cpu time    0.02: real time    0.02
    --------------------------------------------
      LOOP:  cpu time   73.19: real time   73.23

 eigenvalue-minimisations  :  6388
 total energy-change (2. order) : 0.2898688E-04  (-0.1657440E-05)
 number of electron     107.9999995 magnetization 
 augmentation part       -9.4115342 magnetization 

 Broyden mixing:
  rms(total) = 0.22776E-04    rms(broyden)= 0.22773E-04
  rms(prec ) = 0.31011E-04
  weight for this iteration     100.00

 eigenvalues of (default mixing * dielectric matrix)
  average eigenvalue GAMMA=   2.0606
  7.8908  5.7126  2.9775  2.6431  2.2140  1.6675  1.4417  1.4417  1.2582  1.2582
  0.7066  0.8914  0.8914  1.1552  1.0167  1.0145  0.8490

 Free energy of the ion-electron system (eV)
  ---------------------------------------------------
  alpha Z        PSCENC =        36.80884744
  Ewald energy   TEWEN  =     11939.57897476
  -Hartree energ DENC   =    -15073.41365079
  -exchange      EXHF   =         0.00000000
  -V(xc)+E(xc)   XCENC  =       -79.67979378
  PAW double counting   =      1183.54069663     -863.14209005
  entropy T*S    EENTRO =        -0.03418384
  eigenvalues    EBANDS =      -614.20870479
  atomic energy  EATOM  =      3354.04126044
  ---------------------------------------------------
  free energy    TOTEN  =      -116.50864398 eV

  energy without entropy =     -116.47446014  energy(sigma->0) =     -116.49155206


--------------------------------------------------------------------------------------------------------




----------------------------------------- Iteration    1(  23)  ---------------------------------------


    POTLOK:  cpu time   14.53: real time   14.53
    SETDIJ:  cpu time    0.01: real time    0.01
     EDDAV:  cpu time   57.20: real time   57.21
       DOS:  cpu time    0.01: real time    0.01
    CHARGE:  cpu time    4.02: real time    4.02
    MIXING:  cpu time    0.01: real time    0.01
    --------------------------------------------
      LOOP:  cpu time   75.78: real time   75.79

 eigenvalue-minimisations  :  6444
 total energy-change (2. order) : 0.5276870E-04  (-0.7631803E-06)
 number of electron     107.9999995 magnetization 
 augmentation part       -9.4115318 magnetization 

 Broyden mixing:
  rms(total) = 0.12950E-04    rms(broyden)= 0.12947E-04
  rms(prec ) = 0.16027E-04
  weight for this iteration     100.00

 eigenvalues of (default mixing * dielectric matrix)
  average eigenvalue GAMMA=   2.0957
  8.2890  6.3068  3.0965  2.7106  2.2967  1.7332  1.7332  1.2664  1.2664  1.3996
  1.1984  1.1984  0.8916  0.8916  0.7066  0.9864  0.8437  0.9076

 Free energy of the ion-electron system (eV)
  ---------------------------------------------------
  alpha Z        PSCENC =        36.80884744
  Ewald energy   TEWEN  =     11939.57897476
  -Hartree energ DENC   =    -15073.42940606
  -exchange      EXHF   =         0.00000000
  -V(xc)+E(xc)   XCENC  =       -79.67973935
  PAW double counting   =      1183.54023777     -863.14162609
  entropy T*S    EENTRO =        -0.03418360
  eigenvalues    EBANDS =      -614.19295653
  atomic energy  EATOM  =      3354.04126044
  ---------------------------------------------------
  free energy    TOTEN  =      -116.50859121 eV

  energy without entropy =     -116.47440761  energy(sigma->0) =     -116.49149941


[...]
     31      -4.0359      2.00000
     32      -3.9623      2.00000
     33      -3.7390      2.00000
     34      -3.6798      2.00000
     35      -3.4387      2.00000
     36      -3.2591      2.00000
     37      -3.2168      2.00000
     38      -3.1592      2.00000
     39      -3.0627      2.00000
     40      -2.8492      2.00000
     41      -2.6633      2.00000
     42      -2.5997      2.00000
     43      -2.5399      2.00000
     44      -2.3060      2.00000
     45      -2.2760      2.00000
     46      -2.0013      2.00000
     47      -1.8808      2.00000
     48      -1.7676      2.00000
     49      -1.3870      2.00000
     50      -1.2730      2.00000
     51      -1.0480      2.00000
     52      -0.8583      2.00000
     53      -0.0273      1.99636
     54       0.1199      1.59096
     55       0.5253      0.00000
     56       0.9057      0.00000
     57       1.2394      0.00000
     58       1.4563      0.00000
     59       1.5571      0.00000
     60       1.6124      0.00000
     61       1.8998      0.00000
     62       2.2251      0.00000
     63       2.5089      0.00000
     64       2.5846      0.00000
     65       2.7020      0.00000
     66       2.8255      0.00000
     67       3.0476      0.00000
     68       3.2402      0.00000

 k-point    52 :       0.3077    0.5000    0.5000
  band No.  band energies     occupation 
      1     -14.1646      2.00000
      2     -12.5075      2.00000
      3     -12.2062      2.00000
      4     -12.1649      2.00000
      5     -11.6432      2.00000
      6     -11.5178      2.00000
      7     -11.3566      2.00000
      8     -11.0153      2.00000
      9     -10.8082      2.00000
     10     -10.7985      2.00000
     11     -10.3944      2.00000
     12     -10.2902      2.00000
     13      -8.9215      2.00000
     14      -8.4160      2.00000
     15      -7.7733      2.00000
     16      -7.7272      2.00000
     17      -7.0651      2.00000
     18      -6.9642      2.00000
     19      -6.8892      2.00000
     20      -6.5872      2.00000
     21      -6.4046      2.00000
     22      -6.1844      2.00000
     23      -5.9878      2.00000
     24      -5.9191      2.00000
     25      -5.3582      2.00000
     26      -5.0635      2.00000
     27      -4.8977      2.00000
     28      -4.7517      2.00000
     29      -4.6274      2.00000
     30      -4.4636      2.00000
     31      -4.3347      2.00000
     32      -4.2280      2.00000
     33      -4.0801      2.00000
     34      -3.8359      2.00000
     35      -3.4767      2.00000
     36      -3.2570      2.00000
     37      -3.1846      2.00000
     38      -3.0941      2.00000
     39      -3.0106      2.00000
     40      -2.8954      2.00000
     41      -2.8287      2.00000
     42      -2.7436      2.00000
     43      -2.5521      2.00000
     44      -2.4339      2.00000
     45      -2.2961      2.00000
     46      -2.2059      2.00000
     47      -1.9450      2.00000
     48      -1.8733      2.00000
     49      -1.7422      2.00000
     50      -1.3120      2.00000
     51      -1.1178      2.00000
     52      -0.8852      2.00000
     53      -0.2829      2.00000
     54      -0.0922      1.99987
     55       0.1817      0.96194
     56       0.5952      0.00000
     57       0.7983      0.00000
     58       1.1089      0.00000
     59       1.2992      0.00000
     60       1.3730      0.00000
     61       1.6452      0.00000
     62       2.1565      0.00000
     63       2.2555      0.00000
     64       2.3047      0.00000
     65       2.4606      0.00000
     66       2.5364      0.00000
     67       2.7011      0.00000
     68       2.9510      0.00000

 k-point    53 :       0.3846    0.5000    0.5000
  band No.  band energies     occupation 
      1     -14.0171      2.00000
      2     -12.0313      2.00000
      3     -11.7567      2.00000
      4     -11.6682      2.00000
      5     -11.2471      2.00000
      6     -11.1722      2.00000
      7     -11.0075      2.00000
      8     -10.7701      2.00000
      9     -10.6636      2.00000
     10     -10.6170      2.00000
     11     -10.4604      2.00000
     12      -9.9995      2.00000
     13      -8.9060      2.00000
     14      -8.6966      2.00000
     15      -8.2478      2.00000
     16      -7.9341      2.00000
     17      -7.6148      2.00000
     18      -7.4978      2.00000
     19      -7.3786      2.00000
     20      -6.9781      2.00000
     21      -6.8640      2.00000
     22      -6.7198      2.00000
     23      -6.6563      2.00000
     24      -6.1764      2.00000
     25      -5.3506      2.00000
     26      -5.2999      2.00000
     27      -5.0834      2.00000
     28      -4.6773      2.00000
     29      -4.6296      2.00000
     30      -4.4645      2.00000
     31      -4.1750      2.00000
     32      -4.1059      2.00000
     33      -4.0322      2.00000
     34      -3.6667      2.00000
     35      -3.5336      2.00000
     36      -3.4254      2.00000
     37      -3.2433      2.00000
     38      -3.1838      2.00000
     39      -3.1257      2.00000
     40      -2.9621      2.00000
     41      -2.9116      2.00000
     42      -2.8641      2.00000
     43      -2.6889      2.00000
     44      -2.5289      2.00000
     45      -2.3765      2.00000
     46      -2.2887      2.00000
     47      -2.0947      2.00000
     48      -2.0514      2.00000
     49      -1.8555      2.00000
     50      -1.4573      2.00000
     51      -1.1298      2.00000
     52      -0.8946      2.00000
     53      -0.4051      2.00000
     54      -0.2457      2.00000
     55      -0.1347      1.99999
     56       0.3658      0.00801
     57       0.5182      0.00000
     58       0.8104      0.00000
     59       1.2721      0.00000
     60       1.4578      0.00000
     61       1.5741      0.00000
     62       1.8345      0.00000
     63       2.0802      0.00000
     64       2.1083      0.00000
     65       2.2073      0.00000
     66       2.3340      0.00000
     67       2.4549      0.00000
     68       2.6793      0.00000

 k-point    54 :       0.4615    0.5000    0.5000
  band No.  band energies     occupation 
      1     -13.9285      2.00000
      2     -11.4884      2.00000
      3     -11.2916      2.00000
      4     -11.1703      2.00000
      5     -10.9701      2.00000
      6     -10.9431      2.00000
      7     -10.8499      2.00000
      8     -10.7905      2.00000
      9     -10.7238      2.00000
     10     -10.6813      2.00000
     11     -10.6180      2.00000
     12      -9.8248      2.00000
     13      -8.9195      2.00000
     14      -8.6646      2.00000
     15      -8.4380      2.00000
     16      -8.1179      2.00000
     17      -8.0017      2.00000
     18      -7.8227      2.00000
     19      -7.5563      2.00000
     20      -7.4525      2.00000
     21      -7.2892      2.00000
     22      -7.2737      2.00000
     23      -7.1710      2.00000
     24      -6.0667      2.00000
     25      -5.6184      2.00000
     26      -5.2056      2.00000
     27      -4.9439      2.00000
     28      -4.4778      2.00000
     29      -4.3256      2.00000
     30      -4.1938      2.00000
     31      -4.0827      2.00000
     32      -3.9803      2.00000
     33      -3.9130      2.00000
     34      -3.7702      2.00000
     35      -3.6792      2.00000
     36      -3.5630      2.00000
     37      -3.4247      2.00000
     38      -3.3369      2.00000
     39      -3.2598      2.00000
     40      -3.1168      2.00000
     41      -3.0191      2.00000
     42      -2.8785      2.00000
     43      -2.7629      2.00000
     44      -2.6858      2.00000
     45      -2.4329      2.00000
     46      -2.3683      2.00000
     47      -2.1810      2.00000
     48      -2.0962      2.00000
     49      -1.7217      2.00000
     50      -1.5399      2.00000
     51      -1.2001      2.00000
     52      -0.8552      2.00000
     53      -0.4278      2.00000
     54      -0.3337      2.00000
     55      -0.2153      2.00000
     56       0.2376      0.40209
     57       0.3211      0.04342
     58       0.6693      0.00000
     59       1.3495      0.00000
     60       1.5096      0.00000
     61       1.6263      0.00000
     62       1.6598      0.00000
     63       1.8443      0.00000
     64       1.9264      0.00000
     65       2.0547      0.00000
     66       2.3496      0.00000
     67       2.4595      0.00000
     68       2.5064      0.00000


--------------------------------------------------------------------------------------------------------


 soft charge-density along one line, spin component           1
         0         1         2         3         4         5         6         7         8         9
 total charge-density along one line
 
 pseudopotential strength for first ion, spin component:           1
 29.774   0.008  -0.000  -0.023   0.000  -0.000  -0.001  -0.000
  0.008   0.009  -0.000  -0.000  -0.000   0.000   0.000   0.000
 -0.000  -0.000   6.548  -0.001   0.000  -0.003   0.000  -0.000
 -0.023  -0.000  -0.001   6.542   0.000   0.000  -0.002  -0.000
  0.000  -0.000   0.000   0.000   6.548  -0.000  -0.000  -0.003
 -0.000   0.000  -0.003   0.000  -0.000   0.015  -0.000   0.000
 -0.001   0.000   0.000  -0.002  -0.000  -0.000   0.015  -0.000
 -0.000   0.000  -0.000  -0.000  -0.003   0.000  -0.000   0.015
 total augmentation occupancy for first ion, spin component:           1
  1.816  -0.348   0.006   0.254  -0.000   0.005   0.115   0.000
 -0.348   1.299   0.025   0.859  -0.000   0.003  -0.433   0.000
  0.006   0.025   1.141   0.011  -0.000  -0.502   0.015   0.000
  0.254   0.859   0.011   1.286  -0.000   0.015  -0.417   0.000
 -0.000  -0.000  -0.000  -0.000   1.144   0.000   0.000  -0.526
  0.005   0.003  -0.502   0.015   0.000   0.291  -0.016  -0.000
  0.115  -0.433   0.015  -0.417   0.000  -0.016   0.226  -0.000
  0.000   0.000   0.000   0.000  -0.526  -0.000  -0.000   0.324


------------------------ aborting loop because EDIFF is reached ----------------------------------------


    CHARGE:  cpu time    4.03: real time    4.03
    FORLOC:  cpu time    0.05: real time    0.05
    FORNL :  cpu time   17.32: real time   17.34
    STRESS:  cpu time   55.44: real time   55.47
    FORCOR:  cpu time   14.44: real time   14.44
    FORHAR:  cpu time    0.12: real time    0.12
    MIXING:  cpu time    0.02: real time    0.02
    OFIELD:  cpu time    0.00: real time    0.00

  FORCE on cell =-STRESS in cart. coord.  units (eV):
  Direction    XX          YY          ZZ          XY          YZ          ZX
  --------------------------------------------------------------------------------------
  Alpha Z    36.80885    36.80885    36.80885
  Ewald   14308.73433 14007.87250-16377.03528     3.79361     4.04743    18.89607
  Hartree 14886.68272 14610.48624-14423.74203     1.11540     7.82546     2.75619
  E(xc)    -358.38001  -358.13434  -357.03734     0.11787     0.24660    -0.11995
  Local  -30761.31922-30177.56008 29222.56062    -4.64875   -17.74082   -20.83080
  n-local  1158.78463  1169.88352  1168.68984    -1.13788    -4.36728     4.64268
  augment  -203.43712  -204.29028  -205.66944     0.02526    -0.14334    -0.34704
  Kinetic   931.62243   938.77080   983.17457     0.62131    -5.04518     3.60262
  Fock        0.00000     0.00000     0.00000     0.00000     0.00000     0.00000
  -------------------------------------------------------------------------------------
  Total      -0.50339    23.83720    47.74978    -0.11318   -15.17713     8.59978
  in kB      -0.80465    38.10301    76.32654    -0.18092   -24.26017    13.74647
  external pressure =       37.87 kB  Pullay stress =        0.00 kB


 VOLUME and BASIS-vectors are now :
 -----------------------------------------------------------------------------
  energy-cutoff  :      300.00
  volume of cell :     1002.32
      direct lattice vectors                 reciprocal lattice vectors
     3.540400000  0.000000000  0.000000000     0.282453960  0.048570342  0.000000000
    -1.770200000 10.294348000  0.000000000     0.000000000  0.097140683  0.000000000
     0.000000000  0.000000000 27.501429000     0.000000000  0.000000000  0.036361747

  length of vectors
     3.540400000 10.445439617 27.501429000     0.286599577  0.097140683  0.036361747


 FORCES acting on ions
    electron-ion (+dipol)            ewald-force                    non-local-force                 convergence-correction
 -----------------------------------------------------------------------------------------------
   -.285E-01 0.103E+02 0.274E+02   -.105E-02 -.102E+02 -.228E+02   0.145E-01 -.160E+00 -.452E+01   0.125E-07 0.302E-05 -.549E-05
   0.120E-01 0.585E+01 -.572E+03   0.134E+00 -.631E+01 0.576E+03   0.600E-01 0.222E+00 -.311E+01   -.197E-06 0.285E-05 0.217E-04
   -.152E-02 0.622E+02 0.476E+02   -.868E-03 -.637E+02 -.434E+02   0.116E-02 0.149E+01 -.409E+01   -.375E-08 0.210E-05 -.106E-04
   -.671E-01 0.443E+02 -.516E+03   -.272E-01 -.457E+02 0.520E+03   0.167E+00 0.128E+01 -.380E+01   -.613E-08 -.620E-06 0.188E-04
   0.185E-02 -.573E+02 0.526E+03   0.813E-04 0.589E+02 -.531E+03   -.771E-03 -.154E+01 0.429E+01   -.160E-07 -.278E-05 -.127E-04
   0.109E+02 -.113E+03 0.152E+02   -.107E+02 0.114E+03 -.154E+02   -.384E+01 0.122E+02 -.287E+02   -.136E-06 -.394E-05 0.109E-05
   -.341E-02 0.538E+02 0.526E+03   0.164E-04 -.557E+02 -.530E+03   0.748E-03 0.191E+01 0.418E+01   0.298E-09 0.624E-06 -.675E-05
   -.208E+00 0.803E+02 -.763E+02   -.228E-01 -.828E+02 0.748E+02   -.851E-01 0.321E+01 0.293E+01   -.498E-07 0.390E-05 0.385E-05
   -.138E-03 0.190E+01 0.572E+03   -.856E-04 -.210E+01 -.577E+03   0.137E-02 0.204E+00 0.478E+01   0.107E-06 0.412E-05 -.137E-04
   -.336E+00 0.855E+00 -.169E+02   0.130E+00 -.170E+01 0.141E+02   0.340E-01 0.140E+01 0.219E+01   0.111E-07 0.937E-06 0.557E-06
   -.378E-02 -.642E+02 0.606E+02   0.268E-02 0.661E+02 -.565E+02   0.946E-03 -.192E+01 -.403E+01   -.284E-07 -.437E-05 -.914E-05
   -.337E+00 -.512E+02 -.540E+03   0.501E+00 0.532E+02 0.546E+03   0.874E-01 -.219E+01 -.432E+01   -.188E-06 -.534E-05 0.199E-04
   0.554E-02 0.304E+02 0.208E+03   0.505E-04 -.326E+02 -.209E+03   -.245E-02 0.215E+01 0.373E+00   -.244E-08 0.205E-05 -.547E-05
   -.414E+00 -.133E+02 -.239E+03   0.688E+00 0.118E+02 0.239E+03   -.108E+00 0.238E+01 0.704E+00   -.308E-07 0.454E-05 0.153E-04
   0.312E-02 -.116E+02 0.139E+03   -.454E-03 0.119E+02 -.142E+03   -.465E-02 -.267E+00 0.255E+01   0.631E-08 -.107E-05 -.536E-05
   0.433E+00 -.484E+01 -.334E+03   -.244E+00 0.336E+01 0.332E+03   -.134E+00 0.482E+00 0.151E+01   0.499E-07 0.139E-05 0.116E-04
   -.253E-03 -.504E+01 0.346E+03   0.652E-04 0.552E+01 -.343E+03   -.541E-03 -.474E+00 -.251E+01   -.150E-07 0.107E-06 -.808E-05
   0.410E+01 0.223E+02 -.112E+03   -.341E+01 -.192E+02 0.115E+03   -.175E+01 -.120E+02 -.934E+01   -.131E-06 -.969E-05 0.218E-05
   -.233E-02 0.989E+01 0.335E+03   -.509E-05 -.101E+02 -.332E+03   -.244E-02 0.235E+00 -.255E+01   0.127E-07 0.215E-05 -.514E-05
   0.360E-01 0.286E+02 -.151E+03   0.190E+00 -.288E+02 0.150E+03   -.196E+00 0.732E+00 0.423E+00   0.153E-06 0.771E-05 0.370E-05
   0.244E-01 0.118E+02 0.126E+03   0.113E-03 -.121E+02 -.128E+03   -.212E-01 0.319E+00 0.251E+01   0.294E-08 0.202E-05 -.565E-05
   0.453E+00 0.174E+02 -.326E+03   -.377E+00 -.182E+02 0.327E+03   0.906E-02 0.234E+00 -.212E+01   -.616E-07 -.286E-06 0.153E-04
   -.263E-02 -.316E+02 0.254E+03   -.322E-04 0.337E+02 -.254E+03   0.365E-02 -.210E+01 -.391E+00   -.831E-08 -.324E-05 -.667E-05
   -.146E+02 -.281E+02 -.301E+03   0.131E+02 0.307E+02 0.292E+03   0.587E+01 -.737E+01 0.424E+02   0.199E-06 -.734E-05 0.111E-04
 -----------------------------------------------------------------------------------------------
   -.941E-01 -.503E+00 0.702E+00   -.160E-13 0.178E-13 -.227E-12   0.100E+00 0.502E+00 -.698E+00   -.319E-06 -.118E-05 0.304E-04
 
 
 POSITION                                       TOTAL-FORCE (eV/Angst)
 -----------------------------------------------------------------------------------
      0.00000      2.34757      6.41229        -0.015332     -0.034827      0.060978
      1.94722      1.31814     14.16300         0.205351     -0.241254      0.514709
     -0.00000      9.43147      5.75866        -0.001484     -0.007818      0.077225
      1.94722      8.40203     13.50937         0.072779     -0.092299      0.178650
     -0.00000      6.40009      2.31424         0.000903     -0.002264      0.004982
     -0.00000      6.40009     10.06495        -3.642596     13.242903    -28.972993
      1.77020     10.27849      2.37372        -0.002900     -0.007212     -0.002154
      1.77020     10.27849     10.12443        -0.315751      0.688197      1.448351
      1.77020      3.18974      1.66157         0.000894     -0.001565      0.014722
      1.77020      3.18974      9.41228        -0.172301      0.553761     -0.612736
      1.77020      5.55354      5.69975        -0.000410      0.006622      0.096878
      0.17702      4.52411     13.45047         0.251403     -0.224047      1.086990
      1.77020      9.05319      4.34076         0.002891     -0.006602      0.003048
      0.17702      8.02375     12.09147         0.165943      0.879124      0.599595
      0.00000      4.22380      5.10944        -0.002234      0.014728      0.076161
      1.94722      3.19437     12.86016         0.055338     -1.000566     -0.367176
     -0.00000      4.15582      2.74166        -0.000981     -0.001512     -0.022999
     -0.00000      4.15582     10.49237        -1.061800     -8.829164     -6.637419
      1.77020      1.31366      2.96438        -0.005023     -0.016328     -0.009186
      1.77020      1.31366     10.71510         0.029575      0.514703     -0.429344
      1.77020      1.38163      5.33187         0.003097     -0.011872     -0.006993
      0.17702      0.35219     13.08259         0.084527     -0.593711     -0.345843
      1.77020      6.77850      3.73234         0.000734      0.007215     -0.001418
      0.17702      5.74906     11.48306         4.347379     -4.836210     33.245971
 -----------------------------------------------------------------------------------
    total drift:                                0.006082     -0.001170      0.004276


--------------------------------------------------------------------------------------------------------



  FREE ENERGIE OF THE ION-ELECTRON SYSTEM (eV)
  ---------------------------------------------------
  free  energy   TOTEN  =      -116.50856529 eV

  energy  without entropy=     -116.47438160  energy(sigma->0) =     -116.49147344
 


--------------------------------------------------------------------------------------------------------


    POTLOK:  cpu time   14.38: real time   14.39


--------------------------------------------------------------------------------------------------------


     LOOP+:  cpu time 2375.23: real time 2377.49
    4ORBIT:  cpu time    0.00: real time    0.00

 total amount of memory used by VASP on root node   146493. kBytes
========================================================================

   base      :      30000. kBytes
   nonlr-proj:       3452. kBytes
   fftplans  :       9347. kBytes
   grid      :      14649. kBytes
   one-center:         36. kBytes
   wavefun   :      89009. kBytes
 
  
  
 General timing and accounting informations for this job:
 ========================================================
  
                  Total CPU time used (sec):     2390.050
                            User time (sec):     2363.666
                          System time (sec):       26.384
                         Elapsed time (sec):     2393.385
  
                   Maximum memory used (kb):      335244.
                   Average memory used (kb):           0.
  
                          Minor page faults:      8077746
                          Major page faults:            6
                 Voluntary context switches:         1508
