       N       E                     dE             d eps       ncg     rms          rms(c)
DAV:   1     0.494007083504E+03    0.49401E+03   -0.28653E+04  7368   0.790E+02
DAV:   2    -0.638001878549E+02   -0.55781E+03   -0.54269E+03  9708   0.189E+02
DAV:   3    -0.120281934307E+03   -0.56482E+02   -0.55693E+02  8764   0.622E+01
DAV:   4    -0.122898408338E+03   -0.26165E+01   -0.25998E+01 11040   0.143E+01
DAV:   5    -0.122959717731E+03   -0.61309E-01   -0.61238E-01 10072   0.214E+00    0.111E+01
DAV:   6    -0.119607419668E+03    0.33523E+01   -0.95023E+00  8888   0.846E+00    0.586E+00
DAV:   7    -0.119547305491E+03    0.60114E-01   -0.59852E+00  8536   0.595E+00    0.244E+00
DAV:   8    -0.119546449395E+03    0.85610E-03   -0.88429E-01  9320   0.262E+00    0.121E+00
DAV:   9    -0.119527594068E+03    0.18855E-01   -0.21761E-01  8848   0.135E+00    0.493E-01
DAV:  10    -0.119521201313E+03    0.63928E-02   -0.54944E-02  8896   0.695E-01    0.172E-01
DAV:  11    -0.119511395306E+03    0.98060E-02   -0.81552E-03  9272   0.272E-01    0.779E-02
DAV:  12    -0.119505893038E+03    0.55023E-02   -0.14709E-03  9144   0.113E-01    0.399E-02
DAV:  13    -0.119501821781E+03    0.40713E-02   -0.27910E-04  8952   0.516E-02    0.182E-02
DAV:  14    -0.119500155147E+03    0.16666E-02   -0.13147E-04  9496   0.293E-02    0.109E-02
DAV:  15    -0.119499873614E+03    0.28153E-03   -0.41075E-05  8512   0.188E-02    0.678E-03
DAV:  16    -0.119500263517E+03   -0.38990E-03   -0.77159E-05  8160   0.197E-02    0.450E-03
DAV:  17    -0.119500659550E+03   -0.39603E-03   -0.15275E-04  8072   0.225E-02    0.248E-03
DAV:  18    -0.119500824046E+03   -0.16450E-03   -0.59149E-05  8024   0.134E-02    0.147E-03
DAV:  19    -0.119500859641E+03   -0.35594E-04   -0.92479E-06  6176   0.780E-03    0.101E-03
DAV:  20    -0.119500885028E+03   -0.25387E-04   -0.31892E-05  7192   0.103E-02    0.663E-04
DAV:  21    -0.119500841494E+03    0.43534E-04   -0.18383E-05  6680   0.108E-02    0.424E-04
DAV:  22    -0.119500784416E+03    0.57077E-04   -0.23708E-05  7184   0.101E-02    0.225E-04
DAV:  23    -0.119500747764E+03    0.36653E-04   -0.15716E-05  6640   0.102E-02    0.102E-04
DAV:  24    -0.119500720454E+03    0.27310E-04   -0.80263E-06  7000   0.763E-03    0.599E-05
DAV:  25    -0.119500715450E+03    0.50039E-05   -0.29551E-06  5740   0.600E-03    0.337E-05
DAV:  26    -0.119500715666E+03   -0.21557E-06   -0.22422E-06  5472   0.518E-03
   1 F= -.11950072E+03 E0= -.11948831E+03  d E =-.248147E-01
