 vasp.5.3.5 31Mar14 (build Oct 29 2014 16:16:03) complex                        
  
 executed on          Linux-UFHPC date 2016.02.09  18:36:53
 running on    8 total cores
 distrk:  each k-point on    8 cores,    1 groups
 distr:  one band on NCORES_PER_BAND=   2 cores,    4 groups


--------------------------------------------------------------------------------------------------------


 INCAR:
 POTCAR:    PAW_PBE P 17Jan2003                   
 POTCAR:   PAW_PBE Si 05Jan2001                   

 ----------------------------------------------------------------------------- 
|                                                                             |
|  ADVICE TO THIS USER RUNNING 'VASP/VAMP'   (HEAR YOUR MASTER'S VOICE ...):  |
|                                                                             |
|      You have switched on vdW-DFT.                                          |
|      This routine was written and supplied by Jiri Klimes.                  |
|      We recommed that you carefully read and cite the following             |
|      publication                                                            |
|      J. Klimes, D.R. Bowler, A. Michelides                                  |
|        J. Phys.: Cond Matt. 22 022201 (2010)                                |
|      J. Klimes, D.R. Bowler, A. Michelides                                  |
|        Phys. Rev. B. 83, 195131 (2011)                                      |
|      and references therein.                                                |
|                                                                             |
 ----------------------------------------------------------------------------- 

 POTCAR:    PAW_PBE P 17Jan2003                   
   VRHFIN =P : s2p3                                                             
   LEXCH  = PE                                                                  
   EATOM  =   176.0430 eV,   12.9388 Ry                                         
                                                                                
   TITEL  = PAW_PBE P 17Jan2003                                                 
   LULTRA =        F    use ultrasoft PP ?                                      
   IUNSCR =        1    unscreen: 0-lin 1-nonlin 2-no                           
   RPACOR =    1.500    partial core radius                                     
   POMASS =   30.974; ZVAL   =    5.000    mass and valenz                      
   RCORE  =    1.900    outmost cutoff radius                                   
   RWIGS  =    2.330; RWIGS  =    1.233    wigner-seitz radius (au A)           
   ENMAX  =  270.000; ENMIN  =  191.280 eV                                      
   ICORE  =        2    local potential                                         
   LCOR   =        T    correct aug charges                                     
   LPAW   =        T    paw PP                                                  
   EAUG   =  342.924                                                            
   DEXC   =    -.002                                                            
   RMAX   =    2.887    core radius for proj-oper                               
   RAUG   =    1.300    factor for augmentation sphere                          
   RDEP   =    1.931    radius for radial grids                                 
   QCUT   =   -4.330; QGAM   =    8.659    optimization parameters              
                                                                                
   Description                                                                  
     l     E      TYP  RCUT    TYP  RCUT                                        
     0   .000     23  1.900                                                     
     0   .000     23  1.900                                                     
     1   .000     23  1.900                                                     
     1   .000     23  1.900                                                     
     2   .000     23  1.900                                                     
  local pseudopotential read in
  partial core-charges read in
  atomic valenz-charges read in
  non local Contribution for L=           0  read in
    real space projection operators read in
  non local Contribution for L=           0  read in
    real space projection operators read in
  non local Contribution for L=           1  read in
    real space projection operators read in
  non local Contribution for L=           1  read in
    real space projection operators read in
    PAW grid and wavefunctions read in
 
   number of l-projection  operators is LMAX  =           4
   number of lm-projection operators is LMMAX =           8
 
 POTCAR:   PAW_PBE Si 05Jan2001                   
   VRHFIN =Si: s2p2                                                             
   LEXCH  = PE                                                                  
   EATOM  =   103.0669 eV,    7.5752 Ry                                         
                                                                                
   TITEL  = PAW_PBE Si 05Jan2001                                                
   LULTRA =        F    use ultrasoft PP ?                                      
   IUNSCR =        1    unscreen: 0-lin 1-nonlin 2-no                           
   RPACOR =    1.500    partial core radius                                     
   POMASS =   28.085; ZVAL   =    4.000    mass and valenz                      
   RCORE  =    1.900    outmost cutoff radius                                   
   RWIGS  =    2.480; RWIGS  =    1.312    wigner-seitz radius (au A)           
   ENMAX  =  245.345; ENMIN  =  184.009 eV                                      
   ICORE  =        2    local potential                                         
   LCOR   =        T    correct aug charges                                     
   LPAW   =        T    paw PP                                                  
   EAUG   =  322.069                                                            
   DEXC   =    -.007                                                            
   RMAX   =    2.944    core radius for proj-oper                               
   RAUG   =    1.300    factor for augmentation sphere                          
   RDEP   =    1.993    radius for radial grids                                 
   QCUT   =   -4.246; QGAM   =    8.493    optimization parameters              
                                                                                
   Description                                                                  
     l     E      TYP  RCUT    TYP  RCUT                                        
     0   .000     23  1.900                                                     
     0   .000     23  1.900                                                     
     1   .000     23  1.900                                                     
     1   .000     23  1.900                                                     
     2   .000      7  1.900                                                     
  local pseudopotential read in
  partial core-charges read in
  atomic valenz-charges read in
  non local Contribution for L=           0  read in
    real space projection operators read in
  non local Contribution for L=           0  read in
    real space projection operators read in
  non local Contribution for L=           1  read in
    real space projection operators read in
  non local Contribution for L=           1  read in
    real space projection operators read in
    PAW grid and wavefunctions read in
 
   number of l-projection  operators is LMAX  =           4
   number of lm-projection operators is LMMAX =           8
 
 Optimization of the real space projectors (new method)

 maximal supplied QI-value         = 19.84
 optimisation between [QCUT,QGAM] = [  8.73, 17.66] = [ 21.34, 87.33] Ry 
 Optimized for a Real-space Cutoff    1.50 Angstroem

   l    n(q)    QCUT    max X(q) W(low)/X(q) W(high)/X(q)  e(spline) 
   0      8     8.731     6.651    0.16E-04    0.15E-04    0.77E-08
   0      8     8.731    90.285    0.16E-03    0.90E-04    0.16E-06
   1      7     8.731     4.328    0.47E-04    0.36E-04    0.45E-07
   1      7     8.731    54.583    0.13E-03    0.39E-03    0.20E-06
 Optimization of the real space projectors (new method)

 maximal supplied QI-value         = 19.84
 optimisation between [QCUT,QGAM] = [  8.73, 17.66] = [ 21.34, 87.33] Ry 
 Optimized for a Real-space Cutoff    1.46 Angstroem

   l    n(q)    QCUT    max X(q) W(low)/X(q) W(high)/X(q)  e(spline) 
   0      8     8.731     8.708    0.16E-04    0.11E-04    0.68E-08
   0      8     8.731   106.241    0.24E-03    0.77E-04    0.13E-06
   1      7     8.731     5.901    0.34E-04    0.38E-04    0.36E-07
   1      7     8.731    73.241    0.12E-03    0.39E-03    0.15E-06

 ----------------------------------------------------------------------------- 
|                                                                             |
|  ADVICE TO THIS USER RUNNING 'VASP/VAMP'   (HEAR YOUR MASTER'S VOICE ...):  |
|                                                                             |
|      You enforced a specific xc-type in the INCAR file,                     |
|      a different type was found on the POTCAR file                          |
|          I HOPE YOU KNOW, WHAT YOU ARE  DOING                               |
|                                                                             |
 ----------------------------------------------------------------------------- 

  PAW_PBE P 17Jan2003                   :
 energy of atom  1       EATOM= -176.0430
 kinetic energy error for atom=    0.0040 (will be added to EATOM!!)
 PAW_PBE Si 05Jan2001                   :
 energy of atom  2       EATOM= -103.0669
 kinetic energy error for atom=    0.0021 (will be added to EATOM!!)
 
 
 POSCAR: Si12                                    
  positions in direct lattice
  No initial velocities read in
 exchange correlation table for  LEXCH =       42
   RHO(1)=    0.500       N(1)  =     2000
   RHO(2)=  100.500       N(2)  =     4000
 


--------------------------------------------------------------------------------------------------------


 ion  position               nearest neighbor table
   1  0.114  0.228  0.233-  15 2.28  21 2.29  21 2.29
   2  0.914  0.428  0.515-  16 2.28  22 2.29  22 2.29
   3  0.458  0.916  0.209-  21 2.28  13 2.30  13 2.30
   4  0.258  0.116  0.491-  22 2.28  14 2.30  14 2.30  20 2.99
   5  0.311  0.622  0.084-  17 2.28  23 2.30  23 2.30
   6  0.311  0.622  0.366-  18 2.28  24 2.91  16 2.99
   7  0.999  0.998  0.086-  19 2.29  19 2.29  13 2.32
   8  0.999  0.998  0.368-  24 2.25  20 2.29  20 2.29  14 2.39
   9  0.655  0.310  0.060-  19 2.28  17 2.29  17 2.29
  10  0.655  0.310  0.342-  20 2.28  18 2.29  18 2.29
  11  0.770  0.539  0.207-  15 2.29  15 2.29  23 2.32
  12  0.570  0.739  0.489-  16 2.29  16 2.29  24 2.32
  13  0.940  0.879  0.158-   3 2.30   3 2.30   7 2.32  23 2.35
  14  0.740  0.079  0.440-  20 1.63   4 2.30   4 2.30  24 2.35   8 2.39
  15  0.205  0.410  0.186-   1 2.28  11 2.29  11 2.29  17 2.37
  16  0.005  0.610  0.468-   2 2.28  12 2.29  12 2.29   6 2.99
  17  0.202  0.404  0.100-   5 2.28   9 2.29   9 2.29  15 2.37
  18  0.202  0.404  0.382-   6 2.28  10 2.29  10 2.29  22 2.78
  19  0.564  0.128  0.108-   9 2.28   7 2.29   7 2.29  21 2.37
  20  0.564  0.128  0.390-  14 1.63  10 2.28   8 2.29   8 2.29  24 2.96   4 2.99
  21  0.567  0.134  0.194-   3 2.28   1 2.29   1 2.29  19 2.37
  22  0.367  0.334  0.476-   4 2.28   2 2.29   2 2.29  18 2.78
  23  0.829  0.658  0.136-   5 2.30   5 2.30  11 2.32  13 2.35
  24  0.629  0.858  0.418-   8 2.25  12 2.32  14 2.35   6 2.91  20 2.96
 
  LATTYP: Found a base centered orthorhombic cell.
 ALAT       =     3.5404000000
 B/A-ratio  =     5.8153587165
 C/A-ratio  =     7.7678875268
  
  Lattice vectors:
  
 A1 = (   1.7702000000,  10.2943480000,   0.0000000000)
 A2 = (   1.7702000000, -10.2943480000,   0.0000000000)
 A3 = (   0.0000000000,   0.0000000000, -27.5014290000)


Analysis of symmetry for initial positions (statically):
=====================================================================
 Subroutine PRICEL returns:
 Original cell was already a primitive cell.
 

 Routine SETGRP: Setting up the symmetry group for a 
 base centered orthorhombic supercell.


 Subroutine GETGRP returns: Found  1 space group operations
 (whereof  1 operations were pure point group operations)
 out of a pool of  8 trial point group operations.


The static configuration has the point symmetry C_1 .


Analysis of symmetry for dynamics (positions and initial velocities):
=====================================================================
 Subroutine PRICEL returns:
 Original cell was already a primitive cell.
 

 Routine SETGRP: Setting up the symmetry group for a 
 base centered orthorhombic supercell.


 Subroutine GETGRP returns: Found  1 space group operations
 (whereof  1 operations were pure point group operations)
 out of a pool of  8 trial point group operations.


The dynamic configuration has the point symmetry C_1 .
 
 
 KPOINTS: pymatgen generated KPOINTS with grid den

Automatic generation of k-mesh.
Space group operators:
 irot       det(A)        alpha          n_x          n_y          n_z        tau_x        tau_y        tau_z
    1     1.000000     0.000000     1.000000     0.000000     0.000000     0.000000     0.000000     0.000000
 
 Subroutine IBZKPT returns following result:
 ===========================================
 
 Found     54 irreducible k-points:
 
 Following reciprocal coordinates:
            Coordinates               Weight
  0.000000  0.000000  0.000000      1.000000
  0.076923 -0.000000  0.000000      2.000000
  0.153846 -0.000000  0.000000      2.000000
  0.230769 -0.000000  0.000000      2.000000
  0.307692 -0.000000  0.000000      2.000000
  0.384615 -0.000000  0.000000      2.000000
  0.461538 -0.000000  0.000000      2.000000
  0.000000  0.250000  0.000000      2.000000
  0.076923  0.250000  0.000000      2.000000
  0.153846  0.250000  0.000000      2.000000
  0.230769  0.250000  0.000000      2.000000
  0.307692  0.250000  0.000000      2.000000
  0.384615  0.250000  0.000000      2.000000
  0.461538  0.250000  0.000000      2.000000
 -0.461538  0.250000  0.000000      2.000000
 -0.384615  0.250000  0.000000      2.000000
 -0.307692  0.250000  0.000000      2.000000
 -0.230769  0.250000  0.000000      2.000000
 -0.153846  0.250000  0.000000      2.000000
 -0.076923  0.250000  0.000000      2.000000
  0.000000  0.500000  0.000000      1.000000
  0.076923  0.500000  0.000000      2.000000
  0.153846  0.500000  0.000000      2.000000
  0.230769  0.500000  0.000000      2.000000
  0.307692  0.500000  0.000000      2.000000
  0.384615  0.500000  0.000000      2.000000
  0.461538  0.500000  0.000000      2.000000
  0.000000  0.000000  0.500000      1.000000
  0.076923 -0.000000  0.500000      2.000000
  0.153846 -0.000000  0.500000      2.000000
  0.230769 -0.000000  0.500000      2.000000
  0.307692 -0.000000  0.500000      2.000000
  0.384615 -0.000000  0.500000      2.000000
  0.461538 -0.000000  0.500000      2.000000
  0.000000  0.250000  0.500000      2.000000
  0.076923  0.250000  0.500000      2.000000
  0.153846  0.250000  0.500000      2.000000
  0.230769  0.250000  0.500000      2.000000
  0.307692  0.250000  0.500000      2.000000
  0.384615  0.250000  0.500000      2.000000
  0.461538  0.250000  0.500000      2.000000
 -0.461538  0.250000  0.500000      2.000000
 -0.384615  0.250000  0.500000      2.000000
 -0.307692  0.250000  0.500000      2.000000
 -0.230769  0.250000  0.500000      2.000000
 -0.153846  0.250000  0.500000      2.000000
 -0.076923  0.250000  0.500000      2.000000
  0.000000  0.500000  0.500000      1.000000
  0.076923  0.500000  0.500000      2.000000
  0.153846  0.500000  0.500000      2.000000
  0.230769  0.500000  0.500000      2.000000
  0.307692  0.500000  0.500000      2.000000
  0.384615  0.500000  0.500000      2.000000
  0.461538  0.500000  0.500000      2.000000
 
 Following cartesian coordinates:
            Coordinates               Weight
  0.000000  0.000000  0.000000      1.000000
  0.021727  0.003736  0.000000      2.000000
  0.043454  0.007472  0.000000      2.000000
  0.065182  0.011209  0.000000      2.000000
  0.086909  0.014945  0.000000      2.000000
  0.108636  0.018681  0.000000      2.000000
  0.130363  0.022417  0.000000      2.000000
  0.000000  0.024285  0.000000      2.000000
  0.021727  0.028021  0.000000      2.000000
  0.043454  0.031758  0.000000      2.000000
  0.065182  0.035494  0.000000      2.000000
  0.086909  0.039230  0.000000      2.000000
  0.108636  0.042966  0.000000      2.000000
  0.130363  0.046702  0.000000      2.000000
 -0.130363  0.001868  0.000000      2.000000
 -0.108636  0.005604  0.000000      2.000000
 -0.086909  0.009340  0.000000      2.000000
 -0.065182  0.013077  0.000000      2.000000
 -0.043454  0.016813  0.000000      2.000000
 -0.021727  0.020549  0.000000      2.000000
  0.000000  0.048570  0.000000      1.000000
  0.021727  0.052307  0.000000      2.000000
  0.043454  0.056043  0.000000      2.000000
  0.065182  0.059779  0.000000      2.000000
  0.086909  0.063515  0.000000      2.000000
  0.108636  0.067251  0.000000      2.000000
  0.130363  0.070987  0.000000      2.000000
  0.000000  0.000000  0.018181      1.000000
  0.021727  0.003736  0.018181      2.000000
  0.043454  0.007472  0.018181      2.000000
  0.065182  0.011209  0.018181      2.000000
  0.086909  0.014945  0.018181      2.000000
  0.108636  0.018681  0.018181      2.000000
  0.130363  0.022417  0.018181      2.000000
  0.000000  0.024285  0.018181      2.000000
  0.021727  0.028021  0.018181      2.000000
  0.043454  0.031758  0.018181      2.000000
  0.065182  0.035494  0.018181      2.000000
  0.086909  0.039230  0.018181      2.000000
  0.108636  0.042966  0.018181      2.000000
  0.130363  0.046702  0.018181      2.000000
 -0.130363  0.001868  0.018181      2.000000
 -0.108636  0.005604  0.018181      2.000000
 -0.086909  0.009340  0.018181      2.000000
 -0.065182  0.013077  0.018181      2.000000
 -0.043454  0.016813  0.018181      2.000000
 -0.021727  0.020549  0.018181      2.000000
  0.000000  0.048570  0.018181      1.000000
  0.021727  0.052307  0.018181      2.000000
  0.043454  0.056043  0.018181      2.000000
  0.065182  0.059779  0.018181      2.000000
  0.086909  0.063515  0.018181      2.000000
  0.108636  0.067251  0.018181      2.000000
  0.130363  0.070987  0.018181      2.000000
 


--------------------------------------------------------------------------------------------------------




 Dimension of arrays:
   k-points           NKPTS =     54   k-points in BZ     NKDIM =     54   number of bands    NBANDS=     68
   number of dos      NEDOS =    301   number of ions     NIONS =     24
   non local maximal  LDIM  =      4   non local SUM 2l+1 LMDIM =      8
   total plane-waves  NPLWV = 192000
   max r-space proj   IRMAX =   2772   max aug-charges    IRDMAX=   6603
   dimension x,y,z NGX =    20 NGY =   60 NGZ =  160
   dimension x,y,z NGXF=    40 NGYF=  120 NGZF=  320
   support grid    NGXF=    40 NGYF=  120 NGZF=  320
   ions per type =              12  12
 NGX,Y,Z   is equivalent  to a cutoff of   9.39,  9.55,  9.67 a.u.
 NGXF,Y,Z  is equivalent  to a cutoff of  18.78, 19.10, 19.34 a.u.


 I would recommend the setting:
   dimension x,y,z NGX =    20 NGY =   59 NGZ =  155
 SYSTEM =  unknown system                          
 POSCAR =  Si12                                    

 Startparameter for this run:
   NWRITE =      2    write-flag & timer
   PREC   = accura    normal or accurate (medium, high low for compatibility)
   ISTART =      0    job   : 0-new  1-cont  2-samecut
   ICHARG =      2    charge: 1-file 2-atom 10-const
   ISPIN  =      1    spin polarized calculation?
   LNONCOLLINEAR =      F non collinear calculations
   LSORBIT =      F    spin-orbit coupling
   INIWAV =      1    electr: 0-lowe 1-rand  2-diag
   LASPH  =      F    aspherical Exc in radial PAW
   METAGGA=      F    non-selfconsistent MetaGGA calc.

 Electronic Relaxation 1
   ENCUT  =  300.0 eV  22.05 Ry    4.70 a.u.   5.00 14.75 38.84*2*pi/ulx,y,z
   ENINI  =  300.0     initial cutoff
   ENAUG  =  342.9 eV  augmentation charge cutoff
   NELM   =     60;   NELMIN=  2; NELMDL= -5     # of ELM steps 
   EDIFF  = 0.1E-05   stopping-criterion for ELM
   LREAL  =      T    real-space projection
   NLSPLINE    = F    spline interpolate recip. space projectors
   LCOMPAT=      F    compatible to vasp.4.4
   GGA_COMPAT  = T    GGA compatible to vasp.4.4-vasp.4.6
   LMAXPAW     = -100 max onsite density
   LMAXMIX     =    2 max onsite mixed and CHGCAR
   VOSKOWN=      0    Vosko Wilk Nusair interpolation
   ROPT   =   -0.00025  -0.00025
 Ionic relaxation
   EDIFFG = 0.1E-04   stopping-criterion for IOM
   NSW    =      0    number of steps for IOM
   NBLOCK =      1;   KBLOCK =      1    inner block; outer block 
   IBRION =     -1    ionic relax: 0-MD 1-quasi-New 2-CG
   NFREE  =      1    steps in history (QN), initial steepest desc. (CG)
   ISIF   =      3    stress and relaxation
   IWAVPR =     10    prediction:  0-non 1-charg 2-wave 3-comb
   ISYM   =      2    0-nonsym 1-usesym 2-fastsym
   LCORR  =      T    Harris-Foulkes like correction to forces

   POTIM  = 0.5000    time-step for ionic-motion
   TEIN   =    0.0    initial temperature
   TEBEG  =    0.0;   TEEND  =   0.0 temperature during run
   SMASS  =  -3.00    Nose mass-parameter (am)
   estimated Nose-frequenzy (Omega)   =  0.10E-29 period in steps =****** mass=  -0.286E-27a.u.
   SCALEE = 1.0000    scale energy and forces
   NPACO  =    256;   APACO  = 16.0  distance and # of slots for P.C.
   PSTRESS=    0.0 pullay stress

  Mass of Ions in am
   POMASS =  30.97 28.09
  Ionic Valenz
   ZVAL   =   5.00  4.00
  Atomic Wigner-Seitz radii
   RWIGS  =  -1.00 -1.00
  virtual crystal weights 
   VCA    =   1.00  1.00
   NELECT =     108.0000    total number of electrons
   NUPDOWN=      -1.0000    fix difference up-down

 DOS related values:
   EMIN   =  10.00;   EMAX   =-10.00  energy-range for DOS
   EFERMI =   0.00
   ISMEAR =     0;   SIGMA  =   0.10  broadening in eV -4-tet -1-fermi 0-gaus

 Electronic relaxation 2 (details)
   IALGO  =     38    algorithm
   LDIAG  =      T    sub-space diagonalisation (order eigenvalues)
   LSUBROT=      F    optimize rotation matrix (better conditioning)
   TURBO    =      0    0=normal 1=particle mesh
   IRESTART =      0    0=no restart 2=restart with 2 vectors
   NREBOOT  =      0    no. of reboots
   NMIN     =      0    reboot dimension
   EREF     =   0.00    reference energy to select bands
   IMIX   =      4    mixing-type and parameters
     AMIX     =   0.40;   BMIX     =  1.00
     AMIX_MAG =   1.60;   BMIX_MAG =  1.00
     AMIN     =   0.10
     WC   =   100.;   INIMIX=   1;  MIXPRE=   1;  MAXMIX= -45

 Intra band minimization:
   WEIMIN = 0.0000     energy-eigenvalue tresh-hold
   EBREAK =  0.37E-08  absolut break condition
   DEPER  =   0.30     relativ break condition  

   TIME   =   0.40     timestep for ELM

  volume/ion in A,a.u.               =      41.76       281.83
  Fermi-wavevector in a.u.,A,eV,Ry     =   0.779018  1.472130  8.256946  0.606868
  Thomas-Fermi vector in A             =   1.882034
 
 Write flags
   LWAVE  =      F    write WAVECAR
   LCHARG =      F    write CHGCAR
   LVTOT  =      F    write LOCPOT, total local potential
   LVHAR  =      F    write LOCPOT, Hartree potential only
   LELF   =      F    write electronic localiz. function (ELF)
   LORBIT =      0    0 simple, 1 ext, 2 COOP (PROOUT)


 Dipole corrections
   LMONO  =      F    monopole corrections only (constant potential shift)
   LDIPOL =      F    correct potential (dipole corrections)
   IDIPOL =      0    1-x, 2-y, 3-z, 4-all directions 
   EPSILON=  1.0000000 bulk dielectric constant

 Exchange correlation treatment:
   GGA     =    BO    GGA type
   LEXCH   =    42    internal setting for exchange type
   VOSKOWN=      0    Vosko Wilk Nusair interpolation
   LHFCALC =     F    Hartree Fock is set to
   LHFONE  =     F    Hartree Fock one center treatment
   AEXX    =    0.0000 exact exchange contribution

 vdW DFT:
   LUSE_VDW   =     T    switch on vdW DFT
   Zab_VDW    =-.8491    correlation parameter
   PARAM1     =0.1833
   PARAM2     =0.2200
   PARAM3     =0.0000

 Linear response parameters
   LEPSILON=     F    determine dielectric tensor
   LRPA    =     F    only Hartree local field effects (RPA)
   LNABLA  =     F    use nabla operator in PAW spheres
   LVEL    =     F    velocity operator in full k-point grid
   LINTERFAST=   F  fast interpolation
   KINTER  =     0    interpolate to denser k-point grid
   CSHIFT  =0.1000    complex shift for real part using Kramers Kronig
   OMEGAMAX=  -1.0    maximum frequency
   DEG_THRESHOLD= 0.2000000E-02 threshold for treating states as degnerate
   RTIME   =    0.100 relaxation time in fs

 Orbital magnetization related:
   ORBITALMAG=     F  switch on orbital magnetization
   LCHIMAG   =     F  perturbation theory with respect to B field
   DQ        =  0.001000  dq finite difference perturbation B field



--------------------------------------------------------------------------------------------------------


 Static calculation
 charge density and potential will be updated during run
 non-spin polarized calculation
 Variant of blocked Davidson
 Davidson routine will perform the subspace rotation
 perform sub-space diagonalisation
    after iterative eigenvector-optimisation
 modified Broyden-mixing scheme, WC =      100.0
 initial mixing is a Kerker type mixing with AMIX =  0.4000 and BMIX =      1.0000
 Hartree-type preconditioning will be used
 using additional bands           14
 real space projection scheme for non local part
 use partial core corrections
 calculate Harris-corrections to forces 
   (improved forces if not selfconsistent)
 use gradient corrections 
 use of overlap-Matrix (Vanderbilt PP)
 Gauss-broadening in eV      SIGMA  =   0.10


--------------------------------------------------------------------------------------------------------


  energy-cutoff  :      300.00
  volume of cell :     1002.32
      direct lattice vectors                 reciprocal lattice vectors
     3.540400000  0.000000000  0.000000000     0.282453960  0.048570342  0.000000000
    -1.770200000 10.294348000  0.000000000     0.000000000  0.097140683  0.000000000
     0.000000000  0.000000000 27.501429000     0.000000000  0.000000000  0.036361747

  length of vectors
     3.540400000 10.445439617 27.501429000     0.286599577  0.097140683  0.036361747


 
 k-points in units of 2pi/SCALE and weight: pymatgen generated KPOINTS with grid den
   0.00000000  0.00000000  0.00000000       0.010
   0.02172723  0.00373618  0.00000000       0.019
   0.04345446  0.00747236  0.00000000       0.019
   0.06518168  0.01120854  0.00000000       0.019
   0.08690891  0.01494472  0.00000000       0.019
   0.10863614  0.01868090  0.00000000       0.019
   0.13036337  0.02241708  0.00000000       0.019
   0.00000000  0.02428517  0.00000000       0.019
   0.02172723  0.02802135  0.00000000       0.019
   0.04345446  0.03175753  0.00000000       0.019
   0.06518168  0.03549371  0.00000000       0.019
   0.08690891  0.03922989  0.00000000       0.019
   0.10863614  0.04296607  0.00000000       0.019
   0.13036337  0.04670225  0.00000000       0.019
  -0.13036337  0.00186809  0.00000000       0.019
  -0.10863614  0.00560427  0.00000000       0.019
  -0.08690891  0.00934045  0.00000000       0.019
  -0.06518168  0.01307663  0.00000000       0.019
  -0.04345446  0.01681281  0.00000000       0.019
  -0.02172723  0.02054899  0.00000000       0.019
   0.00000000  0.04857034  0.00000000       0.010
   0.02172723  0.05230652  0.00000000       0.019
   0.04345446  0.05604270  0.00000000       0.019
   0.06518168  0.05977888  0.00000000       0.019
   0.08690891  0.06351506  0.00000000       0.019
   0.10863614  0.06725124  0.00000000       0.019
   0.13036337  0.07098742  0.00000000       0.019
   0.00000000  0.00000000  0.01818087       0.010
   0.02172723  0.00373618  0.01818087       0.019
   0.04345446  0.00747236  0.01818087       0.019
   0.06518168  0.01120854  0.01818087       0.019
   0.08690891  0.01494472  0.01818087       0.019
   0.10863614  0.01868090  0.01818087       0.019
   0.13036337  0.02241708  0.01818087       0.019
   0.00000000  0.02428517  0.01818087       0.019
   0.02172723  0.02802135  0.01818087       0.019
   0.04345446  0.03175753  0.01818087       0.019
   0.06518168  0.03549371  0.01818087       0.019
   0.08690891  0.03922989  0.01818087       0.019
   0.10863614  0.04296607  0.01818087       0.019
   0.13036337  0.04670225  0.01818087       0.019
  -0.13036337  0.00186809  0.01818087       0.019
  -0.10863614  0.00560427  0.01818087       0.019
  -0.08690891  0.00934045  0.01818087       0.019
  -0.06518168  0.01307663  0.01818087       0.019
  -0.04345446  0.01681281  0.01818087       0.019
  -0.02172723  0.02054899  0.01818087       0.019
   0.00000000  0.04857034  0.01818087       0.010
   0.02172723  0.05230652  0.01818087       0.019
   0.04345446  0.05604270  0.01818087       0.019
   0.06518168  0.05977888  0.01818087       0.019
   0.08690891  0.06351506  0.01818087       0.019
   0.10863614  0.06725124  0.01818087       0.019
   0.13036337  0.07098742  0.01818087       0.019
 
 k-points in reciprocal lattice and weights: pymatgen generated KPOINTS with grid den
   0.00000000  0.00000000  0.00000000       0.010
   0.07692308 -0.00000000  0.00000000       0.019
   0.15384615 -0.00000000  0.00000000       0.019
   0.23076923 -0.00000000  0.00000000       0.019
   0.30769231 -0.00000000  0.00000000       0.019
   0.38461538 -0.00000000  0.00000000       0.019
   0.46153846 -0.00000000  0.00000000       0.019
   0.00000000  0.25000000  0.00000000       0.019
   0.07692308  0.25000000  0.00000000       0.019
   0.15384615  0.25000000  0.00000000       0.019
   0.23076923  0.25000000  0.00000000       0.019
   0.30769231  0.25000000  0.00000000       0.019
   0.38461538  0.25000000  0.00000000       0.019
   0.46153846  0.25000000  0.00000000       0.019
  -0.46153846  0.25000000  0.00000000       0.019
  -0.38461538  0.25000000  0.00000000       0.019
  -0.30769231  0.25000000  0.00000000       0.019
  -0.23076923  0.25000000  0.00000000       0.019
  -0.15384615  0.25000000  0.00000000       0.019
  -0.07692308  0.25000000  0.00000000       0.019
   0.00000000  0.50000000  0.00000000       0.010
   0.07692308  0.50000000  0.00000000       0.019
   0.15384615  0.50000000  0.00000000       0.019
   0.23076923  0.50000000  0.00000000       0.019
   0.30769231  0.50000000  0.00000000       0.019
   0.38461538  0.50000000  0.00000000       0.019
   0.46153846  0.50000000  0.00000000       0.019
   0.00000000  0.00000000  0.50000000       0.010
   0.07692308 -0.00000000  0.50000000       0.019
   0.15384615 -0.00000000  0.50000000       0.019
   0.23076923 -0.00000000  0.50000000       0.019
   0.30769231 -0.00000000  0.50000000       0.019
   0.38461538 -0.00000000  0.50000000       0.019
   0.46153846 -0.00000000  0.50000000       0.019
   0.00000000  0.25000000  0.50000000       0.019
   0.07692308  0.25000000  0.50000000       0.019
   0.15384615  0.25000000  0.50000000       0.019
   0.23076923  0.25000000  0.50000000       0.019
   0.30769231  0.25000000  0.50000000       0.019
   0.38461538  0.25000000  0.50000000       0.019
   0.46153846  0.25000000  0.50000000       0.019
  -0.46153846  0.25000000  0.50000000       0.019
  -0.38461538  0.25000000  0.50000000       0.019
  -0.30769231  0.25000000  0.50000000       0.019
  -0.23076923  0.25000000  0.50000000       0.019
  -0.15384615  0.25000000  0.50000000       0.019
  -0.07692308  0.25000000  0.50000000       0.019
   0.00000000  0.50000000  0.50000000       0.010
   0.07692308  0.50000000  0.50000000       0.019
   0.15384615  0.50000000  0.50000000       0.019
   0.23076923  0.50000000  0.50000000       0.019
   0.30769231  0.50000000  0.50000000       0.019
   0.38461538  0.50000000  0.50000000       0.019
   0.46153846  0.50000000  0.50000000       0.019
 
 position of ions in fractional coordinates (direct lattice) 
   0.11402300  0.22804500  0.23316207
   0.91402300  0.42804500  0.51499159
   0.45808900  0.91617900  0.20939482
   0.25808900  0.11617900  0.49122434
   0.31085400  0.62170900  0.08414979
   0.31085400  0.62170900  0.36597930
   0.99923000  0.99846000  0.08631254
   0.99923000  0.99846000  0.36814206
   0.65492700  0.30985400  0.06041748
   0.65492700  0.30985400  0.34224700
   0.76973800  0.53947500  0.20725292
   0.56973800  0.73947500  0.48908244
   0.93971600  0.87943300  0.15783749
   0.73971600  0.07943300  0.43966701
   0.20515200  0.41030300  0.18578822
   0.00515200  0.61030300  0.46761774
   0.20184900  0.40369900  0.09969156
   0.20184900  0.40369900  0.38152107
   0.56380500  0.12761000  0.10779021
   0.56380500  0.12761000  0.38961973
   0.56710600  0.13421200  0.19387616
   0.36710600  0.33421200  0.47570568
   0.82923400  0.65846800  0.13571444
   0.62923400  0.85846800  0.41754396
 
 position of ions in cartesian coordinates  (Angst):
   0.00000177  2.34757459  6.41229012
   2.47828177  4.40644419 14.16300462
  -0.00000177  9.43146546  5.75865686
   0.70807823  1.19598706 13.50937136
  -0.00000177  6.40008880  2.31423934
  -0.00000177  6.40008880 10.06495384
   1.77020000 10.27849470  2.37371832
   1.77020000 10.27849470 10.12443282
   1.77020000  3.18974491  1.66156717
   1.77020000  3.18974491  9.41228167
   1.77020177  5.55354339  5.69975143
   0.70808177  7.61241299 13.45046593
   1.77019823  9.05318934  4.34075665
   2.47827823  0.81771094 12.09147115
   0.00000177  4.22380187  5.10944151
  -1.06211823  6.28267147 12.86015601
  -0.00000177  4.15581799  2.74166024
  -0.00000177  4.15581799 10.49237474
   1.77020000  1.31366175  2.96438477
   1.77020000  1.31366175 10.71509927
   1.77020000  1.38162503  5.33187152
   0.70808000  3.44049463 13.08258602
   1.77020000  6.77849874  3.73234107
   0.70808000  8.83736834 11.48305557
 


--------------------------------------------------------------------------------------------------------


 k-point  1 :   0.0000 0.0000 0.0000  plane waves:   11717
 k-point  2 :   0.0769-0.0000 0.0000  plane waves:   11762
 k-point  3 :   0.1538-0.0000 0.0000  plane waves:   11805
 k-point  4 :   0.2308-0.0000 0.0000  plane waves:   11824
 k-point  5 :   0.3077-0.0000 0.0000  plane waves:   11875
 k-point  6 :   0.3846-0.0000 0.0000  plane waves:   11864
 k-point  7 :   0.4615-0.0000 0.0000  plane waves:   11883
 k-point  8 :   0.0000 0.2500 0.0000  plane waves:   11683
 k-point  9 :   0.0769 0.2500 0.0000  plane waves:   11756
 k-point 10 :   0.1538 0.2500 0.0000  plane waves:   11807
 k-point 11 :   0.2308 0.2500 0.0000  plane waves:   11853
 k-point 12 :   0.3077 0.2500 0.0000  plane waves:   11866
 k-point 13 :   0.3846 0.2500 0.0000  plane waves:   11889
 k-point 14 :   0.4615 0.2500 0.0000  plane waves:   11885
 k-point 15 :  -0.4615 0.2500 0.0000  plane waves:   11886
 k-point 16 :  -0.3846 0.2500 0.0000  plane waves:   11867
 k-point 17 :  -0.3077 0.2500 0.0000  plane waves:   11849
 k-point 18 :  -0.2308 0.2500 0.0000  plane waves:   11827
 k-point 19 :  -0.1538 0.2500 0.0000  plane waves:   11801
 k-point 20 :  -0.0769 0.2500 0.0000  plane waves:   11757
 k-point 21 :   0.0000 0.5000 0.0000  plane waves:   11710
 k-point 22 :   0.0769 0.5000 0.0000  plane waves:   11762
 k-point 23 :   0.1538 0.5000 0.0000  plane waves:   11782
 k-point 24 :   0.2308 0.5000 0.0000  plane waves:   11841
 k-point 25 :   0.3077 0.5000 0.0000  plane waves:   11876
 k-point 26 :   0.3846 0.5000 0.0000  plane waves:   11889
 k-point 27 :   0.4615 0.5000 0.0000  plane waves:   11881
 k-point 28 :   0.0000 0.0000 0.5000  plane waves:   11698
 k-point 29 :   0.0769-0.0000 0.5000  plane waves:   11752
 k-point 30 :   0.1538-0.0000 0.5000  plane waves:   11800
 k-point 31 :   0.2308-0.0000 0.5000  plane waves:   11834
 k-point 32 :   0.3077-0.0000 0.5000  plane waves:   11850
 k-point 33 :   0.3846-0.0000 0.5000  plane waves:   11888
 k-point 34 :   0.4615-0.0000 0.5000  plane waves:   11896
 k-point 35 :   0.0000 0.2500 0.5000  plane waves:   11714
 k-point 36 :   0.0769 0.2500 0.5000  plane waves:   11754
 k-point 37 :   0.1538 0.2500 0.5000  plane waves:   11802
 k-point 38 :   0.2308 0.2500 0.5000  plane waves:   11840
 k-point 39 :   0.3077 0.2500 0.5000  plane waves:   11858
 k-point 40 :   0.3846 0.2500 0.5000  plane waves:   11896
 k-point 41 :   0.4615 0.2500 0.5000  plane waves:   11886
 k-point 42 :  -0.4615 0.2500 0.5000  plane waves:   11852
 k-point 43 :  -0.3846 0.2500 0.5000  plane waves:   11838
 k-point 44 :  -0.3077 0.2500 0.5000  plane waves:   11842
 k-point 45 :  -0.2308 0.2500 0.5000  plane waves:   11840
 k-point 46 :  -0.1538 0.2500 0.5000  plane waves:   11804
 k-point 47 :  -0.0769 0.2500 0.5000  plane waves:   11748
 k-point 48 :   0.0000 0.5000 0.5000  plane waves:   11724
 k-point 49 :   0.0769 0.5000 0.5000  plane waves:   11748
 k-point 50 :   0.1538 0.5000 0.5000  plane waves:   11814
 k-point 51 :   0.2308 0.5000 0.5000  plane waves:   11832
 k-point 52 :   0.3077 0.5000 0.5000  plane waves:   11868
 k-point 53 :   0.3846 0.5000 0.5000  plane waves:   11892
 k-point 54 :   0.4615 0.5000 0.5000  plane waves:   11878

 maximum and minimum number of plane-waves per node :      5964     5832

 maximum number of plane-waves:     11896
 maximum index in each direction: 
   IXMAX=    5   IYMAX=   14   IZMAX=   38
   IXMIN=   -5   IYMIN=  -15   IZMIN=  -39

 WARNING: aliasing errors must be expected set NGX to  22 to avoid them
 NGY is ok and might be reduce to  60
 NGZ is ok and might be reduce to 156
 aliasing errors are usually negligible using standard VASP settings
 and one can safely disregard these warnings

 real space projection operators:
  total allocation   :       3793.25 KBytes
  max/ min on nodes  :       1899.38       1893.88


 parallel 3D FFT for wavefunctions:
    minimum data exchange during FFTs selected (reduces bandwidth)
 parallel 3D FFT for charge:
    minimum data exchange during FFTs selected (reduces bandwidth)


 total amount of memory used by VASP on root node   146493. kBytes
========================================================================

   base      :      30000. kBytes
   nonlr-proj:       3452. kBytes
   fftplans  :       9347. kBytes
   grid      :      14649. kBytes
   one-center:         36. kBytes
   wavefun   :      89009. kBytes
 
     INWAV:  cpu time    0.00: real time    0.00
 Broyden mixing: mesh for mixing (old mesh)
   NGX =  9   NGY = 29   NGZ = 77
  (NGX  = 40   NGY  =120   NGZ  =320)
  gives a total of  20097 points

 initial charge density was supplied:
 charge density of overlapping atoms calculated
 number of electron     108.0000000 magnetization 
 keeping initial charge density in first step


--------------------------------------------------------------------------------------------------------


 Maximum index for non-local projection operator         1333
 Maximum index for augmentation-charges          822 (set IRDMAX)


--------------------------------------------------------------------------------------------------------


 First call to EWALD:  gamma=   0.177
 Maximum number of real-space cells 7x 3x 1
 Maximum number of reciprocal cells 1x 3x 7

 FEWALD executed in parallel
    FEWALD:  cpu time    0.00: real time    0.00


----------------------------------------- Iteration    1(   1)  ---------------------------------------


vdW kernel read from vdw_kernel.bindat
  0.0000  0.2424  0.5071  0.7962  1.1119  1.4567  1.8333  2.2446  2.6937  3.1842
  3.7199  4.3049  4.9438  5.6415  6.4036  7.2358  8.1446  9.1372 10.2212 11.4050
 12.6979 14.1099 15.6519 17.3360 19.1751 21.1837 23.3773 25.7729 28.3892 31.2465
 34.3669 37.7748 41.4965 45.5611 50.0000
 
    POTLOK:  cpu time   15.87: real time   15.95
    SETDIJ:  cpu time    0.01: real time    0.01
     EDDAV:  cpu time   60.69: real time   60.73
       DOS:  cpu time    0.01: real time    0.01
    --------------------------------------------
      LOOP:  cpu time   76.58: real time   76.71

 eigenvalue-minimisations  :  7368
 total energy-change (2. order) : 0.4940071E+03  (-0.2865291E+04)
 number of electron     108.0000000 magnetization 
 augmentation part      108.0000000 magnetization 

 Free energy of the ion-electron system (eV)
  ---------------------------------------------------
  alpha Z        PSCENC =        36.80884744
  Ewald energy   TEWEN  =     11930.55298512
  -Hartree energ DENC   =    -14973.93723896
  -exchange      EXHF   =         0.00000000
  -V(xc)+E(xc)   XCENC  =       -88.01187462
  PAW double counting   =      1056.43050070     -732.41190547
  entropy T*S    EENTRO =        -0.04528661
  eigenvalues    EBANDS =       -89.42020453
  atomic energy  EATOM  =      3354.04126044
  ---------------------------------------------------
  free energy    TOTEN  =       494.00708350 eV

  energy without entropy =      494.05237012  energy(sigma->0) =      494.02972681


--------------------------------------------------------------------------------------------------------




----------------------------------------- Iteration    1(   2)  ---------------------------------------


     EDDAV:  cpu time   77.18: real time   77.23
       DOS:  cpu time    0.01: real time    0.01
    --------------------------------------------
      LOOP:  cpu time   77.19: real time   77.24

 eigenvalue-minimisations  :  9708
 total energy-change (2. order) :-0.5578073E+03  (-0.5426924E+03)
 number of electron     108.0000000 magnetization 
 augmentation part      108.0000000 magnetization 

 Free energy of the ion-electron system (eV)
  ---------------------------------------------------
  alpha Z        PSCENC =        36.80884744
  Ewald energy   TEWEN  =     11930.55298512
  -Hartree energ DENC   =    -14973.93723896
  -exchange      EXHF   =         0.00000000
  -V(xc)+E(xc)   XCENC  =       -88.01187462
  PAW double counting   =      1056.43050070     -732.41190547
  entropy T*S    EENTRO =        -0.01680386
  eigenvalues    EBANDS =      -647.25595864
  atomic energy  EATOM  =      3354.04126044
  ---------------------------------------------------
  free energy    TOTEN  =       -63.80018785 eV

  energy without entropy =      -63.78338399  energy(sigma->0) =      -63.79178592


--------------------------------------------------------------------------------------------------------




----------------------------------------- Iteration    1(   3)  ---------------------------------------


     EDDAV:  cpu time   71.14: real time   71.18
       DOS:  cpu time    0.01: real time    0.01
    --------------------------------------------
      LOOP:  cpu time   71.15: real time   71.19

 eigenvalue-minimisations  :  8764
 total energy-change (2. order) :-0.5648175E+02  (-0.5569344E+02)
 number of electron     108.0000000 magnetization 
 augmentation part      108.0000000 magnetization 

 Free energy of the ion-electron system (eV)
  ---------------------------------------------------
  alpha Z        PSCENC =        36.80884744
  Ewald energy   TEWEN  =     11930.55298512
  -Hartree energ DENC   =    -14973.93723896
  -exchange      EXHF   =         0.00000000
  -V(xc)+E(xc)   XCENC  =       -88.01187462
  PAW double counting   =      1056.43050070     -732.41190547
  entropy T*S    EENTRO =        -0.02568163
  eigenvalues    EBANDS =      -703.72882733
  atomic energy  EATOM  =      3354.04126044
  ---------------------------------------------------
  free energy    TOTEN  =      -120.28193431 eV

  energy without entropy =     -120.25625268  energy(sigma->0) =     -120.26909349


--------------------------------------------------------------------------------------------------------




----------------------------------------- Iteration    1(   4)  ---------------------------------------


     EDDAV:  cpu time   85.53: real time   85.58
       DOS:  cpu time    0.01: real time    0.01
    --------------------------------------------
      LOOP:  cpu time   85.54: real time   85.59

 eigenvalue-minimisations  : 11040
 total energy-change (2. order) :-0.2616474E+01  (-0.2599801E+01)
 number of electron     108.0000000 magnetization 
 augmentation part      108.0000000 magnetization 

 Free energy of the ion-electron system (eV)
  ---------------------------------------------------
  alpha Z        PSCENC =        36.80884744
  Ewald energy   TEWEN  =     11930.55298512
  -Hartree energ DENC   =    -14973.93723896
  -exchange      EXHF   =         0.00000000
  -V(xc)+E(xc)   XCENC  =       -88.01187462
  PAW double counting   =      1056.43050070     -732.41190547
  entropy T*S    EENTRO =        -0.02607947
  eigenvalues    EBANDS =      -706.34490351
  atomic energy  EATOM  =      3354.04126044
  ---------------------------------------------------
  free energy    TOTEN  =      -122.89840834 eV

  energy without entropy =     -122.87232887  energy(sigma->0) =     -122.88536860


--------------------------------------------------------------------------------------------------------




----------------------------------------- Iteration    1(   5)  ---------------------------------------


     EDDAV:  cpu time   79.40: real time   79.44
       DOS:  cpu time    0.01: real time    0.01
    CHARGE:  cpu time    4.05: real time    4.05
    MIXING:  cpu time    0.01: real time    0.01
    --------------------------------------------
      LOOP:  cpu time   83.48: real time   83.52

 eigenvalue-minimisations  : 10072
 total energy-change (2. order) :-0.6130939E-01  (-0.6123752E-01)
 number of electron     107.9999995 magnetization 
 augmentation part       -9.6086137 magnetization 

 Broyden mixing:
  rms(total) = 0.11061E+01    rms(broyden)= 0.11059E+01
  rms(prec ) = 0.11931E+01
  weight for this iteration     100.00

 Free energy of the ion-electron system (eV)
  ---------------------------------------------------
  alpha Z        PSCENC =        36.80884744
  Ewald energy   TEWEN  =     11930.55298512
  -Hartree energ DENC   =    -14973.93723896
  -exchange      EXHF   =         0.00000000
  -V(xc)+E(xc)   XCENC  =       -88.01187462
  PAW double counting   =      1056.43050070     -732.41190547
  entropy T*S    EENTRO =        -0.02611226
  eigenvalues    EBANDS =      -706.40618012
  atomic energy  EATOM  =      3354.04126044
  ---------------------------------------------------
  free energy    TOTEN  =      -122.95971773 eV

  energy without entropy =     -122.93360547  energy(sigma->0) =     -122.94666160


--------------------------------------------------------------------------------------------------------




----------------------------------------- Iteration    1(   6)  ---------------------------------------


    POTLOK:  cpu time   14.44: real time   14.46
    SETDIJ:  cpu time    0.01: real time    0.01
     EDDAV:  cpu time   72.03: real time   72.08
       DOS:  cpu time    0.01: real time    0.01
    CHARGE:  cpu time    4.02: real time    4.02
    MIXING:  cpu time    0.01: real time    0.01
    --------------------------------------------
      LOOP:  cpu time   90.54: real time   90.60

 eigenvalue-minimisations  :  8888
 total energy-change (2. order) : 0.3352298E+01  (-0.9502266E+00)
 number of electron     107.9999995 magnetization 
 augmentation part       -9.4680623 magnetization 

 Broyden mixing:
  rms(total) = 0.58564E+00    rms(broyden)= 0.58562E+00
  rms(prec ) = 0.61776E+00
  weight for this iteration     100.00

 eigenvalues of (default mixing * dielectric matrix)
  average eigenvalue GAMMA=   1.7444
  1.7444

 Free energy of the ion-electron system (eV)
  ---------------------------------------------------
  alpha Z        PSCENC =        36.80884744
  Ewald energy   TEWEN  =     11930.55298512
  -Hartree energ DENC   =    -15014.95693615
  -exchange      EXHF   =         0.00000000
  -V(xc)+E(xc)   XCENC  =       -84.92459057
  PAW double counting   =      1118.16353776     -795.93175861
  entropy T*S    EENTRO =        -0.02449372
  eigenvalues    EBANDS =      -663.33627139
  atomic energy  EATOM  =      3354.04126044
  ---------------------------------------------------
  free energy    TOTEN  =      -119.60741967 eV

  energy without entropy =     -119.58292595  energy(sigma->0) =     -119.59517281


--------------------------------------------------------------------------------------------------------




----------------------------------------- Iteration    1(   7)  ---------------------------------------


    POTLOK:  cpu time   14.48: real time   14.48
    SETDIJ:  cpu time    0.01: real time    0.01
     EDDAV:  cpu time   69.73: real time   69.78
       DOS:  cpu time    0.01: real time    0.01
    CHARGE:  cpu time    4.00: real time    4.00
    MIXING:  cpu time    0.01: real time    0.01
    --------------------------------------------
      LOOP:  cpu time   88.25: real time   88.30

 eigenvalue-minimisations  :  8536
 total energy-change (2. order) : 0.6011418E-01  (-0.5985232E+00)
 number of electron     107.9999995 magnetization 
 augmentation part       -9.3686215 magnetization 

 Broyden mixing:
  rms(total) = 0.24385E+00    rms(broyden)= 0.24383E+00
  rms(prec ) = 0.26274E+00
  weight for this iteration     100.00

 eigenvalues of (default mixing * dielectric matrix)
  average eigenvalue GAMMA=   1.4394
  0.9520  1.9268

 Free energy of the ion-electron system (eV)
  ---------------------------------------------------
  alpha Z        PSCENC =        36.80884744
  Ewald energy   TEWEN  =     11930.55298512
  -Hartree energ DENC   =    -15045.77718292
  -exchange      EXHF   =         0.00000000
  -V(xc)+E(xc)   XCENC  =       -82.11923892
  PAW double counting   =      1162.72397678     -841.78060621
  entropy T*S    EENTRO =        -0.02170591
  eigenvalues    EBANDS =      -633.97564131
  atomic energy  EATOM  =      3354.04126044
  ---------------------------------------------------
  free energy    TOTEN  =      -119.54730549 eV

  energy without entropy =     -119.52559958  energy(sigma->0) =     -119.53645254


--------------------------------------------------------------------------------------------------------




----------------------------------------- Iteration    1(   8)  ---------------------------------------


    POTLOK:  cpu time   14.47: real time   14.48
    SETDIJ:  cpu time    0.01: real time    0.01
     EDDAV:  cpu time   74.95: real time   75.00
       DOS:  cpu time    0.01: real time    0.01
    CHARGE:  cpu time    4.00: real time    4.00
    MIXING:  cpu time    0.01: real time    0.01
    --------------------------------------------
      LOOP:  cpu time   93.46: real time   93.52

 eigenvalue-minimisations  :  9320
 total energy-change (2. order) : 0.8560963E-03  (-0.8842865E-01)
 number of electron     107.9999995 magnetization 
 augmentation part       -9.3617402 magnetization 

 Broyden mixing:
  rms(total) = 0.12127E+00    rms(broyden)= 0.12126E+00
  rms(prec ) = 0.13194E+00
  weight for this iteration     100.00

 eigenvalues of (default mixing * dielectric matrix)
  average eigenvalue GAMMA=   1.4427
  2.1940  1.3869  0.7473

 Free energy of the ion-electron system (eV)
  ---------------------------------------------------
  alpha Z        PSCENC =        36.80884744
  Ewald energy   TEWEN  =     11930.55298512
  -Hartree energ DENC   =    -15051.60335785
  -exchange      EXHF   =         0.00000000
  -V(xc)+E(xc)   XCENC  =       -81.15427582
  PAW double counting   =      1171.23501132     -850.55292046
  entropy T*S    EENTRO =        -0.02515445
  eigenvalues    EBANDS =      -628.84884515
  atomic energy  EATOM  =      3354.04126044
  ---------------------------------------------------
  free energy    TOTEN  =      -119.54644939 eV

  energy without entropy =     -119.52129494  energy(sigma->0) =     -119.53387217


--------------------------------------------------------------------------------------------------------




----------------------------------------- Iteration    1(   9)  ---------------------------------------


    POTLOK:  cpu time   14.48: real time   14.49
    SETDIJ:  cpu time    0.01: real time    0.01
     EDDAV:  cpu time   71.69: real time   71.74
       DOS:  cpu time    0.01: real time    0.01
    CHARGE:  cpu time    4.01: real time    4.01
    MIXING:  cpu time    0.01: real time    0.01
    --------------------------------------------
      LOOP:  cpu time   90.22: real time   90.28

 eigenvalue-minimisations  :  8848
 total energy-change (2. order) : 0.1885533E-01  (-0.2176088E-01)
 number of electron     107.9999995 magnetization 
 augmentation part       -9.3592400 magnetization 

 Broyden mixing:
  rms(total) = 0.49349E-01    rms(broyden)= 0.49347E-01
  rms(prec ) = 0.54669E-01
  weight for this iteration     100.00

 eigenvalues of (default mixing * dielectric matrix)
  average eigenvalue GAMMA=   1.4248
  2.5468  1.2472  1.2472  0.6578

 Free energy of the ion-electron system (eV)
  ---------------------------------------------------
  alpha Z        PSCENC =        36.80884744
  Ewald energy   TEWEN  =     11930.55298512
  -Hartree energ DENC   =    -15059.10874123
  -exchange      EXHF   =         0.00000000
  -V(xc)+E(xc)   XCENC  =       -80.66940705
  PAW double counting   =      1172.02099460     -851.37040637
  entropy T*S    EENTRO =        -0.02470317
  eigenvalues    EBANDS =      -621.77842387
  atomic energy  EATOM  =      3354.04126044
  ---------------------------------------------------
  free energy    TOTEN  =      -119.52759407 eV

  energy without entropy =     -119.50289090  energy(sigma->0) =     -119.51524248


--------------------------------------------------------------------------------------------------------




----------------------------------------- Iteration    1(  10)  ---------------------------------------


    POTLOK:  cpu time   14.47: real time   14.49
    SETDIJ:  cpu time    0.02: real time    0.02
     EDDAV:  cpu time   71.98: real time   72.01
       DOS:  cpu time    0.01: real time    0.01
    CHARGE:  cpu time    3.99: real time    3.99
    MIXING:  cpu time    0.01: real time    0.01
    --------------------------------------------
      LOOP:  cpu time   90.48: real time   90.54

 eigenvalue-minimisations  :  8896
 total energy-change (2. order) : 0.6392754E-02  (-0.5494379E-02)
 number of electron     107.9999995 magnetization 
 augmentation part       -9.3571526 magnetization 

 Broyden mixing:
  rms(total) = 0.17194E-01    rms(broyden)= 0.17192E-01
  rms(prec ) = 0.19033E-01
  weight for this iteration     100.00

 eigenvalues of (default mixing * dielectric matrix)
  average eigenvalue GAMMA=   1.4174
  2.5837  1.5451  1.1546  1.1546  0.6489

 Free energy of the ion-electron system (eV)
  ---------------------------------------------------
  alpha Z        PSCENC =        36.80884744
  Ewald energy   TEWEN  =     11930.55298512
  -Hartree energ DENC   =    -15061.77014896
  -exchange      EXHF   =         0.00000000
  -V(xc)+E(xc)   XCENC  =       -80.42342353
  PAW double counting   =      1171.43485643     -850.77544108
  entropy T*S    EENTRO =        -0.02497501
  eigenvalues    EBANDS =      -619.36516217
  atomic energy  EATOM  =      3354.04126044
  ---------------------------------------------------
  free energy    TOTEN  =      -119.52120131 eV

  energy without entropy =     -119.49622630  energy(sigma->0) =     -119.50871381


--------------------------------------------------------------------------------------------------------




----------------------------------------- Iteration    1(  11)  ---------------------------------------


    POTLOK:  cpu time   14.45: real time   14.46
    SETDIJ:  cpu time    0.01: real time    0.01
     EDDAV:  cpu time   74.48: real time   74.53
       DOS:  cpu time    0.01: real time    0.01
    CHARGE:  cpu time    4.04: real time    4.04
    MIXING:  cpu time    0.01: real time    0.01
    --------------------------------------------
      LOOP:  cpu time   93.01: real time   93.07

 eigenvalue-minimisations  :  9272
 total energy-change (2. order) : 0.9806007E-02  (-0.8155200E-03)
 number of electron     107.9999995 magnetization 
 augmentation part       -9.3593935 magnetization 

 Broyden mixing:
  rms(total) = 0.77901E-02    rms(broyden)= 0.77891E-02
  rms(prec ) = 0.91335E-02
  weight for this iteration     100.00

 eigenvalues of (default mixing * dielectric matrix)
  average eigenvalue GAMMA=   1.3944
  2.6466  1.6170  1.3755  1.0400  1.0400  0.6473

 Free energy of the ion-electron system (eV)
  ---------------------------------------------------
  alpha Z        PSCENC =        36.80884744
  Ewald energy   TEWEN  =     11930.55298512
  -Hartree energ DENC   =    -15062.74694943
  -exchange      EXHF   =         0.00000000
  -V(xc)+E(xc)   XCENC  =       -80.40573223
  PAW double counting   =      1169.69260414     -848.98705577
  entropy T*S    EENTRO =        -0.02488504
  eigenvalues    EBANDS =      -618.44246998
  atomic energy  EATOM  =      3354.04126044
  ---------------------------------------------------
  free energy    TOTEN  =      -119.51139531 eV

  energy without entropy =     -119.48651027  energy(sigma->0) =     -119.49895279


--------------------------------------------------------------------------------------------------------




----------------------------------------- Iteration    1(  12)  ---------------------------------------


    POTLOK:  cpu time   14.45: real time   14.46
    SETDIJ:  cpu time    0.01: real time    0.01
     EDDAV:  cpu time   73.73: real time   73.77
       DOS:  cpu time    0.01: real time    0.01
    CHARGE:  cpu time    4.02: real time    4.02
    MIXING:  cpu time    0.01: real time    0.01
    --------------------------------------------
      LOOP:  cpu time   92.24: real time   92.30

 eigenvalue-minimisations  :  9144
 total energy-change (2. order) : 0.5502269E-02  (-0.1470886E-03)
 number of electron     107.9999995 magnetization 
 augmentation part       -9.3595749 magnetization 

 Broyden mixing:
  rms(total) = 0.39855E-02    rms(broyden)= 0.39851E-02
  rms(prec ) = 0.51436E-02
  weight for this iteration     100.00

 eigenvalues of (default mixing * dielectric matrix)
  average eigenvalue GAMMA=   1.4277
  2.6632  2.0959  1.2978  1.2978  0.6511  0.9940  0.9940

 Free energy of the ion-electron system (eV)
  ---------------------------------------------------
  alpha Z        PSCENC =        36.80884744
  Ewald energy   TEWEN  =     11930.55298512
  -Hartree energ DENC   =    -15063.84598930
  -exchange      EXHF   =         0.00000000
  -V(xc)+E(xc)   XCENC  =       -80.39095669
  PAW double counting   =      1168.92675072     -848.20067405
  entropy T*S    EENTRO =        -0.02480066
  eigenvalues    EBANDS =      -617.37331606
  atomic energy  EATOM  =      3354.04126044
  ---------------------------------------------------
  free energy    TOTEN  =      -119.50589304 eV

  energy without entropy =     -119.48109238  energy(sigma->0) =     -119.49349271


--------------------------------------------------------------------------------------------------------




----------------------------------------- Iteration    1(  13)  ---------------------------------------


    POTLOK:  cpu time   14.45: real time   14.46
    SETDIJ:  cpu time    0.01: real time    0.01
     EDDAV:  cpu time   72.40: real time   72.45
       DOS:  cpu time    0.01: real time    0.01
    CHARGE:  cpu time    4.01: real time    4.01
    MIXING:  cpu time    0.01: real time    0.01
    --------------------------------------------
      LOOP:  cpu time   90.91: real time   90.96

 eigenvalue-minimisations  :  8952
 total energy-change (2. order) : 0.4071256E-02  (-0.2790978E-04)
 number of electron     107.9999995 magnetization 
 augmentation part       -9.3598129 magnetization 

 Broyden mixing:
  rms(total) = 0.18162E-02    rms(broyden)= 0.18160E-02
  rms(prec ) = 0.29643E-02
  weight for this iteration     100.00

 eigenvalues of (default mixing * dielectric matrix)
  average eigenvalue GAMMA=   1.4690
  2.7809  2.3467  1.4477  1.2991  1.2991  0.6512  0.9637  0.9637

 Free energy of the ion-electron system (eV)
  ---------------------------------------------------
  alpha Z        PSCENC =        36.80884744
  Ewald energy   TEWEN  =     11930.55298512
  -Hartree energ DENC   =    -15064.64795675
  -exchange      EXHF   =         0.00000000
  -V(xc)+E(xc)   XCENC  =       -80.38841185
  PAW double counting   =      1168.33408400     -847.59228331
  entropy T*S    EENTRO =        -0.02483145
  eigenvalues    EBANDS =      -616.58551544
  atomic energy  EATOM  =      3354.04126044
  ---------------------------------------------------
  free energy    TOTEN  =      -119.50182178 eV

  energy without entropy =     -119.47699034  energy(sigma->0) =     -119.48940606


--------------------------------------------------------------------------------------------------------




----------------------------------------- Iteration    1(  14)  ---------------------------------------


    POTLOK:  cpu time   14.45: real time   14.47
    SETDIJ:  cpu time    0.01: real time    0.01
     EDDAV:  cpu time   75.94: real time   76.01
       DOS:  cpu time    0.01: real time    0.01
    CHARGE:  cpu time    4.00: real time    4.01
    MIXING:  cpu time    0.01: real time    0.01
    --------------------------------------------
      LOOP:  cpu time   94.44: real time   94.53

 eigenvalue-minimisations  :  9496
 total energy-change (2. order) : 0.1666634E-02  (-0.1314729E-04)
 number of electron     107.9999995 magnetization 
 augmentation part       -9.3594980 magnetization 

 Broyden mixing:
  rms(total) = 0.10864E-02    rms(broyden)= 0.10863E-02
  rms(prec ) = 0.18962E-02
  weight for this iteration     100.00

 eigenvalues of (default mixing * dielectric matrix)
  average eigenvalue GAMMA=   1.4808
  2.9264  2.5345  1.6474  1.2498  1.2498  0.6513  1.1544  0.9570  0.9570

 Free energy of the ion-electron system (eV)
  ---------------------------------------------------
  alpha Z        PSCENC =        36.80884744
  Ewald energy   TEWEN  =     11930.55298512
  -Hartree energ DENC   =    -15065.60826349
  -exchange      EXHF   =         0.00000000
  -V(xc)+E(xc)   XCENC  =       -80.38177484
  PAW double counting   =      1168.11509429     -847.36800077
  entropy T*S    EENTRO =        -0.02480042
  eigenvalues    EBANDS =      -615.63550292
  atomic energy  EATOM  =      3354.04126044
  ---------------------------------------------------
  free energy    TOTEN  =      -119.50015515 eV

  energy without entropy =     -119.47535472  energy(sigma->0) =     -119.48775494


--------------------------------------------------------------------------------------------------------




----------------------------------------- Iteration    1(  15)  ---------------------------------------


    POTLOK:  cpu time   14.46: real time   14.47
    SETDIJ:  cpu time    0.01: real time    0.01
     EDDAV:  cpu time   68.23: real time   68.28
       DOS:  cpu time    0.01: real time    0.01
    CHARGE:  cpu time    3.93: real time    3.93
    MIXING:  cpu time    0.01: real time    0.01
    --------------------------------------------
      LOOP:  cpu time   86.66: real time   86.71

 eigenvalue-minimisations  :  8512
 total energy-change (2. order) : 0.2815333E-03  (-0.4107471E-05)
 number of electron     107.9999995 magnetization 
 augmentation part       -9.3593898 magnetization 

 Broyden mixing:
  rms(total) = 0.67795E-03    rms(broyden)= 0.67792E-03
  rms(prec ) = 0.12512E-02
  weight for this iteration     100.00

 eigenvalues of (default mixing * dielectric matrix)
  average eigenvalue GAMMA=   1.5503
  3.3380  2.6361  2.0202  1.3795  1.2609  1.2609  0.6510  0.9979  0.9979  0.9607

 Free energy of the ion-electron system (eV)
  ---------------------------------------------------
  alpha Z        PSCENC =        36.80884744
  Ewald energy   TEWEN  =     11930.55298512
  -Hartree energ DENC   =    -15066.28005315
  -exchange      EXHF   =         0.00000000
  -V(xc)+E(xc)   XCENC  =       -80.37849082
  PAW double counting   =      1168.04898105     -847.30052345
  entropy T*S    EENTRO =        -0.02481036
  eigenvalues    EBANDS =      -614.96806987
  atomic energy  EATOM  =      3354.04126044
  ---------------------------------------------------
  free energy    TOTEN  =      -119.49987361 eV

  energy without entropy =     -119.47506325  energy(sigma->0) =     -119.48746843


--------------------------------------------------------------------------------------------------------




----------------------------------------- Iteration    1(  16)  ---------------------------------------


    POTLOK:  cpu time   14.42: real time   14.43
    SETDIJ:  cpu time    0.01: real time    0.01
     EDDAV:  cpu time   65.86: real time   65.92
       DOS:  cpu time    0.01: real time    0.01
    CHARGE:  cpu time    3.94: real time    3.95
    MIXING:  cpu time    0.01: real time    0.01
    --------------------------------------------
      LOOP:  cpu time   84.27: real time   84.34

 eigenvalue-minimisations  :  8160
 total energy-change (2. order) :-0.3899034E-03  (-0.7715903E-05)
 number of electron     107.9999995 magnetization 
 augmentation part       -9.3592667 magnetization 

 Broyden mixing:
  rms(total) = 0.44970E-03    rms(broyden)= 0.44968E-03
  rms(prec ) = 0.74779E-03
  weight for this iteration     100.00

 eigenvalues of (default mixing * dielectric matrix)
  average eigenvalue GAMMA=   1.6503
  4.2811  2.7338  2.1877  1.7877  1.2701  1.2701  0.6509  1.0367  1.0367  0.9493
  0.9493

 Free energy of the ion-electron system (eV)
  ---------------------------------------------------
  alpha Z        PSCENC =        36.80884744
  Ewald energy   TEWEN  =     11930.55298512
  -Hartree energ DENC   =    -15066.97038619
  -exchange      EXHF   =         0.00000000
  -V(xc)+E(xc)   XCENC  =       -80.37452545
  PAW double counting   =      1168.05715019     -847.30910968
  entropy T*S    EENTRO =        -0.02481171
  eigenvalues    EBANDS =      -614.28167368
  atomic energy  EATOM  =      3354.04126044
  ---------------------------------------------------
  free energy    TOTEN  =      -119.50026352 eV

  energy without entropy =     -119.47545181  energy(sigma->0) =     -119.48785766


--------------------------------------------------------------------------------------------------------




----------------------------------------- Iteration    1(  17)  ---------------------------------------


    POTLOK:  cpu time   14.45: real time   14.45
    SETDIJ:  cpu time    0.01: real time    0.01
     EDDAV:  cpu time   65.32: real time   65.35
       DOS:  cpu time    0.01: real time    0.01
    CHARGE:  cpu time    3.95: real time    3.95
    MIXING:  cpu time    0.01: real time    0.01
    --------------------------------------------
      LOOP:  cpu time   83.76: real time   83.80

 eigenvalue-minimisations  :  8072
 total energy-change (2. order) :-0.3960332E-03  (-0.1527504E-04)
 number of electron     107.9999995 magnetization 
 augmentation part       -9.3592428 magnetization 

 Broyden mixing:
  rms(total) = 0.24794E-03    rms(broyden)= 0.24793E-03
  rms(prec ) = 0.41749E-03
  weight for this iteration     100.00

 eigenvalues of (default mixing * dielectric matrix)
  average eigenvalue GAMMA=   1.7495
  5.3324  2.7794  2.4236  1.8931  1.5375  1.2334  1.2334  0.6509  1.0101  1.0101
  0.9449  0.9449

 Free energy of the ion-electron system (eV)
  ---------------------------------------------------
  alpha Z        PSCENC =        36.80884744
  Ewald energy   TEWEN  =     11930.55298512
  -Hartree energ DENC   =    -15067.41160799
  -exchange      EXHF   =         0.00000000
  -V(xc)+E(xc)   XCENC  =       -80.37260037
  PAW double counting   =      1168.07153329     -847.32372374
  entropy T*S    EENTRO =        -0.02481126
  eigenvalues    EBANDS =      -613.84254248
  atomic energy  EATOM  =      3354.04126044
  ---------------------------------------------------
  free energy    TOTEN  =      -119.50065955 eV

  energy without entropy =     -119.47584829  energy(sigma->0) =     -119.48825392


--------------------------------------------------------------------------------------------------------




----------------------------------------- Iteration    1(  18)  ---------------------------------------


    POTLOK:  cpu time   14.42: real time   14.44
    SETDIJ:  cpu time    0.01: real time    0.01
     EDDAV:  cpu time   64.81: real time   64.86
       DOS:  cpu time    0.01: real time    0.01
    CHARGE:  cpu time    3.90: real time    3.90
    MIXING:  cpu time    0.01: real time    0.01
    --------------------------------------------
      LOOP:  cpu time   83.17: real time   83.24

 eigenvalue-minimisations  :  8024
 total energy-change (2. order) :-0.1644960E-03  (-0.5914943E-05)
 number of electron     107.9999995 magnetization 
 augmentation part       -9.3592096 magnetization 

 Broyden mixing:
  rms(total) = 0.14661E-03    rms(broyden)= 0.14660E-03
  rms(prec ) = 0.26008E-03
  weight for this iteration     100.00

 eigenvalues of (default mixing * dielectric matrix)
  average eigenvalue GAMMA=   1.8148
  6.2239  2.8866  2.4903  1.9454  1.5946  1.2579  1.2579  1.3927  0.6509  1.0113
  1.0113  0.9350  0.9350

 Free energy of the ion-electron system (eV)
  ---------------------------------------------------
  alpha Z        PSCENC =        36.80884744
  Ewald energy   TEWEN  =     11930.55298512
  -Hartree energ DENC   =    -15067.64360884
  -exchange      EXHF   =         0.00000000
  -V(xc)+E(xc)   XCENC  =       -80.37139792
  PAW double counting   =      1168.08772280     -847.34020836
  entropy T*S    EENTRO =        -0.02481305
  eigenvalues    EBANDS =      -613.61161169
  atomic energy  EATOM  =      3354.04126044
  ---------------------------------------------------
  free energy    TOTEN  =      -119.50082405 eV

  energy without entropy =     -119.47601100  energy(sigma->0) =     -119.48841752


--------------------------------------------------------------------------------------------------------




----------------------------------------- Iteration    1(  19)  ---------------------------------------


    POTLOK:  cpu time   14.42: real time   14.43
    SETDIJ:  cpu time    0.01: real time    0.01
     EDDAV:  cpu time   53.07: real time   53.11
       DOS:  cpu time    0.01: real time    0.01
    CHARGE:  cpu time    3.89: real time    3.90
    MIXING:  cpu time    0.01: real time    0.01
    --------------------------------------------
      LOOP:  cpu time   71.43: real time   71.48

 eigenvalue-minimisations  :  6176
 total energy-change (2. order) :-0.3559448E-04  (-0.9247852E-06)
 number of electron     107.9999995 magnetization 
 augmentation part       -9.3592040 magnetization 

 Broyden mixing:
  rms(total) = 0.10145E-03    rms(broyden)= 0.10145E-03
  rms(prec ) = 0.17889E-03
  weight for this iteration     100.00

 eigenvalues of (default mixing * dielectric matrix)
  average eigenvalue GAMMA=   1.8563
  6.6468  3.0641  2.6671  2.0340  1.7228  1.7228  1.2337  1.2337  0.6509  1.0116
  1.0116  1.0966  0.9463  0.9463

 Free energy of the ion-electron system (eV)
  ---------------------------------------------------
  alpha Z        PSCENC =        36.80884744
  Ewald energy   TEWEN  =     11930.55298512
  -Hartree energ DENC   =    -15067.75086467
  -exchange      EXHF   =         0.00000000
  -V(xc)+E(xc)   XCENC  =       -80.37112711
  PAW double counting   =      1168.08867321     -847.34114096
  entropy T*S    EENTRO =        -0.02481388
  eigenvalues    EBANDS =      -613.50467923
  atomic energy  EATOM  =      3354.04126044
  ---------------------------------------------------
  free energy    TOTEN  =      -119.50085964 eV

  energy without entropy =     -119.47604576  energy(sigma->0) =     -119.48845270


--------------------------------------------------------------------------------------------------------




----------------------------------------- Iteration    1(  20)  ---------------------------------------


    POTLOK:  cpu time   14.41: real time   14.41
    SETDIJ:  cpu time    0.01: real time    0.01
     EDDAV:  cpu time   59.22: real time   59.26
       DOS:  cpu time    0.01: real time    0.01
    CHARGE:  cpu time    3.89: real time    3.89
    MIXING:  cpu time    0.01: real time    0.02
    --------------------------------------------
      LOOP:  cpu time   77.56: real time   77.61

 eigenvalue-minimisations  :  7192
 total energy-change (2. order) :-0.2538714E-04  (-0.3189240E-05)
 number of electron     107.9999995 magnetization 
 augmentation part       -9.3592040 magnetization 

 Broyden mixing:
  rms(total) = 0.66306E-04    rms(broyden)= 0.66302E-04
  rms(prec ) = 0.10968E-03
  weight for this iteration     100.00

 eigenvalues of (default mixing * dielectric matrix)
  average eigenvalue GAMMA=   1.8979
  6.8931  3.6133  2.7636  2.3895  1.6388  1.6388  1.2526  1.2526  1.3940  0.6509
  1.0076  1.0076  1.0316  1.0316  0.9023

 Free energy of the ion-electron system (eV)
  ---------------------------------------------------
  alpha Z        PSCENC =        36.80884744
  Ewald energy   TEWEN  =     11930.55298512
  -Hartree energ DENC   =    -15067.81345505
  -exchange      EXHF   =         0.00000000
  -V(xc)+E(xc)   XCENC  =       -80.37103348
  PAW double counting   =      1168.08732810     -847.33973994
  entropy T*S    EENTRO =        -0.02481350
  eigenvalues    EBANDS =      -613.44226416
  atomic energy  EATOM  =      3354.04126044
  ---------------------------------------------------
  free energy    TOTEN  =      -119.50088503 eV

  energy without entropy =     -119.47607152  energy(sigma->0) =     -119.48847828


--------------------------------------------------------------------------------------------------------




----------------------------------------- Iteration    1(  21)  ---------------------------------------


    POTLOK:  cpu time   14.42: real time   14.43
    SETDIJ:  cpu time    0.01: real time    0.01
     EDDAV:  cpu time   56.39: real time   56.43
       DOS:  cpu time    0.01: real time    0.01
    CHARGE:  cpu time    3.90: real time    3.90
    MIXING:  cpu time    0.02: real time    0.02
    --------------------------------------------
      LOOP:  cpu time   74.75: real time   74.80

 eigenvalue-minimisations  :  6680
 total energy-change (2. order) : 0.4353417E-04  (-0.1838301E-05)
 number of electron     107.9999995 magnetization 
 augmentation part       -9.3592102 magnetization 

 Broyden mixing:
  rms(total) = 0.42392E-04    rms(broyden)= 0.42390E-04
  rms(prec ) = 0.59807E-04
  weight for this iteration     100.00

 eigenvalues of (default mixing * dielectric matrix)
  average eigenvalue GAMMA=   2.0006
  7.2048  4.8750  2.8427  2.6580  1.9406  1.6779  1.6779  1.2404  1.2404  0.6509
  1.0397  1.0397  1.0631  0.9836  0.9836  0.8912

 Free energy of the ion-electron system (eV)
  ---------------------------------------------------
  alpha Z        PSCENC =        36.80884744
  Ewald energy   TEWEN  =     11930.55298512
  -Hartree energ DENC   =    -15067.83398952
  -exchange      EXHF   =         0.00000000
  -V(xc)+E(xc)   XCENC  =       -80.37118617
  PAW double counting   =      1168.08301951     -847.33532504
  entropy T*S    EENTRO =        -0.02481545
  eigenvalues    EBANDS =      -613.42163784
  atomic energy  EATOM  =      3354.04126044
  ---------------------------------------------------
  free energy    TOTEN  =      -119.50084149 eV

  energy without entropy =     -119.47602604  energy(sigma->0) =     -119.48843377


--------------------------------------------------------------------------------------------------------




----------------------------------------- Iteration    1(  22)  ---------------------------------------


    POTLOK:  cpu time   14.41: real time   14.41
    SETDIJ:  cpu time    0.01: real time    0.01
     EDDAV:  cpu time   59.49: real time   59.53
       DOS:  cpu time    0.01: real time    0.01
    CHARGE:  cpu time    3.91: real time    3.91
    MIXING:  cpu time    0.02: real time    0.02
    --------------------------------------------
      LOOP:  cpu time   77.85: real time   77.90

 eigenvalue-minimisations  :  7184
 total energy-change (2. order) : 0.5707716E-04  (-0.2370754E-05)
 number of electron     107.9999995 magnetization 
 augmentation part       -9.3592064 magnetization 

 Broyden mixing:
  rms(total) = 0.22518E-04    rms(broyden)= 0.22515E-04
  rms(prec ) = 0.28703E-04
  weight for this iteration     100.00

 eigenvalues of (default mixing * dielectric matrix)
  average eigenvalue GAMMA=   2.1006
  7.6856  6.2463  3.0158  2.6360  2.2898  1.6312  1.5094  1.5094  1.2529  1.2529
  0.6509  1.1150  1.0152  1.0152  1.0007  1.0007  0.8825

 Free energy of the ion-electron system (eV)
  ---------------------------------------------------
  alpha Z        PSCENC =        36.80884744
  Ewald energy   TEWEN  =     11930.55298512
  -Hartree energ DENC   =    -15067.84963884
  -exchange      EXHF   =         0.00000000
  -V(xc)+E(xc)   XCENC  =       -80.37122638
  PAW double counting   =      1168.08199874     -847.33430589
  entropy T*S    EENTRO =        -0.02481512
  eigenvalues    EBANDS =      -613.40588993
  atomic energy  EATOM  =      3354.04126044
  ---------------------------------------------------
  free energy    TOTEN  =      -119.50078442 eV

  energy without entropy =     -119.47596929  energy(sigma->0) =     -119.48837685


--------------------------------------------------------------------------------------------------------




----------------------------------------- Iteration    1(  23)  ---------------------------------------


    POTLOK:  cpu time   14.46: real time   14.47
    SETDIJ:  cpu time    0.01: real time    0.01
     EDDAV:  cpu time   56.10: real time   56.15
       DOS:  cpu time    0.01: real time    0.01
    CHARGE:  cpu time    3.89: real time    3.89
    MIXING:  cpu time    0.02: real time    0.02
    --------------------------------------------
      LOOP:  cpu time   74.50: real time   74.55

 eigenvalue-minimisations  :  6640
 total energy-change (2. order) : 0.3665272E-04  (-0.1571640E-05)
 number of electron     107.9999995 magnetization 
 augmentation part       -9.3592066 magnetization 

 Broyden mixing:
  rms(total) = 0.10220E-04    rms(broyden)= 0.10217E-04
  rms(prec ) = 0.12747E-04
  weight for this iteration     100.00

 eigenvalues of (default mixing * dielectric matrix)
  average eigenvalue GAMMA=   2.1623
  8.7299  6.6399  3.0753  2.7288  2.3767  1.7161  1.7161  1.7303  1.2466  1.2466
  0.6509  1.1244  1.1244  0.9975  0.9975  0.9786  0.9786  0.8635

 Free energy of the ion-electron system (eV)
  ---------------------------------------------------
  alpha Z        PSCENC =        36.80884744
  Ewald energy   TEWEN  =     11930.55298512
  -Hartree energ DENC   =    -15067.84737116
  -exchange      EXHF   =         0.00000000
  -V(xc)+E(xc)   XCENC  =       -80.37124855
  PAW double counting   =      1168.08247680     -847.33480663
  entropy T*S    EENTRO =        -0.02481496
  eigenvalues    EBANDS =      -613.40807627
  atomic energy  EATOM  =      3354.04126044
  ---------------------------------------------------
  free energy    TOTEN  =      -119.50074776 eV

  energy without entropy =     -119.47593280  energy(sigma->0) =     -119.48834028


[...]
     31      -4.1829      2.00000
     32      -4.0250      2.00000
     33      -3.7724      2.00000
     34      -3.6511      2.00000
     35      -3.3409      2.00000
     36      -3.2563      2.00000
     37      -3.1620      2.00000
     38      -3.0936      2.00000
     39      -2.7599      2.00000
     40      -2.7153      2.00000
     41      -2.6522      2.00000
     42      -2.5718      2.00000
     43      -2.4649      2.00000
     44      -2.0799      2.00000
     45      -2.0093      2.00000
     46      -1.9293      2.00000
     47      -1.7997      2.00000
     48      -1.6423      2.00000
     49      -1.4154      2.00000
     50      -1.1513      2.00000
     51      -1.0752      2.00000
     52      -0.7272      2.00000
     53      -0.4227      2.00000
     54      -0.1519      1.67457
     55      -0.0623      0.77641
     56       0.9063      0.00000
     57       1.3213      0.00000
     58       1.4571      0.00000
     59       1.5549      0.00000
     60       1.8820      0.00000
     61       2.0642      0.00000
     62       2.2487      0.00000
     63       2.4674      0.00000
     64       2.5919      0.00000
     65       2.6816      0.00000
     66       2.8905      0.00000
     67       3.0229      0.00000
     68       3.2045      0.00000

 k-point    52 :       0.3077    0.5000    0.5000
  band No.  band energies     occupation 
      1     -13.5901      2.00000
      2     -12.5404      2.00000
      3     -12.1958      2.00000
      4     -12.0209      2.00000
      5     -11.6771      2.00000
      6     -11.3820      2.00000
      7     -11.2313      2.00000
      8     -11.0451      2.00000
      9     -10.8405      2.00000
     10     -10.7094      2.00000
     11     -10.4253      2.00000
     12      -9.7688      2.00000
     13      -9.0760      2.00000
     14      -8.9538      2.00000
     15      -7.8061      2.00000
     16      -7.7302      2.00000
     17      -7.3330      2.00000
     18      -7.0965      2.00000
     19      -6.9989      2.00000
     20      -6.6995      2.00000
     21      -6.3886      2.00000
     22      -6.2170      2.00000
     23      -5.9561      2.00000
     24      -5.6182      2.00000
     25      -5.3898      2.00000
     26      -5.0452      2.00000
     27      -4.9332      2.00000
     28      -4.7365      2.00000
     29      -4.5640      2.00000
     30      -4.4691      2.00000
     31      -4.3705      2.00000
     32      -4.2329      2.00000
     33      -4.1100      2.00000
     34      -3.7596      2.00000
     35      -3.3033      2.00000
     36      -3.2430      2.00000
     37      -3.1193      2.00000
     38      -3.0281      2.00000
     39      -2.9682      2.00000
     40      -2.9149      2.00000
     41      -2.6098      2.00000
     42      -2.5351      2.00000
     43      -2.4825      2.00000
     44      -2.2944      2.00000
     45      -2.1981      2.00000
     46      -1.9915      2.00000
     47      -1.9588      2.00000
     48      -1.8776      2.00000
     49      -1.7671      2.00000
     50      -1.5185      2.00000
     51      -1.3194      2.00000
     52      -0.9204      2.00000
     53      -0.6837      2.00000
     54      -0.5350      2.00000
     55      -0.2872      1.99622
     56       0.7556      0.00000
     57       1.1986      0.00000
     58       1.2820      0.00000
     59       1.3716      0.00000
     60       1.6069      0.00000
     61       1.9810      0.00000
     62       2.1503      0.00000
     63       2.2275      0.00000
     64       2.4088      0.00000
     65       2.4957      0.00000
     66       2.5803      0.00000
     67       2.6210      0.00000
     68       2.9481      0.00000

 k-point    53 :       0.3846    0.5000    0.5000
  band No.  band energies     occupation 
      1     -13.1559      2.00000
      2     -12.0640      2.00000
      3     -11.6988      2.00000
      4     -11.6011      2.00000
      5     -11.2810      2.00000
      6     -11.1022      2.00000
      7     -10.9881      2.00000
      8     -10.8021      2.00000
      9     -10.6493      2.00000
     10     -10.5945      2.00000
     11     -10.4922      2.00000
     12      -9.8201      2.00000
     13      -9.4271      2.00000
     14      -8.9381      2.00000
     15      -8.2812      2.00000
     16      -7.7512      2.00000
     17      -7.6537      2.00000
     18      -7.6314      2.00000
     19      -7.4140      2.00000
     20      -7.0110      2.00000
     21      -6.8589      2.00000
     22      -6.7505      2.00000
     23      -6.6875      2.00000
     24      -6.2462      2.00000
     25      -5.3313      2.00000
     26      -4.9731      2.00000
     27      -4.7165      2.00000
     28      -4.6755      2.00000
     29      -4.5399      2.00000
     30      -4.3988      2.00000
     31      -4.1956      2.00000
     32      -4.1444      2.00000
     33      -4.0674      2.00000
     34      -3.8031      2.00000
     35      -3.5631      2.00000
     36      -3.4140      2.00000
     37      -3.2253      2.00000
     38      -3.1786      2.00000
     39      -3.1192      2.00000
     40      -2.9060      2.00000
     41      -2.8416      2.00000
     42      -2.6615      2.00000
     43      -2.5042      2.00000
     44      -2.3697      2.00000
     45      -2.2825      2.00000
     46      -2.1345      2.00000
     47      -2.1131      2.00000
     48      -2.0481      2.00000
     49      -1.8819      2.00000
     50      -1.8077      2.00000
     51      -1.4692      2.00000
     52      -1.2757      2.00000
     53      -0.8345      2.00000
     54      -0.6228      2.00000
     55      -0.3624      1.99993
     56       0.7474      0.00000
     57       1.0419      0.00000
     58       1.2391      0.00000
     59       1.3396      0.00000
     60       1.5105      0.00000
     61       1.8053      0.00000
     62       1.9900      0.00000
     63       2.0730      0.00000
     64       2.1338      0.00000
     65       2.2559      0.00000
     66       2.3199      0.00000
     67       2.3892      0.00000
     68       2.6613      0.00000

 k-point    54 :       0.4615    0.5000    0.5000
  band No.  band energies     occupation 
      1     -12.7835      2.00000
      2     -11.5213      2.00000
      3     -11.4023      2.00000
      4     -11.2003      2.00000
      5     -11.0327      2.00000
      6     -10.9792      2.00000
      7     -10.8806      2.00000
      8     -10.7550      2.00000
      9     -10.7461      2.00000
     10     -10.6522      2.00000
     11     -10.5672      2.00000
     12      -9.8366      2.00000
     13      -9.6180      2.00000
     14      -8.6963      2.00000
     15      -8.4711      2.00000
     16      -8.1506      2.00000
     17      -7.9496      2.00000
     18      -7.7741      2.00000
     19      -7.5903      2.00000
     20      -7.3844      2.00000
     21      -7.3179      2.00000
     22      -7.2017      2.00000
     23      -6.8869      2.00000
     24      -6.5948      2.00000
     25      -4.9779      2.00000
     26      -4.7455      2.00000
     27      -4.5829      2.00000
     28      -4.5093      2.00000
     29      -4.3951      2.00000
     30      -4.3102      2.00000
     31      -4.1208      2.00000
     32      -4.0315      2.00000
     33      -3.9581      2.00000
     34      -3.8489      2.00000
     35      -3.7975      2.00000
     36      -3.6005      2.00000
     37      -3.5488      2.00000
     38      -3.3102      2.00000
     39      -3.2864      2.00000
     40      -3.0836      2.00000
     41      -3.0141      2.00000
     42      -2.7425      2.00000
     43      -2.6998      2.00000
     44      -2.4073      2.00000
     45      -2.2733      2.00000
     46      -2.1775      2.00000
     47      -2.1369      2.00000
     48      -2.0145      2.00000
     49      -1.9759      2.00000
     50      -1.7336      2.00000
     51      -1.5769      2.00000
     52      -1.5244      2.00000
     53      -0.8431      2.00000
     54      -0.6304      2.00000
     55      -0.4188      2.00000
     56       0.7928      0.00000
     57       0.9023      0.00000
     58       1.1900      0.00000
     59       1.3317      0.00000
     60       1.5671      0.00000
     61       1.6342      0.00000
     62       1.8428      0.00000
     63       1.9813      0.00000
     64       2.0197      0.00000
     65       2.1550      0.00000
     66       2.2885      0.00000
     67       2.3935      0.00000
     68       2.4877      0.00000


--------------------------------------------------------------------------------------------------------


 soft charge-density along one line, spin component           1
         0         1         2         3         4         5         6         7         8         9
 total charge-density along one line
 
 pseudopotential strength for first ion, spin component:           1
 29.782   0.008  -0.000  -0.023  -0.000  -0.000  -0.001   0.000
  0.008   0.009  -0.000  -0.000   0.000   0.000   0.000  -0.000
 -0.000  -0.000   6.549  -0.001   0.000  -0.003   0.000  -0.000
 -0.023  -0.000  -0.001   6.544  -0.000   0.000  -0.002  -0.000
 -0.000   0.000   0.000  -0.000   6.550  -0.000  -0.000  -0.003
 -0.000   0.000  -0.003   0.000  -0.000   0.015  -0.000   0.000
 -0.001   0.000   0.000  -0.002  -0.000  -0.000   0.015   0.000
  0.000  -0.000  -0.000  -0.000  -0.003   0.000   0.000   0.015
 total augmentation occupancy for first ion, spin component:           1
  1.816  -0.352   0.006   0.256  -0.000   0.004   0.114  -0.001
 -0.352   1.296   0.024   0.861  -0.001   0.004  -0.433  -0.000
  0.006   0.024   1.142   0.011   0.000  -0.503   0.015  -0.000
  0.256   0.861   0.011   1.290   0.000   0.015  -0.418  -0.001
 -0.000  -0.001   0.000   0.000   1.144  -0.000  -0.000  -0.527
  0.004   0.004  -0.503   0.015  -0.000   0.292  -0.016   0.000
  0.114  -0.433   0.015  -0.418  -0.000  -0.016   0.227   0.000
 -0.001  -0.000  -0.000  -0.001  -0.527   0.000   0.000   0.325


------------------------ aborting loop because EDIFF is reached ----------------------------------------


    CHARGE:  cpu time    3.90: real time    3.91
    FORLOC:  cpu time    0.06: real time    0.06
    FORNL :  cpu time   17.62: real time   17.64
    STRESS:  cpu time   52.76: real time   52.78
    FORCOR:  cpu time   14.50: real time   14.50
    FORHAR:  cpu time    0.14: real time    0.14
    MIXING:  cpu time    0.02: real time    0.02
    OFIELD:  cpu time    0.00: real time    0.00

  FORCE on cell =-STRESS in cart. coord.  units (eV):
  Direction    XX          YY          ZZ          XY          YZ          ZX
  --------------------------------------------------------------------------------------
  Alpha Z    36.80885    36.80885    36.80885
  Ewald   14380.23164 13966.43108-16416.11711    -5.96644   -41.51562     3.46515
  Hartree 14905.04019 14593.49722-14430.68589    -0.47445    -3.08281    -5.00491
  E(xc)    -357.35433  -356.99546  -356.20266     0.14524     0.06462    -0.57529
  Local  -30834.66089-30120.84818 29262.98826     3.74486    34.81180     4.91268
  n-local  1156.15516  1159.55344  1160.60692    -1.73187    -8.22628    11.45365
  augment  -202.05137  -203.27322  -205.75377     0.11052    -0.38676    -0.32721
  Kinetic   925.96639   927.74786   980.82993    -4.31895    11.77741    -0.41670
  Fock        0.00000     0.00000     0.00000     0.00000     0.00000     0.00000
  -------------------------------------------------------------------------------------
  Total      10.13564     2.92159    32.47453    -8.49109    -6.55764    13.50736
  in kB      16.20151     4.67007    51.90951   -13.57274   -10.48218    21.59110
  external pressure =       24.26 kB  Pullay stress =        0.00 kB


 VOLUME and BASIS-vectors are now :
 -----------------------------------------------------------------------------
  energy-cutoff  :      300.00
  volume of cell :     1002.32
      direct lattice vectors                 reciprocal lattice vectors
     3.540400000  0.000000000  0.000000000     0.282453960  0.048570342  0.000000000
    -1.770200000 10.294348000  0.000000000     0.000000000  0.097140683  0.000000000
     0.000000000  0.000000000 27.501429000     0.000000000  0.000000000  0.036361747

  length of vectors
     3.540400000 10.445439617 27.501429000     0.286599577  0.097140683  0.036361747


 FORCES acting on ions
    electron-ion (+dipol)            ewald-force                    non-local-force                 convergence-correction
 -----------------------------------------------------------------------------------------------
   0.286E-01 0.448E+01 0.289E+02   0.716E-02 -.434E+01 -.243E+02   -.118E-01 -.189E+00 -.463E+01   0.315E-07 0.114E-05 -.110E-04
   0.490E+00 -.143E+02 -.566E+03   -.372E+00 0.147E+02 0.569E+03   -.136E+00 -.121E+00 -.366E+01   0.362E-06 0.727E-05 0.366E-04
   0.154E-01 0.646E+02 0.510E+02   -.940E-02 -.661E+02 -.468E+02   -.536E-02 0.152E+01 -.414E+01   -.110E-06 -.922E-06 -.209E-05
   0.247E+01 0.483E+02 -.556E+03   -.148E+01 -.495E+02 0.560E+03   -.191E+01 0.174E+01 -.280E+01   0.199E-05 0.734E-05 0.160E-04
   -.373E-03 -.570E+02 0.526E+03   0.795E-04 0.586E+02 -.530E+03   0.687E-04 -.154E+01 0.428E+01   0.144E-06 -.114E-04 -.131E-05
   -.670E+00 -.538E+02 -.770E+02   -.566E+00 0.553E+02 0.736E+02   0.302E+00 -.190E+01 0.444E+01   0.363E-06 -.482E-05 -.115E-04
   0.316E-02 0.539E+02 0.526E+03   0.336E-04 -.558E+02 -.531E+03   0.455E-04 0.191E+01 0.416E+01   -.642E-08 0.667E-05 0.495E-05
   -.177E+02 0.809E+02 -.387E+02   0.174E+02 -.810E+02 0.352E+02   0.165E+01 -.739E+00 0.149E+01   -.311E-05 -.387E-05 -.622E-05
   -.823E-03 0.158E+01 0.572E+03   -.870E-04 -.179E+01 -.577E+03   0.196E-02 0.206E+00 0.477E+01   -.148E-06 0.636E-05 -.782E-05
   0.170E+00 -.313E+02 -.233E+02   -.119E+00 0.314E+02 0.193E+02   0.108E+00 -.294E+00 0.376E+01   0.304E-06 0.986E-05 -.124E-04
   -.636E-02 -.637E+02 0.566E+02   0.119E-02 0.656E+02 -.525E+02   0.421E-02 -.192E+01 -.404E+01   0.354E-07 -.360E-06 -.362E-05
   0.235E+00 -.361E+02 -.507E+03   0.518E+00 0.380E+02 0.511E+03   0.785E-01 -.158E+01 -.422E+01   0.669E-06 -.121E-04 0.158E-04
   -.495E-02 0.315E+02 0.209E+03   0.531E-03 -.336E+02 -.210E+03   0.779E-02 0.213E+01 0.348E+00   0.442E-07 0.152E-05 0.823E-05
   -.218E+02 0.320E+02 -.337E+03   0.185E+02 -.313E+02 0.334E+03   0.152E+02 -.875E+01 0.281E+02   -.454E-06 -.233E-05 -.152E-05
   0.456E-02 -.131E+02 0.138E+03   0.529E-04 0.133E+02 -.140E+03   -.542E-02 -.265E+00 0.254E+01   -.201E-07 0.821E-06 -.178E-05
   0.271E+01 -.133E+02 -.299E+03   -.278E+01 0.137E+02 0.300E+03   0.324E+00 -.159E-01 -.219E+01   -.751E-07 -.899E-05 0.139E-04
   -.230E-02 -.539E+01 0.345E+03   0.717E-04 0.586E+01 -.343E+03   0.632E-03 -.469E+00 -.251E+01   0.474E-07 -.204E-05 -.431E-05
   0.152E+01 -.374E+02 -.141E+03   -.869E+00 0.389E+02 0.141E+03   0.201E+00 -.132E+01 0.147E+01   -.398E-06 0.961E-05 -.722E-05
   0.296E-02 0.951E+01 0.335E+03   -.322E-04 -.976E+01 -.333E+03   -.227E-02 0.231E+00 -.253E+01   0.894E-08 0.626E-05 0.468E-06
   0.272E+02 -.159E+02 -.913E+02   -.246E+02 0.153E+02 0.963E+02   -.146E+02 0.939E+01 -.295E+02   0.128E-05 -.459E-05 -.423E-05
   -.387E-01 0.101E+02 0.128E+03   -.161E-02 -.104E+02 -.130E+03   0.361E-01 0.361E+00 0.251E+01   0.676E-08 -.342E-06 -.186E-06
   -.202E+01 -.150E+02 -.335E+03   0.113E+01 0.144E+02 0.334E+03   0.124E+00 0.676E+00 -.766E-01   0.836E-07 0.100E-04 0.211E-04
   -.195E-03 -.309E+02 0.254E+03   0.559E-05 0.330E+02 -.253E+03   0.213E-02 -.213E+01 -.369E+00   -.171E-07 -.490E-05 0.498E-05
   0.310E+01 0.571E+02 -.197E+03   -.675E+01 -.545E+02 0.196E+03   0.281E+01 -.364E+01 0.739E+00   0.113E-05 0.142E-05 -.541E-05
 -----------------------------------------------------------------------------------------------
   -.421E+01 0.672E+01 0.203E+01   -.977E-14 0.355E-13 0.853E-13   0.421E+01 -.672E+01 -.203E+01   0.218E-05 0.115E-04 0.415E-04
 
 
 POSITION                                       TOTAL-FORCE (eV/Angst)
 -----------------------------------------------------------------------------------
      0.00000      2.34757      6.41229         0.023773     -0.055862      0.005276
      2.47828      4.40644     14.16300        -0.017314      0.324581     -0.103784
     -0.00000      9.43147      5.75866         0.000441     -0.012019      0.083820
      0.70808      1.19599     13.50937        -0.924205      0.517578      1.210497
     -0.00000      6.40009      2.31424        -0.000429     -0.004864      0.006498
     -0.00000      6.40009     10.06495        -0.935010     -0.406228      1.027120
      1.77020     10.27849      2.37372         0.003037     -0.001088     -0.001146
      1.77020     10.27849     10.12443         1.310459     -0.844231     -2.002248
      1.77020      3.18974      1.66157         0.000850      0.000023      0.017673
      1.77020      3.18974      9.41228         0.158886     -0.133066     -0.232716
      1.77020      5.55354      5.69975        -0.001163      0.007718      0.092498
      0.70808      7.61241     13.45047         0.830826      0.231312      0.404135
      1.77020      9.05319      4.34076         0.003166     -0.000514      0.006716
      2.47828      0.81771     12.09147        11.950628     -8.089950     24.980547
      0.00000      4.22380      5.10944        -0.001015      0.013143      0.067108
     -1.06212      6.28267     12.86016         0.255986      0.380424     -1.011268
     -0.00000      4.15582      2.74166        -0.001803      0.001251     -0.028064
     -0.00000      4.15582     10.49237         0.852871      0.239817      0.975962
      1.77020      1.31366      2.96438         0.000459     -0.016339     -0.015267
      1.77020      1.31366     10.71510       -11.908589      8.823700    -24.518121
      1.77020      1.38163      5.33187        -0.004475     -0.017943      0.007264
      0.70808      3.44049     13.08259        -0.757573      0.021842     -0.936815
      1.77020      6.77850      3.73234         0.001733      0.009194     -0.001420
      0.70808      8.83737     11.48306        -0.841537     -0.988477     -0.034267
 -----------------------------------------------------------------------------------
    total drift:                                0.004901      0.000712      0.002213


--------------------------------------------------------------------------------------------------------



  FREE ENERGIE OF THE ION-ELECTRON SYSTEM (eV)
  ---------------------------------------------------
  free  energy   TOTEN  =      -119.50071567 eV

  energy  without entropy=     -119.47590097  energy(sigma->0) =     -119.48830832
 


--------------------------------------------------------------------------------------------------------


    POTLOK:  cpu time   14.43: real time   14.44


--------------------------------------------------------------------------------------------------------


     LOOP+:  cpu time 2244.40: real time 2246.15
    4ORBIT:  cpu time    0.00: real time    0.00

 total amount of memory used by VASP on root node   146493. kBytes
========================================================================

   base      :      30000. kBytes
   nonlr-proj:       3452. kBytes
   fftplans  :       9347. kBytes
   grid      :      14649. kBytes
   one-center:         36. kBytes
   wavefun   :      89009. kBytes
 
  
  
 General timing and accounting informations for this job:
 ========================================================
  
                  Total CPU time used (sec):     2259.663
                            User time (sec):     2232.140
                          System time (sec):       27.523
                         Elapsed time (sec):     2262.527
  
                   Maximum memory used (kb):      335040.
                   Average memory used (kb):           0.
  
                          Minor page faults:      7734868
                          Major page faults:            9
                 Voluntary context switches:         1372
