<?xml version="1.0" encoding="ISO-8859-1"?>
<modeling>
 <generator>
  <i name="program" type="string">vasp </i>
  <i name="version" type="string">5.3.5  </i>
  <i name="subversion" type="string">31Mar14 (build Oct 29 2014 16:16:03) complex                          parallel </i>
  <i name="platform" type="string">Linux-UFHPC </i>
  <i name="date" type="string">2016 02 09 </i>
  <i name="time" type="string">18:53:32 </i>
 </generator>
 <incar>
  <i type="string" name="PREC">accurate</i>
  <i type="int" name="IBRION">     2</i>
  <i name="EDIFF">      0.00000100</i>
  <i type="int" name="NSW">     0</i>
  <i type="int" name="ISIF">     3</i>
  <i name="ENCUT">    300.00000000</i>
  <i type="string" name="LREAL"> Auto</i>
  <i type="int" name="ISMEAR">     0</i>
  <i name="SIGMA">      0.10000000</i>
  <i type="logical" name="LWAVE"> F  </i>
  <i type="logical" name="LCHARG"> F  </i>
  <i type="logical" name="LAECHG"> F  </i>
  <i type="string" name="GGA"> Bo</i>
  <i name="PARAM1">      0.18333333</i>
  <i name="PARAM2">      0.22000000</i>
  <i type="logical" name="LUSE_VDW"> T  </i>
  <i name="AGGAC">      0.00000000</i>
 </incar>
 <kpoints>
  <generation param="Gamma">
   <v type="int" name="divisions">      13        4        2 </v>
   <v name="usershift">      0.00000000       0.00000000       0.00000000 </v>
   <v name="genvec1">      0.07692308      -0.00000000       0.00000000 </v>
   <v name="genvec2">      0.00000000       0.25000000       0.00000000 </v>
   <v name="genvec3">      0.00000000       0.00000000       0.50000000 </v>
   <v name="shift">      0.00000000       0.00000000       0.00000000 </v>
  </generation>
  <varray name="kpointlist" >
   <v>       0.00000000       0.00000000       0.00000000 </v>
   <v>       0.07692308      -0.00000000       0.00000000 </v>
   <v>       0.15384615      -0.00000000       0.00000000 </v>
   <v>       0.23076923      -0.00000000       0.00000000 </v>
   <v>       0.30769231      -0.00000000       0.00000000 </v>
   <v>       0.38461538      -0.00000000       0.00000000 </v>
   <v>       0.46153846      -0.00000000       0.00000000 </v>
   <v>       0.00000000       0.25000000       0.00000000 </v>
   <v>       0.07692308       0.25000000       0.00000000 </v>
   <v>       0.15384615       0.25000000       0.00000000 </v>
   <v>       0.23076923       0.25000000       0.00000000 </v>
   <v>       0.30769231       0.25000000       0.00000000 </v>
   <v>       0.38461538       0.25000000       0.00000000 </v>
   <v>       0.46153846       0.25000000       0.00000000 </v>
   <v>      -0.46153846       0.25000000       0.00000000 </v>
   <v>      -0.38461538       0.25000000       0.00000000 </v>
   <v>      -0.30769231       0.25000000       0.00000000 </v>
   <v>      -0.23076923       0.25000000       0.00000000 </v>
   <v>      -0.15384615       0.25000000       0.00000000 </v>
   <v>      -0.07692308       0.25000000       0.00000000 </v>
   <v>       0.00000000       0.50000000       0.00000000 </v>
   <v>       0.07692308       0.50000000       0.00000000 </v>
   <v>       0.15384615       0.50000000       0.00000000 </v>
   <v>       0.23076923       0.50000000       0.00000000 </v>
   <v>       0.30769231       0.50000000       0.00000000 </v>
   <v>       0.38461538       0.50000000       0.00000000 </v>
   <v>       0.46153846       0.50000000       0.00000000 </v>
   <v>       0.00000000       0.00000000       0.50000000 </v>
   <v>       0.07692308      -0.00000000       0.50000000 </v>
   <v>       0.15384615      -0.00000000       0.50000000 </v>
   <v>       0.23076923      -0.00000000       0.50000000 </v>
   <v>       0.30769231      -0.00000000       0.50000000 </v>
   <v>       0.38461538      -0.00000000       0.50000000 </v>
   <v>       0.46153846      -0.00000000       0.50000000 </v>
   <v>       0.00000000       0.25000000       0.50000000 </v>
   <v>       0.07692308       0.25000000       0.50000000 </v>
   <v>       0.15384615       0.25000000       0.50000000 </v>
   <v>       0.23076923       0.25000000       0.50000000 </v>
   <v>       0.30769231       0.25000000       0.50000000 </v>
   <v>       0.38461538       0.25000000       0.50000000 </v>
   <v>       0.46153846       0.25000000       0.50000000 </v>
   <v>      -0.46153846       0.25000000       0.50000000 </v>
   <v>      -0.38461538       0.25000000       0.50000000 </v>
   <v>      -0.30769231       0.25000000       0.50000000 </v>
   <v>      -0.23076923       0.25000000       0.50000000 </v>
   <v>      -0.15384615       0.25000000       0.50000000 </v>
   <v>      -0.07692308       0.25000000       0.50000000 </v>
   <v>       0.00000000       0.50000000       0.50000000 </v>
   <v>       0.07692308       0.50000000       0.50000000 </v>
   <v>       0.15384615       0.50000000       0.50000000 </v>
   <v>       0.23076923       0.50000000       0.50000000 </v>
   <v>       0.30769231       0.50000000       0.50000000 </v>
   <v>       0.38461538       0.50000000       0.50000000 </v>
   <v>       0.46153846       0.50000000       0.50000000 </v>
  </varray>
  <varray name="weights" >
   <v>       0.00961538 </v>
   <v>       0.01923077 </v>
   <v>       0.01923077 </v>
   <v>       0.01923077 </v>
   <v>       0.01923077 </v>
   <v>       0.01923077 </v>
   <v>       0.01923077 </v>
   <v>       0.01923077 </v>
   <v>       0.01923077 </v>
   <v>       0.01923077 </v>
   <v>       0.01923077 </v>
   <v>       0.01923077 </v>
   <v>       0.01923077 </v>
   <v>       0.01923077 </v>
   <v>       0.01923077 </v>
   <v>       0.01923077 </v>
   <v>       0.01923077 </v>
   <v>       0.01923077 </v>
   <v>       0.01923077 </v>
   <v>       0.01923077 </v>
   <v>       0.00961538 </v>
   <v>       0.01923077 </v>
   <v>       0.01923077 </v>
   <v>       0.01923077 </v>
   <v>       0.01923077 </v>
   <v>       0.01923077 </v>
   <v>       0.01923077 </v>
   <v>       0.00961538 </v>
   <v>       0.01923077 </v>
   <v>       0.01923077 </v>
   <v>       0.01923077 </v>
   <v>       0.01923077 </v>
   <v>       0.01923077 </v>
   <v>       0.01923077 </v>
   <v>       0.01923077 </v>
   <v>       0.01923077 </v>
   <v>       0.01923077 </v>
   <v>       0.01923077 </v>
   <v>       0.01923077 </v>
   <v>       0.01923077 </v>
   <v>       0.01923077 </v>
   <v>       0.01923077 </v>
   <v>       0.01923077 </v>
   <v>       0.01923077 </v>
   <v>       0.01923077 </v>
   <v>       0.01923077 </v>
   <v>       0.01923077 </v>
   <v>       0.00961538 </v>
   <v>       0.01923077 </v>
   <v>       0.01923077 </v>
   <v>       0.01923077 </v>
   <v>       0.01923077 </v>
   <v>       0.01923077 </v>
   <v>       0.01923077 </v>
  </varray>
 </kpoints>
 <parameters>
  <separator name="general" >
   <i type="string" name="SYSTEM">unknown system</i>
   <i type="logical" name="LCOMPAT"> F  </i>
  </separator>
  <separator name="electronic" >
   <i type="string" name="PREC">accura</i>
   <i name="ENMAX">    300.00000000</i>
   <i name="ENAUG">    342.92400000</i>
   <i name="EDIFF">      0.00000100</i>
   <i type="int" name="IALGO">    38</i>
   <i type="int" name="IWAVPR">    10</i>
   <i type="int" name="NBANDS">    68</i>
   <i name="NELECT">    108.00000000</i>
   <i type="int" name="TURBO">     0</i>
   <i type="int" name="IRESTART">     0</i>
   <i type="int" name="NREBOOT">     0</i>
   <i type="int" name="NMIN">     0</i>
   <i name="EREF">      0.00000000</i>
   <separator name="electronic smearing" >
    <i type="int" name="ISMEAR">     0</i>
    <i name="SIGMA">      0.10000000</i>
    <i name="KSPACING">      0.50000000</i>
    <i type="logical" name="KGAMMA"> T  </i>
   </separator>
   <separator name="electronic projectors" >
    <i type="logical" name="LREAL"> T  </i>
    <v name="ROPT">     -0.00025000     -0.00025000</v>
    <i type="int" name="LMAXPAW">  -100</i>
    <i type="int" name="LMAXMIX">     2</i>
    <i type="logical" name="NLSPLINE"> F  </i>
   </separator>
   <separator name="electronic startup" >
    <i type="int" name="ISTART">     0</i>
    <i type="int" name="ICHARG">     2</i>
    <i type="int" name="INIWAV">     1</i>
   </separator>
   <separator name="electronic spin" >
    <i type="int" name="ISPIN">     1</i>
    <i type="logical" name="LNONCOLLINEAR"> F  </i>
    <v name="MAGMOM">      1.00000000      1.00000000      1.00000000      1.00000000      1.00000000      1.00000000      1.00000000      1.00000000      1.00000000      1.00000000      1.00000000      1.00000000      1.00000000      1.00000000      1.00000000      1.00000000      1.00000000      1.00000000      1.00000000      1.00000000
      1.00000000      1.00000000      1.00000000      1.00000000</v>
    <i name="NUPDOWN">     -1.00000000</i>
    <i type="logical" name="LSORBIT"> F  </i>
    <v name="SAXIS">      0.00000000      0.00000000      1.00000000</v>
    <i type="logical" name="LSPIRAL"> F  </i>
    <v name="QSPIRAL">      0.00000000      0.00000000      0.00000000</v>
    <i type="logical" name="LZEROZ"> F  </i>
   </separator>
   <separator name="electronic exchange-correlation" >
    <i type="logical" name="LASPH"> F  </i>
    <i type="logical" name="LMETAGGA"> F  </i>
   </separator>
   <separator name="electronic convergence" >
    <i type="int" name="NELM">    60</i>
    <i type="int" name="NELMDL">    -5</i>
    <i type="int" name="NELMIN">     2</i>
    <i name="ENINI">    300.00000000</i>
    <separator name="electronic convergence detail" >
     <i type="logical" name="LDIAG"> T  </i>
     <i type="logical" name="LSUBROT"> F  </i>
     <i name="WEIMIN">      0.00000000</i>
     <i name="EBREAK">      0.00000000</i>
     <i name="DEPER">      0.30000000</i>
     <i type="int" name="NRMM">     4</i>
     <i name="TIME">      0.40000000</i>
    </separator>
   </separator>
   <separator name="electronic mixer" >
    <i name="AMIX">      0.40000000</i>
    <i name="BMIX">      1.00000000</i>
    <i name="AMIN">      0.10000000</i>
    <i name="AMIX_MAG">      1.60000000</i>
    <i name="BMIX_MAG">      1.00000000</i>
    <separator name="electronic mixer details" >
     <i type="int" name="IMIX">     4</i>
     <i type="int" name="MAXMIX">   -45</i>
     <i name="WC">    100.00000000</i>
     <i type="int" name="INIMIX">     1</i>
     <i type="int" name="MIXPRE">     1</i>
     <i type="int" name="MREMOVE">     5</i>
    </separator>
   </separator>
   <separator name="electronic dipolcorrection" >
    <i type="logical" name="LDIPOL"> F  </i>
    <i type="logical" name="LMONO"> F  </i>
    <i type="int" name="IDIPOL">     0</i>
    <i name="EPSILON">      1.00000000</i>
    <v name="DIPOL">   -100.00000000   -100.00000000   -100.00000000</v>
    <i name="EFIELD">      0.00000000</i>
   </separator>
  </separator>
  <separator name="grids" >
   <i type="int" name="NGX">    20</i>
   <i type="int" name="NGY">    60</i>
   <i type="int" name="NGZ">   160</i>
   <i type="int" name="NGXF">    40</i>
   <i type="int" name="NGYF">   120</i>
   <i type="int" name="NGZF">   320</i>
   <i type="logical" name="ADDGRID"> F  </i>
  </separator>
  <separator name="ionic" >
   <i type="int" name="NSW">     0</i>
   <i type="int" name="IBRION">    -1</i>
   <i type="int" name="ISIF">     3</i>
   <i name="PSTRESS">      0.00000000</i>
   <i name="EDIFFG">      0.00001000</i>
   <i type="int" name="NFREE">     1</i>
   <i name="POTIM">      0.50000000</i>
   <i name="SMASS">     -3.00000000</i>
   <i name="SCALEE">      1.00000000</i>
  </separator>
  <separator name="ionic md" >
   <i name="TEBEG">      0.00010000</i>
   <i name="TEEND">      0.00010000</i>
   <i type="int" name="NBLOCK">     1</i>
   <i type="int" name="KBLOCK">     1</i>
   <i type="int" name="NPACO">   256</i>
   <i name="APACO">     16.00000000</i>
  </separator>
  <separator name="symmetry" >
   <i type="int" name="ISYM">     2</i>
   <i name="SYMPREC">      0.00001000</i>
  </separator>
  <separator name="dos" >
   <i type="logical" name="LORBIT"> F  </i>
   <v name="RWIGS">     -1.00000000     -1.00000000</v>
   <i type="int" name="NEDOS">   301</i>
   <i name="EMIN">     10.00000000</i>
   <i name="EMAX">    -10.00000000</i>
   <i name="EFERMI">      0.00000000</i>
  </separator>
  <separator name="writing" >
   <i type="int" name="NWRITE">     2</i>
   <i type="logical" name="LWAVE"> F  </i>
   <i type="logical" name="LCHARG"> F  </i>
   <i type="logical" name="LPARD"> F  </i>
   <i type="logical" name="LVTOT"> F  </i>
   <i type="logical" name="LVHAR"> F  </i>
   <i type="logical" name="LELF"> F  </i>
   <i type="logical" name="LOPTICS"> F  </i>
   <v name="STM">      0.00000000      0.00000000      0.00000000      0.00000000      0.00000000      0.00000000      0.00000000</v>
  </separator>
  <separator name="performance" >
   <i type="int" name="NPAR">     4</i>
   <i type="int" name="NSIM">     4</i>
   <i type="int" name="NBLK">    -1</i>
   <i type="logical" name="LPLANE"> T  </i>
   <i type="logical" name="LSCALAPACK"> T  </i>
   <i type="logical" name="LSCAAWARE"> F  </i>
   <i type="logical" name="LSCALU"> F  </i>
   <i type="logical" name="LASYNC"> F  </i>
   <i type="logical" name="LORBITALREAL"> F  </i>
  </separator>
  <separator name="miscellaneous" >
   <i type="int" name="IDIOT">     3</i>
   <i type="logical" name="LMUSIC"> F  </i>
   <v name="POMASS">     30.97400000     28.08500000</v>
   <v name="DARWINR">      0.00000000      0.00000000</v>
   <v name="DARWINV">      1.00000000      1.00000000</v>
   <i type="logical" name="LCORR"> T  </i>
  </separator>
  <i type="logical" name="GGA_COMPAT"> T  </i>
  <i type="logical" name="LBERRY"> F  </i>
  <i type="int" name="ICORELEVEL">     0</i>
  <i type="logical" name="LDAU"> F  </i>
  <i type="int" name="I_CONSTRAINED_M">     0</i>
  <separator name="electronic exchange-correlation" >
   <i type="string" name="GGA">BO</i>
   <i type="int" name="VOSKOWN">     0</i>
   <i type="logical" name="LHFCALC"> F  </i>
   <i type="string" name="PRECFOCK"></i>
   <i type="logical" name="LSYMGRAD"> F  </i>
   <i type="logical" name="LHFONE"> F  </i>
   <i type="logical" name="LRHFCALC"> F  </i>
   <i type="logical" name="LTHOMAS"> F  </i>
   <i type="logical" name="LMODELHF"> F  </i>
   <i name="ENCUT4O">     -1.00000000</i>
   <i type="int" name="EXXOEP">     0</i>
   <i type="int" name="FOURORBIT">     0</i>
   <i name="AEXX">      0.00000000</i>
   <i name="HFALPHA">      0.00000000</i>
   <i name="MCALPHA">      0.00000000</i>
   <i name="ALDAX">      1.00000000</i>
   <i name="AGGAX">      1.00000000</i>
   <i name="ALDAC">      1.00000000</i>
   <i name="AGGAC">      0.00000000</i>
   <i type="int" name="NKREDX">     1</i>
   <i type="int" name="NKREDY">     1</i>
   <i type="int" name="NKREDZ">     1</i>
   <i type="logical" name="SHIFTRED"> F  </i>
   <i type="logical" name="ODDONLY"> F  </i>
   <i type="logical" name="EVENONLY"> F  </i>
   <i type="int" name="LMAXFOCK">     0</i>
   <i type="int" name="NMAXFOCKAE">     0</i>
   <i type="logical" name="LFOCKAEDFT"> F  </i>
   <i name="HFSCREEN">      0.00000000</i>
   <i name="HFSCREENC">      0.00000000</i>
   <i type="int" name="NBANDSGWLOW">     0</i>
  </separator>
  <separator name="vdW DFT" >
   <i type="logical" name="LUSE_VDW"> T  </i>
   <i name="Zab_VDW">     -0.84910000</i>
   <i name="PARAM1">      0.18333333</i>
   <i name="PARAM2">      0.22000000</i>
   <i name="PARAM3">      0.00000000</i>
  </separator>
  <separator name="model GW" >
   <i type="int" name="MODEL_GW">     0</i>
   <i name="MODEL_EPS0">     25.05800243</i>
   <i name="MODEL_ALPHA">      1.00000000</i>
  </separator>
  <separator name="linear response parameters" >
   <i type="logical" name="LEPSILON"> F  </i>
   <i type="logical" name="LRPA"> F  </i>
   <i type="logical" name="LNABLA"> F  </i>
   <i type="logical" name="LVEL"> F  </i>
   <i type="int" name="KINTER">     0</i>
   <i name="CSHIFT">      0.10000000</i>
   <i name="OMEGAMAX">     -1.00000000</i>
   <i name="DEG_THRESHOLD">      0.00200000</i>
  </separator>
  <separator name="orbital magnetization" >
   <i type="logical" name="NUCIND"> F  </i>
   <v name="MAGPOS">      0.00000000      0.00000000      0.00000000</v>
   <i type="logical" name="LNICSALL"> T  </i>
   <i type="logical" name="ORBITALMAG"> F  </i>
   <i type="logical" name="LMAGBLOCH"> F  </i>
   <i type="logical" name="LCHIMAG"> F  </i>
   <i type="logical" name="LGAUGE"> T  </i>
   <i type="int" name="MAGATOM">     0</i>
   <v name="MAGDIPOL">      0.00000000      0.00000000      0.00000000</v>
   <v name="AVECCONST">      0.00000000      0.00000000      0.00000000</v>
  </separator>
  <separator name="response functions" >
   <i type="logical" name="LADDER"> F  </i>
   <i type="logical" name="LFXC"> F  </i>
   <i type="logical" name="LHARTREE"> T  </i>
   <i type="int" name="IBSE">     0</i>
   <i type="logical" name="LTCTE"> F  </i>
   <i type="logical" name="LTETE"> F  </i>
   <i type="logical" name="LTRIPLET"> F  </i>
   <i type="logical" name="LFXCEPS"> F  </i>
   <i type="logical" name="LFXHEG"> F  </i>
   <i type="logical" name="L2ORDER"> F  </i>
   <i type="logical" name="LUSEW"> F  </i>
   <i name="ENCUTGW">     -2.00000000</i>
   <i name="ENCUTGWSOFT">     -2.00000000</i>
   <i name="ENCUTLF">     -1.00000000</i>
   <i type="int" name="LMAXMP2">    -1</i>
   <i name="SCISSOR">      0.00000000</i>
   <i type="int" name="NOMEGA">     0</i>
   <i type="int" name="NOMEGAR">     0</i>
   <i type="int" name="NBANDSGW">    -1</i>
   <i type="int" name="NBANDSO">    -1</i>
   <i type="int" name="NBANDSV">    -1</i>
   <i type="int" name="NELM">     1</i>
   <i type="int" name="DIM">     3</i>
   <i type="int" name="ANTIRES">     0</i>
   <i name="OMEGAMAX">    -30.00000000</i>
   <i name="OMEGAMIN">    -30.00000000</i>
   <i name="OMEGATL">   -200.00000000</i>
   <i type="int" name="OMEGAGRID">     0</i>
   <i name="CSHIFT">     -0.10000000</i>
   <i type="logical" name="SELFENERGY"> F  </i>
   <i type="logical" name="LSPECTRAL"> F  </i>
   <i type="logical" name="ODDONLYGW"> F  </i>
   <i type="logical" name="EVENONLYGW"> F  </i>
   <i type="int" name="NKREDLFX">     1</i>
   <i type="int" name="NKREDLFY">     1</i>
   <i type="int" name="NKREDLFZ">     1</i>
   <i type="int" name="MAXMEM">  1800</i>
   <i type="int" name="TELESCOPE">     0</i>
   <i type="int" name="TAUPAR">     1</i>
  </separator>
  <separator name="External order field" >
   <i name="OFIELD_KAPPA">      0.00000000</i>
   <v name="OFIELD_K">      0.00000000      0.00000000      0.00000000</v>
   <i name="OFIELD_Q6_NEAR">      0.00000000</i>
   <i name="OFIELD_Q6_FAR">      0.00000000</i>
   <i name="OFIELD_A">      0.00000000</i>
  </separator>
 </parameters>
 <atominfo>
  <atoms>      24 </atoms>
  <types>       2 </types>
  <array name="atoms" >
   <dimension dim="1">ion</dimension>
   <field type="string">element</field>
   <field type="int">atomtype</field>
   <set>
    <rc><c>P </c><c>   1</c></rc>
    <rc><c>P </c><c>   1</c></rc>
    <rc><c>P </c><c>   1</c></rc>
    <rc><c>P </c><c>   1</c></rc>
    <rc><c>P </c><c>   1</c></rc>
    <rc><c>P </c><c>   1</c></rc>
    <rc><c>P </c><c>   1</c></rc>
    <rc><c>P </c><c>   1</c></rc>
    <rc><c>P </c><c>   1</c></rc>
    <rc><c>P </c><c>   1</c></rc>
    <rc><c>P </c><c>   1</c></rc>
    <rc><c>P </c><c>   1</c></rc>
    <rc><c>Si</c><c>   2</c></rc>
    <rc><c>Si</c><c>   2</c></rc>
    <rc><c>Si</c><c>   2</c></rc>
    <rc><c>Si</c><c>   2</c></rc>
    <rc><c>Si</c><c>   2</c></rc>
    <rc><c>Si</c><c>   2</c></rc>
    <rc><c>Si</c><c>   2</c></rc>
    <rc><c>Si</c><c>   2</c></rc>
    <rc><c>Si</c><c>   2</c></rc>
    <rc><c>Si</c><c>   2</c></rc>
    <rc><c>Si</c><c>   2</c></rc>
    <rc><c>Si</c><c>   2</c></rc>
   </set>
  </array>
  <array name="atomtypes" >
   <dimension dim="1">type</dimension>
   <field type="int">atomspertype</field>
   <field type="string">element</field>
   <field>mass</field>
   <field>valence</field>
   <field type="string">pseudopotential</field>
   <set>
    <rc><c>  12</c><c>P </c><c>     30.97400000</c><c>      5.00000000</c><c>  PAW_PBE P 17Jan2003                   </c></rc>
    <rc><c>  12</c><c>Si</c><c>     28.08500000</c><c>      4.00000000</c><c> PAW_PBE Si 05Jan2001                   </c></rc>
   </set>
  </array>
 </atominfo>
 <structure name="initialpos" >
  <crystal>
   <varray name="basis" >
    <v>       3.54040000       0.00000000       0.00000000 </v>
    <v>      -1.77020000      10.29434800       0.00000000 </v>
    <v>       0.00000000       0.00000000      27.50142900 </v>
   </varray>
   <i name="volume">   1002.32009712 </i>
   <varray name="rec_basis" >
    <v>       0.28245396       0.04857034       0.00000000 </v>
    <v>       0.00000000       0.09714068       0.00000000 </v>
    <v>       0.00000000       0.00000000       0.03636175 </v>
   </varray>
  </crystal>
  <varray name="positions" >
   <v>       0.11402300       0.22804500       0.23316207 </v>
   <v>       0.01402300       0.12804500       0.51499159 </v>
   <v>       0.45808900       0.91617900       0.20939482 </v>
   <v>       0.35808900       0.81617900       0.49122434 </v>
   <v>       0.31085400       0.62170900       0.08414979 </v>
   <v>       0.31085400       0.62170900       0.36597930 </v>
   <v>       0.99923000       0.99846000       0.08631254 </v>
   <v>       0.99923000       0.99846000       0.36814206 </v>
   <v>       0.65492700       0.30985400       0.06041748 </v>
   <v>       0.65492700       0.30985400       0.34224700 </v>
   <v>       0.76973800       0.53947500       0.20725292 </v>
   <v>       0.66973800       0.43947500       0.48908244 </v>
   <v>       0.93971600       0.87943300       0.15783749 </v>
   <v>       0.83971600       0.77943300       0.43966701 </v>
   <v>       0.20515200       0.41030300       0.18578822 </v>
   <v>       0.10515200       0.31030300       0.46761774 </v>
   <v>       0.20184900       0.40369900       0.09969156 </v>
   <v>       0.20184900       0.40369900       0.38152107 </v>
   <v>       0.56380500       0.12761000       0.10779021 </v>
   <v>       0.56380500       0.12761000       0.38961973 </v>
   <v>       0.56710600       0.13421200       0.19387616 </v>
   <v>       0.46710600       0.03421200       0.47570568 </v>
   <v>       0.82923400       0.65846800       0.13571444 </v>
   <v>       0.72923400       0.55846800       0.41754396 </v>
  </varray>
 </structure>
 <calculation>
  <scstep>
   <time name="dav">   52.57   52.61</time>
   <time name="total">   66.51   66.57</time>
   <energy>
    <i name="alphaZ">     36.80884744 </i>
    <i name="ewald">  11898.72096151 </i>
    <i name="hartreedc"> -14958.88437791 </i>
    <i name="XCdc">    -88.32040576 </i>
    <i name="pawpsdc">   1056.43050070 </i>
    <i name="pawaedc">   -732.41190547 </i>
    <i name="eentropy">     -0.04205818 </i>
    <i name="bandstr">    -83.50800640 </i>
    <i name="atom">   3354.04126044 </i>
    <i name="e_fr_energy">    482.83481638 </i>
    <i name="e_wo_entrp">    482.87687455 </i>
    <i name="e_0_energy">    482.85584546 </i>
   </energy>
  </scstep>
  <scstep>
   <time name="dav">   66.02   66.06</time>
   <time name="total">   66.03   66.07</time>
   <energy>
    <i name="e_fr_energy">    -72.18781816 </i>
    <i name="e_wo_entrp">    -72.17287469 </i>
    <i name="e_0_energy">    -72.18034643 </i>
   </energy>
  </scstep>
  <scstep>
   <time name="dav">   60.65   60.70</time>
   <time name="total">   60.67   60.72</time>
   <energy>
    <i name="e_fr_energy">   -127.10991699 </i>
    <i name="e_wo_entrp">   -127.10534039 </i>
    <i name="e_0_energy">   -127.10762869 </i>
   </energy>
  </scstep>
  <scstep>
   <time name="dav">   72.55   72.60</time>
   <time name="total">   72.56   72.62</time>
   <energy>
    <i name="e_fr_energy">   -129.55068395 </i>
    <i name="e_wo_entrp">   -129.54665179 </i>
    <i name="e_0_energy">   -129.54866787 </i>
   </energy>
  </scstep>
  <scstep>
   <time name="dav">   67.09   67.13</time>
   <time name="total">   70.53   70.58</time>
   <energy>
    <i name="e_fr_energy">   -129.60773774 </i>
    <i name="e_wo_entrp">   -129.60371715 </i>
    <i name="e_0_energy">   -129.60572745 </i>
   </energy>
  </scstep>
  <scstep>
   <time name="dav">   62.11   62.16</time>
   <time name="total">   78.36   78.43</time>
   <energy>
    <i name="e_fr_energy">   -127.97432072 </i>
    <i name="e_wo_entrp">   -127.95449259 </i>
    <i name="e_0_energy">   -127.96440666 </i>
   </energy>
  </scstep>
  <scstep>
   <time name="dav">   61.33   61.35</time>
   <time name="total">   78.12   78.31</time>
   <energy>
    <i name="e_fr_energy">   -127.71664383 </i>
    <i name="e_wo_entrp">   -127.70220983 </i>
    <i name="e_0_energy">   -127.70942683 </i>
   </energy>
  </scstep>
  <scstep>
   <time name="dav">   62.51   62.52</time>
   <time name="total">   78.36   78.51</time>
   <energy>
    <i name="e_fr_energy">   -127.71139154 </i>
    <i name="e_wo_entrp">   -127.69098957 </i>
    <i name="e_0_energy">   -127.70119055 </i>
   </energy>
  </scstep>
  <scstep>
   <time name="dav">   60.69   60.71</time>
   <time name="total">   76.49   76.61</time>
   <energy>
    <i name="e_fr_energy">   -127.68028641 </i>
    <i name="e_wo_entrp">   -127.66134396 </i>
    <i name="e_0_energy">   -127.67081518 </i>
   </energy>
  </scstep>
  <scstep>
   <time name="dav">   62.06   62.07</time>
   <time name="total">   77.25   77.33</time>
   <energy>
    <i name="e_fr_energy">   -127.66735919 </i>
    <i name="e_wo_entrp">   -127.64876602 </i>
    <i name="e_0_energy">   -127.65806261 </i>
   </energy>
  </scstep>
  <scstep>
   <time name="dav">   61.57   61.65</time>
   <time name="total">   76.94   77.19</time>
   <energy>
    <i name="e_fr_energy">   -127.66135600 </i>
    <i name="e_wo_entrp">   -127.64245212 </i>
    <i name="e_0_energy">   -127.65190406 </i>
   </energy>
  </scstep>
  <scstep>
   <time name="dav">   61.70   61.74</time>
   <time name="total">   76.80   76.86</time>
   <energy>
    <i name="e_fr_energy">   -127.65774807 </i>
    <i name="e_wo_entrp">   -127.63893417 </i>
    <i name="e_0_energy">   -127.64834112 </i>
   </energy>
  </scstep>
  <scstep>
   <time name="dav">   65.31   65.35</time>
   <time name="total">   81.38   81.50</time>
   <energy>
    <i name="e_fr_energy">   -127.65575731 </i>
    <i name="e_wo_entrp">   -127.63695692 </i>
    <i name="e_0_energy">   -127.64635712 </i>
   </energy>
  </scstep>
  <scstep>
   <time name="dav">   60.61   60.76</time>
   <time name="total">   77.50   77.74</time>
   <energy>
    <i name="e_fr_energy">   -127.65519755 </i>
    <i name="e_wo_entrp">   -127.63643714 </i>
    <i name="e_0_energy">   -127.64581734 </i>
   </energy>
  </scstep>
  <scstep>
   <time name="dav">   57.39   57.45</time>
   <time name="total">   72.78   72.86</time>
   <energy>
    <i name="e_fr_energy">   -127.65551856 </i>
    <i name="e_wo_entrp">   -127.63674327 </i>
    <i name="e_0_energy">   -127.64613092 </i>
   </energy>
  </scstep>
  <scstep>
   <time name="dav">   59.22   59.33</time>
   <time name="total">   75.19   75.38</time>
   <energy>
    <i name="e_fr_energy">   -127.65608221 </i>
    <i name="e_wo_entrp">   -127.63731129 </i>
    <i name="e_0_energy">   -127.64669675 </i>
   </energy>
  </scstep>
  <scstep>
   <time name="dav">   55.40   55.41</time>
   <time name="total">   71.57   71.87</time>
   <energy>
    <i name="e_fr_energy">   -127.65618942 </i>
    <i name="e_wo_entrp">   -127.63742229 </i>
    <i name="e_0_energy">   -127.64680586 </i>
   </energy>
  </scstep>
  <scstep>
   <time name="dav">   48.75   48.79</time>
   <time name="total">   63.93   63.98</time>
   <energy>
    <i name="e_fr_energy">   -127.65623958 </i>
    <i name="e_wo_entrp">   -127.63747392 </i>
    <i name="e_0_energy">   -127.64685675 </i>
   </energy>
  </scstep>
  <scstep>
   <time name="dav">   51.39   51.41</time>
   <time name="total">   67.31   67.74</time>
   <energy>
    <i name="e_fr_energy">   -127.65627141 </i>
    <i name="e_wo_entrp">   -127.63750597 </i>
    <i name="e_0_energy">   -127.64688869 </i>
   </energy>
  </scstep>
  <scstep>
   <time name="dav">   50.07   50.11</time>
   <time name="total">   65.07   65.12</time>
   <energy>
    <i name="e_fr_energy">   -127.65619786 </i>
    <i name="e_wo_entrp">   -127.63743285 </i>
    <i name="e_0_energy">   -127.64681535 </i>
   </energy>
  </scstep>
  <scstep>
   <time name="dav">   46.46   46.49</time>
   <time name="total">   61.43   61.48</time>
   <energy>
    <i name="e_fr_energy">   -127.65616263 </i>
    <i name="e_wo_entrp">   -127.63739823 </i>
    <i name="e_0_energy">   -127.64678043 </i>
   </energy>
  </scstep>
  <scstep>
   <time name="dav">   47.60   47.63</time>
   <time name="total">   62.58   62.61</time>
   <energy>
    <i name="e_fr_energy">   -127.65612973 </i>
    <i name="e_wo_entrp">   -127.63736468 </i>
    <i name="e_0_energy">   -127.64674721 </i>
   </energy>
  </scstep>
  <scstep>
   <time name="dav">   48.18   48.22</time>
   <time name="total">   63.14   63.19</time>
   <energy>
    <i name="e_fr_energy">   -127.65610898 </i>
    <i name="e_wo_entrp">   -127.63734394 </i>
    <i name="e_0_energy">   -127.64672646 </i>
   </energy>
  </scstep>
  <scstep>
   <time name="dav">   49.34   49.37</time>
   <time name="total">   64.30   64.34</time>
   <energy>
    <i name="e_fr_energy">   -127.65610016 </i>
    <i name="e_wo_entrp">   -127.63733516 </i>
    <i name="e_0_energy">   -127.64671766 </i>
   </energy>
  </scstep>
  <scstep>
   <time name="dav">   47.05   47.08</time>
   <time name="total">   58.58   58.63</time>
   <energy>
    <i name="alphaZ">     36.80884744 </i>
    <i name="ewald">  11898.72096151 </i>
    <i name="hartreedc"> -15046.69932755 </i>
    <i name="XCdc">    -80.88126127 </i>
    <i name="pawpsdc">   1150.32020991 </i>
    <i name="pawaedc">   -828.87122430 </i>
    <i name="eentropy">     -0.01876499 </i>
    <i name="bandstr">   -611.07680110 </i>
    <i name="atom">   3354.04126044 </i>
    <i name="e_fr_energy">   -127.65609991 </i>
    <i name="e_wo_entrp">   -127.63733492 </i>
    <i name="e_0_energy">   -127.64671741 </i>
   </energy>
  </scstep>
  <structure>
   <crystal>
    <varray name="basis" >
     <v>       3.54040000       0.00000000       0.00000000 </v>
     <v>      -1.77020000      10.29434800       0.00000000 </v>
     <v>       0.00000000       0.00000000      27.50142900 </v>
    </varray>
    <i name="volume">   1002.32009712 </i>
    <varray name="rec_basis" >
     <v>       0.28245396       0.04857034       0.00000000 </v>
     <v>       0.00000000       0.09714068       0.00000000 </v>
     <v>       0.00000000       0.00000000       0.03636175 </v>
    </varray>
   </crystal>
   <varray name="positions" >
    <v>       0.11402300       0.22804500       0.23316207 </v>
    <v>       0.01402300       0.12804500       0.51499159 </v>
    <v>       0.45808900       0.91617900       0.20939482 </v>
    <v>       0.35808900       0.81617900       0.49122434 </v>
    <v>       0.31085400       0.62170900       0.08414979 </v>
    <v>       0.31085400       0.62170900       0.36597930 </v>
    <v>       0.99923000       0.99846000       0.08631254 </v>
    <v>       0.99923000       0.99846000       0.36814206 </v>
    <v>       0.65492700       0.30985400       0.06041748 </v>
    <v>       0.65492700       0.30985400       0.34224700 </v>
    <v>       0.76973800       0.53947500       0.20725292 </v>
    <v>       0.66973800       0.43947500       0.48908244 </v>
    <v>       0.93971600       0.87943300       0.15783749 </v>
    <v>       0.83971600       0.77943300       0.43966701 </v>
    <v>       0.20515200       0.41030300       0.18578822 </v>
    <v>       0.10515200       0.31030300       0.46761774 </v>
    <v>       0.20184900       0.40369900       0.09969156 </v>
    <v>       0.20184900       0.40369900       0.38152107 </v>
    <v>       0.56380500       0.12761000       0.10779021 </v>
    <v>       0.56380500       0.12761000       0.38961973 </v>
    <v>       0.56710600       0.13421200       0.19387616 </v>
    <v>       0.46710600       0.03421200       0.47570568 </v>
    <v>       0.82923400       0.65846800       0.13571444 </v>
    <v>       0.72923400       0.55846800       0.41754396 </v>
   </varray>
  </structure>
  <varray name="forces" >
   <v>      -0.00975444      -0.05605047      -0.00567286 </v>
   <v>       0.16069784       0.06067870       0.44434804 </v>
   <v>      -0.00092663      -0.02109055       0.08378222 </v>
   <v>       0.11274987       0.56386337      -0.29603437 </v>
   <v>      -0.00027005      -0.01170765       0.01579725 </v>
   <v>      -1.27392196      -1.11899560      -0.10417265 </v>
   <v>      -0.00141285       0.00273519      -0.01035600 </v>
   <v>      -0.28131383      -0.72688520      -0.35758077 </v>
   <v>       0.00091776       0.00421952       0.01590568 </v>
   <v>      -0.20903598      -0.01632409      -0.11396720 </v>
   <v>       0.00010259       0.00945038       0.08479993 </v>
   <v>       0.16755536       0.36441302       0.43468193 </v>
   <v>       0.00268234       0.01326933       0.00537810 </v>
   <v>       0.25085868       1.24956261       0.25411017 </v>
   <v>      -0.00252229      -0.01331378       0.05657066 </v>
   <v>       0.09293863       0.45709191      -0.77642389 </v>
   <v>      -0.00053410       0.00423685      -0.03139568 </v>
   <v>      -0.52115789      -1.67606403      -0.75277050 </v>
   <v>      -0.00416812      -0.02735726      -0.00677646 </v>
   <v>      -0.03699453      -1.49172835       0.65102759 </v>
   <v>       0.00299178      -0.02514671       0.00708535 </v>
   <v>       0.06953016       0.85559653      -0.27595242 </v>
   <v>       0.00129271       0.03567422      -0.00711712 </v>
   <v>       1.47969496       1.56387205       0.68473299 </v>
  </varray>
  <varray name="stress" >
   <v>       8.83749508      -0.14364059       7.36906287 </v>
   <v>      -0.14364065      -9.41346451      17.01963591 </v>
   <v>       7.36906278      17.01963573      -1.54850724 </v>
  </varray>
  <energy>
   <i name="e_fr_energy">   -127.65609991 </i>
   <i name="e_wo_entrp">   -127.64671741 </i>
   <i name="e_0_energy">     -0.01876499 </i>
  </energy>
  <time name="totalsc"> 1851.37 1854.36</time>
  <eigenvalues>
   <array>
    <dimension dim="1">band</dimension>
    <dimension dim="2">kpoint</dimension>
    <dimension dim="3">spin</dimension>
    <field>eigene</field>
    <field>occ</field>
    <set>
     <set comment="spin 1">
      <set comment="kpoint 1">
       <r>  -13.8669    1.0000 </r>
       <r>  -13.5455    1.0000 </r>
       <r>  -12.8053    1.0000 </r>
       <r>  -12.6750    1.0000 </r>
       <r>  -12.4937    1.0000 </r>
       <r>  -12.2157    1.0000 </r>
       <r>  -12.1372    1.0000 </r>
       <r>  -12.0669    1.0000 </r>
       <r>  -11.4415    1.0000 </r>
       <r>  -11.1970    1.0000 </r>
       <r>  -10.9967    1.0000 </r>
       <r>  -10.8320    1.0000 </r>
       <r>   -8.0430    1.0000 </r>
       <r>   -7.8381    1.0000 </r>
       <r>   -7.7061    1.0000 </r>
       <r>   -7.2834    1.0000 </r>
       <r>   -6.9229    1.0000 </r>
       <r>   -6.7772    1.0000 </r>
       <r>   -6.5036    1.0000 </r>
       <r>   -6.4623    1.0000 </r>
       <r>   -5.8357    1.0000 </r>
       <r>   -5.6797    1.0000 </r>
       <r>   -4.7523    1.0000 </r>
       <r>   -4.5108    1.0000 </r>
       <r>   -4.0332    1.0000 </r>
       <r>   -3.7038    1.0000 </r>
       <r>   -3.6871    1.0000 </r>
       <r>   -3.4661    1.0000 </r>
       <r>   -3.3219    1.0000 </r>
       <r>   -3.0946    1.0000 </r>
       <r>   -3.0615    1.0000 </r>
       <r>   -2.8476    1.0000 </r>
       <r>   -2.8136    1.0000 </r>
       <r>   -2.6007    1.0000 </r>
       <r>   -2.4626    1.0000 </r>
       <r>   -2.3976    1.0000 </r>
       <r>   -2.3384    1.0000 </r>
       <r>   -2.1501    1.0000 </r>
       <r>   -2.1327    1.0000 </r>
       <r>   -2.0232    1.0000 </r>
       <r>   -1.8455    1.0000 </r>
       <r>   -1.7464    1.0000 </r>
       <r>   -1.7251    1.0000 </r>
       <r>   -1.6496    1.0000 </r>
       <r>   -1.5820    1.0000 </r>
       <r>   -1.5369    1.0000 </r>
       <r>   -1.4773    1.0000 </r>
       <r>   -1.4368    1.0000 </r>
       <r>   -1.2282    1.0000 </r>
       <r>   -1.1208    1.0000 </r>
       <r>   -1.0506    1.0000 </r>
       <r>   -0.6033    1.0000 </r>
       <r>   -0.4985    1.0000 </r>
       <r>    0.0146    0.9848 </r>
       <r>    0.3693    0.0022 </r>
       <r>    0.4412    0.0001 </r>
       <r>    0.8184    0.0000 </r>
       <r>    1.1887    0.0000 </r>
       <r>    1.3122    0.0000 </r>
       <r>    1.6975    0.0000 </r>
       <r>    1.8210    0.0000 </r>
       <r>    1.9753    0.0000 </r>
       <r>    2.0517    0.0000 </r>
       <r>    2.1953    0.0000 </r>
       <r>    2.2343    0.0000 </r>
       <r>    2.4277    0.0000 </r>
       <r>    2.6483    0.0000 </r>
       <r>    2.7727    0.0000 </r>
      </set>
      <set comment="kpoint 2">
       <r>  -13.8061    1.0000 </r>
       <r>  -13.4841    1.0000 </r>
       <r>  -12.7531    1.0000 </r>
       <r>  -12.6215    1.0000 </r>
       <r>  -12.4381    1.0000 </r>
       <r>  -12.1602    1.0000 </r>
       <r>  -12.0753    1.0000 </r>
       <r>  -12.0057    1.0000 </r>
       <r>  -11.3925    1.0000 </r>
       <r>  -11.1514    1.0000 </r>
       <r>  -10.9482    1.0000 </r>
       <r>  -10.7780    1.0000 </r>
       <r>   -8.0780    1.0000 </r>
       <r>   -7.8038    1.0000 </r>
       <r>   -7.6841    1.0000 </r>
       <r>   -7.2940    1.0000 </r>
       <r>   -6.8988    1.0000 </r>
       <r>   -6.7574    1.0000 </r>
       <r>   -6.4994    1.0000 </r>
       <r>   -6.4604    1.0000 </r>
       <r>   -5.8021    1.0000 </r>
       <r>   -5.6530    1.0000 </r>
       <r>   -4.7549    1.0000 </r>
       <r>   -4.4755    1.0000 </r>
       <r>   -4.0886    1.0000 </r>
       <r>   -3.9106    1.0000 </r>
       <r>   -3.7233    1.0000 </r>
       <r>   -3.6051    1.0000 </r>
       <r>   -3.5149    1.0000 </r>
       <r>   -3.3885    1.0000 </r>
       <r>   -3.2663    1.0000 </r>
       <r>   -3.1563    1.0000 </r>
       <r>   -2.9803    1.0000 </r>
       <r>   -2.9174    1.0000 </r>
       <r>   -2.7446    1.0000 </r>
       <r>   -2.5788    1.0000 </r>
       <r>   -2.4810    1.0000 </r>
       <r>   -2.3443    1.0000 </r>
       <r>   -2.2043    1.0000 </r>
       <r>   -2.1227    1.0000 </r>
       <r>   -2.0599    1.0000 </r>
       <r>   -1.9895    1.0000 </r>
       <r>   -1.9711    1.0000 </r>
       <r>   -1.8535    1.0000 </r>
       <r>   -1.8404    1.0000 </r>
       <r>   -1.7238    1.0000 </r>
       <r>   -1.5731    1.0000 </r>
       <r>   -1.5052    1.0000 </r>
       <r>   -1.3599    1.0000 </r>
       <r>   -1.1636    1.0000 </r>
       <r>   -0.9512    1.0000 </r>
       <r>   -0.5858    1.0000 </r>
       <r>   -0.3029    1.0000 </r>
       <r>    0.0881    0.8697 </r>
       <r>    0.4668    0.0000 </r>
       <r>    0.6238    0.0000 </r>
       <r>    1.0747    0.0000 </r>
       <r>    1.5717    0.0000 </r>
       <r>    1.7541    0.0000 </r>
       <r>    1.9400    0.0000 </r>
       <r>    2.1282    0.0000 </r>
       <r>    2.2024    0.0000 </r>
       <r>    2.2888    0.0000 </r>
       <r>    2.4282    0.0000 </r>
       <r>    2.5454    0.0000 </r>
       <r>    2.5935    0.0000 </r>
       <r>    2.7260    0.0000 </r>
       <r>    2.7769    0.0000 </r>
      </set>
      <set comment="kpoint 3">
       <r>  -13.6249    1.0000 </r>
       <r>  -13.3011    1.0000 </r>
       <r>  -12.5974    1.0000 </r>
       <r>  -12.4615    1.0000 </r>
       <r>  -12.2732    1.0000 </r>
       <r>  -11.9961    1.0000 </r>
       <r>  -11.8944    1.0000 </r>
       <r>  -11.8257    1.0000 </r>
       <r>  -11.2506    1.0000 </r>
       <r>  -11.0193    1.0000 </r>
       <r>  -10.8091    1.0000 </r>
       <r>  -10.6199    1.0000 </r>
       <r>   -8.1727    1.0000 </r>
       <r>   -7.7640    1.0000 </r>
       <r>   -7.6907    1.0000 </r>
       <r>   -7.3128    1.0000 </r>
       <r>   -6.8984    1.0000 </r>
       <r>   -6.7184    1.0000 </r>
       <r>   -6.5121    1.0000 </r>
       <r>   -6.4668    1.0000 </r>
       <r>   -5.7276    1.0000 </r>
       <r>   -5.6033    1.0000 </r>
       <r>   -4.8727    1.0000 </r>
       <r>   -4.7986    1.0000 </r>
       <r>   -4.3945    1.0000 </r>
       <r>   -4.2346    1.0000 </r>
       <r>   -4.1032    1.0000 </r>
       <r>   -4.0553    1.0000 </r>
       <r>   -3.9512    1.0000 </r>
       <r>   -3.7812    1.0000 </r>
       <r>   -3.6939    1.0000 </r>
       <r>   -3.5746    1.0000 </r>
       <r>   -3.4403    1.0000 </r>
       <r>   -3.3722    1.0000 </r>
       <r>   -3.1867    1.0000 </r>
       <r>   -3.0100    1.0000 </r>
       <r>   -2.9761    1.0000 </r>
       <r>   -2.8646    1.0000 </r>
       <r>   -2.8158    1.0000 </r>
       <r>   -2.5173    1.0000 </r>
       <r>   -2.3826    1.0000 </r>
       <r>   -2.2664    1.0000 </r>
       <r>   -2.1579    1.0000 </r>
       <r>   -2.0372    1.0000 </r>
       <r>   -1.9841    1.0000 </r>
       <r>   -1.8454    1.0000 </r>
       <r>   -1.7343    1.0000 </r>
       <r>   -1.6377    1.0000 </r>
       <r>   -1.3583    1.0000 </r>
       <r>   -1.2225    1.0000 </r>
       <r>   -0.9297    1.0000 </r>
       <r>   -0.6980    1.0000 </r>
       <r>   -0.3222    1.0000 </r>
       <r>    0.0639    0.9290 </r>
       <r>    0.5028    0.0000 </r>
       <r>    0.9067    0.0000 </r>
       <r>    1.5436    0.0000 </r>
       <r>    1.8278    0.0000 </r>
       <r>    1.9752    0.0000 </r>
       <r>    2.2572    0.0000 </r>
       <r>    2.4129    0.0000 </r>
       <r>    2.5728    0.0000 </r>
       <r>    2.6247    0.0000 </r>
       <r>    2.7274    0.0000 </r>
       <r>    2.8871    0.0000 </r>
       <r>    2.9355    0.0000 </r>
       <r>    3.0527    0.0000 </r>
       <r>    3.0950    0.0000 </r>
      </set>
      <set comment="kpoint 4">
       <r>  -13.3278    1.0000 </r>
       <r>  -13.0001    1.0000 </r>
       <r>  -12.3412    1.0000 </r>
       <r>  -12.1987    1.0000 </r>
       <r>  -12.0062    1.0000 </r>
       <r>  -11.7329    1.0000 </r>
       <r>  -11.6113    1.0000 </r>
       <r>  -11.5411    1.0000 </r>
       <r>  -11.0339    1.0000 </r>
       <r>  -10.8205    1.0000 </r>
       <r>  -10.6055    1.0000 </r>
       <r>  -10.3713    1.0000 </r>
       <r>   -8.3636    1.0000 </r>
       <r>   -7.9726    1.0000 </r>
       <r>   -7.8284    1.0000 </r>
       <r>   -7.2856    1.0000 </r>
       <r>   -7.1161    1.0000 </r>
       <r>   -6.7072    1.0000 </r>
       <r>   -6.6412    1.0000 </r>
       <r>   -6.5199    1.0000 </r>
       <r>   -5.7452    1.0000 </r>
       <r>   -5.6875    1.0000 </r>
       <r>   -5.4303    1.0000 </r>
       <r>   -5.3425    1.0000 </r>
       <r>   -4.8256    1.0000 </r>
       <r>   -4.7271    1.0000 </r>
       <r>   -4.6136    1.0000 </r>
       <r>   -4.5192    1.0000 </r>
       <r>   -4.4163    1.0000 </r>
       <r>   -4.2005    1.0000 </r>
       <r>   -4.1520    1.0000 </r>
       <r>   -3.9864    1.0000 </r>
       <r>   -3.8147    1.0000 </r>
       <r>   -3.7790    1.0000 </r>
       <r>   -3.5114    1.0000 </r>
       <r>   -3.4728    1.0000 </r>
       <r>   -3.2141    1.0000 </r>
       <r>   -3.1220    1.0000 </r>
       <r>   -2.9876    1.0000 </r>
       <r>   -2.7124    1.0000 </r>
       <r>   -2.5812    1.0000 </r>
       <r>   -2.4537    1.0000 </r>
       <r>   -2.3581    1.0000 </r>
       <r>   -2.0737    1.0000 </r>
       <r>   -1.9246    1.0000 </r>
       <r>   -1.8550    1.0000 </r>
       <r>   -1.7777    1.0000 </r>
       <r>   -1.7079    1.0000 </r>
       <r>   -1.4846    1.0000 </r>
       <r>   -1.3975    1.0000 </r>
       <r>   -1.0931    1.0000 </r>
       <r>   -0.9752    1.0000 </r>
       <r>   -0.7226    1.0000 </r>
       <r>   -0.2115    1.0000 </r>
       <r>    0.4580    0.0000 </r>
       <r>    1.0248    0.0000 </r>
       <r>    1.3528    0.0000 </r>
       <r>    1.7795    0.0000 </r>
       <r>    1.8830    0.0000 </r>
       <r>    2.0338    0.0000 </r>
       <r>    2.2713    0.0000 </r>
       <r>    2.3611    0.0000 </r>
       <r>    2.6097    0.0000 </r>
       <r>    2.7115    0.0000 </r>
       <r>    2.8778    0.0000 </r>
       <r>    2.9213    0.0000 </r>
       <r>    3.0215    0.0000 </r>
       <r>    3.1412    0.0000 </r>
      </set>
      <set comment="kpoint 5">
       <r>  -12.9250    1.0000 </r>
       <r>  -12.5883    1.0000 </r>
       <r>  -11.9929    1.0000 </r>
       <r>  -11.8434    1.0000 </r>
       <r>  -11.6539    1.0000 </r>
       <r>  -11.3919    1.0000 </r>
       <r>  -11.2692    1.0000 </r>
       <r>  -11.1868    1.0000 </r>
       <r>  -10.7898    1.0000 </r>
       <r>  -10.6085    1.0000 </r>
       <r>  -10.4193    1.0000 </r>
       <r>  -10.0636    1.0000 </r>
       <r>   -8.6585    1.0000 </r>
       <r>   -8.5054    1.0000 </r>
       <r>   -8.0890    1.0000 </r>
       <r>   -7.6756    1.0000 </r>
       <r>   -7.1864    1.0000 </r>
       <r>   -7.0001    1.0000 </r>
       <r>   -6.9101    1.0000 </r>
       <r>   -6.8054    1.0000 </r>
       <r>   -6.2667    1.0000 </r>
       <r>   -6.1663    1.0000 </r>
       <r>   -5.9690    1.0000 </r>
       <r>   -5.7326    1.0000 </r>
       <r>   -5.2190    1.0000 </r>
       <r>   -5.0795    1.0000 </r>
       <r>   -4.8831    1.0000 </r>
       <r>   -4.7924    1.0000 </r>
       <r>   -4.7008    1.0000 </r>
       <r>   -4.4017    1.0000 </r>
       <r>   -4.3073    1.0000 </r>
       <r>   -4.2299    1.0000 </r>
       <r>   -4.1886    1.0000 </r>
       <r>   -3.9240    1.0000 </r>
       <r>   -3.4291    1.0000 </r>
       <r>   -3.3852    1.0000 </r>
       <r>   -3.1824    1.0000 </r>
       <r>   -3.1059    1.0000 </r>
       <r>   -3.0337    1.0000 </r>
       <r>   -2.8936    1.0000 </r>
       <r>   -2.7863    1.0000 </r>
       <r>   -2.6087    1.0000 </r>
       <r>   -2.3407    1.0000 </r>
       <r>   -2.1172    1.0000 </r>
       <r>   -2.0434    1.0000 </r>
       <r>   -1.9693    1.0000 </r>
       <r>   -1.8797    1.0000 </r>
       <r>   -1.8631    1.0000 </r>
       <r>   -1.7250    1.0000 </r>
       <r>   -1.5435    1.0000 </r>
       <r>   -1.4280    1.0000 </r>
       <r>   -1.2856    1.0000 </r>
       <r>   -1.0749    1.0000 </r>
       <r>   -0.6719    1.0000 </r>
       <r>    0.5246    0.0000 </r>
       <r>    0.9092    0.0000 </r>
       <r>    1.2049    0.0000 </r>
       <r>    1.5584    0.0000 </r>
       <r>    1.6652    0.0000 </r>
       <r>    1.8259    0.0000 </r>
       <r>    1.9879    0.0000 </r>
       <r>    2.2185    0.0000 </r>
       <r>    2.2940    0.0000 </r>
       <r>    2.3630    0.0000 </r>
       <r>    2.6716    0.0000 </r>
       <r>    2.7773    0.0000 </r>
       <r>    2.8143    0.0000 </r>
       <r>    3.0297    0.0000 </r>
      </set>
      <set comment="kpoint 6">
       <r>  -12.4416    1.0000 </r>
       <r>  -12.0799    1.0000 </r>
       <r>  -11.5737    1.0000 </r>
       <r>  -11.4269    1.0000 </r>
       <r>  -11.2546    1.0000 </r>
       <r>  -11.0395    1.0000 </r>
       <r>  -10.9805    1.0000 </r>
       <r>  -10.8487    1.0000 </r>
       <r>  -10.6360    1.0000 </r>
       <r>  -10.4987    1.0000 </r>
       <r>  -10.4595    1.0000 </r>
       <r>   -9.7701    1.0000 </r>
       <r>   -8.9640    1.0000 </r>
       <r>   -8.8350    1.0000 </r>
       <r>   -8.3816    1.0000 </r>
       <r>   -8.1656    1.0000 </r>
       <r>   -7.5314    1.0000 </r>
       <r>   -7.4635    1.0000 </r>
       <r>   -7.4197    1.0000 </r>
       <r>   -7.2093    1.0000 </r>
       <r>   -6.8312    1.0000 </r>
       <r>   -6.7637    1.0000 </r>
       <r>   -6.6663    1.0000 </r>
       <r>   -6.2076    1.0000 </r>
       <r>   -5.2351    1.0000 </r>
       <r>   -5.2065    1.0000 </r>
       <r>   -4.8572    1.0000 </r>
       <r>   -4.6414    1.0000 </r>
       <r>   -4.5321    1.0000 </r>
       <r>   -4.3158    1.0000 </r>
       <r>   -4.2154    1.0000 </r>
       <r>   -4.0976    1.0000 </r>
       <r>   -4.0446    1.0000 </r>
       <r>   -3.8321    1.0000 </r>
       <r>   -3.6588    1.0000 </r>
       <r>   -3.4627    1.0000 </r>
       <r>   -3.2732    1.0000 </r>
       <r>   -3.1925    1.0000 </r>
       <r>   -3.1608    1.0000 </r>
       <r>   -2.9184    1.0000 </r>
       <r>   -2.7994    1.0000 </r>
       <r>   -2.5568    1.0000 </r>
       <r>   -2.4726    1.0000 </r>
       <r>   -2.3114    1.0000 </r>
       <r>   -2.2846    1.0000 </r>
       <r>   -2.1800    1.0000 </r>
       <r>   -2.0397    1.0000 </r>
       <r>   -1.9949    1.0000 </r>
       <r>   -1.9020    1.0000 </r>
       <r>   -1.7752    1.0000 </r>
       <r>   -1.7232    1.0000 </r>
       <r>   -1.4028    1.0000 </r>
       <r>   -1.2611    1.0000 </r>
       <r>   -1.0096    1.0000 </r>
       <r>    0.5494    0.0000 </r>
       <r>    0.7527    0.0000 </r>
       <r>    1.1148    0.0000 </r>
       <r>    1.3890    0.0000 </r>
       <r>    1.5430    0.0000 </r>
       <r>    1.6879    0.0000 </r>
       <r>    1.7644    0.0000 </r>
       <r>    2.0458    0.0000 </r>
       <r>    2.1555    0.0000 </r>
       <r>    2.2460    0.0000 </r>
       <r>    2.3166    0.0000 </r>
       <r>    2.4996    0.0000 </r>
       <r>    2.6850    0.0000 </r>
       <r>    2.8213    0.0000 </r>
      </set>
      <set comment="kpoint 7">
       <r>  -11.9695    1.0000 </r>
       <r>  -11.5062    1.0000 </r>
       <r>  -11.1911    1.0000 </r>
       <r>  -11.1498    1.0000 </r>
       <r>  -10.9489    1.0000 </r>
       <r>  -10.8949    1.0000 </r>
       <r>  -10.8530    1.0000 </r>
       <r>  -10.7347    1.0000 </r>
       <r>  -10.7257    1.0000 </r>
       <r>  -10.6430    1.0000 </r>
       <r>  -10.5711    1.0000 </r>
       <r>   -9.6329    1.0000 </r>
       <r>   -9.0268    1.0000 </r>
       <r>   -8.6936    1.0000 </r>
       <r>   -8.4459    1.0000 </r>
       <r>   -8.4196    1.0000 </r>
       <r>   -8.0891    1.0000 </r>
       <r>   -8.0771    1.0000 </r>
       <r>   -7.5774    1.0000 </r>
       <r>   -7.3979    1.0000 </r>
       <r>   -7.2891    1.0000 </r>
       <r>   -7.1850    1.0000 </r>
       <r>   -7.1202    1.0000 </r>
       <r>   -6.7277    1.0000 </r>
       <r>   -4.9635    1.0000 </r>
       <r>   -4.9133    1.0000 </r>
       <r>   -4.6228    1.0000 </r>
       <r>   -4.5091    1.0000 </r>
       <r>   -4.3736    1.0000 </r>
       <r>   -4.2637    1.0000 </r>
       <r>   -4.0679    1.0000 </r>
       <r>   -3.9828    1.0000 </r>
       <r>   -3.9322    1.0000 </r>
       <r>   -3.8353    1.0000 </r>
       <r>   -3.7493    1.0000 </r>
       <r>   -3.5881    1.0000 </r>
       <r>   -3.4425    1.0000 </r>
       <r>   -3.2748    1.0000 </r>
       <r>   -3.2489    1.0000 </r>
       <r>   -3.0076    1.0000 </r>
       <r>   -2.9135    1.0000 </r>
       <r>   -2.7096    1.0000 </r>
       <r>   -2.5707    1.0000 </r>
       <r>   -2.5064    1.0000 </r>
       <r>   -2.3663    1.0000 </r>
       <r>   -2.2216    1.0000 </r>
       <r>   -2.1660    1.0000 </r>
       <r>   -2.0985    1.0000 </r>
       <r>   -1.9407    1.0000 </r>
       <r>   -1.8800    1.0000 </r>
       <r>   -1.7125    1.0000 </r>
       <r>   -1.5508    1.0000 </r>
       <r>   -1.5006    1.0000 </r>
       <r>   -1.0090    1.0000 </r>
       <r>    0.3748    0.0017 </r>
       <r>    0.7662    0.0000 </r>
       <r>    1.1191    0.0000 </r>
       <r>    1.3556    0.0000 </r>
       <r>    1.4495    0.0000 </r>
       <r>    1.6072    0.0000 </r>
       <r>    1.6870    0.0000 </r>
       <r>    1.8589    0.0000 </r>
       <r>    2.0523    0.0000 </r>
       <r>    2.1519    0.0000 </r>
       <r>    2.3408    0.0000 </r>
       <r>    2.3964    0.0000 </r>
       <r>    2.5231    0.0000 </r>
       <r>    2.7068    0.0000 </r>
      </set>
      <set comment="kpoint 8">
       <r>  -13.8526    1.0000 </r>
       <r>  -13.4902    1.0000 </r>
       <r>  -12.9793    1.0000 </r>
       <r>  -12.7831    1.0000 </r>
       <r>  -12.4923    1.0000 </r>
       <r>  -12.2242    1.0000 </r>
       <r>  -11.9560    1.0000 </r>
       <r>  -11.8678    1.0000 </r>
       <r>  -11.4863    1.0000 </r>
       <r>  -11.2547    1.0000 </r>
       <r>  -11.0054    1.0000 </r>
       <r>  -10.8175    1.0000 </r>
       <r>   -8.5211    1.0000 </r>
       <r>   -7.8620    1.0000 </r>
       <r>   -7.4645    1.0000 </r>
       <r>   -7.3542    1.0000 </r>
       <r>   -6.7508    1.0000 </r>
       <r>   -6.6754    1.0000 </r>
       <r>   -6.5933    1.0000 </r>
       <r>   -6.2818    1.0000 </r>
       <r>   -5.7569    1.0000 </r>
       <r>   -5.5871    1.0000 </r>
       <r>   -4.6501    1.0000 </r>
       <r>   -4.3148    1.0000 </r>
       <r>   -4.1256    1.0000 </r>
       <r>   -4.0176    1.0000 </r>
       <r>   -3.6453    1.0000 </r>
       <r>   -3.6240    1.0000 </r>
       <r>   -3.3610    1.0000 </r>
       <r>   -3.3018    1.0000 </r>
       <r>   -3.1328    1.0000 </r>
       <r>   -2.8511    1.0000 </r>
       <r>   -2.7132    1.0000 </r>
       <r>   -2.5494    1.0000 </r>
       <r>   -2.4008    1.0000 </r>
       <r>   -2.3929    1.0000 </r>
       <r>   -2.3194    1.0000 </r>
       <r>   -2.1807    1.0000 </r>
       <r>   -2.1541    1.0000 </r>
       <r>   -2.0748    1.0000 </r>
       <r>   -1.9633    1.0000 </r>
       <r>   -1.8893    1.0000 </r>
       <r>   -1.8473    1.0000 </r>
       <r>   -1.6362    1.0000 </r>
       <r>   -1.5523    1.0000 </r>
       <r>   -1.4346    1.0000 </r>
       <r>   -1.4001    1.0000 </r>
       <r>   -1.3668    1.0000 </r>
       <r>   -1.1671    1.0000 </r>
       <r>   -1.1258    1.0000 </r>
       <r>   -1.0304    1.0000 </r>
       <r>   -0.7968    1.0000 </r>
       <r>   -0.4818    1.0000 </r>
       <r>    0.0340    0.9706 </r>
       <r>    0.3762    0.0016 </r>
       <r>    0.5918    0.0000 </r>
       <r>    1.0719    0.0000 </r>
       <r>    1.2095    0.0000 </r>
       <r>    1.3879    0.0000 </r>
       <r>    1.7180    0.0000 </r>
       <r>    1.7703    0.0000 </r>
       <r>    1.9892    0.0000 </r>
       <r>    2.0446    0.0000 </r>
       <r>    2.2523    0.0000 </r>
       <r>    2.2843    0.0000 </r>
       <r>    2.5524    0.0000 </r>
       <r>    2.6508    0.0000 </r>
       <r>    2.8103    0.0000 </r>
      </set>
      <set comment="kpoint 9">
       <r>  -13.7887    1.0000 </r>
       <r>  -13.4134    1.0000 </r>
       <r>  -12.9601    1.0000 </r>
       <r>  -12.7467    1.0000 </r>
       <r>  -12.4352    1.0000 </r>
       <r>  -12.1672    1.0000 </r>
       <r>  -11.8686    1.0000 </r>
       <r>  -11.7690    1.0000 </r>
       <r>  -11.4449    1.0000 </r>
       <r>  -11.2161    1.0000 </r>
       <r>  -10.9611    1.0000 </r>
       <r>  -10.7638    1.0000 </r>
       <r>   -8.5795    1.0000 </r>
       <r>   -7.8879    1.0000 </r>
       <r>   -7.4533    1.0000 </r>
       <r>   -7.3150    1.0000 </r>
       <r>   -6.7307    1.0000 </r>
       <r>   -6.6801    1.0000 </r>
       <r>   -6.5293    1.0000 </r>
       <r>   -6.2318    1.0000 </r>
       <r>   -5.7074    1.0000 </r>
       <r>   -5.5350    1.0000 </r>
       <r>   -4.6945    1.0000 </r>
       <r>   -4.4192    1.0000 </r>
       <r>   -4.1555    1.0000 </r>
       <r>   -4.0900    1.0000 </r>
       <r>   -3.8275    1.0000 </r>
       <r>   -3.6577    1.0000 </r>
       <r>   -3.5579    1.0000 </r>
       <r>   -3.5142    1.0000 </r>
       <r>   -3.3939    1.0000 </r>
       <r>   -3.0330    1.0000 </r>
       <r>   -2.9175    1.0000 </r>
       <r>   -2.8713    1.0000 </r>
       <r>   -2.6783    1.0000 </r>
       <r>   -2.6064    1.0000 </r>
       <r>   -2.4953    1.0000 </r>
       <r>   -2.4579    1.0000 </r>
       <r>   -2.3105    1.0000 </r>
       <r>   -2.1950    1.0000 </r>
       <r>   -2.1547    1.0000 </r>
       <r>   -2.0615    1.0000 </r>
       <r>   -2.0052    1.0000 </r>
       <r>   -1.8421    1.0000 </r>
       <r>   -1.7502    1.0000 </r>
       <r>   -1.7416    1.0000 </r>
       <r>   -1.5655    1.0000 </r>
       <r>   -1.4040    1.0000 </r>
       <r>   -1.3411    1.0000 </r>
       <r>   -1.0938    1.0000 </r>
       <r>   -0.9377    1.0000 </r>
       <r>   -0.7060    1.0000 </r>
       <r>   -0.3102    1.0000 </r>
       <r>    0.1177    0.7602 </r>
       <r>    0.3768    0.0016 </r>
       <r>    0.9014    0.0000 </r>
       <r>    1.2421    0.0000 </r>
       <r>    1.6067    0.0000 </r>
       <r>    1.7708    0.0000 </r>
       <r>    1.9247    0.0000 </r>
       <r>    2.0814    0.0000 </r>
       <r>    2.2286    0.0000 </r>
       <r>    2.3764    0.0000 </r>
       <r>    2.5002    0.0000 </r>
       <r>    2.5862    0.0000 </r>
       <r>    2.6529    0.0000 </r>
       <r>    2.7625    0.0000 </r>
       <r>    2.9558    0.0000 </r>
      </set>
      <set comment="kpoint 10">
       <r>  -13.6057    1.0000 </r>
       <r>  -13.2168    1.0000 </r>
       <r>  -12.8236    1.0000 </r>
       <r>  -12.5915    1.0000 </r>
       <r>  -12.2688    1.0000 </r>
       <r>  -12.0030    1.0000 </r>
       <r>  -11.6844    1.0000 </r>
       <r>  -11.5715    1.0000 </r>
       <r>  -11.3054    1.0000 </r>
       <r>  -11.0769    1.0000 </r>
       <r>  -10.8198    1.0000 </r>
       <r>  -10.6092    1.0000 </r>
       <r>   -8.6450    1.0000 </r>
       <r>   -7.9601    1.0000 </r>
       <r>   -7.3897    1.0000 </r>
       <r>   -7.2833    1.0000 </r>
       <r>   -6.7123    1.0000 </r>
       <r>   -6.6584    1.0000 </r>
       <r>   -6.5014    1.0000 </r>
       <r>   -6.2733    1.0000 </r>
       <r>   -5.6591    1.0000 </r>
       <r>   -5.5286    1.0000 </r>
       <r>   -4.9537    1.0000 </r>
       <r>   -4.8441    1.0000 </r>
       <r>   -4.4229    1.0000 </r>
       <r>   -4.3753    1.0000 </r>
       <r>   -4.3015    1.0000 </r>
       <r>   -4.0564    1.0000 </r>
       <r>   -3.9685    1.0000 </r>
       <r>   -3.7986    1.0000 </r>
       <r>   -3.6291    1.0000 </r>
       <r>   -3.4573    1.0000 </r>
       <r>   -3.3871    1.0000 </r>
       <r>   -3.2160    1.0000 </r>
       <r>   -3.1491    1.0000 </r>
       <r>   -2.9995    1.0000 </r>
       <r>   -2.9670    1.0000 </r>
       <r>   -2.8127    1.0000 </r>
       <r>   -2.7246    1.0000 </r>
       <r>   -2.6181    1.0000 </r>
       <r>   -2.5836    1.0000 </r>
       <r>   -2.3850    1.0000 </r>
       <r>   -2.3152    1.0000 </r>
       <r>   -2.0564    1.0000 </r>
       <r>   -1.9800    1.0000 </r>
       <r>   -1.9087    1.0000 </r>
       <r>   -1.8000    1.0000 </r>
       <r>   -1.4951    1.0000 </r>
       <r>   -1.3861    1.0000 </r>
       <r>   -1.1523    1.0000 </r>
       <r>   -0.9115    1.0000 </r>
       <r>   -0.6854    1.0000 </r>
       <r>   -0.3425    1.0000 </r>
       <r>    0.1026    0.8212 </r>
       <r>    0.2247    0.2100 </r>
       <r>    1.1841    0.0000 </r>
       <r>    1.6618    0.0000 </r>
       <r>    1.7110    0.0000 </r>
       <r>    1.8985    0.0000 </r>
       <r>    2.1177    0.0000 </r>
       <r>    2.3486    0.0000 </r>
       <r>    2.6018    0.0000 </r>
       <r>    2.7270    0.0000 </r>
       <r>    2.8629    0.0000 </r>
       <r>    3.0049    0.0000 </r>
       <r>    3.0560    0.0000 </r>
       <r>    3.0987    0.0000 </r>
       <r>    3.1288    0.0000 </r>
      </set>
      <set comment="kpoint 11">
       <r>  -13.3083    1.0000 </r>
       <r>  -12.9055    1.0000 </r>
       <r>  -12.5721    1.0000 </r>
       <r>  -12.3213    1.0000 </r>
       <r>  -12.0009    1.0000 </r>
       <r>  -11.7410    1.0000 </r>
       <r>  -11.4240    1.0000 </r>
       <r>  -11.2952    1.0000 </r>
       <r>  -11.0838    1.0000 </r>
       <r>  -10.8524    1.0000 </r>
       <r>  -10.6023    1.0000 </r>
       <r>  -10.3650    1.0000 </r>
       <r>   -8.7761    1.0000 </r>
       <r>   -8.2104    1.0000 </r>
       <r>   -7.4033    1.0000 </r>
       <r>   -7.2681    1.0000 </r>
       <r>   -6.8493    1.0000 </r>
       <r>   -6.7020    1.0000 </r>
       <r>   -6.6498    1.0000 </r>
       <r>   -6.4979    1.0000 </r>
       <r>   -5.8971    1.0000 </r>
       <r>   -5.8195    1.0000 </r>
       <r>   -5.3352    1.0000 </r>
       <r>   -5.2109    1.0000 </r>
       <r>   -5.0375    1.0000 </r>
       <r>   -4.8575    1.0000 </r>
       <r>   -4.6746    1.0000 </r>
       <r>   -4.5664    1.0000 </r>
       <r>   -4.4653    1.0000 </r>
       <r>   -4.1923    1.0000 </r>
       <r>   -4.0259    1.0000 </r>
       <r>   -3.8331    1.0000 </r>
       <r>   -3.7297    1.0000 </r>
       <r>   -3.6496    1.0000 </r>
       <r>   -3.3429    1.0000 </r>
       <r>   -3.2216    1.0000 </r>
       <r>   -3.1796    1.0000 </r>
       <r>   -3.0950    1.0000 </r>
       <r>   -2.9945    1.0000 </r>
       <r>   -2.8588    1.0000 </r>
       <r>   -2.6639    1.0000 </r>
       <r>   -2.5306    1.0000 </r>
       <r>   -2.4225    1.0000 </r>
       <r>   -2.1773    1.0000 </r>
       <r>   -1.9983    1.0000 </r>
       <r>   -1.9122    1.0000 </r>
       <r>   -1.8273    1.0000 </r>
       <r>   -1.7486    1.0000 </r>
       <r>   -1.4145    1.0000 </r>
       <r>   -1.3952    1.0000 </r>
       <r>   -1.0640    1.0000 </r>
       <r>   -0.9573    1.0000 </r>
       <r>   -0.7365    1.0000 </r>
       <r>   -0.1934    1.0000 </r>
       <r>    0.1695    0.4895 </r>
       <r>    1.0453    0.0000 </r>
       <r>    1.3463    0.0000 </r>
       <r>    1.4728    0.0000 </r>
       <r>    1.6095    0.0000 </r>
       <r>    1.8793    0.0000 </r>
       <r>    2.2422    0.0000 </r>
       <r>    2.4880    0.0000 </r>
       <r>    2.5847    0.0000 </r>
       <r>    2.7035    0.0000 </r>
       <r>    2.8861    0.0000 </r>
       <r>    3.0303    0.0000 </r>
       <r>    3.1686    0.0000 </r>
       <r>    3.2362    0.0000 </r>
      </set>
      <set comment="kpoint 12">
       <r>  -12.9074    1.0000 </r>
       <r>  -12.4887    1.0000 </r>
       <r>  -12.2130    1.0000 </r>
       <r>  -11.9473    1.0000 </r>
       <r>  -11.6491    1.0000 </r>
       <r>  -11.4023    1.0000 </r>
       <r>  -11.1348    1.0000 </r>
       <r>  -10.9819    1.0000 </r>
       <r>  -10.8206    1.0000 </r>
       <r>  -10.5966    1.0000 </r>
       <r>  -10.3964    1.0000 </r>
       <r>  -10.0589    1.0000 </r>
       <r>   -8.9755    1.0000 </r>
       <r>   -8.6531    1.0000 </r>
       <r>   -7.7118    1.0000 </r>
       <r>   -7.4875    1.0000 </r>
       <r>   -7.2019    1.0000 </r>
       <r>   -7.1160    1.0000 </r>
       <r>   -6.9683    1.0000 </r>
       <r>   -6.8850    1.0000 </r>
       <r>   -6.3318    1.0000 </r>
       <r>   -6.1866    1.0000 </r>
       <r>   -5.9236    1.0000 </r>
       <r>   -5.6455    1.0000 </r>
       <r>   -5.3882    1.0000 </r>
       <r>   -5.2926    1.0000 </r>
       <r>   -4.9546    1.0000 </r>
       <r>   -4.8935    1.0000 </r>
       <r>   -4.4824    1.0000 </r>
       <r>   -4.4087    1.0000 </r>
       <r>   -4.3184    1.0000 </r>
       <r>   -4.0524    1.0000 </r>
       <r>   -4.0120    1.0000 </r>
       <r>   -3.7195    1.0000 </r>
       <r>   -3.3553    1.0000 </r>
       <r>   -3.2825    1.0000 </r>
       <r>   -3.0548    1.0000 </r>
       <r>   -3.0212    1.0000 </r>
       <r>   -2.9394    1.0000 </r>
       <r>   -2.8670    1.0000 </r>
       <r>   -2.8174    1.0000 </r>
       <r>   -2.5439    1.0000 </r>
       <r>   -2.4816    1.0000 </r>
       <r>   -2.3718    1.0000 </r>
       <r>   -2.1650    1.0000 </r>
       <r>   -1.9855    1.0000 </r>
       <r>   -1.9110    1.0000 </r>
       <r>   -1.8900    1.0000 </r>
       <r>   -1.7520    1.0000 </r>
       <r>   -1.5717    1.0000 </r>
       <r>   -1.4352    1.0000 </r>
       <r>   -1.2687    1.0000 </r>
       <r>   -1.1287    1.0000 </r>
       <r>   -0.6773    1.0000 </r>
       <r>    0.2919    0.0395 </r>
       <r>    0.7898    0.0000 </r>
       <r>    1.0359    0.0000 </r>
       <r>    1.2270    0.0000 </r>
       <r>    1.3137    0.0000 </r>
       <r>    1.7136    0.0000 </r>
       <r>    2.1434    0.0000 </r>
       <r>    2.1774    0.0000 </r>
       <r>    2.3600    0.0000 </r>
       <r>    2.4337    0.0000 </r>
       <r>    2.6097    0.0000 </r>
       <r>    2.8238    0.0000 </r>
       <r>    2.9548    0.0000 </r>
       <r>    3.0950    0.0000 </r>
      </set>
      <set comment="kpoint 13">
       <r>  -12.4282    1.0000 </r>
       <r>  -11.9852    1.0000 </r>
       <r>  -11.7629    1.0000 </r>
       <r>  -11.5013    1.0000 </r>
       <r>  -11.2529    1.0000 </r>
       <r>  -11.0428    1.0000 </r>
       <r>  -10.9294    1.0000 </r>
       <r>  -10.7250    1.0000 </r>
       <r>  -10.6118    1.0000 </r>
       <r>  -10.4720    1.0000 </r>
       <r>  -10.4585    1.0000 </r>
       <r>   -9.7716    1.0000 </r>
       <r>   -8.9700    1.0000 </r>
       <r>   -8.9658    1.0000 </r>
       <r>   -8.1166    1.0000 </r>
       <r>   -8.0385    1.0000 </r>
       <r>   -7.8260    1.0000 </r>
       <r>   -7.7824    1.0000 </r>
       <r>   -7.3641    1.0000 </r>
       <r>   -7.0836    1.0000 </r>
       <r>   -6.7528    1.0000 </r>
       <r>   -6.7012    1.0000 </r>
       <r>   -6.6603    1.0000 </r>
       <r>   -6.2811    1.0000 </r>
       <r>   -5.3495    1.0000 </r>
       <r>   -5.2653    1.0000 </r>
       <r>   -4.9982    1.0000 </r>
       <r>   -4.7930    1.0000 </r>
       <r>   -4.5045    1.0000 </r>
       <r>   -4.2689    1.0000 </r>
       <r>   -4.1329    1.0000 </r>
       <r>   -3.9449    1.0000 </r>
       <r>   -3.8659    1.0000 </r>
       <r>   -3.6784    1.0000 </r>
       <r>   -3.3692    1.0000 </r>
       <r>   -3.3456    1.0000 </r>
       <r>   -3.2718    1.0000 </r>
       <r>   -3.1726    1.0000 </r>
       <r>   -3.1231    1.0000 </r>
       <r>   -2.9252    1.0000 </r>
       <r>   -2.7340    1.0000 </r>
       <r>   -2.6160    1.0000 </r>
       <r>   -2.4881    1.0000 </r>
       <r>   -2.3948    1.0000 </r>
       <r>   -2.3399    1.0000 </r>
       <r>   -2.2266    1.0000 </r>
       <r>   -2.1634    1.0000 </r>
       <r>   -2.0898    1.0000 </r>
       <r>   -1.9253    1.0000 </r>
       <r>   -1.8314    1.0000 </r>
       <r>   -1.6965    1.0000 </r>
       <r>   -1.4396    1.0000 </r>
       <r>   -1.3153    1.0000 </r>
       <r>   -1.0236    1.0000 </r>
       <r>    0.3881    0.0009 </r>
       <r>    0.6443    0.0000 </r>
       <r>    0.9852    0.0000 </r>
       <r>    1.1952    0.0000 </r>
       <r>    1.3268    0.0000 </r>
       <r>    1.5647    0.0000 </r>
       <r>    1.8128    0.0000 </r>
       <r>    1.9873    0.0000 </r>
       <r>    2.0822    0.0000 </r>
       <r>    2.1518    0.0000 </r>
       <r>    2.5858    0.0000 </r>
       <r>    2.6318    0.0000 </r>
       <r>    2.7623    0.0000 </r>
       <r>    2.9115    0.0000 </r>
      </set>
      <set comment="kpoint 14">
       <r>  -11.9633    1.0000 </r>
       <r>  -11.4355    1.0000 </r>
       <r>  -11.2673    1.0000 </r>
       <r>  -11.2072    1.0000 </r>
       <r>  -10.9624    1.0000 </r>
       <r>  -10.9076    1.0000 </r>
       <r>  -10.8721    1.0000 </r>
       <r>  -10.7260    1.0000 </r>
       <r>  -10.7006    1.0000 </r>
       <r>  -10.5891    1.0000 </r>
       <r>  -10.5567    1.0000 </r>
       <r>   -9.6339    1.0000 </r>
       <r>   -8.9488    1.0000 </r>
       <r>   -8.5607    1.0000 </r>
       <r>   -8.4450    1.0000 </r>
       <r>   -8.4048    1.0000 </r>
       <r>   -8.3310    1.0000 </r>
       <r>   -8.2055    1.0000 </r>
       <r>   -7.5235    1.0000 </r>
       <r>   -7.3241    1.0000 </r>
       <r>   -7.2567    1.0000 </r>
       <r>   -7.1463    1.0000 </r>
       <r>   -7.1001    1.0000 </r>
       <r>   -6.8196    1.0000 </r>
       <r>   -5.0258    1.0000 </r>
       <r>   -4.9692    1.0000 </r>
       <r>   -4.7347    1.0000 </r>
       <r>   -4.4799    1.0000 </r>
       <r>   -4.2992    1.0000 </r>
       <r>   -4.2136    1.0000 </r>
       <r>   -4.1417    1.0000 </r>
       <r>   -3.9483    1.0000 </r>
       <r>   -3.8797    1.0000 </r>
       <r>   -3.7291    1.0000 </r>
       <r>   -3.6634    1.0000 </r>
       <r>   -3.5121    1.0000 </r>
       <r>   -3.4116    1.0000 </r>
       <r>   -3.2863    1.0000 </r>
       <r>   -3.2457    1.0000 </r>
       <r>   -2.9953    1.0000 </r>
       <r>   -2.8815    1.0000 </r>
       <r>   -2.6698    1.0000 </r>
       <r>   -2.6110    1.0000 </r>
       <r>   -2.5257    1.0000 </r>
       <r>   -2.4033    1.0000 </r>
       <r>   -2.2502    1.0000 </r>
       <r>   -2.2044    1.0000 </r>
       <r>   -2.1351    1.0000 </r>
       <r>   -2.0323    1.0000 </r>
       <r>   -1.8799    1.0000 </r>
       <r>   -1.6843    1.0000 </r>
       <r>   -1.5842    1.0000 </r>
       <r>   -1.4943    1.0000 </r>
       <r>   -1.0224    1.0000 </r>
       <r>    0.4032    0.0004 </r>
       <r>    0.7312    0.0000 </r>
       <r>    1.0288    0.0000 </r>
       <r>    1.4025    0.0000 </r>
       <r>    1.4741    0.0000 </r>
       <r>    1.5302    0.0000 </r>
       <r>    1.5705    0.0000 </r>
       <r>    1.7838    0.0000 </r>
       <r>    1.9339    0.0000 </r>
       <r>    2.1262    0.0000 </r>
       <r>    2.4374    0.0000 </r>
       <r>    2.4622    0.0000 </r>
       <r>    2.6588    0.0000 </r>
       <r>    2.7318    0.0000 </r>
      </set>
      <set comment="kpoint 15">
       <r>  -11.9732    1.0000 </r>
       <r>  -11.5398    1.0000 </r>
       <r>  -11.1995    1.0000 </r>
       <r>  -11.0732    1.0000 </r>
       <r>  -10.9347    1.0000 </r>
       <r>  -10.8547    1.0000 </r>
       <r>  -10.8190    1.0000 </r>
       <r>  -10.7583    1.0000 </r>
       <r>  -10.7187    1.0000 </r>
       <r>  -10.7000    1.0000 </r>
       <r>  -10.6118    1.0000 </r>
       <r>   -9.6190    1.0000 </r>
       <r>   -9.1341    1.0000 </r>
       <r>   -8.7619    1.0000 </r>
       <r>   -8.4393    1.0000 </r>
       <r>   -8.3979    1.0000 </r>
       <r>   -7.9491    1.0000 </r>
       <r>   -7.9283    1.0000 </r>
       <r>   -7.6101    1.0000 </r>
       <r>   -7.4087    1.0000 </r>
       <r>   -7.2837    1.0000 </r>
       <r>   -7.2319    1.0000 </r>
       <r>   -7.2186    1.0000 </r>
       <r>   -6.7057    1.0000 </r>
       <r>   -4.9818    1.0000 </r>
       <r>   -4.7344    1.0000 </r>
       <r>   -4.5888    1.0000 </r>
       <r>   -4.5274    1.0000 </r>
       <r>   -4.3649    1.0000 </r>
       <r>   -4.3185    1.0000 </r>
       <r>   -4.0486    1.0000 </r>
       <r>   -4.0110    1.0000 </r>
       <r>   -3.9773    1.0000 </r>
       <r>   -3.8871    1.0000 </r>
       <r>   -3.6651    1.0000 </r>
       <r>   -3.6517    1.0000 </r>
       <r>   -3.5460    1.0000 </r>
       <r>   -3.4022    1.0000 </r>
       <r>   -3.3346    1.0000 </r>
       <r>   -2.9789    1.0000 </r>
       <r>   -2.8129    1.0000 </r>
       <r>   -2.7031    1.0000 </r>
       <r>   -2.6003    1.0000 </r>
       <r>   -2.5490    1.0000 </r>
       <r>   -2.3905    1.0000 </r>
       <r>   -2.1885    1.0000 </r>
       <r>   -2.1739    1.0000 </r>
       <r>   -2.0654    1.0000 </r>
       <r>   -1.9210    1.0000 </r>
       <r>   -1.7983    1.0000 </r>
       <r>   -1.6976    1.0000 </r>
       <r>   -1.4962    1.0000 </r>
       <r>   -1.4531    1.0000 </r>
       <r>   -1.0476    1.0000 </r>
       <r>    0.5000    0.0000 </r>
       <r>    0.8050    0.0000 </r>
       <r>    1.0392    0.0000 </r>
       <r>    1.3551    0.0000 </r>
       <r>    1.5667    0.0000 </r>
       <r>    1.6878    0.0000 </r>
       <r>    1.7463    0.0000 </r>
       <r>    1.7951    0.0000 </r>
       <r>    1.9928    0.0000 </r>
       <r>    2.2172    0.0000 </r>
       <r>    2.3502    0.0000 </r>
       <r>    2.5039    0.0000 </r>
       <r>    2.5417    0.0000 </r>
       <r>    2.6022    0.0000 </r>
      </set>
      <set comment="kpoint 16">
       <r>  -12.4476    1.0000 </r>
       <r>  -12.1064    1.0000 </r>
       <r>  -11.4888    1.0000 </r>
       <r>  -11.3910    1.0000 </r>
       <r>  -11.2539    1.0000 </r>
       <r>  -11.0762    1.0000 </r>
       <r>  -10.9531    1.0000 </r>
       <r>  -10.9132    1.0000 </r>
       <r>  -10.6383    1.0000 </r>
       <r>  -10.5516    1.0000 </r>
       <r>  -10.4552    1.0000 </r>
       <r>   -9.7816    1.0000 </r>
       <r>   -8.9151    1.0000 </r>
       <r>   -8.7465    1.0000 </r>
       <r>   -8.4954    1.0000 </r>
       <r>   -8.2287    1.0000 </r>
       <r>   -7.4564    1.0000 </r>
       <r>   -7.4175    1.0000 </r>
       <r>   -7.3347    1.0000 </r>
       <r>   -7.2156    1.0000 </r>
       <r>   -6.8865    1.0000 </r>
       <r>   -6.8126    1.0000 </r>
       <r>   -6.6706    1.0000 </r>
       <r>   -6.2052    1.0000 </r>
       <r>   -5.2197    1.0000 </r>
       <r>   -5.0571    1.0000 </r>
       <r>   -4.8623    1.0000 </r>
       <r>   -4.7392    1.0000 </r>
       <r>   -4.4152    1.0000 </r>
       <r>   -4.3626    1.0000 </r>
       <r>   -4.2466    1.0000 </r>
       <r>   -4.0975    1.0000 </r>
       <r>   -4.0429    1.0000 </r>
       <r>   -3.8128    1.0000 </r>
       <r>   -3.7257    1.0000 </r>
       <r>   -3.5739    1.0000 </r>
       <r>   -3.4098    1.0000 </r>
       <r>   -3.2303    1.0000 </r>
       <r>   -3.1765    1.0000 </r>
       <r>   -3.0141    1.0000 </r>
       <r>   -2.7516    1.0000 </r>
       <r>   -2.5560    1.0000 </r>
       <r>   -2.4963    1.0000 </r>
       <r>   -2.4023    1.0000 </r>
       <r>   -2.2721    1.0000 </r>
       <r>   -2.1701    1.0000 </r>
       <r>   -1.9596    1.0000 </r>
       <r>   -1.9503    1.0000 </r>
       <r>   -1.7996    1.0000 </r>
       <r>   -1.7301    1.0000 </r>
       <r>   -1.5936    1.0000 </r>
       <r>   -1.3869    1.0000 </r>
       <r>   -1.2297    1.0000 </r>
       <r>   -1.0658    1.0000 </r>
       <r>    0.6485    0.0000 </r>
       <r>    0.8682    0.0000 </r>
       <r>    1.0334    0.0000 </r>
       <r>    1.3739    0.0000 </r>
       <r>    1.6628    0.0000 </r>
       <r>    1.7943    0.0000 </r>
       <r>    1.8854    0.0000 </r>
       <r>    2.1027    0.0000 </r>
       <r>    2.1493    0.0000 </r>
       <r>    2.2578    0.0000 </r>
       <r>    2.3973    0.0000 </r>
       <r>    2.4608    0.0000 </r>
       <r>    2.6024    0.0000 </r>
       <r>    2.7216    0.0000 </r>
      </set>
      <set comment="kpoint 17">
       <r>  -12.9284    1.0000 </r>
       <r>  -12.6006    1.0000 </r>
       <r>  -11.9513    1.0000 </r>
       <r>  -11.8178    1.0000 </r>
       <r>  -11.6539    1.0000 </r>
       <r>  -11.4050    1.0000 </r>
       <r>  -11.2831    1.0000 </r>
       <r>  -11.2263    1.0000 </r>
       <r>  -10.7815    1.0000 </r>
       <r>  -10.6188    1.0000 </r>
       <r>  -10.4253    1.0000 </r>
       <r>  -10.0747    1.0000 </r>
       <r>   -8.5598    1.0000 </r>
       <r>   -8.4166    1.0000 </r>
       <r>   -8.1915    1.0000 </r>
       <r>   -7.7480    1.0000 </r>
       <r>   -7.2378    1.0000 </r>
       <r>   -7.0053    1.0000 </r>
       <r>   -6.8837    1.0000 </r>
       <r>   -6.7773    1.0000 </r>
       <r>   -6.2105    1.0000 </r>
       <r>   -6.1598    1.0000 </r>
       <r>   -5.9778    1.0000 </r>
       <r>   -5.7583    1.0000 </r>
       <r>   -5.1573    1.0000 </r>
       <r>   -5.0192    1.0000 </r>
       <r>   -4.9234    1.0000 </r>
       <r>   -4.8633    1.0000 </r>
       <r>   -4.6485    1.0000 </r>
       <r>   -4.3904    1.0000 </r>
       <r>   -4.3042    1.0000 </r>
       <r>   -4.2382    1.0000 </r>
       <r>   -4.2143    1.0000 </r>
       <r>   -3.9664    1.0000 </r>
       <r>   -3.4857    1.0000 </r>
       <r>   -3.4394    1.0000 </r>
       <r>   -3.1968    1.0000 </r>
       <r>   -3.0984    1.0000 </r>
       <r>   -3.0357    1.0000 </r>
       <r>   -2.8863    1.0000 </r>
       <r>   -2.7838    1.0000 </r>
       <r>   -2.6099    1.0000 </r>
       <r>   -2.3300    1.0000 </r>
       <r>   -2.1702    1.0000 </r>
       <r>   -2.0373    1.0000 </r>
       <r>   -1.9307    1.0000 </r>
       <r>   -1.8862    1.0000 </r>
       <r>   -1.8298    1.0000 </r>
       <r>   -1.7167    1.0000 </r>
       <r>   -1.4932    1.0000 </r>
       <r>   -1.3708    1.0000 </r>
       <r>   -1.2515    1.0000 </r>
       <r>   -1.1587    1.0000 </r>
       <r>   -0.6804    1.0000 </r>
       <r>    0.7290    0.0000 </r>
       <r>    0.8566    0.0000 </r>
       <r>    1.0983    0.0000 </r>
       <r>    1.6152    0.0000 </r>
       <r>    1.7291    0.0000 </r>
       <r>    1.9382    0.0000 </r>
       <r>    2.0018    0.0000 </r>
       <r>    2.2397    0.0000 </r>
       <r>    2.3294    0.0000 </r>
       <r>    2.3968    0.0000 </r>
       <r>    2.6520    0.0000 </r>
       <r>    2.6970    0.0000 </r>
       <r>    2.7671    0.0000 </r>
       <r>    3.0104    0.0000 </r>
      </set>
      <set comment="kpoint 18">
       <r>  -13.3269    1.0000 </r>
       <r>  -12.9959    1.0000 </r>
       <r>  -12.3559    1.0000 </r>
       <r>  -12.2046    1.0000 </r>
       <r>  -12.0065    1.0000 </r>
       <r>  -11.7448    1.0000 </r>
       <r>  -11.5879    1.0000 </r>
       <r>  -11.5235    1.0000 </r>
       <r>  -11.0376    1.0000 </r>
       <r>  -10.8251    1.0000 </r>
       <r>  -10.6041    1.0000 </r>
       <r>  -10.3752    1.0000 </r>
       <r>   -8.4039    1.0000 </r>
       <r>   -7.9406    1.0000 </r>
       <r>   -7.7869    1.0000 </r>
       <r>   -7.3104    1.0000 </r>
       <r>   -7.1315    1.0000 </r>
       <r>   -6.7092    1.0000 </r>
       <r>   -6.6454    1.0000 </r>
       <r>   -6.5389    1.0000 </r>
       <r>   -5.7472    1.0000 </r>
       <r>   -5.6599    1.0000 </r>
       <r>   -5.4131    1.0000 </r>
       <r>   -5.3379    1.0000 </r>
       <r>   -4.8455    1.0000 </r>
       <r>   -4.7299    1.0000 </r>
       <r>   -4.6056    1.0000 </r>
       <r>   -4.5244    1.0000 </r>
       <r>   -4.4188    1.0000 </r>
       <r>   -4.2280    1.0000 </r>
       <r>   -4.1652    1.0000 </r>
       <r>   -3.9774    1.0000 </r>
       <r>   -3.7869    1.0000 </r>
       <r>   -3.7481    1.0000 </r>
       <r>   -3.5054    1.0000 </r>
       <r>   -3.4533    1.0000 </r>
       <r>   -3.2127    1.0000 </r>
       <r>   -3.1042    1.0000 </r>
       <r>   -2.9850    1.0000 </r>
       <r>   -2.7328    1.0000 </r>
       <r>   -2.6092    1.0000 </r>
       <r>   -2.4524    1.0000 </r>
       <r>   -2.3368    1.0000 </r>
       <r>   -2.1349    1.0000 </r>
       <r>   -1.9173    1.0000 </r>
       <r>   -1.8664    1.0000 </r>
       <r>   -1.7789    1.0000 </r>
       <r>   -1.7296    1.0000 </r>
       <r>   -1.4751    1.0000 </r>
       <r>   -1.3725    1.0000 </r>
       <r>   -1.0951    1.0000 </r>
       <r>   -0.9385    1.0000 </r>
       <r>   -0.7488    1.0000 </r>
       <r>   -0.2212    1.0000 </r>
       <r>    0.5243    0.0000 </r>
       <r>    0.9302    0.0000 </r>
       <r>    1.3163    0.0000 </r>
       <r>    1.8007    0.0000 </r>
       <r>    1.8719    0.0000 </r>
       <r>    2.0081    0.0000 </r>
       <r>    2.2550    0.0000 </r>
       <r>    2.3844    0.0000 </r>
       <r>    2.6592    0.0000 </r>
       <r>    2.7348    0.0000 </r>
       <r>    2.8919    0.0000 </r>
       <r>    2.9323    0.0000 </r>
       <r>    2.9961    0.0000 </r>
       <r>    3.1266    0.0000 </r>
      </set>
      <set comment="kpoint 19">
       <r>  -13.6193    1.0000 </r>
       <r>  -13.2797    1.0000 </r>
       <r>  -12.6712    1.0000 </r>
       <r>  -12.5053    1.0000 </r>
       <r>  -12.2733    1.0000 </r>
       <r>  -12.0083    1.0000 </r>
       <r>  -11.8129    1.0000 </r>
       <r>  -11.7423    1.0000 </r>
       <r>  -11.2699    1.0000 </r>
       <r>  -11.0396    1.0000 </r>
       <r>  -10.8071    1.0000 </r>
       <r>  -10.6158    1.0000 </r>
       <r>   -8.3841    1.0000 </r>
[...]
       <r>    2.8773    0.0000 </r>
      </set>
      <set comment="kpoint 54">
       <r>  -11.9671    1.0000 </r>
       <r>  -11.4948    1.0000 </r>
       <r>  -11.2152    1.0000 </r>
       <r>  -11.1723    1.0000 </r>
       <r>  -10.9522    1.0000 </r>
       <r>  -10.8729    1.0000 </r>
       <r>  -10.8557    1.0000 </r>
       <r>  -10.7236    1.0000 </r>
       <r>  -10.7074    1.0000 </r>
       <r>  -10.6298    1.0000 </r>
       <r>  -10.5918    1.0000 </r>
       <r>   -9.6214    1.0000 </r>
       <r>   -9.0706    1.0000 </r>
       <r>   -8.6707    1.0000 </r>
       <r>   -8.4463    1.0000 </r>
       <r>   -8.4264    1.0000 </r>
       <r>   -8.1240    1.0000 </r>
       <r>   -8.0427    1.0000 </r>
       <r>   -7.5670    1.0000 </r>
       <r>   -7.3058    1.0000 </r>
       <r>   -7.2786    1.0000 </r>
       <r>   -7.1878    1.0000 </r>
       <r>   -7.1651    1.0000 </r>
       <r>   -6.7955    1.0000 </r>
       <r>   -5.0175    1.0000 </r>
       <r>   -4.9472    1.0000 </r>
       <r>   -4.6234    1.0000 </r>
       <r>   -4.4834    1.0000 </r>
       <r>   -4.2960    1.0000 </r>
       <r>   -4.2567    1.0000 </r>
       <r>   -4.0844    1.0000 </r>
       <r>   -3.9585    1.0000 </r>
       <r>   -3.8827    1.0000 </r>
       <r>   -3.7827    1.0000 </r>
       <r>   -3.7634    1.0000 </r>
       <r>   -3.5711    1.0000 </r>
       <r>   -3.4104    1.0000 </r>
       <r>   -3.3023    1.0000 </r>
       <r>   -3.2573    1.0000 </r>
       <r>   -3.0328    1.0000 </r>
       <r>   -2.9119    1.0000 </r>
       <r>   -2.7750    1.0000 </r>
       <r>   -2.6908    1.0000 </r>
       <r>   -2.5741    1.0000 </r>
       <r>   -2.3827    1.0000 </r>
       <r>   -2.2209    1.0000 </r>
       <r>   -2.1420    1.0000 </r>
       <r>   -2.0505    1.0000 </r>
       <r>   -1.9178    1.0000 </r>
       <r>   -1.7659    1.0000 </r>
       <r>   -1.6721    1.0000 </r>
       <r>   -1.5663    1.0000 </r>
       <r>   -1.4986    1.0000 </r>
       <r>   -1.0720    1.0000 </r>
       <r>    0.4671    0.0000 </r>
       <r>    0.8565    0.0000 </r>
       <r>    0.9728    0.0000 </r>
       <r>    1.3392    0.0000 </r>
       <r>    1.5013    0.0000 </r>
       <r>    1.5853    0.0000 </r>
       <r>    1.6904    0.0000 </r>
       <r>    1.8698    0.0000 </r>
       <r>    1.9626    0.0000 </r>
       <r>    2.0421    0.0000 </r>
       <r>    2.3292    0.0000 </r>
       <r>    2.4264    0.0000 </r>
       <r>    2.5248    0.0000 </r>
       <r>    2.7074    0.0000 </r>
      </set>
     </set>
    </set>
   </array>
  </eigenvalues>
  <separator name="orbital magnetization" >
   <v name="MAGDIPOLOUT">      0.00000000      0.00000000      0.00000000</v>
  </separator>
  <dos>
   <i name="efermi">      0.16766302 </i>
   <total>
    <array>
     <dimension dim="1">gridpoints</dimension>
     <dimension dim="2">spin</dimension>
     <field>energy</field>
     <field>total</field>
     <field>integrated</field>
     <set>
      <set comment="spin 1">
       <r>   -14.8669     0.0000     0.0000 </r>
       <r>   -14.8031     0.0000     0.0000 </r>
       <r>   -14.7394     0.0000     0.0000 </r>
       <r>   -14.6756     0.0000     0.0000 </r>
       <r>   -14.6118     0.0000     0.0000 </r>
       <r>   -14.5480     0.0000     0.0000 </r>
       <r>   -14.4842     0.0000     0.0000 </r>
       <r>   -14.4204     0.0000     0.0000 </r>
       <r>   -14.3567     0.0000     0.0000 </r>
       <r>   -14.2929     0.0000     0.0000 </r>
       <r>   -14.2291     0.0000     0.0000 </r>
       <r>   -14.1653     0.0000     0.0000 </r>
       <r>   -14.1015     0.0006     0.0000 </r>
       <r>   -14.0378     0.0122     0.0008 </r>
       <r>   -13.9740     0.1207     0.0085 </r>
       <r>   -13.9102     0.6088     0.0473 </r>
       <r>   -13.8464     1.6250     0.1510 </r>
       <r>   -13.7826     2.3549     0.3012 </r>
       <r>   -13.7188     2.0360     0.4310 </r>
       <r>   -13.6551     1.7241     0.5410 </r>
       <r>   -13.5913     2.0720     0.6732 </r>
       <r>   -13.5275     2.2304     0.8154 </r>
       <r>   -13.4637     2.2610     0.9596 </r>
       <r>   -13.3999     2.6070     1.1259 </r>
       <r>   -13.3362     3.2729     1.3347 </r>
       <r>   -13.2724     3.4945     1.5576 </r>
       <r>   -13.2086     2.7036     1.7300 </r>
       <r>   -13.1448     1.8352     1.8471 </r>
       <r>   -13.0810     1.5585     1.9465 </r>
       <r>   -13.0172     2.2225     2.0882 </r>
       <r>   -12.9535     3.8452     2.3335 </r>
       <r>   -12.8897     5.0623     2.6563 </r>
       <r>   -12.8259     4.7287     2.9580 </r>
       <r>   -12.7621     3.8093     3.2009 </r>
       <r>   -12.6983     3.4767     3.4227 </r>
       <r>   -12.6345     4.0631     3.6818 </r>
       <r>   -12.5708     5.0753     4.0055 </r>
       <r>   -12.5070     5.9126     4.3827 </r>
       <r>   -12.4432     6.5139     4.7981 </r>
       <r>   -12.3794     5.9866     5.1800 </r>
       <r>   -12.3156     5.0691     5.5033 </r>
       <r>   -12.2519     5.3065     5.8418 </r>
       <r>   -12.1881     5.9879     6.2237 </r>
       <r>   -12.1243     6.0415     6.6090 </r>
       <r>   -12.0605     6.6557     7.0335 </r>
       <r>   -11.9967     8.8208     7.5961 </r>
       <r>   -11.9329     9.5993     8.2084 </r>
       <r>   -11.8692     7.8982     8.7122 </r>
       <r>   -11.8054     6.6563     9.1367 </r>
       <r>   -11.7416     6.6228     9.5591 </r>
       <r>   -11.6778     6.7607     9.9903 </r>
       <r>   -11.6140     6.8079    10.4246 </r>
       <r>   -11.5503     7.1568    10.8810 </r>
       <r>   -11.4865     8.2636    11.4081 </r>
       <r>   -11.4227     9.0413    11.9848 </r>
       <r>   -11.3589     8.5212    12.5283 </r>
       <r>   -11.2951     8.7308    13.0852 </r>
       <r>   -11.2313    10.2674    13.7400 </r>
       <r>   -11.1676    10.3090    14.3976 </r>
       <r>   -11.1038     9.4300    14.9990 </r>
       <r>   -11.0400     9.9111    15.6312 </r>
       <r>   -10.9762    10.9854    16.3319 </r>
       <r>   -10.9124    11.8151    17.0854 </r>
       <r>   -10.8486    13.0194    17.9159 </r>
       <r>   -10.7849    13.7187    18.7909 </r>
       <r>   -10.7211    12.6766    19.5994 </r>
       <r>   -10.6573    11.9433    20.3612 </r>
       <r>   -10.5935    12.1337    21.1351 </r>
       <r>   -10.5297    10.2061    21.7861 </r>
       <r>   -10.4660     7.3799    22.2568 </r>
       <r>   -10.4022     5.9447    22.6359 </r>
       <r>   -10.3384     4.3045    22.9105 </r>
       <r>   -10.2746     2.0242    23.0396 </r>
       <r>   -10.2108     0.6143    23.0788 </r>
       <r>   -10.1470     0.5872    23.1162 </r>
       <r>   -10.0833     1.3496    23.2023 </r>
       <r>   -10.0195     1.6391    23.3068 </r>
       <r>    -9.9557     0.9637    23.3683 </r>
       <r>    -9.8919     0.4784    23.3988 </r>
       <r>    -9.8281     0.9263    23.4579 </r>
       <r>    -9.7644     1.7348    23.5686 </r>
       <r>    -9.7006     1.9836    23.6951 </r>
       <r>    -9.6368     1.9825    23.8215 </r>
       <r>    -9.5730     1.7056    23.9303 </r>
       <r>    -9.5092     0.8562    23.9849 </r>
       <r>    -9.4454     0.2108    23.9984 </r>
       <r>    -9.3817     0.0247    23.9999 </r>
       <r>    -9.3179     0.0070    24.0004 </r>
       <r>    -9.2541     0.0548    24.0039 </r>
       <r>    -9.1903     0.2686    24.0210 </r>
       <r>    -9.1265     0.7572    24.0693 </r>
       <r>    -9.0627     1.5656    24.1692 </r>
       <r>    -8.9990     2.8537    24.3512 </r>
       <r>    -8.9352     4.0403    24.6089 </r>
       <r>    -8.8714     3.9439    24.8604 </r>
       <r>    -8.8076     3.4658    25.0815 </r>
       <r>    -8.7438     3.8884    25.3295 </r>
       <r>    -8.6801     4.3151    25.6047 </r>
       <r>    -8.6163     4.1948    25.8723 </r>
       <r>    -8.5525     4.2472    26.1432 </r>
       <r>    -8.4887     5.1529    26.4718 </r>
       <r>    -8.4249     6.4729    26.8847 </r>
       <r>    -8.3611     6.2015    27.2802 </r>
       <r>    -8.2974     4.3601    27.5583 </r>
       <r>    -8.2336     3.7829    27.7996 </r>
       <r>    -8.1698     4.7523    28.1027 </r>
       <r>    -8.1060     5.3414    28.4434 </r>
       <r>    -8.0422     5.2010    28.7751 </r>
       <r>    -7.9784     4.9990    29.0940 </r>
       <r>    -7.9147     4.9541    29.4100 </r>
       <r>    -7.8509     5.1037    29.7355 </r>
       <r>    -7.7871     5.6518    30.0960 </r>
       <r>    -7.7233     5.7151    30.4605 </r>
       <r>    -7.6595     5.0677    30.7837 </r>
       <r>    -7.5958     4.8203    31.0912 </r>
       <r>    -7.5320     5.6237    31.4499 </r>
       <r>    -7.4682     7.1396    31.9052 </r>
       <r>    -7.4044     8.9847    32.4783 </r>
       <r>    -7.3406    10.8588    33.1709 </r>
       <r>    -7.2768    12.1695    33.9471 </r>
       <r>    -7.2131    11.6737    34.6917 </r>
       <r>    -7.1493     9.4096    35.2918 </r>
       <r>    -7.0855     6.8297    35.7274 </r>
       <r>    -7.0217     4.8061    36.0340 </r>
       <r>    -6.9579     4.3213    36.3096 </r>
       <r>    -6.8942     5.7617    36.6771 </r>
       <r>    -6.8304     8.5122    37.2200 </r>
       <r>    -6.7666    11.9467    37.9820 </r>
       <r>    -6.7028    14.6188    38.9144 </r>
       <r>    -6.6390    13.7986    39.7945 </r>
       <r>    -6.5752    10.0816    40.4376 </r>
       <r>    -6.5115     7.3744    40.9079 </r>
       <r>    -6.4477     5.7926    41.2774 </r>
       <r>    -6.3839     4.2928    41.5512 </r>
       <r>    -6.3201     4.3300    41.8274 </r>
       <r>    -6.2563     5.6659    42.1888 </r>
       <r>    -6.1925     5.9464    42.5680 </r>
       <r>    -6.1288     4.3427    42.8450 </r>
       <r>    -6.0650     2.4963    43.0042 </r>
       <r>    -6.0012     2.0088    43.1324 </r>
       <r>    -5.9374     2.5354    43.2941 </r>
       <r>    -5.8736     3.2265    43.4999 </r>
       <r>    -5.8099     4.2232    43.7692 </r>
       <r>    -5.7461     5.8013    44.1393 </r>
       <r>    -5.6823     7.0355    44.5880 </r>
       <r>    -5.6185     6.9664    45.0323 </r>
       <r>    -5.5547     5.7188    45.3971 </r>
       <r>    -5.4909     4.0657    45.6564 </r>
       <r>    -5.4272     3.4399    45.8758 </r>
       <r>    -5.3634     4.6302    46.1711 </r>
       <r>    -5.2996     6.1391    46.5627 </r>
       <r>    -5.2358     6.2572    46.9618 </r>
       <r>    -5.1720     4.9808    47.2795 </r>
       <r>    -5.1083     3.8608    47.5257 </r>
       <r>    -5.0445     4.8528    47.8353 </r>
       <r>    -4.9807     7.5139    48.3145 </r>
       <r>    -4.9169     9.9360    48.9483 </r>
       <r>    -4.8531    10.8537    49.6405 </r>
       <r>    -4.7893     9.9782    50.2770 </r>
       <r>    -4.7256     9.0788    50.8560 </r>
       <r>    -4.6618     8.9986    51.4300 </r>
       <r>    -4.5980     8.7738    51.9896 </r>
       <r>    -4.5342     9.1107    52.5707 </r>
       <r>    -4.4704    10.4805    53.2392 </r>
       <r>    -4.4066    11.8666    53.9960 </r>
       <r>    -4.3429    12.7801    54.8112 </r>
       <r>    -4.2791    13.1566    55.6503 </r>
       <r>    -4.2153    12.9774    56.4781 </r>
       <r>    -4.1515    12.9957    57.3070 </r>
       <r>    -4.0877    14.2509    58.2159 </r>
       <r>    -4.0240    15.6055    59.2113 </r>
       <r>    -3.9602    14.7371    60.1512 </r>
       <r>    -3.8964    12.4410    60.9447 </r>
       <r>    -3.8326    11.5954    61.6843 </r>
       <r>    -3.7688    12.5870    62.4872 </r>
       <r>    -3.7050    13.2754    63.3339 </r>
       <r>    -3.6413    12.9891    64.1624 </r>
       <r>    -3.5775    12.3698    64.9513 </r>
       <r>    -3.5137    12.3188    65.7371 </r>
       <r>    -3.4499    13.5161    66.5991 </r>
       <r>    -3.3861    15.0538    67.5593 </r>
       <r>    -3.3224    15.3672    68.5395 </r>
       <r>    -3.2586    15.1464    69.5055 </r>
       <r>    -3.1948    15.3358    70.4837 </r>
       <r>    -3.1310    15.0154    71.4414 </r>
       <r>    -3.0672    14.6582    72.3763 </r>
       <r>    -3.0034    15.5595    73.3687 </r>
       <r>    -2.9397    16.7660    74.4381 </r>
       <r>    -2.8759    16.8342    75.5118 </r>
       <r>    -2.8121    15.3984    76.4940 </r>
       <r>    -2.7483    13.4796    77.3537 </r>
       <r>    -2.6845    12.8893    78.1758 </r>
       <r>    -2.6207    14.3085    79.0885 </r>
       <r>    -2.5570    16.5408    80.1435 </r>
       <r>    -2.4932    17.0880    81.2334 </r>
       <r>    -2.4294    16.7470    82.3016 </r>
       <r>    -2.3656    17.2208    83.3999 </r>
       <r>    -2.3018    16.6707    84.4632 </r>
       <r>    -2.2381    15.6189    85.4594 </r>
       <r>    -2.1743    16.9388    86.5398 </r>
       <r>    -2.1105    18.4345    87.7156 </r>
       <r>    -2.0467    18.7100    88.9090 </r>
       <r>    -1.9829    19.6252    90.1607 </r>
       <r>    -1.9191    20.8165    91.4884 </r>
       <r>    -1.8554    20.8812    92.8203 </r>
       <r>    -1.7916    19.5667    94.0683 </r>
       <r>    -1.7278    17.6289    95.1927 </r>
       <r>    -1.6640    14.6232    96.1254 </r>
       <r>    -1.6002    12.0247    96.8924 </r>
       <r>    -1.5364    11.9880    97.6570 </r>
       <r>    -1.4727    13.4915    98.5175 </r>
       <r>    -1.4089    14.8394    99.4640 </r>
       <r>    -1.3451    13.9653   100.3547 </r>
       <r>    -1.2813    10.8815   101.0488 </r>
       <r>    -1.2175     8.5336   101.5931 </r>
       <r>    -1.1538     8.3562   102.1260 </r>
       <r>    -1.0900     9.3461   102.7221 </r>
       <r>    -1.0262     9.8897   103.3529 </r>
       <r>    -0.9624     9.3238   103.9476 </r>
       <r>    -0.8986     7.5483   104.4291 </r>
       <r>    -0.8348     4.9391   104.7441 </r>
       <r>    -0.7711     4.1392   105.0081 </r>
       <r>    -0.7073     5.7024   105.3718 </r>
       <r>    -0.6435     6.1922   105.7668 </r>
       <r>    -0.5797     4.2131   106.0355 </r>
       <r>    -0.5159     2.1899   106.1752 </r>
       <r>    -0.4522     1.5209   106.2722 </r>
       <r>    -0.3884     2.0121   106.4005 </r>
       <r>    -0.3246     3.3304   106.6129 </r>
       <r>    -0.2608     3.9541   106.8651 </r>
       <r>    -0.1970     3.1652   107.0670 </r>
       <r>    -0.1332     1.8342   107.1840 </r>
       <r>    -0.0695     0.9435   107.2442 </r>
       <r>    -0.0057     1.4496   107.3366 </r>
       <r>     0.0581     3.1636   107.5384 </r>
       <r>     0.1219     4.3206   107.8140 </r>
       <r>     0.1857     3.9409   108.0653 </r>
       <r>     0.2495     3.2412   108.2721 </r>
       <r>     0.3132     3.3937   108.4885 </r>
       <r>     0.3770     4.5425   108.7783 </r>
       <r>     0.4408     5.6552   109.1390 </r>
       <r>     0.5046     5.6935   109.5021 </r>
       <r>     0.5684     4.8418   109.8109 </r>
       <r>     0.6321     3.9071   110.0601 </r>
       <r>     0.6959     3.7081   110.2967 </r>
       <r>     0.7597     4.4399   110.5798 </r>
       <r>     0.8235     5.2342   110.9137 </r>
       <r>     0.8873     5.5801   111.2696 </r>
       <r>     0.9511     5.9726   111.6506 </r>
       <r>     1.0148     6.6041   112.0718 </r>
       <r>     1.0786     6.7626   112.5031 </r>
       <r>     1.1424     6.1497   112.8954 </r>
       <r>     1.2062     5.8787   113.2703 </r>
       <r>     1.2700     6.3387   113.6746 </r>
       <r>     1.3337     7.3703   114.1447 </r>
       <r>     1.3975     7.9043   114.6489 </r>
       <r>     1.4613     7.5079   115.1277 </r>
       <r>     1.5251     8.0641   115.6421 </r>
       <r>     1.5889     9.8314   116.2691 </r>
       <r>     1.6527    11.1602   116.9810 </r>
       <r>     1.7164    11.9558   117.7435 </r>
       <r>     1.7802    12.4416   118.5371 </r>
       <r>     1.8440    12.0170   119.3035 </r>
       <r>     1.9078    11.3904   120.0301 </r>
       <r>     1.9716    11.3877   120.7564 </r>
       <r>     2.0354    11.6237   121.4978 </r>
       <r>     2.0991    11.8352   122.2526 </r>
       <r>     2.1629    12.4047   123.0438 </r>
       <r>     2.2267    13.3492   123.8953 </r>
       <r>     2.2905    13.7711   124.7736 </r>
       <r>     2.3543    13.3199   125.6232 </r>
       <r>     2.4180    12.8859   126.4451 </r>
       <r>     2.4818    12.7514   127.2584 </r>
       <r>     2.5456    13.4740   128.1178 </r>
       <r>     2.6094    15.1509   129.0842 </r>
       <r>     2.6732    16.2957   130.1236 </r>
       <r>     2.7370    16.2031   131.1570 </r>
       <r>     2.8007    14.6868   132.0938 </r>
       <r>     2.8645    12.3036   132.8785 </r>
       <r>     2.9283    10.4330   133.5440 </r>
       <r>     2.9921     9.2493   134.1339 </r>
       <r>     3.0559     8.4743   134.6744 </r>
       <r>     3.1197     7.6984   135.1654 </r>
       <r>     3.1834     6.1667   135.5588 </r>
       <r>     3.2472     4.0418   135.8166 </r>
       <r>     3.3110     2.0449   135.9470 </r>
       <r>     3.3748     0.6873   135.9908 </r>
       <r>     3.4386     0.1305   135.9991 </r>
       <r>     3.5023     0.0127   136.0000 </r>
       <r>     3.5661     0.0006   136.0000 </r>
       <r>     3.6299     0.0000   136.0000 </r>
       <r>     3.6937     0.0000   136.0000 </r>
       <r>     3.7575     0.0000   136.0000 </r>
       <r>     3.8213     0.0000   136.0000 </r>
       <r>     3.8850     0.0000   136.0000 </r>
       <r>     3.9488     0.0000   136.0000 </r>
       <r>     4.0126     0.0000   136.0000 </r>
       <r>     4.0764     0.0000   136.0000 </r>
       <r>     4.1402     0.0000   136.0000 </r>
       <r>     4.2039     0.0000   136.0000 </r>
       <r>     4.2677     0.0000   136.0000 </r>
      </set>
     </set>
    </array>
   </total>
  </dos>
 </calculation>
 <structure name="finalpos" >
  <crystal>
   <varray name="basis" >
    <v>       3.54040000       0.00000000       0.00000000 </v>
    <v>      -1.77020000      10.29434800       0.00000000 </v>
    <v>       0.00000000       0.00000000      27.50142900 </v>
   </varray>
   <i name="volume">   1002.32009712 </i>
   <varray name="rec_basis" >
    <v>       0.28245396       0.04857034       0.00000000 </v>
    <v>       0.00000000       0.09714068       0.00000000 </v>
    <v>       0.00000000       0.00000000       0.03636175 </v>
   </varray>
  </crystal>
  <varray name="positions" >
   <v>       0.11402300       0.22804500       0.23316207 </v>
   <v>       0.01402300       0.12804500       0.51499159 </v>
   <v>       0.45808900       0.91617900       0.20939482 </v>
   <v>       0.35808900       0.81617900       0.49122434 </v>
   <v>       0.31085400       0.62170900       0.08414979 </v>
   <v>       0.31085400       0.62170900       0.36597930 </v>
   <v>       0.99923000       0.99846000       0.08631254 </v>
   <v>       0.99923000       0.99846000       0.36814206 </v>
   <v>       0.65492700       0.30985400       0.06041748 </v>
   <v>       0.65492700       0.30985400       0.34224700 </v>
   <v>       0.76973800       0.53947500       0.20725292 </v>
   <v>       0.66973800       0.43947500       0.48908244 </v>
   <v>       0.93971600       0.87943300       0.15783749 </v>
   <v>       0.83971600       0.77943300       0.43966701 </v>
   <v>       0.20515200       0.41030300       0.18578822 </v>
   <v>       0.10515200       0.31030300       0.46761774 </v>
   <v>       0.20184900       0.40369900       0.09969156 </v>
   <v>       0.20184900       0.40369900       0.38152107 </v>
   <v>       0.56380500       0.12761000       0.10779021 </v>
   <v>       0.56380500       0.12761000       0.38961973 </v>
   <v>       0.56710600       0.13421200       0.19387616 </v>
   <v>       0.46710600       0.03421200       0.47570568 </v>
   <v>       0.82923400       0.65846800       0.13571444 </v>
   <v>       0.72923400       0.55846800       0.41754396 </v>
  </varray>
 </structure>
</modeling>
