       N       E                     dE             d eps       ncg     rms          rms(c)
DAV:   1     0.545927990566E+03    0.54593E+03   -0.28753E+04  7344   0.790E+02
DAV:   2    -0.241532063977E+02   -0.57008E+03   -0.55509E+03  9840   0.191E+02
DAV:   3    -0.847633508989E+02   -0.60610E+02   -0.59737E+02  9536   0.638E+01
DAV:   4    -0.875768926654E+02   -0.28135E+01   -0.27897E+01 11248   0.143E+01
DAV:   5    -0.876293475980E+02   -0.52455E-01   -0.52376E-01 10408   0.213E+00    0.138E+01
DAV:   6    -0.819058128897E+02    0.57235E+01   -0.16634E+01  9292   0.126E+01    0.652E+00
DAV:   7    -0.821339043773E+02   -0.22809E+00   -0.12560E+01  8536   0.892E+00    0.339E+00
DAV:   8    -0.820430938743E+02    0.90811E-01   -0.23097E+00  8896   0.446E+00    0.194E+00
DAV:   9    -0.820510586297E+02   -0.79648E-02   -0.60311E-01  9144   0.204E+00    0.775E-01
DAV:  10    -0.820558914928E+02   -0.48329E-02   -0.91243E-02  8736   0.947E-01    0.309E-01
DAV:  11    -0.820464369680E+02    0.94545E-02   -0.25148E-02  9288   0.431E-01    0.137E-01
DAV:  12    -0.820358146393E+02    0.10622E-01   -0.42164E-03  8976   0.208E-01    0.585E-02
DAV:  13    -0.820308439840E+02    0.49707E-02   -0.94271E-04  9336   0.921E-02    0.288E-02
DAV:  14    -0.820284380368E+02    0.24059E-02   -0.23708E-04  9632   0.438E-02    0.161E-02
DAV:  15    -0.820268278268E+02    0.16102E-02   -0.91415E-05  9432   0.266E-02    0.961E-03
DAV:  16    -0.820267868204E+02    0.41006E-04   -0.48510E-05  8216   0.200E-02    0.581E-03
DAV:  17    -0.820274555540E+02   -0.66873E-03   -0.13310E-04  8384   0.240E-02    0.316E-03
DAV:  18    -0.820276396615E+02   -0.18411E-03   -0.10220E-04  8024   0.183E-02    0.187E-03
DAV:  19    -0.820277530087E+02   -0.11335E-03   -0.33177E-05  7416   0.123E-02    0.124E-03
DAV:  20    -0.820277700073E+02   -0.16999E-04   -0.11251E-05  6808   0.803E-03    0.827E-04
DAV:  21    -0.820277628889E+02    0.71184E-05   -0.23948E-05  7156   0.993E-03    0.623E-04
DAV:  22    -0.820277271816E+02    0.35707E-04   -0.18005E-05  7036   0.107E-02    0.321E-04
DAV:  23    -0.820276678491E+02    0.59332E-04   -0.10119E-05  7004   0.840E-03    0.191E-04
DAV:  24    -0.820276582808E+02    0.95683E-05   -0.78048E-06  6520   0.899E-03    0.907E-05
DAV:  25    -0.820276429029E+02    0.15378E-04   -0.41101E-06  6640   0.713E-03    0.502E-05
DAV:  26    -0.820276446828E+02   -0.17799E-05   -0.47168E-06  6444   0.686E-03    0.265E-05
DAV:  27    -0.820276411350E+02    0.35478E-05   -0.21145E-06  6000   0.566E-03    0.150E-05
DAV:  28    -0.820276410913E+02    0.43673E-07   -0.17295E-06  5832   0.509E-03
   1 F= -.82027641E+02 E0= -.82021471E+02  d E =-.123392E-01
