 vasp.5.3.5 31Mar14 (build Oct 29 2014 16:16:03) complex                        
  
 executed on          Linux-UFHPC date 2016.02.09  17:46:03
 running on    8 total cores
 distrk:  each k-point on    8 cores,    1 groups
 distr:  one band on NCORES_PER_BAND=   2 cores,    4 groups


--------------------------------------------------------------------------------------------------------


 INCAR:
 POTCAR:    PAW_PBE P 17Jan2003                   
 POTCAR:   PAW_PBE Si 05Jan2001                   

 ----------------------------------------------------------------------------- 
|                                                                             |
|  ADVICE TO THIS USER RUNNING 'VASP/VAMP'   (HEAR YOUR MASTER'S VOICE ...):  |
|                                                                             |
|      You have switched on vdW-DFT.                                          |
|      This routine was written and supplied by Jiri Klimes.                  |
|      We recommed that you carefully read and cite the following             |
|      publication                                                            |
|      J. Klimes, D.R. Bowler, A. Michelides                                  |
|        J. Phys.: Cond Matt. 22 022201 (2010)                                |
|      J. Klimes, D.R. Bowler, A. Michelides                                  |
|        Phys. Rev. B. 83, 195131 (2011)                                      |
|      and references therein.                                                |
|                                                                             |
 ----------------------------------------------------------------------------- 

 POTCAR:    PAW_PBE P 17Jan2003                   
   VRHFIN =P : s2p3                                                             
   LEXCH  = PE                                                                  
   EATOM  =   176.0430 eV,   12.9388 Ry                                         
                                                                                
   TITEL  = PAW_PBE P 17Jan2003                                                 
   LULTRA =        F    use ultrasoft PP ?                                      
   IUNSCR =        1    unscreen: 0-lin 1-nonlin 2-no                           
   RPACOR =    1.500    partial core radius                                     
   POMASS =   30.974; ZVAL   =    5.000    mass and valenz                      
   RCORE  =    1.900    outmost cutoff radius                                   
   RWIGS  =    2.330; RWIGS  =    1.233    wigner-seitz radius (au A)           
   ENMAX  =  270.000; ENMIN  =  191.280 eV                                      
   ICORE  =        2    local potential                                         
   LCOR   =        T    correct aug charges                                     
   LPAW   =        T    paw PP                                                  
   EAUG   =  342.924                                                            
   DEXC   =    -.002                                                            
   RMAX   =    2.887    core radius for proj-oper                               
   RAUG   =    1.300    factor for augmentation sphere                          
   RDEP   =    1.931    radius for radial grids                                 
   QCUT   =   -4.330; QGAM   =    8.659    optimization parameters              
                                                                                
   Description                                                                  
     l     E      TYP  RCUT    TYP  RCUT                                        
     0   .000     23  1.900                                                     
     0   .000     23  1.900                                                     
     1   .000     23  1.900                                                     
     1   .000     23  1.900                                                     
     2   .000     23  1.900                                                     
  local pseudopotential read in
  partial core-charges read in
  atomic valenz-charges read in
  non local Contribution for L=           0  read in
    real space projection operators read in
  non local Contribution for L=           0  read in
    real space projection operators read in
  non local Contribution for L=           1  read in
    real space projection operators read in
  non local Contribution for L=           1  read in
    real space projection operators read in
    PAW grid and wavefunctions read in
 
   number of l-projection  operators is LMAX  =           4
   number of lm-projection operators is LMMAX =           8
 
 POTCAR:   PAW_PBE Si 05Jan2001                   
   VRHFIN =Si: s2p2                                                             
   LEXCH  = PE                                                                  
   EATOM  =   103.0669 eV,    7.5752 Ry                                         
                                                                                
   TITEL  = PAW_PBE Si 05Jan2001                                                
   LULTRA =        F    use ultrasoft PP ?                                      
   IUNSCR =        1    unscreen: 0-lin 1-nonlin 2-no                           
   RPACOR =    1.500    partial core radius                                     
   POMASS =   28.085; ZVAL   =    4.000    mass and valenz                      
   RCORE  =    1.900    outmost cutoff radius                                   
   RWIGS  =    2.480; RWIGS  =    1.312    wigner-seitz radius (au A)           
   ENMAX  =  245.345; ENMIN  =  184.009 eV                                      
   ICORE  =        2    local potential                                         
   LCOR   =        T    correct aug charges                                     
   LPAW   =        T    paw PP                                                  
   EAUG   =  322.069                                                            
   DEXC   =    -.007                                                            
   RMAX   =    2.944    core radius for proj-oper                               
   RAUG   =    1.300    factor for augmentation sphere                          
   RDEP   =    1.993    radius for radial grids                                 
   QCUT   =   -4.246; QGAM   =    8.493    optimization parameters              
                                                                                
   Description                                                                  
     l     E      TYP  RCUT    TYP  RCUT                                        
     0   .000     23  1.900                                                     
     0   .000     23  1.900                                                     
     1   .000     23  1.900                                                     
     1   .000     23  1.900                                                     
     2   .000      7  1.900                                                     
  local pseudopotential read in
  partial core-charges read in
  atomic valenz-charges read in
  non local Contribution for L=           0  read in
    real space projection operators read in
  non local Contribution for L=           0  read in
    real space projection operators read in
  non local Contribution for L=           1  read in
    real space projection operators read in
  non local Contribution for L=           1  read in
    real space projection operators read in
    PAW grid and wavefunctions read in
 
   number of l-projection  operators is LMAX  =           4
   number of lm-projection operators is LMMAX =           8
 
 Optimization of the real space projectors (new method)

 maximal supplied QI-value         = 19.84
 optimisation between [QCUT,QGAM] = [  8.73, 17.66] = [ 21.34, 87.33] Ry 
 Optimized for a Real-space Cutoff    1.50 Angstroem

   l    n(q)    QCUT    max X(q) W(low)/X(q) W(high)/X(q)  e(spline) 
   0      8     8.731     6.651    0.16E-04    0.15E-04    0.77E-08
   0      8     8.731    90.285    0.16E-03    0.90E-04    0.16E-06
   1      7     8.731     4.328    0.47E-04    0.36E-04    0.45E-07
   1      7     8.731    54.583    0.13E-03    0.39E-03    0.20E-06
 Optimization of the real space projectors (new method)

 maximal supplied QI-value         = 19.84
 optimisation between [QCUT,QGAM] = [  8.73, 17.66] = [ 21.34, 87.33] Ry 
 Optimized for a Real-space Cutoff    1.46 Angstroem

   l    n(q)    QCUT    max X(q) W(low)/X(q) W(high)/X(q)  e(spline) 
   0      8     8.731     8.708    0.16E-04    0.11E-04    0.68E-08
   0      8     8.731   106.241    0.24E-03    0.77E-04    0.13E-06
   1      7     8.731     5.901    0.34E-04    0.38E-04    0.36E-07
   1      7     8.731    73.241    0.12E-03    0.39E-03    0.15E-06

 ----------------------------------------------------------------------------- 
|                                                                             |
|  ADVICE TO THIS USER RUNNING 'VASP/VAMP'   (HEAR YOUR MASTER'S VOICE ...):  |
|                                                                             |
|      You enforced a specific xc-type in the INCAR file,                     |
|      a different type was found on the POTCAR file                          |
|          I HOPE YOU KNOW, WHAT YOU ARE  DOING                               |
|                                                                             |
 ----------------------------------------------------------------------------- 

  PAW_PBE P 17Jan2003                   :
 energy of atom  1       EATOM= -176.0430
 kinetic energy error for atom=    0.0040 (will be added to EATOM!!)
 PAW_PBE Si 05Jan2001                   :
 energy of atom  2       EATOM= -103.0669
 kinetic energy error for atom=    0.0021 (will be added to EATOM!!)
 
 
 POSCAR: Si12                                    
  positions in direct lattice
  No initial velocities read in
 exchange correlation table for  LEXCH =       42
   RHO(1)=    0.500       N(1)  =     2000
   RHO(2)=  100.500       N(2)  =     4000
 


--------------------------------------------------------------------------------------------------------


 ion  position               nearest neighbor table
   1  0.114  0.228  0.233-  15 2.28  21 2.29  21 2.29
   2  0.414  0.928  0.515-  16 2.28  22 2.29  22 2.29
   3  0.458  0.916  0.209-  21 2.28  13 2.30  13 2.30
   4  0.758  0.616  0.491-  22 2.28  14 2.30  14 2.30
   5  0.311  0.622  0.084-  17 2.28  23 2.30  23 2.30
   6  0.311  0.622  0.366-  14 2.08  18 2.28
   7  0.999  0.998  0.086-  19 2.29  19 2.29  13 2.32
   8  0.999  0.998  0.368-  20 2.29  20 2.29
   9  0.655  0.310  0.060-  19 2.28  17 2.29  17 2.29
  10  0.655  0.310  0.342-  20 2.28  18 2.29  18 2.29  24 2.66  24 2.89
  11  0.770  0.539  0.207-  15 2.29  15 2.29  23 2.32
  12  0.070  0.239  0.489-  16 2.29  16 2.29  24 2.32
  13  0.940  0.879  0.158-   3 2.30   3 2.30   7 2.32  23 2.35
  14  0.240  0.579  0.440-   6 2.08   4 2.30   4 2.30  24 2.35  18 2.42
  15  0.205  0.410  0.186-   1 2.28  11 2.29  11 2.29  17 2.37
  16  0.505  0.110  0.468-  20 2.16   2 2.28  12 2.29  12 2.29
  17  0.202  0.404  0.100-   5 2.28   9 2.29   9 2.29  15 2.37
  18  0.202  0.404  0.382-  24 1.11   6 2.28  10 2.29  10 2.29  14 2.42
  19  0.564  0.128  0.108-   9 2.28   7 2.29   7 2.29  21 2.37
  20  0.564  0.128  0.390-  16 2.16  10 2.28   8 2.29   8 2.29  24 2.96
  21  0.567  0.134  0.194-   3 2.28   1 2.29   1 2.29  19 2.37
  22  0.867  0.834  0.476-   4 2.28   2 2.29   2 2.29
  23  0.829  0.658  0.136-   5 2.30   5 2.30  11 2.32  13 2.35
  24  0.129  0.358  0.418-  18 1.11  12 2.32  14 2.35  10 2.66  10 2.89  20 2.96
 

 ----------------------------------------------------------------------------- 
|                                                                             |
|           W    W    AA    RRRRR   N    N  II  N    N   GGGG   !!!           |
|           W    W   A  A   R    R  NN   N  II  NN   N  G    G  !!!           |
|           W    W  A    A  R    R  N N  N  II  N N  N  G       !!!           |
|           W WW W  AAAAAA  RRRRR   N  N N  II  N  N N  G  GGG   !            |
|           WW  WW  A    A  R   R   N   NN  II  N   NN  G    G                |
|           W    W  A    A  R    R  N    N  II  N    N   GGGG   !!!           |
|                                                                             |
|      The distance between some ions is very small                           |
|      please check the nearest neigbor list in the OUTCAR file               |
|          I HOPE YOU KNOW, WHAT YOU ARE  DOING                               |
|                                                                             |
 ----------------------------------------------------------------------------- 

  LATTYP: Found a base centered orthorhombic cell.
 ALAT       =     3.5404000000
 B/A-ratio  =     5.8153587165
 C/A-ratio  =     7.7678875268
  
  Lattice vectors:
  
 A1 = (   1.7702000000,  10.2943480000,   0.0000000000)
 A2 = (   1.7702000000, -10.2943480000,   0.0000000000)
 A3 = (   0.0000000000,   0.0000000000, -27.5014290000)


Analysis of symmetry for initial positions (statically):
=====================================================================
 Subroutine PRICEL returns:
 Original cell was already a primitive cell.
 

 Routine SETGRP: Setting up the symmetry group for a 
 base centered orthorhombic supercell.


 Subroutine GETGRP returns: Found  1 space group operations
 (whereof  1 operations were pure point group operations)
 out of a pool of  8 trial point group operations.


The static configuration has the point symmetry C_1 .


Analysis of symmetry for dynamics (positions and initial velocities):
=====================================================================
 Subroutine PRICEL returns:
 Original cell was already a primitive cell.
 

 Routine SETGRP: Setting up the symmetry group for a 
 base centered orthorhombic supercell.


 Subroutine GETGRP returns: Found  1 space group operations
 (whereof  1 operations were pure point group operations)
 out of a pool of  8 trial point group operations.


The dynamic configuration has the point symmetry C_1 .
 
 
 KPOINTS: pymatgen generated KPOINTS with grid den

Automatic generation of k-mesh.
Space group operators:
 irot       det(A)        alpha          n_x          n_y          n_z        tau_x        tau_y        tau_z
    1     1.000000     0.000000     1.000000     0.000000     0.000000     0.000000     0.000000     0.000000
 
 Subroutine IBZKPT returns following result:
 ===========================================
 
 Found     54 irreducible k-points:
 
 Following reciprocal coordinates:
            Coordinates               Weight
  0.000000  0.000000  0.000000      1.000000
  0.076923 -0.000000  0.000000      2.000000
  0.153846 -0.000000  0.000000      2.000000
  0.230769 -0.000000  0.000000      2.000000
  0.307692 -0.000000  0.000000      2.000000
  0.384615 -0.000000  0.000000      2.000000
  0.461538 -0.000000  0.000000      2.000000
  0.000000  0.250000  0.000000      2.000000
  0.076923  0.250000  0.000000      2.000000
  0.153846  0.250000  0.000000      2.000000
  0.230769  0.250000  0.000000      2.000000
  0.307692  0.250000  0.000000      2.000000
  0.384615  0.250000  0.000000      2.000000
  0.461538  0.250000  0.000000      2.000000
 -0.461538  0.250000  0.000000      2.000000
 -0.384615  0.250000  0.000000      2.000000
 -0.307692  0.250000  0.000000      2.000000
 -0.230769  0.250000  0.000000      2.000000
 -0.153846  0.250000  0.000000      2.000000
 -0.076923  0.250000  0.000000      2.000000
  0.000000  0.500000  0.000000      1.000000
  0.076923  0.500000  0.000000      2.000000
  0.153846  0.500000  0.000000      2.000000
  0.230769  0.500000  0.000000      2.000000
  0.307692  0.500000  0.000000      2.000000
  0.384615  0.500000  0.000000      2.000000
  0.461538  0.500000  0.000000      2.000000
  0.000000  0.000000  0.500000      1.000000
  0.076923 -0.000000  0.500000      2.000000
  0.153846 -0.000000  0.500000      2.000000
  0.230769 -0.000000  0.500000      2.000000
  0.307692 -0.000000  0.500000      2.000000
  0.384615 -0.000000  0.500000      2.000000
  0.461538 -0.000000  0.500000      2.000000
  0.000000  0.250000  0.500000      2.000000
  0.076923  0.250000  0.500000      2.000000
  0.153846  0.250000  0.500000      2.000000
  0.230769  0.250000  0.500000      2.000000
  0.307692  0.250000  0.500000      2.000000
  0.384615  0.250000  0.500000      2.000000
  0.461538  0.250000  0.500000      2.000000
 -0.461538  0.250000  0.500000      2.000000
 -0.384615  0.250000  0.500000      2.000000
 -0.307692  0.250000  0.500000      2.000000
 -0.230769  0.250000  0.500000      2.000000
 -0.153846  0.250000  0.500000      2.000000
 -0.076923  0.250000  0.500000      2.000000
  0.000000  0.500000  0.500000      1.000000
  0.076923  0.500000  0.500000      2.000000
  0.153846  0.500000  0.500000      2.000000
  0.230769  0.500000  0.500000      2.000000
  0.307692  0.500000  0.500000      2.000000
  0.384615  0.500000  0.500000      2.000000
  0.461538  0.500000  0.500000      2.000000
 
 Following cartesian coordinates:
            Coordinates               Weight
  0.000000  0.000000  0.000000      1.000000
  0.021727  0.003736  0.000000      2.000000
  0.043454  0.007472  0.000000      2.000000
  0.065182  0.011209  0.000000      2.000000
  0.086909  0.014945  0.000000      2.000000
  0.108636  0.018681  0.000000      2.000000
  0.130363  0.022417  0.000000      2.000000
  0.000000  0.024285  0.000000      2.000000
  0.021727  0.028021  0.000000      2.000000
  0.043454  0.031758  0.000000      2.000000
  0.065182  0.035494  0.000000      2.000000
  0.086909  0.039230  0.000000      2.000000
  0.108636  0.042966  0.000000      2.000000
  0.130363  0.046702  0.000000      2.000000
 -0.130363  0.001868  0.000000      2.000000
 -0.108636  0.005604  0.000000      2.000000
 -0.086909  0.009340  0.000000      2.000000
 -0.065182  0.013077  0.000000      2.000000
 -0.043454  0.016813  0.000000      2.000000
 -0.021727  0.020549  0.000000      2.000000
  0.000000  0.048570  0.000000      1.000000
  0.021727  0.052307  0.000000      2.000000
  0.043454  0.056043  0.000000      2.000000
  0.065182  0.059779  0.000000      2.000000
  0.086909  0.063515  0.000000      2.000000
  0.108636  0.067251  0.000000      2.000000
  0.130363  0.070987  0.000000      2.000000
  0.000000  0.000000  0.018181      1.000000
  0.021727  0.003736  0.018181      2.000000
  0.043454  0.007472  0.018181      2.000000
  0.065182  0.011209  0.018181      2.000000
  0.086909  0.014945  0.018181      2.000000
  0.108636  0.018681  0.018181      2.000000
  0.130363  0.022417  0.018181      2.000000
  0.000000  0.024285  0.018181      2.000000
  0.021727  0.028021  0.018181      2.000000
  0.043454  0.031758  0.018181      2.000000
  0.065182  0.035494  0.018181      2.000000
  0.086909  0.039230  0.018181      2.000000
  0.108636  0.042966  0.018181      2.000000
  0.130363  0.046702  0.018181      2.000000
 -0.130363  0.001868  0.018181      2.000000
 -0.108636  0.005604  0.018181      2.000000
 -0.086909  0.009340  0.018181      2.000000
 -0.065182  0.013077  0.018181      2.000000
 -0.043454  0.016813  0.018181      2.000000
 -0.021727  0.020549  0.018181      2.000000
  0.000000  0.048570  0.018181      1.000000
  0.021727  0.052307  0.018181      2.000000
  0.043454  0.056043  0.018181      2.000000
  0.065182  0.059779  0.018181      2.000000
  0.086909  0.063515  0.018181      2.000000
  0.108636  0.067251  0.018181      2.000000
  0.130363  0.070987  0.018181      2.000000
 


--------------------------------------------------------------------------------------------------------




 Dimension of arrays:
   k-points           NKPTS =     54   k-points in BZ     NKDIM =     54   number of bands    NBANDS=     68
   number of dos      NEDOS =    301   number of ions     NIONS =     24
   non local maximal  LDIM  =      4   non local SUM 2l+1 LMDIM =      8
   total plane-waves  NPLWV = 192000
   max r-space proj   IRMAX =   2772   max aug-charges    IRDMAX=   6603
   dimension x,y,z NGX =    20 NGY =   60 NGZ =  160
   dimension x,y,z NGXF=    40 NGYF=  120 NGZF=  320
   support grid    NGXF=    40 NGYF=  120 NGZF=  320
   ions per type =              12  12
 NGX,Y,Z   is equivalent  to a cutoff of   9.39,  9.55,  9.67 a.u.
 NGXF,Y,Z  is equivalent  to a cutoff of  18.78, 19.10, 19.34 a.u.


 I would recommend the setting:
   dimension x,y,z NGX =    20 NGY =   59 NGZ =  155
 SYSTEM =  unknown system                          
 POSCAR =  Si12                                    

 Startparameter for this run:
   NWRITE =      2    write-flag & timer
   PREC   = accura    normal or accurate (medium, high low for compatibility)
   ISTART =      0    job   : 0-new  1-cont  2-samecut
   ICHARG =      2    charge: 1-file 2-atom 10-const
   ISPIN  =      1    spin polarized calculation?
   LNONCOLLINEAR =      F non collinear calculations
   LSORBIT =      F    spin-orbit coupling
   INIWAV =      1    electr: 0-lowe 1-rand  2-diag
   LASPH  =      F    aspherical Exc in radial PAW
   METAGGA=      F    non-selfconsistent MetaGGA calc.

 Electronic Relaxation 1
   ENCUT  =  300.0 eV  22.05 Ry    4.70 a.u.   5.00 14.75 38.84*2*pi/ulx,y,z
   ENINI  =  300.0     initial cutoff
   ENAUG  =  342.9 eV  augmentation charge cutoff
   NELM   =     60;   NELMIN=  2; NELMDL= -5     # of ELM steps 
   EDIFF  = 0.1E-05   stopping-criterion for ELM
   LREAL  =      T    real-space projection
   NLSPLINE    = F    spline interpolate recip. space projectors
   LCOMPAT=      F    compatible to vasp.4.4
   GGA_COMPAT  = T    GGA compatible to vasp.4.4-vasp.4.6
   LMAXPAW     = -100 max onsite density
   LMAXMIX     =    2 max onsite mixed and CHGCAR
   VOSKOWN=      0    Vosko Wilk Nusair interpolation
   ROPT   =   -0.00025  -0.00025
 Ionic relaxation
   EDIFFG = 0.1E-04   stopping-criterion for IOM
   NSW    =      0    number of steps for IOM
   NBLOCK =      1;   KBLOCK =      1    inner block; outer block 
   IBRION =     -1    ionic relax: 0-MD 1-quasi-New 2-CG
   NFREE  =      1    steps in history (QN), initial steepest desc. (CG)
   ISIF   =      3    stress and relaxation
   IWAVPR =     10    prediction:  0-non 1-charg 2-wave 3-comb
   ISYM   =      2    0-nonsym 1-usesym 2-fastsym
   LCORR  =      T    Harris-Foulkes like correction to forces

   POTIM  = 0.5000    time-step for ionic-motion
   TEIN   =    0.0    initial temperature
   TEBEG  =    0.0;   TEEND  =   0.0 temperature during run
   SMASS  =  -3.00    Nose mass-parameter (am)
   estimated Nose-frequenzy (Omega)   =  0.10E-29 period in steps =****** mass=  -0.286E-27a.u.
   SCALEE = 1.0000    scale energy and forces
   NPACO  =    256;   APACO  = 16.0  distance and # of slots for P.C.
   PSTRESS=    0.0 pullay stress

  Mass of Ions in am
   POMASS =  30.97 28.09
  Ionic Valenz
   ZVAL   =   5.00  4.00
  Atomic Wigner-Seitz radii
   RWIGS  =  -1.00 -1.00
  virtual crystal weights 
   VCA    =   1.00  1.00
   NELECT =     108.0000    total number of electrons
   NUPDOWN=      -1.0000    fix difference up-down

 DOS related values:
   EMIN   =  10.00;   EMAX   =-10.00  energy-range for DOS
   EFERMI =   0.00
   ISMEAR =     0;   SIGMA  =   0.10  broadening in eV -4-tet -1-fermi 0-gaus

 Electronic relaxation 2 (details)
   IALGO  =     38    algorithm
   LDIAG  =      T    sub-space diagonalisation (order eigenvalues)
   LSUBROT=      F    optimize rotation matrix (better conditioning)
   TURBO    =      0    0=normal 1=particle mesh
   IRESTART =      0    0=no restart 2=restart with 2 vectors
   NREBOOT  =      0    no. of reboots
   NMIN     =      0    reboot dimension
   EREF     =   0.00    reference energy to select bands
   IMIX   =      4    mixing-type and parameters
     AMIX     =   0.40;   BMIX     =  1.00
     AMIX_MAG =   1.60;   BMIX_MAG =  1.00
     AMIN     =   0.10
     WC   =   100.;   INIMIX=   1;  MIXPRE=   1;  MAXMIX= -45

 Intra band minimization:
   WEIMIN = 0.0000     energy-eigenvalue tresh-hold
   EBREAK =  0.37E-08  absolut break condition
   DEPER  =   0.30     relativ break condition  

   TIME   =   0.40     timestep for ELM

  volume/ion in A,a.u.               =      41.76       281.83
  Fermi-wavevector in a.u.,A,eV,Ry     =   0.779018  1.472130  8.256946  0.606868
  Thomas-Fermi vector in A             =   1.882034
 
 Write flags
   LWAVE  =      F    write WAVECAR
   LCHARG =      F    write CHGCAR
   LVTOT  =      F    write LOCPOT, total local potential
   LVHAR  =      F    write LOCPOT, Hartree potential only
   LELF   =      F    write electronic localiz. function (ELF)
   LORBIT =      0    0 simple, 1 ext, 2 COOP (PROOUT)


 Dipole corrections
   LMONO  =      F    monopole corrections only (constant potential shift)
   LDIPOL =      F    correct potential (dipole corrections)
   IDIPOL =      0    1-x, 2-y, 3-z, 4-all directions 
   EPSILON=  1.0000000 bulk dielectric constant

 Exchange correlation treatment:
   GGA     =    BO    GGA type
   LEXCH   =    42    internal setting for exchange type
   VOSKOWN=      0    Vosko Wilk Nusair interpolation
   LHFCALC =     F    Hartree Fock is set to
   LHFONE  =     F    Hartree Fock one center treatment
   AEXX    =    0.0000 exact exchange contribution

 vdW DFT:
   LUSE_VDW   =     T    switch on vdW DFT
   Zab_VDW    =-.8491    correlation parameter
   PARAM1     =0.1833
   PARAM2     =0.2200
   PARAM3     =0.0000

 Linear response parameters
   LEPSILON=     F    determine dielectric tensor
   LRPA    =     F    only Hartree local field effects (RPA)
   LNABLA  =     F    use nabla operator in PAW spheres
   LVEL    =     F    velocity operator in full k-point grid
   LINTERFAST=   F  fast interpolation
   KINTER  =     0    interpolate to denser k-point grid
   CSHIFT  =0.1000    complex shift for real part using Kramers Kronig
   OMEGAMAX=  -1.0    maximum frequency
   DEG_THRESHOLD= 0.2000000E-02 threshold for treating states as degnerate
   RTIME   =    0.100 relaxation time in fs

 Orbital magnetization related:
   ORBITALMAG=     F  switch on orbital magnetization
   LCHIMAG   =     F  perturbation theory with respect to B field
   DQ        =  0.001000  dq finite difference perturbation B field



--------------------------------------------------------------------------------------------------------


 Static calculation
 charge density and potential will be updated during run
 non-spin polarized calculation
 Variant of blocked Davidson
 Davidson routine will perform the subspace rotation
 perform sub-space diagonalisation
    after iterative eigenvector-optimisation
 modified Broyden-mixing scheme, WC =      100.0
 initial mixing is a Kerker type mixing with AMIX =  0.4000 and BMIX =      1.0000
 Hartree-type preconditioning will be used
 using additional bands           14
 real space projection scheme for non local part
 use partial core corrections
 calculate Harris-corrections to forces 
   (improved forces if not selfconsistent)
 use gradient corrections 
 use of overlap-Matrix (Vanderbilt PP)
 Gauss-broadening in eV      SIGMA  =   0.10


--------------------------------------------------------------------------------------------------------


  energy-cutoff  :      300.00
  volume of cell :     1002.32
      direct lattice vectors                 reciprocal lattice vectors
     3.540400000  0.000000000  0.000000000     0.282453960  0.048570342  0.000000000
    -1.770200000 10.294348000  0.000000000     0.000000000  0.097140683  0.000000000
     0.000000000  0.000000000 27.501429000     0.000000000  0.000000000  0.036361747

  length of vectors
     3.540400000 10.445439617 27.501429000     0.286599577  0.097140683  0.036361747


 
 k-points in units of 2pi/SCALE and weight: pymatgen generated KPOINTS with grid den
   0.00000000  0.00000000  0.00000000       0.010
   0.02172723  0.00373618  0.00000000       0.019
   0.04345446  0.00747236  0.00000000       0.019
   0.06518168  0.01120854  0.00000000       0.019
   0.08690891  0.01494472  0.00000000       0.019
   0.10863614  0.01868090  0.00000000       0.019
   0.13036337  0.02241708  0.00000000       0.019
   0.00000000  0.02428517  0.00000000       0.019
   0.02172723  0.02802135  0.00000000       0.019
   0.04345446  0.03175753  0.00000000       0.019
   0.06518168  0.03549371  0.00000000       0.019
   0.08690891  0.03922989  0.00000000       0.019
   0.10863614  0.04296607  0.00000000       0.019
   0.13036337  0.04670225  0.00000000       0.019
  -0.13036337  0.00186809  0.00000000       0.019
  -0.10863614  0.00560427  0.00000000       0.019
  -0.08690891  0.00934045  0.00000000       0.019
  -0.06518168  0.01307663  0.00000000       0.019
  -0.04345446  0.01681281  0.00000000       0.019
  -0.02172723  0.02054899  0.00000000       0.019
   0.00000000  0.04857034  0.00000000       0.010
   0.02172723  0.05230652  0.00000000       0.019
   0.04345446  0.05604270  0.00000000       0.019
   0.06518168  0.05977888  0.00000000       0.019
   0.08690891  0.06351506  0.00000000       0.019
   0.10863614  0.06725124  0.00000000       0.019
   0.13036337  0.07098742  0.00000000       0.019
   0.00000000  0.00000000  0.01818087       0.010
   0.02172723  0.00373618  0.01818087       0.019
   0.04345446  0.00747236  0.01818087       0.019
   0.06518168  0.01120854  0.01818087       0.019
   0.08690891  0.01494472  0.01818087       0.019
   0.10863614  0.01868090  0.01818087       0.019
   0.13036337  0.02241708  0.01818087       0.019
   0.00000000  0.02428517  0.01818087       0.019
   0.02172723  0.02802135  0.01818087       0.019
   0.04345446  0.03175753  0.01818087       0.019
   0.06518168  0.03549371  0.01818087       0.019
   0.08690891  0.03922989  0.01818087       0.019
   0.10863614  0.04296607  0.01818087       0.019
   0.13036337  0.04670225  0.01818087       0.019
  -0.13036337  0.00186809  0.01818087       0.019
  -0.10863614  0.00560427  0.01818087       0.019
  -0.08690891  0.00934045  0.01818087       0.019
  -0.06518168  0.01307663  0.01818087       0.019
  -0.04345446  0.01681281  0.01818087       0.019
  -0.02172723  0.02054899  0.01818087       0.019
   0.00000000  0.04857034  0.01818087       0.010
   0.02172723  0.05230652  0.01818087       0.019
   0.04345446  0.05604270  0.01818087       0.019
   0.06518168  0.05977888  0.01818087       0.019
   0.08690891  0.06351506  0.01818087       0.019
   0.10863614  0.06725124  0.01818087       0.019
   0.13036337  0.07098742  0.01818087       0.019
 
 k-points in reciprocal lattice and weights: pymatgen generated KPOINTS with grid den
   0.00000000  0.00000000  0.00000000       0.010
   0.07692308 -0.00000000  0.00000000       0.019
   0.15384615 -0.00000000  0.00000000       0.019
   0.23076923 -0.00000000  0.00000000       0.019
   0.30769231 -0.00000000  0.00000000       0.019
   0.38461538 -0.00000000  0.00000000       0.019
   0.46153846 -0.00000000  0.00000000       0.019
   0.00000000  0.25000000  0.00000000       0.019
   0.07692308  0.25000000  0.00000000       0.019
   0.15384615  0.25000000  0.00000000       0.019
   0.23076923  0.25000000  0.00000000       0.019
   0.30769231  0.25000000  0.00000000       0.019
   0.38461538  0.25000000  0.00000000       0.019
   0.46153846  0.25000000  0.00000000       0.019
  -0.46153846  0.25000000  0.00000000       0.019
  -0.38461538  0.25000000  0.00000000       0.019
  -0.30769231  0.25000000  0.00000000       0.019
  -0.23076923  0.25000000  0.00000000       0.019
  -0.15384615  0.25000000  0.00000000       0.019
  -0.07692308  0.25000000  0.00000000       0.019
   0.00000000  0.50000000  0.00000000       0.010
   0.07692308  0.50000000  0.00000000       0.019
   0.15384615  0.50000000  0.00000000       0.019
   0.23076923  0.50000000  0.00000000       0.019
   0.30769231  0.50000000  0.00000000       0.019
   0.38461538  0.50000000  0.00000000       0.019
   0.46153846  0.50000000  0.00000000       0.019
   0.00000000  0.00000000  0.50000000       0.010
   0.07692308 -0.00000000  0.50000000       0.019
   0.15384615 -0.00000000  0.50000000       0.019
   0.23076923 -0.00000000  0.50000000       0.019
   0.30769231 -0.00000000  0.50000000       0.019
   0.38461538 -0.00000000  0.50000000       0.019
   0.46153846 -0.00000000  0.50000000       0.019
   0.00000000  0.25000000  0.50000000       0.019
   0.07692308  0.25000000  0.50000000       0.019
   0.15384615  0.25000000  0.50000000       0.019
   0.23076923  0.25000000  0.50000000       0.019
   0.30769231  0.25000000  0.50000000       0.019
   0.38461538  0.25000000  0.50000000       0.019
   0.46153846  0.25000000  0.50000000       0.019
  -0.46153846  0.25000000  0.50000000       0.019
  -0.38461538  0.25000000  0.50000000       0.019
  -0.30769231  0.25000000  0.50000000       0.019
  -0.23076923  0.25000000  0.50000000       0.019
  -0.15384615  0.25000000  0.50000000       0.019
  -0.07692308  0.25000000  0.50000000       0.019
   0.00000000  0.50000000  0.50000000       0.010
   0.07692308  0.50000000  0.50000000       0.019
   0.15384615  0.50000000  0.50000000       0.019
   0.23076923  0.50000000  0.50000000       0.019
   0.30769231  0.50000000  0.50000000       0.019
   0.38461538  0.50000000  0.50000000       0.019
   0.46153846  0.50000000  0.50000000       0.019
 
 position of ions in fractional coordinates (direct lattice) 
   0.11402300  0.22804500  0.23316207
   0.41402300  0.92804500  0.51499159
   0.45808900  0.91617900  0.20939482
   0.75808900  0.61617900  0.49122434
   0.31085400  0.62170900  0.08414979
   0.31085400  0.62170900  0.36597930
   0.99923000  0.99846000  0.08631254
   0.99923000  0.99846000  0.36814206
   0.65492700  0.30985400  0.06041748
   0.65492700  0.30985400  0.34224700
   0.76973800  0.53947500  0.20725292
   0.06973800  0.23947500  0.48908244
   0.93971600  0.87943300  0.15783749
   0.23971600  0.57943300  0.43966701
   0.20515200  0.41030300  0.18578822
   0.50515200  0.11030300  0.46761774
   0.20184900  0.40369900  0.09969156
   0.20184900  0.40369900  0.38152107
   0.56380500  0.12761000  0.10779021
   0.56380500  0.12761000  0.38961973
   0.56710600  0.13421200  0.19387616
   0.86710600  0.83421200  0.47570568
   0.82923400  0.65846800  0.13571444
   0.12923400  0.35846800  0.41754396
 
 position of ions in cartesian coordinates  (Angst):
   0.00000177  2.34757459  6.41229012
  -0.17701823  9.55361819 14.16300462
  -0.00000177  9.43146546  5.75865686
   1.59317823  6.34316106 13.50937136
  -0.00000177  6.40008880  2.31423934
  -0.00000177  6.40008880 10.06495384
   1.77020000 10.27849470  2.37371832
   1.77020000 10.27849470 10.12443282
   1.77020000  3.18974491  1.66156717
   1.77020000  3.18974491  9.41228167
   1.77020177  5.55354339  5.69975143
  -0.17701823  2.46523899 13.45046593
   1.77019823  9.05318934  4.34075665
  -0.17702177  5.96488494 12.09147115
   0.00000177  4.22380187  5.10944151
   1.59318177  1.13549747 12.86015601
  -0.00000177  4.15581799  2.74166024
  -0.00000177  4.15581799 10.49237474
   1.77020000  1.31366175  2.96438477
   1.77020000  1.31366175 10.71509927
   1.77020000  1.38162503  5.33187152
   1.59318000  8.58766863 13.08258602
   1.77020000  6.77849874  3.73234107
  -0.17702000  3.69019434 11.48305557
 


--------------------------------------------------------------------------------------------------------


 k-point  1 :   0.0000 0.0000 0.0000  plane waves:   11717
 k-point  2 :   0.0769-0.0000 0.0000  plane waves:   11762
 k-point  3 :   0.1538-0.0000 0.0000  plane waves:   11805
 k-point  4 :   0.2308-0.0000 0.0000  plane waves:   11824
 k-point  5 :   0.3077-0.0000 0.0000  plane waves:   11875
 k-point  6 :   0.3846-0.0000 0.0000  plane waves:   11864
 k-point  7 :   0.4615-0.0000 0.0000  plane waves:   11883
 k-point  8 :   0.0000 0.2500 0.0000  plane waves:   11683
 k-point  9 :   0.0769 0.2500 0.0000  plane waves:   11756
 k-point 10 :   0.1538 0.2500 0.0000  plane waves:   11807
 k-point 11 :   0.2308 0.2500 0.0000  plane waves:   11853
 k-point 12 :   0.3077 0.2500 0.0000  plane waves:   11866
 k-point 13 :   0.3846 0.2500 0.0000  plane waves:   11889
 k-point 14 :   0.4615 0.2500 0.0000  plane waves:   11885
 k-point 15 :  -0.4615 0.2500 0.0000  plane waves:   11886
 k-point 16 :  -0.3846 0.2500 0.0000  plane waves:   11867
 k-point 17 :  -0.3077 0.2500 0.0000  plane waves:   11849
 k-point 18 :  -0.2308 0.2500 0.0000  plane waves:   11827
 k-point 19 :  -0.1538 0.2500 0.0000  plane waves:   11801
 k-point 20 :  -0.0769 0.2500 0.0000  plane waves:   11757
 k-point 21 :   0.0000 0.5000 0.0000  plane waves:   11710
 k-point 22 :   0.0769 0.5000 0.0000  plane waves:   11762
 k-point 23 :   0.1538 0.5000 0.0000  plane waves:   11782
 k-point 24 :   0.2308 0.5000 0.0000  plane waves:   11841
 k-point 25 :   0.3077 0.5000 0.0000  plane waves:   11876
 k-point 26 :   0.3846 0.5000 0.0000  plane waves:   11889
 k-point 27 :   0.4615 0.5000 0.0000  plane waves:   11881
 k-point 28 :   0.0000 0.0000 0.5000  plane waves:   11698
 k-point 29 :   0.0769-0.0000 0.5000  plane waves:   11752
 k-point 30 :   0.1538-0.0000 0.5000  plane waves:   11800
 k-point 31 :   0.2308-0.0000 0.5000  plane waves:   11834
 k-point 32 :   0.3077-0.0000 0.5000  plane waves:   11850
 k-point 33 :   0.3846-0.0000 0.5000  plane waves:   11888
 k-point 34 :   0.4615-0.0000 0.5000  plane waves:   11896
 k-point 35 :   0.0000 0.2500 0.5000  plane waves:   11714
 k-point 36 :   0.0769 0.2500 0.5000  plane waves:   11754
 k-point 37 :   0.1538 0.2500 0.5000  plane waves:   11802
 k-point 38 :   0.2308 0.2500 0.5000  plane waves:   11840
 k-point 39 :   0.3077 0.2500 0.5000  plane waves:   11858
 k-point 40 :   0.3846 0.2500 0.5000  plane waves:   11896
 k-point 41 :   0.4615 0.2500 0.5000  plane waves:   11886
 k-point 42 :  -0.4615 0.2500 0.5000  plane waves:   11852
 k-point 43 :  -0.3846 0.2500 0.5000  plane waves:   11838
 k-point 44 :  -0.3077 0.2500 0.5000  plane waves:   11842
 k-point 45 :  -0.2308 0.2500 0.5000  plane waves:   11840
 k-point 46 :  -0.1538 0.2500 0.5000  plane waves:   11804
 k-point 47 :  -0.0769 0.2500 0.5000  plane waves:   11748
 k-point 48 :   0.0000 0.5000 0.5000  plane waves:   11724
 k-point 49 :   0.0769 0.5000 0.5000  plane waves:   11748
 k-point 50 :   0.1538 0.5000 0.5000  plane waves:   11814
 k-point 51 :   0.2308 0.5000 0.5000  plane waves:   11832
 k-point 52 :   0.3077 0.5000 0.5000  plane waves:   11868
 k-point 53 :   0.3846 0.5000 0.5000  plane waves:   11892
 k-point 54 :   0.4615 0.5000 0.5000  plane waves:   11878

 maximum and minimum number of plane-waves per node :      5964     5832

 maximum number of plane-waves:     11896
 maximum index in each direction: 
   IXMAX=    5   IYMAX=   14   IZMAX=   38
   IXMIN=   -5   IYMIN=  -15   IZMIN=  -39

 WARNING: aliasing errors must be expected set NGX to  22 to avoid them
 NGY is ok and might be reduce to  60
 NGZ is ok and might be reduce to 156
 aliasing errors are usually negligible using standard VASP settings
 and one can safely disregard these warnings

 real space projection operators:
  total allocation   :       3793.25 KBytes
  max/ min on nodes  :       1899.38       1893.88


 parallel 3D FFT for wavefunctions:
    minimum data exchange during FFTs selected (reduces bandwidth)
 parallel 3D FFT for charge:
    minimum data exchange during FFTs selected (reduces bandwidth)


 total amount of memory used by VASP on root node   146493. kBytes
========================================================================

   base      :      30000. kBytes
   nonlr-proj:       3452. kBytes
   fftplans  :       9347. kBytes
   grid      :      14649. kBytes
   one-center:         36. kBytes
   wavefun   :      89009. kBytes
 
     INWAV:  cpu time    0.00: real time    0.00
 Broyden mixing: mesh for mixing (old mesh)
   NGX =  9   NGY = 29   NGZ = 77
  (NGX  = 40   NGY  =120   NGZ  =320)
  gives a total of  20097 points

 initial charge density was supplied:
 charge density of overlapping atoms calculated
 number of electron     108.0000000 magnetization 
 keeping initial charge density in first step


--------------------------------------------------------------------------------------------------------


 Maximum index for non-local projection operator         1333
 Maximum index for augmentation-charges          822 (set IRDMAX)


--------------------------------------------------------------------------------------------------------


 First call to EWALD:  gamma=   0.177
 Maximum number of real-space cells 7x 3x 1
 Maximum number of reciprocal cells 1x 3x 7

 FEWALD executed in parallel
    FEWALD:  cpu time    0.00: real time    0.00


----------------------------------------- Iteration    1(   1)  ---------------------------------------


vdW kernel read from vdw_kernel.bindat
  0.0000  0.2424  0.5071  0.7962  1.1119  1.4567  1.8333  2.2446  2.6937  3.1842
  3.7199  4.3049  4.9438  5.6415  6.4036  7.2358  8.1446  9.1372 10.2212 11.4050
 12.6979 14.1099 15.6519 17.3360 19.1751 21.1837 23.3773 25.7729 28.3892 31.2465
 34.3669 37.7748 41.4965 45.5611 50.0000
 
    POTLOK:  cpu time   16.35: real time   16.35
    SETDIJ:  cpu time    0.02: real time    0.02
     EDDAV:  cpu time   58.32: real time   58.33
       DOS:  cpu time    0.01: real time    0.01
    --------------------------------------------
      LOOP:  cpu time   74.69: real time   74.72

 eigenvalue-minimisations  :  7344
 total energy-change (2. order) : 0.5459280E+03  (-0.2875256E+04)
 number of electron     108.0000000 magnetization 
 augmentation part      108.0000000 magnetization 

 Free energy of the ion-electron system (eV)
  ---------------------------------------------------
  alpha Z        PSCENC =        36.80884744
  Ewald energy   TEWEN  =     12053.68635705
  -Hartree energ DENC   =    -15040.84203749
  -exchange      EXHF   =         0.00000000
  -V(xc)+E(xc)   XCENC  =       -87.38587462
  PAW double counting   =      1056.43050070     -732.41190547
  entropy T*S    EENTRO =        -0.04572582
  eigenvalues    EBANDS =       -94.35343167
  atomic energy  EATOM  =      3354.04126044
  ---------------------------------------------------
  free energy    TOTEN  =       545.92799057 eV

  energy without entropy =      545.97371639  energy(sigma->0) =      545.95085348


--------------------------------------------------------------------------------------------------------




----------------------------------------- Iteration    1(   2)  ---------------------------------------


     EDDAV:  cpu time   72.83: real time   72.84
       DOS:  cpu time    0.01: real time    0.01
    --------------------------------------------
      LOOP:  cpu time   72.84: real time   72.86

 eigenvalue-minimisations  :  9840
 total energy-change (2. order) :-0.5700812E+03  (-0.5550886E+03)
 number of electron     108.0000000 magnetization 
 augmentation part      108.0000000 magnetization 

 Free energy of the ion-electron system (eV)
  ---------------------------------------------------
  alpha Z        PSCENC =        36.80884744
  Ewald energy   TEWEN  =     12053.68635705
  -Hartree energ DENC   =    -15040.84203749
  -exchange      EXHF   =         0.00000000
  -V(xc)+E(xc)   XCENC  =       -87.38587462
  PAW double counting   =      1056.43050070     -732.41190547
  entropy T*S    EENTRO =        -0.01533463
  eigenvalues    EBANDS =      -664.46501982
  atomic energy  EATOM  =      3354.04126044
  ---------------------------------------------------
  free energy    TOTEN  =       -24.15320640 eV

  energy without entropy =      -24.13787176  energy(sigma->0) =      -24.14553908


--------------------------------------------------------------------------------------------------------




----------------------------------------- Iteration    1(   3)  ---------------------------------------


     EDDAV:  cpu time   71.23: real time   71.24
       DOS:  cpu time    0.01: real time    0.01
    --------------------------------------------
      LOOP:  cpu time   71.24: real time   71.26

 eigenvalue-minimisations  :  9536
 total energy-change (2. order) :-0.6061014E+02  (-0.5973673E+02)
 number of electron     108.0000000 magnetization 
 augmentation part      108.0000000 magnetization 

 Free energy of the ion-electron system (eV)
  ---------------------------------------------------
  alpha Z        PSCENC =        36.80884744
  Ewald energy   TEWEN  =     12053.68635705
  -Hartree energ DENC   =    -15040.84203749
  -exchange      EXHF   =         0.00000000
  -V(xc)+E(xc)   XCENC  =       -87.38587462
  PAW double counting   =      1056.43050070     -732.41190547
  entropy T*S    EENTRO =        -0.01184391
  eigenvalues    EBANDS =      -725.07865505
  atomic energy  EATOM  =      3354.04126044
  ---------------------------------------------------
  free energy    TOTEN  =       -84.76335090 eV

  energy without entropy =      -84.75150699  energy(sigma->0) =      -84.75742894


--------------------------------------------------------------------------------------------------------




----------------------------------------- Iteration    1(   4)  ---------------------------------------


     EDDAV:  cpu time   81.25: real time   81.27
       DOS:  cpu time    0.01: real time    0.01
    --------------------------------------------
      LOOP:  cpu time   81.26: real time   81.28

 eigenvalue-minimisations  : 11248
 total energy-change (2. order) :-0.2813542E+01  (-0.2789673E+01)
 number of electron     108.0000000 magnetization 
 augmentation part      108.0000000 magnetization 

 Free energy of the ion-electron system (eV)
  ---------------------------------------------------
  alpha Z        PSCENC =        36.80884744
  Ewald energy   TEWEN  =     12053.68635705
  -Hartree energ DENC   =    -15040.84203749
  -exchange      EXHF   =         0.00000000
  -V(xc)+E(xc)   XCENC  =       -87.38587462
  PAW double counting   =      1056.43050070     -732.41190547
  entropy T*S    EENTRO =        -0.01538589
  eigenvalues    EBANDS =      -727.88865484
  atomic energy  EATOM  =      3354.04126044
  ---------------------------------------------------
  free energy    TOTEN  =       -87.57689267 eV

  energy without entropy =      -87.56150678  energy(sigma->0) =      -87.56919972


--------------------------------------------------------------------------------------------------------




----------------------------------------- Iteration    1(   5)  ---------------------------------------


     EDDAV:  cpu time   76.26: real time   76.28
       DOS:  cpu time    0.01: real time    0.01
    CHARGE:  cpu time    4.03: real time    4.03
    MIXING:  cpu time    0.01: real time    0.01
    --------------------------------------------
      LOOP:  cpu time   80.32: real time   80.33

 eigenvalue-minimisations  : 10408
 total energy-change (2. order) :-0.5245493E-01  (-0.5237641E-01)
 number of electron     107.9999994 magnetization 
 augmentation part       -9.7760071 magnetization 

 Broyden mixing:
  rms(total) = 0.13793E+01    rms(broyden)= 0.13775E+01
  rms(prec ) = 0.14981E+01
  weight for this iteration     100.00

 Free energy of the ion-electron system (eV)
  ---------------------------------------------------
  alpha Z        PSCENC =        36.80884744
  Ewald energy   TEWEN  =     12053.68635705
  -Hartree energ DENC   =    -15040.84203749
  -exchange      EXHF   =         0.00000000
  -V(xc)+E(xc)   XCENC  =       -87.38587462
  PAW double counting   =      1056.43050070     -732.41190547
  entropy T*S    EENTRO =        -0.01554297
  eigenvalues    EBANDS =      -727.94095269
  atomic energy  EATOM  =      3354.04126044
  ---------------------------------------------------
  free energy    TOTEN  =       -87.62934760 eV

  energy without entropy =      -87.61380462  energy(sigma->0) =      -87.62157611


--------------------------------------------------------------------------------------------------------




----------------------------------------- Iteration    1(   6)  ---------------------------------------


    POTLOK:  cpu time   14.63: real time   14.63
    SETDIJ:  cpu time    0.01: real time    0.01
     EDDAV:  cpu time   70.53: real time   70.54
       DOS:  cpu time    0.01: real time    0.01
    CHARGE:  cpu time    4.10: real time    4.10
    MIXING:  cpu time    0.01: real time    0.01
    --------------------------------------------
      LOOP:  cpu time   89.30: real time   89.32

 eigenvalue-minimisations  :  9292
 total energy-change (2. order) : 0.5723535E+01  (-0.1663389E+01)
 number of electron     107.9999994 magnetization 
 augmentation part       -9.5770203 magnetization 

 Broyden mixing:
  rms(total) = 0.65200E+00    rms(broyden)= 0.65195E+00
  rms(prec ) = 0.70306E+00
  weight for this iteration     100.00

 eigenvalues of (default mixing * dielectric matrix)
  average eigenvalue GAMMA=   1.4584
  1.4584

 Free energy of the ion-electron system (eV)
  ---------------------------------------------------
  alpha Z        PSCENC =        36.80884744
  Ewald energy   TEWEN  =     12053.68635705
  -Hartree energ DENC   =    -15105.58024714
  -exchange      EXHF   =         0.00000000
  -V(xc)+E(xc)   XCENC  =       -83.84010788
  PAW double counting   =      1135.10205564     -813.54577608
  entropy T*S    EENTRO =        -0.02774827
  eigenvalues    EBANDS =      -658.55045410
  atomic energy  EATOM  =      3354.04126044
  ---------------------------------------------------
  free energy    TOTEN  =       -81.90581289 eV

  energy without entropy =      -81.87806462  energy(sigma->0) =      -81.89193875


--------------------------------------------------------------------------------------------------------




----------------------------------------- Iteration    1(   7)  ---------------------------------------


    POTLOK:  cpu time   14.84: real time   14.84
    SETDIJ:  cpu time    0.02: real time    0.02
     EDDAV:  cpu time   66.13: real time   66.15
       DOS:  cpu time    0.01: real time    0.01
    CHARGE:  cpu time    4.12: real time    4.12
    MIXING:  cpu time    0.01: real time    0.01
    --------------------------------------------
      LOOP:  cpu time   85.13: real time   85.15

 eigenvalue-minimisations  :  8536
 total energy-change (2. order) :-0.2280915E+00  (-0.1256016E+01)
 number of electron     107.9999994 magnetization 
 augmentation part       -9.4708783 magnetization 

 Broyden mixing:
  rms(total) = 0.33880E+00    rms(broyden)= 0.33846E+00
  rms(prec ) = 0.37634E+00
  weight for this iteration     100.00

 eigenvalues of (default mixing * dielectric matrix)
  average eigenvalue GAMMA=   1.1985
  0.8397  1.5573

 Free energy of the ion-electron system (eV)
  ---------------------------------------------------
  alpha Z        PSCENC =        36.80884744
  Ewald energy   TEWEN  =     12053.68635705
  -Hartree energ DENC   =    -15112.85633172
  -exchange      EXHF   =         0.00000000
  -V(xc)+E(xc)   XCENC  =       -81.21272089
  PAW double counting   =      1182.74716403     -862.62548179
  entropy T*S    EENTRO =        -0.01167403
  eigenvalues    EBANDS =      -652.71132492
  atomic energy  EATOM  =      3354.04126044
  ---------------------------------------------------
  free energy    TOTEN  =       -82.13390438 eV

  energy without entropy =      -82.12223034  energy(sigma->0) =      -82.12806736


--------------------------------------------------------------------------------------------------------




----------------------------------------- Iteration    1(   8)  ---------------------------------------


    POTLOK:  cpu time   14.96: real time   14.97
    SETDIJ:  cpu time    0.02: real time    0.02
     EDDAV:  cpu time   68.89: real time   68.90
       DOS:  cpu time    0.01: real time    0.01
    CHARGE:  cpu time    4.09: real time    4.09
    MIXING:  cpu time    0.01: real time    0.01
    --------------------------------------------
      LOOP:  cpu time   87.98: real time   88.00

 eigenvalue-minimisations  :  8896
 total energy-change (2. order) : 0.9081050E-01  (-0.2309661E+00)
 number of electron     107.9999994 magnetization 
 augmentation part       -9.4485089 magnetization 

 Broyden mixing:
  rms(total) = 0.19397E+00    rms(broyden)= 0.19392E+00
  rms(prec ) = 0.20410E+00
  weight for this iteration     100.00

 eigenvalues of (default mixing * dielectric matrix)
  average eigenvalue GAMMA=   1.3432
  2.0075  1.3234  0.6986

 Free energy of the ion-electron system (eV)
  ---------------------------------------------------
  alpha Z        PSCENC =        36.80884744
  Ewald energy   TEWEN  =     12053.68635705
  -Hartree energ DENC   =    -15131.66412436
  -exchange      EXHF   =         0.00000000
  -V(xc)+E(xc)   XCENC  =       -80.07208691
  PAW double counting   =      1197.79420725     -878.10277745
  entropy T*S    EENTRO =        -0.01117148
  eigenvalues    EBANDS =      -634.52360586
  atomic energy  EATOM  =      3354.04126044
  ---------------------------------------------------
  free energy    TOTEN  =       -82.04309387 eV

  energy without entropy =      -82.03192239  energy(sigma->0) =      -82.03750813


--------------------------------------------------------------------------------------------------------




----------------------------------------- Iteration    1(   9)  ---------------------------------------


    POTLOK:  cpu time   14.90: real time   14.90
    SETDIJ:  cpu time    0.01: real time    0.02
     EDDAV:  cpu time   69.50: real time   69.51
       DOS:  cpu time    0.01: real time    0.01
    CHARGE:  cpu time    4.08: real time    4.09
    MIXING:  cpu time    0.01: real time    0.01
    --------------------------------------------
      LOOP:  cpu time   88.53: real time   88.54

 eigenvalue-minimisations  :  9144
 total energy-change (2. order) :-0.7964755E-02  (-0.6031125E-01)
 number of electron     107.9999994 magnetization 
 augmentation part       -9.4430975 magnetization 

 Broyden mixing:
  rms(total) = 0.77513E-01    rms(broyden)= 0.77497E-01
  rms(prec ) = 0.83175E-01
  weight for this iteration     100.00

 eigenvalues of (default mixing * dielectric matrix)
  average eigenvalue GAMMA=   1.3090
  2.4198  1.0553  1.0553  0.7055

 Free energy of the ion-electron system (eV)
  ---------------------------------------------------
  alpha Z        PSCENC =        36.80884744
  Ewald energy   TEWEN  =     12053.68635705
  -Hartree energ DENC   =    -15140.08733591
  -exchange      EXHF   =         0.00000000
  -V(xc)+E(xc)   XCENC  =       -79.17386165
  PAW double counting   =      1204.88842633     -885.42413200
  entropy T*S    EENTRO =        -0.01136721
  eigenvalues    EBANDS =      -626.77925313
  atomic energy  EATOM  =      3354.04126044
  ---------------------------------------------------
  free energy    TOTEN  =       -82.05105863 eV

  energy without entropy =      -82.03969142  energy(sigma->0) =      -82.04537503


--------------------------------------------------------------------------------------------------------




----------------------------------------- Iteration    1(  10)  ---------------------------------------


    POTLOK:  cpu time   14.95: real time   14.96
    SETDIJ:  cpu time    0.02: real time    0.02
     EDDAV:  cpu time   67.02: real time   67.03
       DOS:  cpu time    0.01: real time    0.01
    CHARGE:  cpu time    4.08: real time    4.08
    MIXING:  cpu time    0.01: real time    0.01
    --------------------------------------------
      LOOP:  cpu time   86.09: real time   86.11

 eigenvalue-minimisations  :  8736
 total energy-change (2. order) :-0.4832863E-02  (-0.9124264E-02)
 number of electron     107.9999994 magnetization 
 augmentation part       -9.4382543 magnetization 

 Broyden mixing:
  rms(total) = 0.30868E-01    rms(broyden)= 0.30833E-01
  rms(prec ) = 0.33176E-01
  weight for this iteration     100.00

 eigenvalues of (default mixing * dielectric matrix)
  average eigenvalue GAMMA=   1.3271
  2.5430  1.2149  1.2149  0.9570  0.7058

 Free energy of the ion-electron system (eV)
  ---------------------------------------------------
  alpha Z        PSCENC =        36.80884744
  Ewald energy   TEWEN  =     12053.68635705
  -Hartree energ DENC   =    -15144.19806103
  -exchange      EXHF   =         0.00000000
  -V(xc)+E(xc)   XCENC  =       -78.79267917
  PAW double counting   =      1207.12317294     -887.74637007
  entropy T*S    EENTRO =        -0.01266346
  eigenvalues    EBANDS =      -622.96575563
  atomic energy  EATOM  =      3354.04126044
  ---------------------------------------------------
  free energy    TOTEN  =       -82.05589149 eV

  energy without entropy =      -82.04322803  energy(sigma->0) =      -82.04955976


--------------------------------------------------------------------------------------------------------




----------------------------------------- Iteration    1(  11)  ---------------------------------------


    POTLOK:  cpu time   14.96: real time   14.97
    SETDIJ:  cpu time    0.01: real time    0.02
     EDDAV:  cpu time   70.65: real time   70.66
       DOS:  cpu time    0.01: real time    0.01
    CHARGE:  cpu time    4.09: real time    4.09
    MIXING:  cpu time    0.01: real time    0.01
    --------------------------------------------
      LOOP:  cpu time   89.74: real time   89.76

 eigenvalue-minimisations  :  9288
 total energy-change (2. order) : 0.9454525E-02  (-0.2514781E-02)
 number of electron     107.9999994 magnetization 
 augmentation part       -9.4389529 magnetization 

 Broyden mixing:
  rms(total) = 0.13716E-01    rms(broyden)= 0.13712E-01
  rms(prec ) = 0.15484E-01
  weight for this iteration     100.00

 eigenvalues of (default mixing * dielectric matrix)
  average eigenvalue GAMMA=   1.3308
  2.5917  1.6657  1.0687  1.0687  0.7072  0.8826

 Free energy of the ion-electron system (eV)
  ---------------------------------------------------
  alpha Z        PSCENC =        36.80884744
  Ewald energy   TEWEN  =     12053.68635705
  -Hartree energ DENC   =    -15145.53783716
  -exchange      EXHF   =         0.00000000
  -V(xc)+E(xc)   XCENC  =       -78.71535158
  PAW double counting   =      1205.51518608     -886.10317446
  entropy T*S    EENTRO =        -0.01217891
  eigenvalues    EBANDS =      -621.72954587
  atomic energy  EATOM  =      3354.04126044
  ---------------------------------------------------
  free energy    TOTEN  =       -82.04643697 eV

  energy without entropy =      -82.03425806  energy(sigma->0) =      -82.04034751


--------------------------------------------------------------------------------------------------------




----------------------------------------- Iteration    1(  12)  ---------------------------------------


    POTLOK:  cpu time   14.64: real time   14.65
    SETDIJ:  cpu time    0.02: real time    0.02
     EDDAV:  cpu time   68.91: real time   68.93
       DOS:  cpu time    0.01: real time    0.01
    CHARGE:  cpu time    4.09: real time    4.09
    MIXING:  cpu time    0.01: real time    0.01
    --------------------------------------------
      LOOP:  cpu time   87.69: real time   87.71

 eigenvalue-minimisations  :  8976
 total energy-change (2. order) : 0.1062233E-01  (-0.4216373E-03)
 number of electron     107.9999994 magnetization 
 augmentation part       -9.4412047 magnetization 

 Broyden mixing:
  rms(total) = 0.58477E-02    rms(broyden)= 0.58452E-02
  rms(prec ) = 0.71797E-02
  weight for this iteration     100.00

 eigenvalues of (default mixing * dielectric matrix)
  average eigenvalue GAMMA=   1.3408
  2.6619  1.9567  1.0860  1.0860  0.7060  0.9447  0.9447

 Free energy of the ion-electron system (eV)
  ---------------------------------------------------
  alpha Z        PSCENC =        36.80884744
  Ewald energy   TEWEN  =     12053.68635705
  -Hartree energ DENC   =    -15146.65845575
  -exchange      EXHF   =         0.00000000
  -V(xc)+E(xc)   XCENC  =       -78.70300107
  PAW double counting   =      1203.86673632     -884.40956557
  entropy T*S    EENTRO =        -0.01236738
  eigenvalues    EBANDS =      -620.65562613
  atomic energy  EATOM  =      3354.04126044
  ---------------------------------------------------
  free energy    TOTEN  =       -82.03581464 eV

  energy without entropy =      -82.02344726  energy(sigma->0) =      -82.02963095


--------------------------------------------------------------------------------------------------------




----------------------------------------- Iteration    1(  13)  ---------------------------------------


    POTLOK:  cpu time   15.00: real time   15.00
    SETDIJ:  cpu time    0.02: real time    0.02
     EDDAV:  cpu time   71.03: real time   71.05
       DOS:  cpu time    0.01: real time    0.01
    CHARGE:  cpu time    4.10: real time    4.10
    MIXING:  cpu time    0.01: real time    0.01
    --------------------------------------------
      LOOP:  cpu time   90.17: real time   90.19

 eigenvalue-minimisations  :  9336
 total energy-change (2. order) : 0.4970655E-02  (-0.9427137E-04)
 number of electron     107.9999994 magnetization 
 augmentation part       -9.4415763 magnetization 

 Broyden mixing:
  rms(total) = 0.28789E-02    rms(broyden)= 0.28782E-02
  rms(prec ) = 0.41849E-02
  weight for this iteration     100.00

 eigenvalues of (default mixing * dielectric matrix)
  average eigenvalue GAMMA=   1.3614
  2.7125  2.0269  1.4908  1.0570  1.0570  0.7017  0.9227  0.9227

 Free energy of the ion-electron system (eV)
  ---------------------------------------------------
  alpha Z        PSCENC =        36.80884744
  Ewald energy   TEWEN  =     12053.68635705
  -Hartree energ DENC   =    -15147.46169713
  -exchange      EXHF   =         0.00000000
  -V(xc)+E(xc)   XCENC  =       -78.69583815
  PAW double counting   =      1203.12612917     -883.64913739
  entropy T*S    EENTRO =        -0.01230581
  eigenvalues    EBANDS =      -619.87445963
  atomic energy  EATOM  =      3354.04126044
  ---------------------------------------------------
  free energy    TOTEN  =       -82.03084398 eV

  energy without entropy =      -82.01853818  energy(sigma->0) =      -82.02469108


--------------------------------------------------------------------------------------------------------




----------------------------------------- Iteration    1(  14)  ---------------------------------------


    POTLOK:  cpu time   14.99: real time   14.99
    SETDIJ:  cpu time    0.02: real time    0.02
     EDDAV:  cpu time   72.89: real time   72.90
       DOS:  cpu time    0.01: real time    0.01
    CHARGE:  cpu time    4.10: real time    4.10
    MIXING:  cpu time    0.01: real time    0.01
    --------------------------------------------
      LOOP:  cpu time   92.02: real time   92.04

 eigenvalue-minimisations  :  9632
 total energy-change (2. order) : 0.2405947E-02  (-0.2370779E-04)
 number of electron     107.9999994 magnetization 
 augmentation part       -9.4411696 magnetization 

 Broyden mixing:
  rms(total) = 0.16074E-02    rms(broyden)= 0.16067E-02
  rms(prec ) = 0.26567E-02
  weight for this iteration     100.00

 eigenvalues of (default mixing * dielectric matrix)
  average eigenvalue GAMMA=   1.4032
  2.7941  2.4912  1.6631  1.0709  1.0709  1.0009  1.0009  0.7002  0.8368

 Free energy of the ion-electron system (eV)
  ---------------------------------------------------
  alpha Z        PSCENC =        36.80884744
  Ewald energy   TEWEN  =     12053.68635705
  -Hartree energ DENC   =    -15148.40067804
  -exchange      EXHF   =         0.00000000
  -V(xc)+E(xc)   XCENC  =       -78.68873118
  PAW double counting   =      1202.84126742     -883.35734377
  entropy T*S    EENTRO =        -0.01233326
  eigenvalues    EBANDS =      -618.94708416
  atomic energy  EATOM  =      3354.04126044
  ---------------------------------------------------
  free energy    TOTEN  =       -82.02843804 eV

  energy without entropy =      -82.01610477  energy(sigma->0) =      -82.02227141


--------------------------------------------------------------------------------------------------------




----------------------------------------- Iteration    1(  15)  ---------------------------------------


    POTLOK:  cpu time   14.93: real time   14.93
    SETDIJ:  cpu time    0.01: real time    0.02
     EDDAV:  cpu time   71.19: real time   71.20
       DOS:  cpu time    0.01: real time    0.01
    CHARGE:  cpu time    4.10: real time    4.10
    MIXING:  cpu time    0.01: real time    0.01
    --------------------------------------------
      LOOP:  cpu time   90.26: real time   90.28

 eigenvalue-minimisations  :  9432
 total energy-change (2. order) : 0.1610210E-02  (-0.9141474E-05)
 number of electron     107.9999994 magnetization 
 augmentation part       -9.4410199 magnetization 

 Broyden mixing:
  rms(total) = 0.96052E-03    rms(broyden)= 0.96046E-03
  rms(prec ) = 0.16641E-02
  weight for this iteration     100.00

 eigenvalues of (default mixing * dielectric matrix)
  average eigenvalue GAMMA=   1.4572
  3.1314  2.5742  1.5826  1.5826  1.0695  1.0695  0.7021  0.8714  0.9944  0.9944

 Free energy of the ion-electron system (eV)
  ---------------------------------------------------
  alpha Z        PSCENC =        36.80884744
  Ewald energy   TEWEN  =     12053.68635705
  -Hartree energ DENC   =    -15149.31283182
  -exchange      EXHF   =         0.00000000
  -V(xc)+E(xc)   XCENC  =       -78.68494131
  PAW double counting   =      1202.61339952     -883.12388285
  entropy T*S    EENTRO =        -0.01235673
  eigenvalues    EBANDS =      -618.04267957
  atomic energy  EATOM  =      3354.04126044
  ---------------------------------------------------
  free energy    TOTEN  =       -82.02682783 eV

  energy without entropy =      -82.01447109  energy(sigma->0) =      -82.02064946


--------------------------------------------------------------------------------------------------------




----------------------------------------- Iteration    1(  16)  ---------------------------------------


    POTLOK:  cpu time   14.84: real time   14.84
    SETDIJ:  cpu time    0.02: real time    0.02
     EDDAV:  cpu time   64.36: real time   64.37
       DOS:  cpu time    0.01: real time    0.01
    CHARGE:  cpu time    4.39: real time    4.39
    MIXING:  cpu time    0.02: real time    0.02
    --------------------------------------------
      LOOP:  cpu time   83.63: real time   83.64

 eigenvalue-minimisations  :  8216
 total energy-change (2. order) : 0.4100647E-04  (-0.4851039E-05)
 number of electron     107.9999994 magnetization 
 augmentation part       -9.4408925 magnetization 

 Broyden mixing:
  rms(total) = 0.58079E-03    rms(broyden)= 0.58074E-03
  rms(prec ) = 0.10054E-02
  weight for this iteration     100.00

 eigenvalues of (default mixing * dielectric matrix)
  average eigenvalue GAMMA=   1.5499
  3.7864  2.7109  2.2086  1.6267  1.0688  1.0688  0.7015  1.0266  1.0266  0.9119
  0.9119

 Free energy of the ion-electron system (eV)
  ---------------------------------------------------
  alpha Z        PSCENC =        36.80884744
  Ewald energy   TEWEN  =     12053.68635705
  -Hartree energ DENC   =    -15150.02505148
  -exchange      EXHF   =         0.00000000
  -V(xc)+E(xc)   XCENC  =       -78.68031078
  PAW double counting   =      1202.58397239     -883.09394430
  entropy T*S    EENTRO =        -0.01232787
  eigenvalues    EBANDS =      -617.33558972
  atomic energy  EATOM  =      3354.04126044
  ---------------------------------------------------
  free energy    TOTEN  =       -82.02678682 eV

  energy without entropy =      -82.01445895  energy(sigma->0) =      -82.02062289


--------------------------------------------------------------------------------------------------------




----------------------------------------- Iteration    1(  17)  ---------------------------------------


    POTLOK:  cpu time   15.02: real time   15.02
    SETDIJ:  cpu time    0.02: real time    0.02
     EDDAV:  cpu time   65.41: real time   65.42
       DOS:  cpu time    0.01: real time    0.01
    CHARGE:  cpu time    4.09: real time    4.09
    MIXING:  cpu time    0.01: real time    0.02
    --------------------------------------------
      LOOP:  cpu time   84.57: real time   84.58

 eigenvalue-minimisations  :  8384
 total energy-change (2. order) :-0.6687336E-03  (-0.1331024E-04)
 number of electron     107.9999994 magnetization 
 augmentation part       -9.4408125 magnetization 

 Broyden mixing:
  rms(total) = 0.31614E-03    rms(broyden)= 0.31610E-03
  rms(prec ) = 0.54122E-03
  weight for this iteration     100.00

 eigenvalues of (default mixing * dielectric matrix)
  average eigenvalue GAMMA=   1.6609
  5.0482  2.7234  2.3052  1.6012  1.6012  1.0704  1.0704  0.7018  0.9932  0.9932
  0.9113  0.9113

 Free energy of the ion-electron system (eV)
  ---------------------------------------------------
  alpha Z        PSCENC =        36.80884744
  Ewald energy   TEWEN  =     12053.68635705
  -Hartree energ DENC   =    -15150.62369351
  -exchange      EXHF   =         0.00000000
  -V(xc)+E(xc)   XCENC  =       -78.67707739
  PAW double counting   =      1202.62720332     -883.13825202
  entropy T*S    EENTRO =        -0.01234384
  eigenvalues    EBANDS =      -616.73975706
  atomic energy  EATOM  =      3354.04126044
  ---------------------------------------------------
  free energy    TOTEN  =       -82.02745555 eV

  energy without entropy =      -82.01511171  energy(sigma->0) =      -82.02128363


--------------------------------------------------------------------------------------------------------




----------------------------------------- Iteration    1(  18)  ---------------------------------------


    POTLOK:  cpu time   14.98: real time   14.98
    SETDIJ:  cpu time    0.02: real time    0.02
     EDDAV:  cpu time   63.02: real time   63.03
       DOS:  cpu time    0.01: real time    0.01
    CHARGE:  cpu time    4.09: real time    4.09
    MIXING:  cpu time    0.02: real time    0.02
    --------------------------------------------
      LOOP:  cpu time   82.13: real time   82.15

 eigenvalue-minimisations  :  8024
 total energy-change (2. order) :-0.1841075E-03  (-0.1022040E-04)
 number of electron     107.9999994 magnetization 
 augmentation part       -9.4407731 magnetization 

 Broyden mixing:
  rms(total) = 0.18741E-03    rms(broyden)= 0.18739E-03
  rms(prec ) = 0.33161E-03
  weight for this iteration     100.00

 eigenvalues of (default mixing * dielectric matrix)
  average eigenvalue GAMMA=   1.7350
  5.8628  2.8906  2.5505  1.9337  1.5946  1.0699  1.0699  0.7019  1.0294  1.0294
  0.9601  0.9312  0.9312

 Free energy of the ion-electron system (eV)
  ---------------------------------------------------
  alpha Z        PSCENC =        36.80884744
  Ewald energy   TEWEN  =     12053.68635705
  -Hartree energ DENC   =    -15150.92870198
  -exchange      EXHF   =         0.00000000
  -V(xc)+E(xc)   XCENC  =       -78.67555625
  PAW double counting   =      1202.63685058     -883.14800778
  entropy T*S    EENTRO =        -0.01234039
  eigenvalues    EBANDS =      -616.43634878
  atomic energy  EATOM  =      3354.04126044
  ---------------------------------------------------
  free energy    TOTEN  =       -82.02763966 eV

  energy without entropy =      -82.01529927  energy(sigma->0) =      -82.02146946


--------------------------------------------------------------------------------------------------------




----------------------------------------- Iteration    1(  19)  ---------------------------------------


    POTLOK:  cpu time   14.94: real time   14.95
    SETDIJ:  cpu time    0.02: real time    0.02
     EDDAV:  cpu time   59.49: real time   59.51
       DOS:  cpu time    0.01: real time    0.01
    CHARGE:  cpu time    4.09: real time    4.09
    MIXING:  cpu time    0.02: real time    0.02
    --------------------------------------------
      LOOP:  cpu time   78.57: real time   78.59

 eigenvalue-minimisations  :  7416
 total energy-change (2. order) :-0.1133472E-03  (-0.3317724E-05)
 number of electron     107.9999994 magnetization 
 augmentation part       -9.4407702 magnetization 

 Broyden mixing:
  rms(total) = 0.12430E-03    rms(broyden)= 0.12428E-03
  rms(prec ) = 0.21699E-03
  weight for this iteration     100.00

 eigenvalues of (default mixing * dielectric matrix)
  average eigenvalue GAMMA=   1.7554
  6.2732  2.9768  2.6288  2.0176  1.5044  1.5044  1.0681  1.0681  0.7019  1.0003
  1.0003  1.0213  0.9055  0.9055

 Free energy of the ion-electron system (eV)
  ---------------------------------------------------
  alpha Z        PSCENC =        36.80884744
  Ewald energy   TEWEN  =     12053.68635705
  -Hartree energ DENC   =    -15151.09802147
  -exchange      EXHF   =         0.00000000
  -V(xc)+E(xc)   XCENC  =       -78.67488120
  PAW double counting   =      1202.64972165     -883.16109026
  entropy T*S    EENTRO =        -0.01233877
  eigenvalues    EBANDS =      -616.26760790
  atomic energy  EATOM  =      3354.04126044
  ---------------------------------------------------
  free energy    TOTEN  =       -82.02775301 eV

  energy without entropy =      -82.01541424  energy(sigma->0) =      -82.02158362


--------------------------------------------------------------------------------------------------------




----------------------------------------- Iteration    1(  20)  ---------------------------------------


    POTLOK:  cpu time   14.60: real time   14.61
    SETDIJ:  cpu time    0.02: real time    0.02
     EDDAV:  cpu time   55.62: real time   55.64
       DOS:  cpu time    0.01: real time    0.01
    CHARGE:  cpu time    4.10: real time    4.10
    MIXING:  cpu time    0.02: real time    0.02
    --------------------------------------------
      LOOP:  cpu time   74.37: real time   74.38

 eigenvalue-minimisations  :  6808
 total energy-change (2. order) :-0.1699857E-04  (-0.1125073E-05)
 number of electron     107.9999994 magnetization 
 augmentation part       -9.4407671 magnetization 

 Broyden mixing:
  rms(total) = 0.82726E-04    rms(broyden)= 0.82721E-04
  rms(prec ) = 0.14817E-03
  weight for this iteration     100.00

 eigenvalues of (default mixing * dielectric matrix)
  average eigenvalue GAMMA=   1.8044
  6.7208  3.2758  2.6953  2.1702  1.9226  1.0679  1.0679  1.2903  1.2903  0.7019
  0.9797  0.9364  0.9364  1.0057  1.0057

 Free energy of the ion-electron system (eV)
  ---------------------------------------------------
  alpha Z        PSCENC =        36.80884744
  Ewald energy   TEWEN  =     12053.68635705
  -Hartree energ DENC   =    -15151.15877655
  -exchange      EXHF   =         0.00000000
  -V(xc)+E(xc)   XCENC  =       -78.67477228
  PAW double counting   =      1202.64534531     -883.15660881
  entropy T*S    EENTRO =        -0.01234011
  eigenvalues    EBANDS =      -616.20708252
  atomic energy  EATOM  =      3354.04126044
  ---------------------------------------------------
  free energy    TOTEN  =       -82.02777001 eV

  energy without entropy =      -82.01542990  energy(sigma->0) =      -82.02159995


--------------------------------------------------------------------------------------------------------




----------------------------------------- Iteration    1(  21)  ---------------------------------------


    POTLOK:  cpu time   14.97: real time   14.97
    SETDIJ:  cpu time    0.02: real time    0.02
     EDDAV:  cpu time   57.94: real time   57.95
       DOS:  cpu time    0.01: real time    0.01
    CHARGE:  cpu time    4.11: real time    4.11
    MIXING:  cpu time    0.02: real time    0.02
    --------------------------------------------
      LOOP:  cpu time   77.06: real time   77.08

 eigenvalue-minimisations  :  7156
 total energy-change (2. order) : 0.7118381E-05  (-0.2394788E-05)
 number of electron     107.9999994 magnetization 
 augmentation part       -9.4407569 magnetization 

 Broyden mixing:
  rms(total) = 0.62257E-04    rms(broyden)= 0.62250E-04
  rms(prec ) = 0.93363E-04
  weight for this iteration     100.00

 eigenvalues of (default mixing * dielectric matrix)
  average eigenvalue GAMMA=   1.8683
  6.8714  3.8582  2.7167  2.6314  1.7155  1.4894  1.4894  1.5243  1.0662  1.0662
  0.7019  1.0007  1.0007  0.9152  0.9226  0.9226

 Free energy of the ion-electron system (eV)
  ---------------------------------------------------
  alpha Z        PSCENC =        36.80884744
  Ewald energy   TEWEN  =     12053.68635705
  -Hartree energ DENC   =    -15151.22051123
  -exchange      EXHF   =         0.00000000
  -V(xc)+E(xc)   XCENC  =       -78.67469100
  PAW double counting   =      1202.64141407     -883.15259399
  entropy T*S    EENTRO =        -0.01233909
  eigenvalues    EBANDS =      -616.14550659
  atomic energy  EATOM  =      3354.04126044
  ---------------------------------------------------
  free energy    TOTEN  =       -82.02776289 eV

  energy without entropy =      -82.01542380  energy(sigma->0) =      -82.02159335


--------------------------------------------------------------------------------------------------------




----------------------------------------- Iteration    1(  22)  ---------------------------------------


    POTLOK:  cpu time   15.01: real time   15.01
    SETDIJ:  cpu time    0.02: real time    0.02
     EDDAV:  cpu time   56.98: real time   57.00
       DOS:  cpu time    0.01: real time    0.01
    CHARGE:  cpu time    4.08: real time    4.08
    MIXING:  cpu time    0.02: real time    0.02
    --------------------------------------------
      LOOP:  cpu time   76.12: real time   76.13

 eigenvalue-minimisations  :  7036
 total energy-change (2. order) : 0.3570731E-04  (-0.1800529E-05)
 number of electron     107.9999994 magnetization 
 augmentation part       -9.4407639 magnetization 

 Broyden mixing:
  rms(total) = 0.32079E-04    rms(broyden)= 0.32075E-04
  rms(prec ) = 0.45543E-04
  weight for this iteration     100.00

 eigenvalues of (default mixing * dielectric matrix)
  average eigenvalue GAMMA=   1.9727
  7.4178  5.3488  2.9336  2.5452  2.0187  1.8045  1.3732  1.3732  1.0660  1.0660
  0.7019  1.1294  0.9977  0.9977  0.9073  0.9272  0.9272

 Free energy of the ion-electron system (eV)
  ---------------------------------------------------
  alpha Z        PSCENC =        36.80884744
  Ewald energy   TEWEN  =     12053.68635705
  -Hartree energ DENC   =    -15151.22820447
  -exchange      EXHF   =         0.00000000
  -V(xc)+E(xc)   XCENC  =       -78.67489100
  PAW double counting   =      1202.63683814     -883.14791106
  entropy T*S    EENTRO =        -0.01233920
  eigenvalues    EBANDS =      -616.13768453
  atomic energy  EATOM  =      3354.04126044
  ---------------------------------------------------
  free energy    TOTEN  =       -82.02772718 eV

  energy without entropy =      -82.01538799  energy(sigma->0) =      -82.02155758


--------------------------------------------------------------------------------------------------------




----------------------------------------- Iteration    1(  23)  ---------------------------------------


    POTLOK:  cpu time   14.95: real time   14.96
    SETDIJ:  cpu time    0.02: real time    0.02
     EDDAV:  cpu time   56.96: real time   56.97
       DOS:  cpu time    0.01: real time    0.01
    CHARGE:  cpu time    4.10: real time    4.10
    MIXING:  cpu time    0.02: real time    0.02
    --------------------------------------------
      LOOP:  cpu time   76.05: real time   76.07

 eigenvalue-minimisations  :  7004
 total energy-change (2. order) : 0.5933244E-04  (-0.1011937E-05)
 number of electron     107.9999994 magnetization 
 augmentation part       -9.4407623 magnetization 

 Broyden mixing:
[...]
     31      -4.0461      2.00000
     32      -3.9696      2.00000
     33      -3.7658      2.00000
     34      -3.6910      2.00000
     35      -3.5257      2.00000
     36      -3.3069      2.00000
     37      -3.2198      2.00000
     38      -3.0540      2.00000
     39      -3.0467      2.00000
     40      -2.8713      2.00000
     41      -2.5861      2.00000
     42      -2.5229      2.00000
     43      -2.1460      2.00000
     44      -1.9985      2.00000
     45      -1.8968      2.00000
     46      -1.8594      2.00000
     47      -1.7402      2.00000
     48      -1.4995      2.00000
     49      -1.3868      2.00000
     50      -1.3401      2.00000
     51      -1.1193      2.00000
     52      -0.7573      2.00000
     53      -0.5963      2.00000
     54      -0.4529      2.00000
     55       0.5934      0.00000
     56       0.7158      0.00000
     57       1.1714      0.00000
     58       1.4756      0.00000
     59       1.6030      0.00000
     60       1.6382      0.00000
     61       2.2069      0.00000
     62       2.3843      0.00000
     63       2.5786      0.00000
     64       2.7118      0.00000
     65       2.8845      0.00000
     66       2.9747      0.00000
     67       3.0810      0.00000
     68       3.2727      0.00000

 k-point    52 :       0.3077    0.5000    0.5000
  band No.  band energies     occupation 
      1     -13.2341      2.00000
      2     -12.4967      2.00000
      3     -12.3484      2.00000
      4     -12.1469      2.00000
      5     -11.7568      2.00000
      6     -11.6265      2.00000
      7     -11.2432      2.00000
      8     -11.0019      2.00000
      9     -10.7958      2.00000
     10     -10.7251      2.00000
     11     -10.3793      2.00000
     12     -10.1717      2.00000
     13      -8.9077      2.00000
     14      -8.7771      2.00000
     15      -7.9037      2.00000
     16      -7.7630      2.00000
     17      -7.6311      2.00000
     18      -7.0494      2.00000
     19      -6.9561      2.00000
     20      -6.8356      2.00000
     21      -6.4990      2.00000
     22      -6.1976      2.00000
     23      -6.1378      2.00000
     24      -5.9147      2.00000
     25      -5.6300      2.00000
     26      -5.3374      2.00000
     27      -4.8856      2.00000
     28      -4.7144      2.00000
     29      -4.4709      2.00000
     30      -4.3611      2.00000
     31      -4.2946      2.00000
     32      -4.1329      2.00000
     33      -4.0608      2.00000
     34      -3.9547      2.00000
     35      -3.5712      2.00000
     36      -3.3793      2.00000
     37      -3.2331      2.00000
     38      -3.0687      2.00000
     39      -2.9779      2.00000
     40      -2.9034      2.00000
     41      -2.7619      2.00000
     42      -2.5147      2.00000
     43      -2.2622      2.00000
     44      -2.2480      2.00000
     45      -1.9588      2.00000
     46      -1.9168      2.00000
     47      -1.8491      2.00000
     48      -1.7254      2.00000
     49      -1.6466      2.00000
     50      -1.4207      2.00000
     51      -1.3654      2.00000
     52      -1.0331      2.00000
     53      -0.8945      2.00000
     54      -0.7157      2.00000
     55       0.4132      0.00007
     56       0.5702      0.00000
     57       0.8996      0.00000
     58       1.3124      0.00000
     59       1.3978      0.00000
     60       1.5880      0.00000
     61       2.0834      0.00000
     62       2.2110      0.00000
     63       2.3810      0.00000
     64       2.4748      0.00000
     65       2.5729      0.00000
     66       2.6766      0.00000
     67       2.8239      0.00000
     68       3.0063      0.00000

 k-point    53 :       0.3846    0.5000    0.5000
  band No.  band energies     occupation 
      1     -12.8410      2.00000
      2     -12.0210      2.00000
      3     -11.9114      2.00000
      4     -11.6501      2.00000
      5     -11.5288      2.00000
      6     -11.2368      2.00000
      7     -11.0527      2.00000
      8     -10.7584      2.00000
      9     -10.6608      2.00000
     10     -10.6041      2.00000
     11     -10.4459      2.00000
     12      -9.8294      2.00000
     13      -9.1003      2.00000
     14      -8.8918      2.00000
     15      -8.3357      2.00000
     16      -8.2356      2.00000
     17      -7.9166      2.00000
     18      -7.5995      2.00000
     19      -7.3758      2.00000
     20      -7.3087      2.00000
     21      -6.8187      2.00000
     22      -6.7053      2.00000
     23      -6.6442      2.00000
     24      -6.4817      2.00000
     25      -5.6903      2.00000
     26      -5.2787      2.00000
     27      -4.8151      2.00000
     28      -4.6610      2.00000
     29      -4.5169      2.00000
     30      -4.3998      2.00000
     31      -4.1224      2.00000
     32      -4.0454      2.00000
     33      -4.0081      2.00000
     34      -3.8902      2.00000
     35      -3.6954      2.00000
     36      -3.5142      2.00000
     37      -3.3392      2.00000
     38      -3.1814      2.00000
     39      -3.1098      2.00000
     40      -2.8764      2.00000
     41      -2.8404      2.00000
     42      -2.5395      2.00000
     43      -2.5139      2.00000
     44      -2.3285      2.00000
     45      -2.2385      2.00000
     46      -2.1409      2.00000
     47      -2.0484      2.00000
     48      -1.8881      2.00000
     49      -1.7885      2.00000
     50      -1.4745      2.00000
     51      -1.4161      2.00000
     52      -1.3112      2.00000
     53      -1.0109      2.00000
     54      -0.7281      2.00000
     55       0.1149      1.18306
     56       0.4383      0.00001
     57       0.8172      0.00000
     58       1.2845      0.00000
     59       1.5215      0.00000
     60       1.5789      0.00000
     61       1.8440      0.00000
     62       2.0600      0.00000
     63       2.1725      0.00000
     64       2.2194      0.00000
     65       2.3468      0.00000
     66       2.4637      0.00000
     67       2.6316      0.00000
     68       2.7367      0.00000

 k-point    54 :       0.4615    0.5000    0.5000
  band No.  band energies     occupation 
      1     -12.5019      2.00000
      2     -11.6839      2.00000
      3     -11.4761      2.00000
      4     -11.2963      2.00000
      5     -11.1510      2.00000
      6     -11.0211      2.00000
      7     -10.9425      2.00000
      8     -10.8343      2.00000
      9     -10.7054      2.00000
     10     -10.6989      2.00000
     11     -10.6082      2.00000
     12      -9.5518      2.00000
     13      -9.1917      2.00000
     14      -8.8017      2.00000
     15      -8.6490      2.00000
     16      -8.4266      2.00000
     17      -8.1034      2.00000
     18      -7.9811      2.00000
     19      -7.7533      2.00000
     20      -7.5507      2.00000
     21      -7.2801      2.00000
     22      -7.1520      2.00000
     23      -7.0568      2.00000
     24      -6.6095      2.00000
     25      -5.6901      2.00000
     26      -4.9294      2.00000
     27      -4.8502      2.00000
     28      -4.4647      2.00000
     29      -4.2964      2.00000
     30      -4.2420      2.00000
     31      -4.1230      2.00000
     32      -4.0427      2.00000
     33      -3.9328      2.00000
     34      -3.7525      2.00000
     35      -3.7000      2.00000
     36      -3.5598      2.00000
     37      -3.5401      2.00000
     38      -3.3630      2.00000
     39      -3.2411      2.00000
     40      -3.0433      2.00000
     41      -3.0264      2.00000
     42      -2.7472      2.00000
     43      -2.6775      2.00000
     44      -2.4284      2.00000
     45      -2.3660      2.00000
     46      -2.1961      2.00000
     47      -2.0964      2.00000
     48      -1.9170      2.00000
     49      -1.7052      2.00000
     50      -1.5756      2.00000
     51      -1.5093      2.00000
     52      -1.3067      2.00000
     53      -1.0681      2.00000
     54      -0.6686      2.00000
     55      -0.1210      1.99964
     56       0.3628      0.00106
     57       0.8180      0.00000
     58       1.3586      0.00000
     59       1.5663      0.00000
     60       1.6303      0.00000
     61       1.6837      0.00000
     62       1.8992      0.00000
     63       2.0546      0.00000
     64       2.1035      0.00000
     65       2.3398      0.00000
     66       2.4183      0.00000
     67       2.4762      0.00000
     68       2.5327      0.00000


--------------------------------------------------------------------------------------------------------


 soft charge-density along one line, spin component           1
         0         1         2         3         4         5         6         7         8         9
 total charge-density along one line
 
 pseudopotential strength for first ion, spin component:           1
 29.779   0.008  -0.000  -0.022  -0.000  -0.000  -0.001   0.000
  0.008   0.009  -0.000  -0.000   0.000   0.000   0.000  -0.000
 -0.000  -0.000   6.549  -0.001  -0.000  -0.003   0.000   0.000
 -0.022  -0.000  -0.001   6.543  -0.000   0.000  -0.002   0.000
 -0.000   0.000  -0.000  -0.000   6.549   0.000   0.000  -0.003
 -0.000   0.000  -0.003   0.000   0.000   0.015  -0.000  -0.000
 -0.001   0.000   0.000  -0.002   0.000  -0.000   0.015  -0.000
  0.000  -0.000   0.000   0.000  -0.003  -0.000  -0.000   0.015
 total augmentation occupancy for first ion, spin component:           1
  1.814  -0.354   0.004   0.249  -0.001   0.003   0.115  -0.001
 -0.354   1.294   0.016   0.847  -0.003   0.004  -0.431  -0.001
  0.004   0.016   1.144   0.011  -0.000  -0.503   0.013  -0.000
  0.249   0.847   0.011   1.284  -0.000   0.013  -0.418  -0.001
 -0.001  -0.003  -0.000  -0.000   1.148  -0.000  -0.001  -0.527
  0.003   0.004  -0.503   0.013  -0.000   0.291  -0.015   0.000
  0.115  -0.431   0.013  -0.418  -0.001  -0.015   0.227   0.001
 -0.001  -0.001  -0.000  -0.001  -0.527   0.000   0.001   0.325


------------------------ aborting loop because EDIFF is reached ----------------------------------------


    CHARGE:  cpu time    4.07: real time    4.07
    FORLOC:  cpu time    0.06: real time    0.06
    FORNL :  cpu time   18.78: real time   18.79
    STRESS:  cpu time   56.80: real time   56.82
    FORCOR:  cpu time   15.06: real time   15.06
    FORHAR:  cpu time    0.14: real time    0.14
    MIXING:  cpu time    0.02: real time    0.02
    OFIELD:  cpu time    0.00: real time    0.00

  FORCE on cell =-STRESS in cart. coord.  units (eV):
  Direction    XX          YY          ZZ          XY          YZ          ZX
  --------------------------------------------------------------------------------------
  Alpha Z    36.80885    36.80885    36.80885
  Ewald   14401.02246 13919.39639-16266.73988    18.23049   -54.87894   -30.44646
  Hartree 14976.08274 14582.15545-14406.98951     2.00465     7.42059    -0.42147
  E(xc)    -361.34085  -361.09038  -360.00551     0.04121     0.23263     0.11317
  Local  -30982.98398-30080.65463 29158.92533    -7.57981    -9.33239    11.09974
  n-local  1183.50221  1185.31900  1183.78734    -0.41231    -3.77157    -2.46774
  augment  -207.42823  -205.51973  -202.32223     0.95277    -3.53944    -0.96813
  Kinetic   960.16738   949.96089   985.50865    -2.82639    11.15670    -0.30735
  Fock        0.00000     0.00000     0.00000     0.00000     0.00000     0.00000
  -------------------------------------------------------------------------------------
  Total       5.83060    26.37583   128.97304    10.41061   -52.71241   -23.39824
  in kB       9.32003    42.16094   206.15938    16.64103   -84.25914   -37.40135
  external pressure =       85.88 kB  Pullay stress =        0.00 kB


 VOLUME and BASIS-vectors are now :
 -----------------------------------------------------------------------------
  energy-cutoff  :      300.00
  volume of cell :     1002.32
      direct lattice vectors                 reciprocal lattice vectors
     3.540400000  0.000000000  0.000000000     0.282453960  0.048570342  0.000000000
    -1.770200000 10.294348000  0.000000000     0.000000000  0.097140683  0.000000000
     0.000000000  0.000000000 27.501429000     0.000000000  0.000000000  0.036361747

  length of vectors
     3.540400000 10.445439617 27.501429000     0.286599577  0.097140683  0.036361747


 FORCES acting on ions
    electron-ion (+dipol)            ewald-force                    non-local-force                 convergence-correction
 -----------------------------------------------------------------------------------------------
   0.349E-01 0.116E+02 0.316E+02   0.658E-02 -.115E+02 -.272E+02   0.235E-01 -.131E+00 -.433E+01   -.425E-07 -.746E-06 -.883E-05
   0.192E-01 0.131E+02 -.553E+03   -.683E-02 -.127E+02 0.557E+03   0.164E-01 -.349E+00 -.410E+01   0.120E-06 -.497E-05 0.219E-04
   -.341E-02 0.645E+02 0.460E+02   0.201E-04 -.661E+02 -.416E+02   0.395E-02 0.160E+01 -.422E+01   -.241E-07 -.458E-06 -.650E-05
   -.386E+00 0.181E+02 -.524E+03   0.339E+00 -.189E+02 0.528E+03   0.675E-01 0.817E+00 -.351E+01   0.109E-06 0.734E-05 0.158E-04
   -.416E-03 -.576E+02 0.526E+03   0.905E-04 0.592E+02 -.531E+03   0.108E-04 -.153E+01 0.427E+01   -.208E-07 -.557E-05 -.102E-04
   -.304E+01 -.119E+03 -.401E+02   0.314E+01 0.120E+03 0.382E+02   0.200E-01 -.580E+00 -.875E+00   -.120E-06 0.542E-05 0.837E-05
   0.532E-03 0.542E+02 0.526E+03   0.160E-04 -.561E+02 -.530E+03   -.313E-03 0.192E+01 0.416E+01   -.422E-08 0.326E-05 -.321E-05
   0.951E-01 0.111E+03 -.855E+02   -.210E+00 -.114E+03 0.812E+02   -.121E+00 0.254E+01 0.458E+01   0.131E-06 -.447E-05 0.860E-05
   0.671E-03 0.183E+01 0.573E+03   -.872E-04 -.204E+01 -.577E+03   0.109E-02 0.211E+00 0.476E+01   0.451E-08 0.422E-05 -.152E-04
   0.256E+01 -.311E+00 0.998E+01   -.248E+01 0.126E+01 -.124E+02   0.910E+00 -.179E+01 0.692E+00   0.306E-06 -.850E-06 0.956E-06
   -.285E-02 -.671E+02 0.602E+02   -.205E-02 0.690E+02 -.560E+02   0.393E-02 -.191E+01 -.404E+01   -.279E-08 -.335E-06 -.783E-05
   -.435E+00 -.336E+02 -.552E+03   0.269E+00 0.358E+02 0.555E+03   0.891E-01 -.218E+01 -.243E+01   -.241E-06 -.356E-05 0.115E-04
   -.517E-02 0.311E+02 0.208E+03   -.356E-04 -.332E+02 -.208E+03   0.881E-02 0.210E+01 0.310E+00   0.161E-07 0.286E-05 -.233E-05
   0.473E+01 -.419E+02 -.293E+03   -.415E+01 0.448E+02 0.289E+03   -.622E+00 -.350E+01 0.582E+01   -.187E-06 0.517E-05 0.112E-04
   0.387E-02 -.129E+02 0.140E+03   0.760E-03 0.132E+02 -.143E+03   -.302E-02 -.268E+00 0.254E+01   0.361E-08 -.204E-05 -.981E-05
   0.204E+01 0.266E+02 -.348E+03   -.158E+01 -.244E+02 0.344E+03   -.586E+00 -.135E+01 0.633E+01   0.156E-06 -.265E-05 0.137E-04
   -.317E-02 -.534E+01 0.346E+03   0.819E-04 0.580E+01 -.344E+03   0.167E-02 -.465E+00 -.251E+01   -.393E-08 -.251E-05 -.972E-05
   -.129E+02 -.598E+02 -.546E+02   0.276E+02 0.927E+02 -.146E+02   0.657E+01 0.253E+02 -.498E+02   0.179E-06 0.211E-05 0.606E-05
   0.420E-02 0.102E+02 0.335E+03   -.121E-04 -.105E+02 -.333E+03   -.709E-03 0.249E+00 -.252E+01   -.109E-09 0.482E-05 -.454E-05
   -.949E+00 0.501E+02 -.129E+03   0.617E+00 -.532E+02 0.132E+03   0.369E+00 0.125E+01 -.566E+01   0.138E-06 0.127E-05 0.903E-05
   -.534E-01 0.131E+02 0.127E+03   -.325E-03 -.135E+02 -.130E+03   0.396E-01 0.398E+00 0.258E+01   0.213E-08 -.101E-05 -.850E-05
   0.648E-01 0.891E+01 -.294E+03   -.176E-01 -.825E+01 0.295E+03   0.401E-01 -.385E-01 -.134E+01   -.490E-07 -.139E-05 0.148E-04
   0.644E-03 -.320E+02 0.254E+03   -.120E-03 0.342E+02 -.253E+03   0.129E-02 -.218E+01 -.342E+00   0.123E-07 -.248E-05 -.706E-05
   0.143E+02 0.208E+02 -.311E+03   -.236E+02 -.521E+02 0.381E+03   -.128E+02 -.255E+02 0.522E+02   0.446E-07 0.340E-06 0.111E-04
 -----------------------------------------------------------------------------------------------
   0.600E+01 0.544E+01 -.253E+01   -.142E-13 -.426E-13 0.568E-13   -.599E+01 -.544E+01 0.253E+01   0.529E-06 0.378E-05 0.393E-04
 
 
 POSITION                                       TOTAL-FORCE (eV/Angst)
 -----------------------------------------------------------------------------------
      0.00000      2.34757      6.41229         0.064726     -0.021704      0.066258
     -0.17702      9.55362     14.16300         0.028526      0.007816     -0.334088
     -0.00000      9.43147      5.75866         0.000299     -0.016313      0.091254
      1.59318      6.34316     13.50937         0.020025      0.068339      0.211473
     -0.00000      6.40009      2.31424        -0.000577     -0.011867      0.015011
     -0.00000      6.40009     10.06495         0.124304      0.787432     -2.730352
      1.77020     10.27849      2.37372        -0.000027      0.003130     -0.016208
      1.77020     10.27849     10.12443        -0.236287     -0.420263      0.315985
      1.77020      3.18974      1.66157         0.001408      0.002574      0.014156
      1.77020      3.18974      9.41228         0.990502     -0.839593     -1.709477
      1.77020      5.55354      5.69975        -0.001237      0.000128      0.101091
     -0.17702      2.46524     13.45047        -0.077247     -0.001230      0.660213
      1.77020      9.05319      4.34076         0.003349      0.017690      0.012080
     -0.17702      5.96488     12.09147        -0.043626     -0.534913      1.275066
      0.00000      4.22380      5.10944         0.001341      0.012842      0.030221
      1.59318      1.13550     12.86016        -0.121792      0.841402      2.667424
     -0.00000      4.15582      2.74166        -0.001681     -0.005585     -0.027752
     -0.00000      4.15582     10.49237        21.254622     58.266666   -118.996434
      1.77020      1.31366      2.96438         0.003218     -0.022476     -0.024405
      1.77020      1.31366     10.71510         0.036561     -1.882103     -3.114135
      1.77020      1.38163      5.33187        -0.014405     -0.056263     -0.014076
      1.59318      8.58767     13.08259         0.087023      0.613629     -0.655175
      1.77020      6.77850      3.73234         0.001549      0.025393     -0.001867
     -0.17702      3.69019     11.48306       -22.120574    -56.834733    122.163737
 -----------------------------------------------------------------------------------
    total drift:                                0.006286      0.000556      0.003740


--------------------------------------------------------------------------------------------------------



  FREE ENERGIE OF THE ION-ELECTRON SYSTEM (eV)
  ---------------------------------------------------
  free  energy   TOTEN  =       -82.02764109 eV

  energy  without entropy=      -82.01530185  energy(sigma->0) =      -82.02147147
 


--------------------------------------------------------------------------------------------------------


    POTLOK:  cpu time   15.03: real time   15.04


--------------------------------------------------------------------------------------------------------


     LOOP+:  cpu time 2365.69: real time 2366.18
    4ORBIT:  cpu time    0.00: real time    0.00

 total amount of memory used by VASP on root node   146493. kBytes
========================================================================

   base      :      30000. kBytes
   nonlr-proj:       3452. kBytes
   fftplans  :       9347. kBytes
   grid      :      14649. kBytes
   one-center:         36. kBytes
   wavefun   :      89009. kBytes
 
  
  
 General timing and accounting informations for this job:
 ========================================================
  
                  Total CPU time used (sec):     2381.831
                            User time (sec):     2353.939
                          System time (sec):       27.892
                         Elapsed time (sec):     2383.385
  
                   Maximum memory used (kb):      335544.
                   Average memory used (kb):           0.
  
                          Minor page faults:      8281636
                          Major page faults:           17
                 Voluntary context switches:         1811
