<?xml version="1.0" encoding="ISO-8859-1"?>
<modeling>
 <generator>
  <i name="program" type="string">vasp </i>
  <i name="version" type="string">5.3.5  </i>
  <i name="subversion" type="string">31Mar14 (build Oct 29 2014 16:16:03) complex                          parallel </i>
  <i name="platform" type="string">Linux-UFHPC </i>
  <i name="date" type="string">2016 02 09 </i>
  <i name="time" type="string">17:25:17 </i>
 </generator>
 <incar>
  <i type="string" name="PREC">accurate</i>
  <i type="int" name="IBRION">     2</i>
  <i name="EDIFF">      0.00000100</i>
  <i type="int" name="NSW">     0</i>
  <i type="int" name="ISIF">     3</i>
  <i name="ENCUT">    300.00000000</i>
  <i type="string" name="LREAL"> Auto</i>
  <i type="int" name="ISMEAR">     0</i>
  <i name="SIGMA">      0.10000000</i>
  <i type="logical" name="LWAVE"> F  </i>
  <i type="logical" name="LCHARG"> F  </i>
  <i type="logical" name="LAECHG"> F  </i>
  <i type="string" name="GGA"> Bo</i>
  <i name="PARAM1">      0.18333333</i>
  <i name="PARAM2">      0.22000000</i>
  <i type="logical" name="LUSE_VDW"> T  </i>
  <i name="AGGAC">      0.00000000</i>
 </incar>
 <kpoints>
  <generation param="Gamma">
   <v type="int" name="divisions">      13        4        2 </v>
   <v name="usershift">      0.00000000       0.00000000       0.00000000 </v>
   <v name="genvec1">      0.07692308      -0.00000000       0.00000000 </v>
   <v name="genvec2">      0.00000000       0.25000000       0.00000000 </v>
   <v name="genvec3">      0.00000000       0.00000000       0.50000000 </v>
   <v name="shift">      0.00000000       0.00000000       0.00000000 </v>
  </generation>
  <varray name="kpointlist" >
   <v>       0.00000000       0.00000000       0.00000000 </v>
   <v>       0.07692308      -0.00000000       0.00000000 </v>
   <v>       0.15384615      -0.00000000       0.00000000 </v>
   <v>       0.23076923      -0.00000000       0.00000000 </v>
   <v>       0.30769231      -0.00000000       0.00000000 </v>
   <v>       0.38461538      -0.00000000       0.00000000 </v>
   <v>       0.46153846      -0.00000000       0.00000000 </v>
   <v>       0.00000000       0.25000000       0.00000000 </v>
   <v>       0.07692308       0.25000000       0.00000000 </v>
   <v>       0.15384615       0.25000000       0.00000000 </v>
   <v>       0.23076923       0.25000000       0.00000000 </v>
   <v>       0.30769231       0.25000000       0.00000000 </v>
   <v>       0.38461538       0.25000000       0.00000000 </v>
   <v>       0.46153846       0.25000000       0.00000000 </v>
   <v>      -0.46153846       0.25000000       0.00000000 </v>
   <v>      -0.38461538       0.25000000       0.00000000 </v>
   <v>      -0.30769231       0.25000000       0.00000000 </v>
   <v>      -0.23076923       0.25000000       0.00000000 </v>
   <v>      -0.15384615       0.25000000       0.00000000 </v>
   <v>      -0.07692308       0.25000000       0.00000000 </v>
   <v>       0.00000000       0.50000000       0.00000000 </v>
   <v>       0.07692308       0.50000000       0.00000000 </v>
   <v>       0.15384615       0.50000000       0.00000000 </v>
   <v>       0.23076923       0.50000000       0.00000000 </v>
   <v>       0.30769231       0.50000000       0.00000000 </v>
   <v>       0.38461538       0.50000000       0.00000000 </v>
   <v>       0.46153846       0.50000000       0.00000000 </v>
   <v>       0.00000000       0.00000000       0.50000000 </v>
   <v>       0.07692308      -0.00000000       0.50000000 </v>
   <v>       0.15384615      -0.00000000       0.50000000 </v>
   <v>       0.23076923      -0.00000000       0.50000000 </v>
   <v>       0.30769231      -0.00000000       0.50000000 </v>
   <v>       0.38461538      -0.00000000       0.50000000 </v>
   <v>       0.46153846      -0.00000000       0.50000000 </v>
   <v>       0.00000000       0.25000000       0.50000000 </v>
   <v>       0.07692308       0.25000000       0.50000000 </v>
   <v>       0.15384615       0.25000000       0.50000000 </v>
   <v>       0.23076923       0.25000000       0.50000000 </v>
   <v>       0.30769231       0.25000000       0.50000000 </v>
   <v>       0.38461538       0.25000000       0.50000000 </v>
   <v>       0.46153846       0.25000000       0.50000000 </v>
   <v>      -0.46153846       0.25000000       0.50000000 </v>
   <v>      -0.38461538       0.25000000       0.50000000 </v>
   <v>      -0.30769231       0.25000000       0.50000000 </v>
   <v>      -0.23076923       0.25000000       0.50000000 </v>
   <v>      -0.15384615       0.25000000       0.50000000 </v>
   <v>      -0.07692308       0.25000000       0.50000000 </v>
   <v>       0.00000000       0.50000000       0.50000000 </v>
   <v>       0.07692308       0.50000000       0.50000000 </v>
   <v>       0.15384615       0.50000000       0.50000000 </v>
   <v>       0.23076923       0.50000000       0.50000000 </v>
   <v>       0.30769231       0.50000000       0.50000000 </v>
   <v>       0.38461538       0.50000000       0.50000000 </v>
   <v>       0.46153846       0.50000000       0.50000000 </v>
  </varray>
  <varray name="weights" >
   <v>       0.00961538 </v>
   <v>       0.01923077 </v>
   <v>       0.01923077 </v>
   <v>       0.01923077 </v>
   <v>       0.01923077 </v>
   <v>       0.01923077 </v>
   <v>       0.01923077 </v>
   <v>       0.01923077 </v>
   <v>       0.01923077 </v>
   <v>       0.01923077 </v>
   <v>       0.01923077 </v>
   <v>       0.01923077 </v>
   <v>       0.01923077 </v>
   <v>       0.01923077 </v>
   <v>       0.01923077 </v>
   <v>       0.01923077 </v>
   <v>       0.01923077 </v>
   <v>       0.01923077 </v>
   <v>       0.01923077 </v>
   <v>       0.01923077 </v>
   <v>       0.00961538 </v>
   <v>       0.01923077 </v>
   <v>       0.01923077 </v>
   <v>       0.01923077 </v>
   <v>       0.01923077 </v>
   <v>       0.01923077 </v>
   <v>       0.01923077 </v>
   <v>       0.00961538 </v>
   <v>       0.01923077 </v>
   <v>       0.01923077 </v>
   <v>       0.01923077 </v>
   <v>       0.01923077 </v>
   <v>       0.01923077 </v>
   <v>       0.01923077 </v>
   <v>       0.01923077 </v>
   <v>       0.01923077 </v>
   <v>       0.01923077 </v>
   <v>       0.01923077 </v>
   <v>       0.01923077 </v>
   <v>       0.01923077 </v>
   <v>       0.01923077 </v>
   <v>       0.01923077 </v>
   <v>       0.01923077 </v>
   <v>       0.01923077 </v>
   <v>       0.01923077 </v>
   <v>       0.01923077 </v>
   <v>       0.01923077 </v>
   <v>       0.00961538 </v>
   <v>       0.01923077 </v>
   <v>       0.01923077 </v>
   <v>       0.01923077 </v>
   <v>       0.01923077 </v>
   <v>       0.01923077 </v>
   <v>       0.01923077 </v>
  </varray>
 </kpoints>
 <parameters>
  <separator name="general" >
   <i type="string" name="SYSTEM">unknown system</i>
   <i type="logical" name="LCOMPAT"> F  </i>
  </separator>
  <separator name="electronic" >
   <i type="string" name="PREC">accura</i>
   <i name="ENMAX">    300.00000000</i>
   <i name="ENAUG">    342.92400000</i>
   <i name="EDIFF">      0.00000100</i>
   <i type="int" name="IALGO">    38</i>
   <i type="int" name="IWAVPR">    10</i>
   <i type="int" name="NBANDS">    68</i>
   <i name="NELECT">    108.00000000</i>
   <i type="int" name="TURBO">     0</i>
   <i type="int" name="IRESTART">     0</i>
   <i type="int" name="NREBOOT">     0</i>
   <i type="int" name="NMIN">     0</i>
   <i name="EREF">      0.00000000</i>
   <separator name="electronic smearing" >
    <i type="int" name="ISMEAR">     0</i>
    <i name="SIGMA">      0.10000000</i>
    <i name="KSPACING">      0.50000000</i>
    <i type="logical" name="KGAMMA"> T  </i>
   </separator>
   <separator name="electronic projectors" >
    <i type="logical" name="LREAL"> T  </i>
    <v name="ROPT">     -0.00025000     -0.00025000</v>
    <i type="int" name="LMAXPAW">  -100</i>
    <i type="int" name="LMAXMIX">     2</i>
    <i type="logical" name="NLSPLINE"> F  </i>
   </separator>
   <separator name="electronic startup" >
    <i type="int" name="ISTART">     0</i>
    <i type="int" name="ICHARG">     2</i>
    <i type="int" name="INIWAV">     1</i>
   </separator>
   <separator name="electronic spin" >
    <i type="int" name="ISPIN">     1</i>
    <i type="logical" name="LNONCOLLINEAR"> F  </i>
    <v name="MAGMOM">      1.00000000      1.00000000      1.00000000      1.00000000      1.00000000      1.00000000      1.00000000      1.00000000      1.00000000      1.00000000      1.00000000      1.00000000      1.00000000      1.00000000      1.00000000      1.00000000      1.00000000      1.00000000      1.00000000      1.00000000
      1.00000000      1.00000000      1.00000000      1.00000000</v>
    <i name="NUPDOWN">     -1.00000000</i>
    <i type="logical" name="LSORBIT"> F  </i>
    <v name="SAXIS">      0.00000000      0.00000000      1.00000000</v>
    <i type="logical" name="LSPIRAL"> F  </i>
    <v name="QSPIRAL">      0.00000000      0.00000000      0.00000000</v>
    <i type="logical" name="LZEROZ"> F  </i>
   </separator>
   <separator name="electronic exchange-correlation" >
    <i type="logical" name="LASPH"> F  </i>
    <i type="logical" name="LMETAGGA"> F  </i>
   </separator>
   <separator name="electronic convergence" >
    <i type="int" name="NELM">    60</i>
    <i type="int" name="NELMDL">    -5</i>
    <i type="int" name="NELMIN">     2</i>
    <i name="ENINI">    300.00000000</i>
    <separator name="electronic convergence detail" >
     <i type="logical" name="LDIAG"> T  </i>
     <i type="logical" name="LSUBROT"> F  </i>
     <i name="WEIMIN">      0.00000000</i>
     <i name="EBREAK">      0.00000000</i>
     <i name="DEPER">      0.30000000</i>
     <i type="int" name="NRMM">     4</i>
     <i name="TIME">      0.40000000</i>
    </separator>
   </separator>
   <separator name="electronic mixer" >
    <i name="AMIX">      0.40000000</i>
    <i name="BMIX">      1.00000000</i>
    <i name="AMIN">      0.10000000</i>
    <i name="AMIX_MAG">      1.60000000</i>
    <i name="BMIX_MAG">      1.00000000</i>
    <separator name="electronic mixer details" >
     <i type="int" name="IMIX">     4</i>
     <i type="int" name="MAXMIX">   -45</i>
     <i name="WC">    100.00000000</i>
     <i type="int" name="INIMIX">     1</i>
     <i type="int" name="MIXPRE">     1</i>
     <i type="int" name="MREMOVE">     5</i>
    </separator>
   </separator>
   <separator name="electronic dipolcorrection" >
    <i type="logical" name="LDIPOL"> F  </i>
    <i type="logical" name="LMONO"> F  </i>
    <i type="int" name="IDIPOL">     0</i>
    <i name="EPSILON">      1.00000000</i>
    <v name="DIPOL">   -100.00000000   -100.00000000   -100.00000000</v>
    <i name="EFIELD">      0.00000000</i>
   </separator>
  </separator>
  <separator name="grids" >
   <i type="int" name="NGX">    20</i>
   <i type="int" name="NGY">    60</i>
   <i type="int" name="NGZ">   160</i>
   <i type="int" name="NGXF">    40</i>
   <i type="int" name="NGYF">   120</i>
   <i type="int" name="NGZF">   320</i>
   <i type="logical" name="ADDGRID"> F  </i>
  </separator>
  <separator name="ionic" >
   <i type="int" name="NSW">     0</i>
   <i type="int" name="IBRION">    -1</i>
   <i type="int" name="ISIF">     3</i>
   <i name="PSTRESS">      0.00000000</i>
   <i name="EDIFFG">      0.00001000</i>
   <i type="int" name="NFREE">     1</i>
   <i name="POTIM">      0.50000000</i>
   <i name="SMASS">     -3.00000000</i>
   <i name="SCALEE">      1.00000000</i>
  </separator>
  <separator name="ionic md" >
   <i name="TEBEG">      0.00010000</i>
   <i name="TEEND">      0.00010000</i>
   <i type="int" name="NBLOCK">     1</i>
   <i type="int" name="KBLOCK">     1</i>
   <i type="int" name="NPACO">   256</i>
   <i name="APACO">     16.00000000</i>
  </separator>
  <separator name="symmetry" >
   <i type="int" name="ISYM">     2</i>
   <i name="SYMPREC">      0.00001000</i>
  </separator>
  <separator name="dos" >
   <i type="logical" name="LORBIT"> F  </i>
   <v name="RWIGS">     -1.00000000     -1.00000000</v>
   <i type="int" name="NEDOS">   301</i>
   <i name="EMIN">     10.00000000</i>
   <i name="EMAX">    -10.00000000</i>
   <i name="EFERMI">      0.00000000</i>
  </separator>
  <separator name="writing" >
   <i type="int" name="NWRITE">     2</i>
   <i type="logical" name="LWAVE"> F  </i>
   <i type="logical" name="LCHARG"> F  </i>
   <i type="logical" name="LPARD"> F  </i>
   <i type="logical" name="LVTOT"> F  </i>
   <i type="logical" name="LVHAR"> F  </i>
   <i type="logical" name="LELF"> F  </i>
   <i type="logical" name="LOPTICS"> F  </i>
   <v name="STM">      0.00000000      0.00000000      0.00000000      0.00000000      0.00000000      0.00000000      0.00000000</v>
  </separator>
  <separator name="performance" >
   <i type="int" name="NPAR">     4</i>
   <i type="int" name="NSIM">     4</i>
   <i type="int" name="NBLK">    -1</i>
   <i type="logical" name="LPLANE"> T  </i>
   <i type="logical" name="LSCALAPACK"> T  </i>
   <i type="logical" name="LSCAAWARE"> F  </i>
   <i type="logical" name="LSCALU"> F  </i>
   <i type="logical" name="LASYNC"> F  </i>
   <i type="logical" name="LORBITALREAL"> F  </i>
  </separator>
  <separator name="miscellaneous" >
   <i type="int" name="IDIOT">     3</i>
   <i type="logical" name="LMUSIC"> F  </i>
   <v name="POMASS">     30.97400000     28.08500000</v>
   <v name="DARWINR">      0.00000000      0.00000000</v>
   <v name="DARWINV">      1.00000000      1.00000000</v>
   <i type="logical" name="LCORR"> T  </i>
  </separator>
  <i type="logical" name="GGA_COMPAT"> T  </i>
  <i type="logical" name="LBERRY"> F  </i>
  <i type="int" name="ICORELEVEL">     0</i>
  <i type="logical" name="LDAU"> F  </i>
  <i type="int" name="I_CONSTRAINED_M">     0</i>
  <separator name="electronic exchange-correlation" >
   <i type="string" name="GGA">BO</i>
   <i type="int" name="VOSKOWN">     0</i>
   <i type="logical" name="LHFCALC"> F  </i>
   <i type="string" name="PRECFOCK"></i>
   <i type="logical" name="LSYMGRAD"> F  </i>
   <i type="logical" name="LHFONE"> F  </i>
   <i type="logical" name="LRHFCALC"> F  </i>
   <i type="logical" name="LTHOMAS"> F  </i>
   <i type="logical" name="LMODELHF"> F  </i>
   <i name="ENCUT4O">     -1.00000000</i>
   <i type="int" name="EXXOEP">     0</i>
   <i type="int" name="FOURORBIT">     0</i>
   <i name="AEXX">      0.00000000</i>
   <i name="HFALPHA">      0.00000000</i>
   <i name="MCALPHA">      0.00000000</i>
   <i name="ALDAX">      1.00000000</i>
   <i name="AGGAX">      1.00000000</i>
   <i name="ALDAC">      1.00000000</i>
   <i name="AGGAC">      0.00000000</i>
   <i type="int" name="NKREDX">     1</i>
   <i type="int" name="NKREDY">     1</i>
   <i type="int" name="NKREDZ">     1</i>
   <i type="logical" name="SHIFTRED"> F  </i>
   <i type="logical" name="ODDONLY"> F  </i>
   <i type="logical" name="EVENONLY"> F  </i>
   <i type="int" name="LMAXFOCK">     0</i>
   <i type="int" name="NMAXFOCKAE">     0</i>
   <i type="logical" name="LFOCKAEDFT"> F  </i>
   <i name="HFSCREEN">      0.00000000</i>
   <i name="HFSCREENC">      0.00000000</i>
   <i type="int" name="NBANDSGWLOW">     0</i>
  </separator>
  <separator name="vdW DFT" >
   <i type="logical" name="LUSE_VDW"> T  </i>
   <i name="Zab_VDW">     -0.84910000</i>
   <i name="PARAM1">      0.18333333</i>
   <i name="PARAM2">      0.22000000</i>
   <i name="PARAM3">      0.00000000</i>
  </separator>
  <separator name="model GW" >
   <i type="int" name="MODEL_GW">     0</i>
   <i name="MODEL_EPS0">     25.05800243</i>
   <i name="MODEL_ALPHA">      1.00000000</i>
  </separator>
  <separator name="linear response parameters" >
   <i type="logical" name="LEPSILON"> F  </i>
   <i type="logical" name="LRPA"> F  </i>
   <i type="logical" name="LNABLA"> F  </i>
   <i type="logical" name="LVEL"> F  </i>
   <i type="int" name="KINTER">     0</i>
   <i name="CSHIFT">      0.10000000</i>
   <i name="OMEGAMAX">     -1.00000000</i>
   <i name="DEG_THRESHOLD">      0.00200000</i>
  </separator>
  <separator name="orbital magnetization" >
   <i type="logical" name="NUCIND"> F  </i>
   <v name="MAGPOS">      0.00000000      0.00000000      0.00000000</v>
   <i type="logical" name="LNICSALL"> T  </i>
   <i type="logical" name="ORBITALMAG"> F  </i>
   <i type="logical" name="LMAGBLOCH"> F  </i>
   <i type="logical" name="LCHIMAG"> F  </i>
   <i type="logical" name="LGAUGE"> T  </i>
   <i type="int" name="MAGATOM">     0</i>
   <v name="MAGDIPOL">      0.00000000      0.00000000      0.00000000</v>
   <v name="AVECCONST">      0.00000000      0.00000000      0.00000000</v>
  </separator>
  <separator name="response functions" >
   <i type="logical" name="LADDER"> F  </i>
   <i type="logical" name="LFXC"> F  </i>
   <i type="logical" name="LHARTREE"> T  </i>
   <i type="int" name="IBSE">     0</i>
   <i type="logical" name="LTCTE"> F  </i>
   <i type="logical" name="LTETE"> F  </i>
   <i type="logical" name="LTRIPLET"> F  </i>
   <i type="logical" name="LFXCEPS"> F  </i>
   <i type="logical" name="LFXHEG"> F  </i>
   <i type="logical" name="L2ORDER"> F  </i>
   <i type="logical" name="LUSEW"> F  </i>
   <i name="ENCUTGW">     -2.00000000</i>
   <i name="ENCUTGWSOFT">     -2.00000000</i>
   <i name="ENCUTLF">     -1.00000000</i>
   <i type="int" name="LMAXMP2">    -1</i>
   <i name="SCISSOR">      0.00000000</i>
   <i type="int" name="NOMEGA">     0</i>
   <i type="int" name="NOMEGAR">     0</i>
   <i type="int" name="NBANDSGW">    -1</i>
   <i type="int" name="NBANDSO">    -1</i>
   <i type="int" name="NBANDSV">    -1</i>
   <i type="int" name="NELM">     1</i>
   <i type="int" name="DIM">     3</i>
   <i type="int" name="ANTIRES">     0</i>
   <i name="OMEGAMAX">    -30.00000000</i>
   <i name="OMEGAMIN">    -30.00000000</i>
   <i name="OMEGATL">   -200.00000000</i>
   <i type="int" name="OMEGAGRID">     0</i>
   <i name="CSHIFT">     -0.10000000</i>
   <i type="logical" name="SELFENERGY"> F  </i>
   <i type="logical" name="LSPECTRAL"> F  </i>
   <i type="logical" name="ODDONLYGW"> F  </i>
   <i type="logical" name="EVENONLYGW"> F  </i>
   <i type="int" name="NKREDLFX">     1</i>
   <i type="int" name="NKREDLFY">     1</i>
   <i type="int" name="NKREDLFZ">     1</i>
   <i type="int" name="MAXMEM">  1800</i>
   <i type="int" name="TELESCOPE">     0</i>
   <i type="int" name="TAUPAR">     1</i>
  </separator>
  <separator name="External order field" >
   <i name="OFIELD_KAPPA">      0.00000000</i>
   <v name="OFIELD_K">      0.00000000      0.00000000      0.00000000</v>
   <i name="OFIELD_Q6_NEAR">      0.00000000</i>
   <i name="OFIELD_Q6_FAR">      0.00000000</i>
   <i name="OFIELD_A">      0.00000000</i>
  </separator>
 </parameters>
 <atominfo>
  <atoms>      24 </atoms>
  <types>       2 </types>
  <array name="atoms" >
   <dimension dim="1">ion</dimension>
   <field type="string">element</field>
   <field type="int">atomtype</field>
   <set>
    <rc><c>P </c><c>   1</c></rc>
    <rc><c>P </c><c>   1</c></rc>
    <rc><c>P </c><c>   1</c></rc>
    <rc><c>P </c><c>   1</c></rc>
    <rc><c>P </c><c>   1</c></rc>
    <rc><c>P </c><c>   1</c></rc>
    <rc><c>P </c><c>   1</c></rc>
    <rc><c>P </c><c>   1</c></rc>
    <rc><c>P </c><c>   1</c></rc>
    <rc><c>P </c><c>   1</c></rc>
    <rc><c>P </c><c>   1</c></rc>
    <rc><c>P </c><c>   1</c></rc>
    <rc><c>Si</c><c>   2</c></rc>
    <rc><c>Si</c><c>   2</c></rc>
    <rc><c>Si</c><c>   2</c></rc>
    <rc><c>Si</c><c>   2</c></rc>
    <rc><c>Si</c><c>   2</c></rc>
    <rc><c>Si</c><c>   2</c></rc>
    <rc><c>Si</c><c>   2</c></rc>
    <rc><c>Si</c><c>   2</c></rc>
    <rc><c>Si</c><c>   2</c></rc>
    <rc><c>Si</c><c>   2</c></rc>
    <rc><c>Si</c><c>   2</c></rc>
    <rc><c>Si</c><c>   2</c></rc>
   </set>
  </array>
  <array name="atomtypes" >
   <dimension dim="1">type</dimension>
   <field type="int">atomspertype</field>
   <field type="string">element</field>
   <field>mass</field>
   <field>valence</field>
   <field type="string">pseudopotential</field>
   <set>
    <rc><c>  12</c><c>P </c><c>     30.97400000</c><c>      5.00000000</c><c>  PAW_PBE P 17Jan2003                   </c></rc>
    <rc><c>  12</c><c>Si</c><c>     28.08500000</c><c>      4.00000000</c><c> PAW_PBE Si 05Jan2001                   </c></rc>
   </set>
  </array>
 </atominfo>
 <structure name="initialpos" >
  <crystal>
   <varray name="basis" >
    <v>       3.54040000       0.00000000       0.00000000 </v>
    <v>      -1.77020000      10.29434800       0.00000000 </v>
    <v>       0.00000000       0.00000000      27.50142900 </v>
   </varray>
   <i name="volume">   1002.32009712 </i>
   <varray name="rec_basis" >
    <v>       0.28245396       0.04857034       0.00000000 </v>
    <v>       0.00000000       0.09714068       0.00000000 </v>
    <v>       0.00000000       0.00000000       0.03636175 </v>
   </varray>
  </crystal>
  <varray name="positions" >
   <v>       0.11402300       0.22804500       0.23316207 </v>
   <v>       0.21402300       0.32804500       0.51499159 </v>
   <v>       0.45808900       0.91617900       0.20939482 </v>
   <v>       0.55808900       0.01617900       0.49122434 </v>
   <v>       0.31085400       0.62170900       0.08414979 </v>
   <v>       0.31085400       0.62170900       0.36597930 </v>
   <v>       0.99923000       0.99846000       0.08631254 </v>
   <v>       0.99923000       0.99846000       0.36814206 </v>
   <v>       0.65492700       0.30985400       0.06041748 </v>
   <v>       0.65492700       0.30985400       0.34224700 </v>
   <v>       0.76973800       0.53947500       0.20725292 </v>
   <v>       0.86973800       0.63947500       0.48908244 </v>
   <v>       0.93971600       0.87943300       0.15783749 </v>
   <v>       0.03971600       0.97943300       0.43966701 </v>
   <v>       0.20515200       0.41030300       0.18578822 </v>
   <v>       0.30515200       0.51030300       0.46761774 </v>
   <v>       0.20184900       0.40369900       0.09969156 </v>
   <v>       0.20184900       0.40369900       0.38152107 </v>
   <v>       0.56380500       0.12761000       0.10779021 </v>
   <v>       0.56380500       0.12761000       0.38961973 </v>
   <v>       0.56710600       0.13421200       0.19387616 </v>
   <v>       0.66710600       0.23421200       0.47570568 </v>
   <v>       0.82923400       0.65846800       0.13571444 </v>
   <v>       0.92923400       0.75846800       0.41754396 </v>
  </varray>
 </structure>
 <calculation>
  <scstep>
   <time name="dav">  116.28  116.32</time>
   <time name="total">  136.10  136.32</time>
   <energy>
    <i name="alphaZ">     36.80884744 </i>
    <i name="ewald">  11893.57012394 </i>
    <i name="hartreedc"> -14950.86472163 </i>
    <i name="XCdc">    -88.23316200 </i>
    <i name="pawpsdc">   1056.43050070 </i>
    <i name="pawaedc">   -732.41190547 </i>
    <i name="eentropy">     -0.03940246 </i>
    <i name="bandstr">    -84.65496505 </i>
    <i name="atom">   3354.04126044 </i>
    <i name="e_fr_energy">    484.64657591 </i>
    <i name="e_wo_entrp">    484.68597837 </i>
    <i name="e_0_energy">    484.66627714 </i>
   </energy>
  </scstep>
  <scstep>
   <time name="dav">  143.88  143.92</time>
   <time name="total">  143.89  143.93</time>
   <energy>
    <i name="e_fr_energy">    -70.44483192 </i>
    <i name="e_wo_entrp">    -70.42725996 </i>
    <i name="e_0_energy">    -70.43604594 </i>
   </energy>
  </scstep>
  <scstep>
   <time name="dav">  132.90  132.94</time>
   <time name="total">  132.92  132.95</time>
   <energy>
    <i name="e_fr_energy">   -125.63054828 </i>
    <i name="e_wo_entrp">   -125.61909818 </i>
    <i name="e_0_energy">   -125.62482323 </i>
   </energy>
  </scstep>
  <scstep>
   <time name="dav">  159.98  160.03</time>
   <time name="total">  160.00  160.04</time>
   <energy>
    <i name="e_fr_energy">   -128.11924467 </i>
    <i name="e_wo_entrp">   -128.10698948 </i>
    <i name="e_0_energy">   -128.11311708 </i>
   </energy>
  </scstep>
  <scstep>
   <time name="dav">  150.04  150.09</time>
   <time name="total">  155.63  155.68</time>
   <energy>
    <i name="e_fr_energy">   -128.17924520 </i>
    <i name="e_wo_entrp">   -128.16695721 </i>
    <i name="e_0_energy">   -128.17310121 </i>
   </energy>
  </scstep>
  <scstep>
   <time name="dav">  131.61  131.65</time>
   <time name="total">  158.01  158.06</time>
   <energy>
    <i name="e_fr_energy">   -126.34066959 </i>
    <i name="e_wo_entrp">   -126.32570277 </i>
    <i name="e_0_energy">   -126.33318618 </i>
   </energy>
  </scstep>
  <scstep>
   <time name="dav">  129.50  129.53</time>
   <time name="total">  155.88  155.92</time>
   <energy>
    <i name="e_fr_energy">   -126.06617118 </i>
    <i name="e_wo_entrp">   -126.04704673 </i>
    <i name="e_0_energy">   -126.05660896 </i>
   </energy>
  </scstep>
  <scstep>
   <time name="dav">  135.73  135.76</time>
   <time name="total">  158.37  158.41</time>
   <energy>
    <i name="e_fr_energy">   -126.05301559 </i>
    <i name="e_wo_entrp">   -126.03324702 </i>
    <i name="e_0_energy">   -126.04313131 </i>
   </energy>
  </scstep>
  <scstep>
   <time name="dav">  133.95  133.99</time>
   <time name="total">  156.60  156.64</time>
   <energy>
    <i name="e_fr_energy">   -126.03225601 </i>
    <i name="e_wo_entrp">   -126.01440351 </i>
    <i name="e_0_energy">   -126.02332976 </i>
   </energy>
  </scstep>
  <scstep>
   <time name="dav">  135.60  135.63</time>
   <time name="total">  157.66  157.70</time>
   <energy>
    <i name="e_fr_energy">   -126.02053355 </i>
    <i name="e_wo_entrp">   -126.00271003 </i>
    <i name="e_0_energy">   -126.01162179 </i>
   </energy>
  </scstep>
  <scstep>
   <time name="dav">  136.54  136.58</time>
   <time name="total">  158.37  158.41</time>
   <energy>
    <i name="e_fr_energy">   -126.01430540 </i>
    <i name="e_wo_entrp">   -125.99648022 </i>
    <i name="e_0_energy">   -126.00539281 </i>
   </energy>
  </scstep>
  <scstep>
   <time name="dav">  130.99  131.03</time>
   <time name="total">  153.00  153.04</time>
   <energy>
    <i name="e_fr_energy">   -126.01090580 </i>
    <i name="e_wo_entrp">   -125.99317908 </i>
    <i name="e_0_energy">   -126.00204244 </i>
   </energy>
  </scstep>
  <scstep>
   <time name="dav">  144.87  144.91</time>
   <time name="total">  167.17  167.21</time>
   <energy>
    <i name="e_fr_energy">   -126.00930691 </i>
    <i name="e_wo_entrp">   -125.99159750 </i>
    <i name="e_0_energy">   -126.00045221 </i>
   </energy>
  </scstep>
  <scstep>
   <time name="dav">  131.56  131.61</time>
   <time name="total">  153.82  153.88</time>
   <energy>
    <i name="e_fr_energy">   -126.00853767 </i>
    <i name="e_wo_entrp">   -125.99085424 </i>
    <i name="e_0_energy">   -125.99969596 </i>
   </energy>
  </scstep>
  <scstep>
   <time name="dav">  127.65  127.69</time>
   <time name="total">  149.94  149.98</time>
   <energy>
    <i name="e_fr_energy">   -126.00856674 </i>
    <i name="e_wo_entrp">   -125.99088864 </i>
    <i name="e_0_energy">   -125.99972769 </i>
   </energy>
  </scstep>
  <scstep>
   <time name="dav">  127.41  127.45</time>
   <time name="total">  149.60  149.64</time>
   <energy>
    <i name="e_fr_energy">   -126.00921560 </i>
    <i name="e_wo_entrp">   -125.99154241 </i>
    <i name="e_0_energy">   -126.00037901 </i>
   </energy>
  </scstep>
  <scstep>
   <time name="dav">  120.19  120.22</time>
   <time name="total">  142.61  142.64</time>
   <energy>
    <i name="e_fr_energy">   -126.00931096 </i>
    <i name="e_wo_entrp">   -125.99163995 </i>
    <i name="e_0_energy">   -126.00047546 </i>
   </energy>
  </scstep>
  <scstep>
   <time name="dav">  109.08  109.16</time>
   <time name="total">  131.28  131.37</time>
   <energy>
    <i name="e_fr_energy">   -126.00934809 </i>
    <i name="e_wo_entrp">   -125.99167636 </i>
    <i name="e_0_energy">   -126.00051223 </i>
   </energy>
  </scstep>
  <scstep>
   <time name="dav">  104.70  104.80</time>
   <time name="total">  127.08  127.20</time>
   <energy>
    <i name="e_fr_energy">   -126.00937445 </i>
    <i name="e_wo_entrp">   -125.99170399 </i>
    <i name="e_0_energy">   -126.00053922 </i>
   </energy>
  </scstep>
  <scstep>
   <time name="dav">  112.02  112.10</time>
   <time name="total">  134.26  134.36</time>
   <energy>
    <i name="e_fr_energy">   -126.00933897 </i>
    <i name="e_wo_entrp">   -125.99166828 </i>
    <i name="e_0_energy">   -126.00050363 </i>
   </energy>
  </scstep>
  <scstep>
   <time name="dav">  105.14  105.22</time>
   <time name="total">  127.73  127.82</time>
   <energy>
    <i name="e_fr_energy">   -126.00930990 </i>
    <i name="e_wo_entrp">   -125.99163873 </i>
    <i name="e_0_energy">   -126.00047431 </i>
   </energy>
  </scstep>
  <scstep>
   <time name="dav">  108.92  109.01</time>
   <time name="total">  131.07  131.19</time>
   <energy>
    <i name="e_fr_energy">   -126.00924946 </i>
    <i name="e_wo_entrp">   -125.99157916 </i>
    <i name="e_0_energy">   -126.00041431 </i>
   </energy>
  </scstep>
  <scstep>
   <time name="dav">  102.79  102.84</time>
   <time name="total">  119.12  119.18</time>
   <energy>
    <i name="alphaZ">     36.80884744 </i>
    <i name="ewald">  11893.57012394 </i>
    <i name="hartreedc"> -15034.86888136 </i>
    <i name="XCdc">    -80.62063056 </i>
    <i name="pawpsdc">   1155.09411520 </i>
    <i name="pawaedc">   -833.76907172 </i>
    <i name="eentropy">     -0.01767079 </i>
    <i name="bandstr">   -616.24734114 </i>
    <i name="atom">   3354.04126044 </i>
    <i name="e_fr_energy">   -126.00924854 </i>
    <i name="e_wo_entrp">   -125.99157775 </i>
    <i name="e_0_energy">   -126.00041315 </i>
   </energy>
  </scstep>
  <structure>
   <crystal>
    <varray name="basis" >
     <v>       3.54040000       0.00000000       0.00000000 </v>
     <v>      -1.77020000      10.29434800       0.00000000 </v>
     <v>       0.00000000       0.00000000      27.50142900 </v>
    </varray>
    <i name="volume">   1002.32009712 </i>
    <varray name="rec_basis" >
     <v>       0.28245396       0.04857034       0.00000000 </v>
     <v>       0.00000000       0.09714068       0.00000000 </v>
     <v>       0.00000000       0.00000000       0.03636175 </v>
    </varray>
   </crystal>
   <varray name="positions" >
    <v>       0.11402300       0.22804500       0.23316207 </v>
    <v>       0.21402300       0.32804500       0.51499159 </v>
    <v>       0.45808900       0.91617900       0.20939482 </v>
    <v>       0.55808900       0.01617900       0.49122434 </v>
    <v>       0.31085400       0.62170900       0.08414979 </v>
    <v>       0.31085400       0.62170900       0.36597930 </v>
    <v>       0.99923000       0.99846000       0.08631254 </v>
    <v>       0.99923000       0.99846000       0.36814206 </v>
    <v>       0.65492700       0.30985400       0.06041748 </v>
    <v>       0.65492700       0.30985400       0.34224700 </v>
    <v>       0.76973800       0.53947500       0.20725292 </v>
    <v>       0.86973800       0.63947500       0.48908244 </v>
    <v>       0.93971600       0.87943300       0.15783749 </v>
    <v>       0.03971600       0.97943300       0.43966701 </v>
    <v>       0.20515200       0.41030300       0.18578822 </v>
    <v>       0.30515200       0.51030300       0.46761774 </v>
    <v>       0.20184900       0.40369900       0.09969156 </v>
    <v>       0.20184900       0.40369900       0.38152107 </v>
    <v>       0.56380500       0.12761000       0.10779021 </v>
    <v>       0.56380500       0.12761000       0.38961973 </v>
    <v>       0.56710600       0.13421200       0.19387616 </v>
    <v>       0.66710600       0.23421200       0.47570568 </v>
    <v>       0.82923400       0.65846800       0.13571444 </v>
    <v>       0.92923400       0.75846800       0.41754396 </v>
   </varray>
  </structure>
  <varray name="forces" >
   <v>       0.00008720      -0.06298815       0.01919511 </v>
   <v>       0.11550159      -0.59461901       0.36015620 </v>
   <v>       0.00021578      -0.00890752       0.07907680 </v>
   <v>       0.14889192      -0.79739979       0.77913762 </v>
   <v>      -0.00029281      -0.00270457       0.00403833 </v>
   <v>       0.11954445       2.51620348      -0.62010373 </v>
   <v>      -0.00074151      -0.00849410       0.00465516 </v>
   <v>      -0.52842255       1.55825524      -5.32182853 </v>
   <v>       0.00106372      -0.00214514       0.00655825 </v>
   <v>      -0.05476644       0.81132855      -0.66579748 </v>
   <v>       0.00063373       0.01145971       0.09583630 </v>
   <v>      -0.05280266      -0.71513069       0.07017110 </v>
   <v>       0.00256095      -0.00898773       0.00886171 </v>
   <v>       0.15160217      -2.40798276       5.62684769 </v>
   <v>      -0.00267704       0.04033678       0.06874134 </v>
   <v>      -0.07786769      -0.54032742      -0.43401069 </v>
   <v>      -0.00035687      -0.00932573      -0.02117170 </v>
   <v>      -0.02598038       0.97924788       0.99280611 </v>
   <v>      -0.00270403      -0.00279814      -0.00885499 </v>
   <v>       0.27868075       2.82825850      -0.46296882 </v>
   <v>       0.00005448      -0.01371118      -0.02725016 </v>
   <v>      -0.04433563      -0.51312315      -0.55171724 </v>
   <v>       0.00158845      -0.01102617       0.00371322 </v>
   <v>      -0.02947757      -3.04541889      -0.00609160 </v>
  </varray>
  <varray name="stress" >
   <v>      -5.53249360       0.42369686       1.43038260 </v>
   <v>       0.42369704       1.60873091     -28.17226071 </v>
   <v>       1.43038262     -28.17226067      17.76959918 </v>
  </varray>
  <energy>
   <i name="e_fr_energy">   -126.00924854 </i>
   <i name="e_wo_entrp">   -126.00041315 </i>
   <i name="e_0_energy">     -0.01767079 </i>
  </energy>
  <time name="totalsc"> 3511.43 3512.94</time>
  <eigenvalues>
   <array>
    <dimension dim="1">band</dimension>
    <dimension dim="2">kpoint</dimension>
    <dimension dim="3">spin</dimension>
    <field>eigene</field>
    <field>occ</field>
    <set>
     <set comment="spin 1">
      <set comment="kpoint 1">
       <r>  -14.4908    1.0000 </r>
       <r>  -13.5425    1.0000 </r>
       <r>  -12.8049    1.0000 </r>
       <r>  -12.7742    1.0000 </r>
       <r>  -12.5076    1.0000 </r>
       <r>  -12.4021    1.0000 </r>
       <r>  -12.0896    1.0000 </r>
       <r>  -11.9279    1.0000 </r>
       <r>  -11.4458    1.0000 </r>
       <r>  -11.4308    1.0000 </r>
       <r>  -10.9943    1.0000 </r>
       <r>  -10.3928    1.0000 </r>
       <r>   -8.4291    1.0000 </r>
       <r>   -8.0364    1.0000 </r>
       <r>   -7.8283    1.0000 </r>
       <r>   -7.7728    1.0000 </r>
       <r>   -6.9239    1.0000 </r>
       <r>   -6.7596    1.0000 </r>
       <r>   -6.4954    1.0000 </r>
       <r>   -6.2814    1.0000 </r>
       <r>   -5.8437    1.0000 </r>
       <r>   -5.7710    1.0000 </r>
       <r>   -4.9851    1.0000 </r>
       <r>   -4.7309    1.0000 </r>
       <r>   -4.1339    1.0000 </r>
       <r>   -4.0044    1.0000 </r>
       <r>   -3.7861    1.0000 </r>
       <r>   -3.6867    1.0000 </r>
       <r>   -3.3426    1.0000 </r>
       <r>   -3.2009    1.0000 </r>
       <r>   -3.0566    1.0000 </r>
       <r>   -2.9238    1.0000 </r>
       <r>   -2.8485    1.0000 </r>
       <r>   -2.6570    1.0000 </r>
       <r>   -2.5339    1.0000 </r>
       <r>   -2.4560    1.0000 </r>
       <r>   -2.4013    1.0000 </r>
       <r>   -2.3508    1.0000 </r>
       <r>   -2.3118    1.0000 </r>
       <r>   -2.0729    1.0000 </r>
       <r>   -1.8712    1.0000 </r>
       <r>   -1.8373    1.0000 </r>
       <r>   -1.7338    1.0000 </r>
       <r>   -1.6402    1.0000 </r>
       <r>   -1.5980    1.0000 </r>
       <r>   -1.4937    1.0000 </r>
       <r>   -1.4333    1.0000 </r>
       <r>   -1.4180    1.0000 </r>
       <r>   -1.3089    1.0000 </r>
       <r>   -1.1374    1.0000 </r>
       <r>   -1.0981    1.0000 </r>
       <r>   -0.8196    1.0000 </r>
       <r>   -0.2833    0.9999 </r>
       <r>    0.0829    0.0736 </r>
       <r>    0.1630    0.0049 </r>
       <r>    0.9224    0.0000 </r>
       <r>    1.1159    0.0000 </r>
       <r>    1.2532    0.0000 </r>
       <r>    1.3212    0.0000 </r>
       <r>    1.6918    0.0000 </r>
       <r>    1.8297    0.0000 </r>
       <r>    1.9813    0.0000 </r>
       <r>    2.0868    0.0000 </r>
       <r>    2.1610    0.0000 </r>
       <r>    2.3703    0.0000 </r>
       <r>    2.4440    0.0000 </r>
       <r>    2.6078    0.0000 </r>
       <r>    2.7643    0.0000 </r>
      </set>
      <set comment="kpoint 2">
       <r>  -14.4341    1.0000 </r>
       <r>  -13.4811    1.0000 </r>
       <r>  -12.7527    1.0000 </r>
       <r>  -12.7196    1.0000 </r>
       <r>  -12.4519    1.0000 </r>
       <r>  -12.3471    1.0000 </r>
       <r>  -12.0277    1.0000 </r>
       <r>  -11.8763    1.0000 </r>
       <r>  -11.3964    1.0000 </r>
       <r>  -11.3818    1.0000 </r>
       <r>  -10.9459    1.0000 </r>
       <r>  -10.3539    1.0000 </r>
       <r>   -8.4285    1.0000 </r>
       <r>   -8.0725    1.0000 </r>
       <r>   -7.7939    1.0000 </r>
       <r>   -7.7336    1.0000 </r>
       <r>   -6.8865    1.0000 </r>
       <r>   -6.7262    1.0000 </r>
       <r>   -6.4896    1.0000 </r>
       <r>   -6.3093    1.0000 </r>
       <r>   -5.8119    1.0000 </r>
       <r>   -5.7439    1.0000 </r>
       <r>   -4.9786    1.0000 </r>
       <r>   -4.7360    1.0000 </r>
       <r>   -4.4571    1.0000 </r>
       <r>   -4.0683    1.0000 </r>
       <r>   -3.7905    1.0000 </r>
       <r>   -3.7072    1.0000 </r>
       <r>   -3.5256    1.0000 </r>
       <r>   -3.3204    1.0000 </r>
       <r>   -3.2912    1.0000 </r>
       <r>   -3.2381    1.0000 </r>
       <r>   -3.0144    1.0000 </r>
       <r>   -2.9426    1.0000 </r>
       <r>   -2.7437    1.0000 </r>
       <r>   -2.7005    1.0000 </r>
       <r>   -2.5384    1.0000 </r>
       <r>   -2.4762    1.0000 </r>
       <r>   -2.3768    1.0000 </r>
       <r>   -2.2122    1.0000 </r>
       <r>   -2.1972    1.0000 </r>
       <r>   -2.0600    1.0000 </r>
       <r>   -1.9694    1.0000 </r>
       <r>   -1.9027    1.0000 </r>
       <r>   -1.8400    1.0000 </r>
       <r>   -1.7415    1.0000 </r>
       <r>   -1.5188    1.0000 </r>
       <r>   -1.3767    1.0000 </r>
       <r>   -1.2231    1.0000 </r>
       <r>   -1.1137    1.0000 </r>
       <r>   -1.0533    1.0000 </r>
       <r>   -0.7537    1.0000 </r>
       <r>   -0.2770    0.9999 </r>
       <r>   -0.1705    0.9836 </r>
       <r>    0.5065    0.0000 </r>
       <r>    1.1237    0.0000 </r>
       <r>    1.4639    0.0000 </r>
       <r>    1.5888    0.0000 </r>
       <r>    1.7619    0.0000 </r>
       <r>    1.9768    0.0000 </r>
       <r>    2.1156    0.0000 </r>
       <r>    2.1954    0.0000 </r>
       <r>    2.2521    0.0000 </r>
       <r>    2.3056    0.0000 </r>
       <r>    2.5283    0.0000 </r>
       <r>    2.6089    0.0000 </r>
       <r>    2.7671    0.0000 </r>
       <r>    2.9105    0.0000 </r>
      </set>
      <set comment="kpoint 3">
       <r>  -14.2661    1.0000 </r>
       <r>  -13.2981    1.0000 </r>
       <r>  -12.5970    1.0000 </r>
       <r>  -12.5581    1.0000 </r>
       <r>  -12.2868    1.0000 </r>
       <r>  -12.1844    1.0000 </r>
       <r>  -11.8465    1.0000 </r>
       <r>  -11.7271    1.0000 </r>
       <r>  -11.2533    1.0000 </r>
       <r>  -11.2396    1.0000 </r>
       <r>  -10.8069    1.0000 </r>
       <r>  -10.2469    1.0000 </r>
       <r>   -8.4312    1.0000 </r>
       <r>   -8.1686    1.0000 </r>
       <r>   -7.7525    1.0000 </r>
       <r>   -7.6607    1.0000 </r>
       <r>   -6.7959    1.0000 </r>
       <r>   -6.6510    1.0000 </r>
       <r>   -6.5020    1.0000 </r>
       <r>   -6.4461    1.0000 </r>
       <r>   -5.7541    1.0000 </r>
       <r>   -5.6992    1.0000 </r>
       <r>   -5.1609    1.0000 </r>
       <r>   -5.0124    1.0000 </r>
       <r>   -4.8616    1.0000 </r>
       <r>   -4.2233    1.0000 </r>
       <r>   -4.0975    1.0000 </r>
       <r>   -4.0451    1.0000 </r>
       <r>   -3.9751    1.0000 </r>
       <r>   -3.8229    1.0000 </r>
       <r>   -3.7042    1.0000 </r>
       <r>   -3.5770    1.0000 </r>
       <r>   -3.5465    1.0000 </r>
       <r>   -3.3339    1.0000 </r>
       <r>   -3.2039    1.0000 </r>
       <r>   -3.0368    1.0000 </r>
       <r>   -2.9836    1.0000 </r>
       <r>   -2.9598    1.0000 </r>
       <r>   -2.7900    1.0000 </r>
       <r>   -2.5933    1.0000 </r>
       <r>   -2.4913    1.0000 </r>
       <r>   -2.3808    1.0000 </r>
       <r>   -2.3255    1.0000 </r>
       <r>   -2.1522    1.0000 </r>
       <r>   -1.9484    1.0000 </r>
       <r>   -1.7693    1.0000 </r>
       <r>   -1.6631    1.0000 </r>
       <r>   -1.4436    1.0000 </r>
       <r>   -1.2366    1.0000 </r>
       <r>   -1.1336    1.0000 </r>
       <r>   -1.0472    1.0000 </r>
       <r>   -0.8271    1.0000 </r>
       <r>   -0.6884    1.0000 </r>
       <r>   -0.1981    0.9942 </r>
       <r>    0.9920    0.0000 </r>
       <r>    1.3075    0.0000 </r>
       <r>    1.7291    0.0000 </r>
       <r>    1.9186    0.0000 </r>
       <r>    2.0250    0.0000 </r>
       <r>    2.2411    0.0000 </r>
       <r>    2.4168    0.0000 </r>
       <r>    2.4764    0.0000 </r>
       <r>    2.6007    0.0000 </r>
       <r>    2.6584    0.0000 </r>
       <r>    2.7657    0.0000 </r>
       <r>    2.9235    0.0000 </r>
       <r>    3.0188    0.0000 </r>
       <r>    3.0791    0.0000 </r>
      </set>
      <set comment="kpoint 4">
       <r>  -13.9941    1.0000 </r>
       <r>  -12.9971    1.0000 </r>
       <r>  -12.3408    1.0000 </r>
       <r>  -12.2983    1.0000 </r>
       <r>  -12.0193    1.0000 </r>
       <r>  -11.9216    1.0000 </r>
       <r>  -11.5640    1.0000 </r>
       <r>  -11.4999    1.0000 </r>
       <r>  -11.0349    1.0000 </r>
       <r>  -11.0226    1.0000 </r>
       <r>  -10.6035    1.0000 </r>
       <r>  -10.1074    1.0000 </r>
       <r>   -8.4658    1.0000 </r>
       <r>   -8.3597    1.0000 </r>
       <r>   -7.8252    1.0000 </r>
       <r>   -7.6694    1.0000 </r>
       <r>   -6.8792    1.0000 </r>
       <r>   -6.7132    1.0000 </r>
       <r>   -6.6340    1.0000 </r>
       <r>   -6.5418    1.0000 </r>
       <r>   -5.9317    1.0000 </r>
       <r>   -5.7408    1.0000 </r>
       <r>   -5.5756    1.0000 </r>
       <r>   -5.3421    1.0000 </r>
       <r>   -5.2681    1.0000 </r>
       <r>   -4.8138    1.0000 </r>
       <r>   -4.6106    1.0000 </r>
       <r>   -4.5165    1.0000 </r>
       <r>   -4.4040    1.0000 </r>
       <r>   -4.2534    1.0000 </r>
       <r>   -4.1958    1.0000 </r>
       <r>   -4.0805    1.0000 </r>
       <r>   -3.8020    1.0000 </r>
       <r>   -3.7300    1.0000 </r>
       <r>   -3.5063    1.0000 </r>
       <r>   -3.4636    1.0000 </r>
       <r>   -3.1870    1.0000 </r>
       <r>   -3.1197    1.0000 </r>
       <r>   -2.9816    1.0000 </r>
       <r>   -2.8332    1.0000 </r>
       <r>   -2.6878    1.0000 </r>
       <r>   -2.5226    1.0000 </r>
       <r>   -2.4125    1.0000 </r>
       <r>   -2.3471    1.0000 </r>
       <r>   -1.9182    1.0000 </r>
       <r>   -1.8583    1.0000 </r>
       <r>   -1.8300    1.0000 </r>
       <r>   -1.7300    1.0000 </r>
       <r>   -1.4632    1.0000 </r>
       <r>   -1.2538    1.0000 </r>
       <r>   -1.1108    1.0000 </r>
       <r>   -1.0023    1.0000 </r>
       <r>   -0.6854    1.0000 </r>
       <r>   -0.1963    0.9938 </r>
       <r>    0.6682    0.0000 </r>
       <r>    1.0588    0.0000 </r>
       <r>    1.4690    0.0000 </r>
       <r>    1.8456    0.0000 </r>
       <r>    1.9375    0.0000 </r>
       <r>    2.0525    0.0000 </r>
       <r>    2.2212    0.0000 </r>
       <r>    2.3338    0.0000 </r>
       <r>    2.3790    0.0000 </r>
       <r>    2.4844    0.0000 </r>
       <r>    2.6753    0.0000 </r>
       <r>    2.8822    0.0000 </r>
       <r>    2.8996    0.0000 </r>
       <r>    3.0381    0.0000 </r>
      </set>
      <set comment="kpoint 5">
       <r>  -13.6347    1.0000 </r>
       <r>  -12.5853    1.0000 </r>
       <r>  -11.9926    1.0000 </r>
       <r>  -11.9638    1.0000 </r>
       <r>  -11.6658    1.0000 </r>
       <r>  -11.5781    1.0000 </r>
       <r>  -11.2778    1.0000 </r>
       <r>  -11.1899    1.0000 </r>
       <r>  -10.7845    1.0000 </r>
       <r>  -10.7762    1.0000 </r>
       <r>  -10.4169    1.0000 </r>
       <r>  -10.0118    1.0000 </r>
       <r>   -8.6564    1.0000 </r>
       <r>   -8.5629    1.0000 </r>
       <r>   -8.0859    1.0000 </r>
       <r>   -7.8166    1.0000 </r>
       <r>   -7.3429    1.0000 </r>
       <r>   -6.9964    1.0000 </r>
       <r>   -6.9039    1.0000 </r>
       <r>   -6.6316    1.0000 </r>
       <r>   -6.3128    1.0000 </r>
       <r>   -6.1812    1.0000 </r>
       <r>   -6.1635    1.0000 </r>
       <r>   -5.9621    1.0000 </r>
       <r>   -5.3711    1.0000 </r>
       <r>   -5.2126    1.0000 </r>
       <r>   -4.8123    1.0000 </r>
       <r>   -4.7292    1.0000 </r>
       <r>   -4.6915    1.0000 </r>
       <r>   -4.4774    1.0000 </r>
       <r>   -4.3594    1.0000 </r>
       <r>   -4.3086    1.0000 </r>
       <r>   -4.2208    1.0000 </r>
       <r>   -3.8570    1.0000 </r>
       <r>   -3.5412    1.0000 </r>
       <r>   -3.3988    1.0000 </r>
       <r>   -3.2681    1.0000 </r>
       <r>   -3.1719    1.0000 </r>
       <r>   -3.0884    1.0000 </r>
       <r>   -3.0417    1.0000 </r>
       <r>   -2.8548    1.0000 </r>
       <r>   -2.6503    1.0000 </r>
       <r>   -2.5149    1.0000 </r>
       <r>   -2.3707    1.0000 </r>
       <r>   -2.1950    1.0000 </r>
       <r>   -2.0594    1.0000 </r>
       <r>   -1.8902    1.0000 </r>
       <r>   -1.8666    1.0000 </r>
       <r>   -1.7138    1.0000 </r>
       <r>   -1.4248    1.0000 </r>
       <r>   -1.3093    1.0000 </r>
       <r>   -1.0834    1.0000 </r>
       <r>   -0.6610    1.0000 </r>
       <r>   -0.1995    0.9945 </r>
       <r>    0.2697    0.0000 </r>
       <r>    0.7535    0.0000 </r>
       <r>    0.9918    0.0000 </r>
       <r>    1.5602    0.0000 </r>
       <r>    1.6042    0.0000 </r>
       <r>    1.7745    0.0000 </r>
       <r>    1.9090    0.0000 </r>
       <r>    2.0151    0.0000 </r>
       <r>    2.1810    0.0000 </r>
       <r>    2.3005    0.0000 </r>
       <r>    2.3920    0.0000 </r>
       <r>    2.5505    0.0000 </r>
       <r>    2.7163    0.0000 </r>
       <r>    2.8308    0.0000 </r>
      </set>
      <set comment="kpoint 6">
       <r>  -13.2290    1.0000 </r>
       <r>  -12.0770    1.0000 </r>
       <r>  -11.6428    1.0000 </r>
       <r>  -11.5732    1.0000 </r>
       <r>  -11.2674    1.0000 </r>
       <r>  -11.2195    1.0000 </r>
       <r>  -11.0835    1.0000 </r>
       <r>  -10.8515    1.0000 </r>
       <r>  -10.6273    1.0000 </r>
       <r>  -10.5641    1.0000 </r>
       <r>  -10.4557    1.0000 </r>
       <r>  -10.0375    1.0000 </r>
       <r>   -8.8325    1.0000 </r>
       <r>   -8.6345    1.0000 </r>
       <r>   -8.3782    1.0000 </r>
       <r>   -7.9712    1.0000 </r>
       <r>   -7.7311    1.0000 </r>
       <r>   -7.4607    1.0000 </r>
       <r>   -7.4158    1.0000 </r>
       <r>   -7.0883    1.0000 </r>
       <r>   -6.8860    1.0000 </r>
       <r>   -6.7640    1.0000 </r>
       <r>   -6.6624    1.0000 </r>
       <r>   -6.5527    1.0000 </r>
       <r>   -5.3084    1.0000 </r>
       <r>   -5.2146    1.0000 </r>
       <r>   -4.8155    1.0000 </r>
       <r>   -4.6227    1.0000 </r>
       <r>   -4.5288    1.0000 </r>
       <r>   -4.3983    1.0000 </r>
       <r>   -4.2785    1.0000 </r>
       <r>   -4.2342    1.0000 </r>
       <r>   -4.0837    1.0000 </r>
       <r>   -4.0708    1.0000 </r>
       <r>   -3.6624    1.0000 </r>
       <r>   -3.5943    1.0000 </r>
       <r>   -3.4288    1.0000 </r>
       <r>   -3.2730    1.0000 </r>
       <r>   -3.1977    1.0000 </r>
       <r>   -3.1697    1.0000 </r>
       <r>   -2.8956    1.0000 </r>
       <r>   -2.7773    1.0000 </r>
       <r>   -2.6169    1.0000 </r>
       <r>   -2.4347    1.0000 </r>
       <r>   -2.2852    1.0000 </r>
       <r>   -2.2442    1.0000 </r>
       <r>   -2.0765    1.0000 </r>
       <r>   -2.0162    1.0000 </r>
       <r>   -1.8454    1.0000 </r>
       <r>   -1.6145    1.0000 </r>
       <r>   -1.4176    1.0000 </r>
       <r>   -1.2057    1.0000 </r>
       <r>   -0.6762    1.0000 </r>
       <r>   -0.2754    0.9999 </r>
       <r>    0.0877    0.0645 </r>
       <r>    0.4702    0.0000 </r>
       <r>    0.5832    0.0000 </r>
       <r>    1.3156    0.0000 </r>
       <r>    1.4089    0.0000 </r>
       <r>    1.6655    0.0000 </r>
       <r>    1.7185    0.0000 </r>
       <r>    1.7744    0.0000 </r>
       <r>    2.0547    0.0000 </r>
       <r>    2.2167    0.0000 </r>
       <r>    2.2450    0.0000 </r>
       <r>    2.3080    0.0000 </r>
       <r>    2.3798    0.0000 </r>
       <r>    2.6323    0.0000 </r>
      </set>
      <set comment="kpoint 7">
       <r>  -12.8959    1.0000 </r>
       <r>  -11.5856    1.0000 </r>
       <r>  -11.5031    1.0000 </r>
       <r>  -11.1519    1.0000 </r>
       <r>  -10.9844    1.0000 </r>
       <r>  -10.9462    1.0000 </r>
       <r>  -10.8498    1.0000 </r>
       <r>  -10.8093    1.0000 </r>
       <r>  -10.7335    1.0000 </r>
       <r>  -10.6307    1.0000 </r>
       <r>  -10.4944    1.0000 </r>
       <r>  -10.1592    1.0000 </r>
       <r>   -8.6912    1.0000 </r>
       <r>   -8.5821    1.0000 </r>
       <r>   -8.4401    1.0000 </r>
       <r>   -8.1214    1.0000 </r>
       <r>   -8.0781    1.0000 </r>
       <r>   -7.7862    1.0000 </r>
       <r>   -7.5762    1.0000 </r>
       <r>   -7.5580    1.0000 </r>
       <r>   -7.3366    1.0000 </r>
       <r>   -7.2848    1.0000 </r>
       <r>   -7.1839    1.0000 </r>
       <r>   -6.7921    1.0000 </r>
       <r>   -5.1294    1.0000 </r>
       <r>   -4.9207    1.0000 </r>
       <r>   -4.7596    1.0000 </r>
       <r>   -4.5179    1.0000 </r>
       <r>   -4.4662    1.0000 </r>
       <r>   -4.2558    1.0000 </r>
       <r>   -4.1224    1.0000 </r>
       <r>   -4.0540    1.0000 </r>
       <r>   -3.9434    1.0000 </r>
       <r>   -3.9141    1.0000 </r>
       <r>   -3.8364    1.0000 </r>
       <r>   -3.7539    1.0000 </r>
       <r>   -3.5726    1.0000 </r>
       <r>   -3.5050    1.0000 </r>
       <r>   -3.3477    1.0000 </r>
       <r>   -3.2595    1.0000 </r>
       <r>   -3.0669    1.0000 </r>
       <r>   -2.9985    1.0000 </r>
       <r>   -2.6948    1.0000 </r>
       <r>   -2.5996    1.0000 </r>
       <r>   -2.3595    1.0000 </r>
       <r>   -2.2071    1.0000 </r>
       <r>   -2.1742    1.0000 </r>
       <r>   -2.0829    1.0000 </r>
       <r>   -1.7490    1.0000 </r>
       <r>   -1.6945    1.0000 </r>
       <r>   -1.5264    1.0000 </r>
       <r>   -1.2757    1.0000 </r>
       <r>   -0.6638    1.0000 </r>
       <r>   -0.4260    1.0000 </r>
       <r>    0.0692    0.1045 </r>
       <r>    0.2910    0.0000 </r>
       <r>    0.3478    0.0000 </r>
       <r>    1.2427    0.0000 </r>
       <r>    1.3809    0.0000 </r>
       <r>    1.5482    0.0000 </r>
       <r>    1.6257    0.0000 </r>
       <r>    1.6831    0.0000 </r>
       <r>    1.8487    0.0000 </r>
       <r>    2.0357    0.0000 </r>
       <r>    2.1265    0.0000 </r>
       <r>    2.2819    0.0000 </r>
       <r>    2.3852    0.0000 </r>
       <r>    2.5086    0.0000 </r>
      </set>
      <set comment="kpoint 8">
       <r>  -14.4863    1.0000 </r>
       <r>  -13.4870    1.0000 </r>
       <r>  -12.9784    1.0000 </r>
       <r>  -12.8155    1.0000 </r>
       <r>  -12.5105    1.0000 </r>
       <r>  -12.4163    1.0000 </r>
       <r>  -11.8996    1.0000 </r>
       <r>  -11.8505    1.0000 </r>
       <r>  -11.4782    1.0000 </r>
       <r>  -11.4005    1.0000 </r>
       <r>  -11.0023    1.0000 </r>
       <r>  -10.3382    1.0000 </r>
       <r>   -8.9034    1.0000 </r>
       <r>   -8.5186    1.0000 </r>
       <r>   -7.4104    1.0000 </r>
       <r>   -7.2412    1.0000 </r>
       <r>   -6.7565    1.0000 </r>
       <r>   -6.6709    1.0000 </r>
       <r>   -6.5929    1.0000 </r>
       <r>   -6.4817    1.0000 </r>
       <r>   -5.8020    1.0000 </r>
       <r>   -5.7279    1.0000 </r>
       <r>   -4.7405    1.0000 </r>
       <r>   -4.5961    1.0000 </r>
       <r>   -4.2932    1.0000 </r>
       <r>   -4.0323    1.0000 </r>
       <r>   -4.0107    1.0000 </r>
       <r>   -3.7669    1.0000 </r>
       <r>   -3.5061    1.0000 </r>
       <r>   -3.3682    1.0000 </r>
       <r>   -3.1292    1.0000 </r>
       <r>   -3.0135    1.0000 </r>
       <r>   -2.7131    1.0000 </r>
       <r>   -2.6901    1.0000 </r>
       <r>   -2.5338    1.0000 </r>
       <r>   -2.4039    1.0000 </r>
       <r>   -2.3744    1.0000 </r>
       <r>   -2.3185    1.0000 </r>
       <r>   -2.2385    1.0000 </r>
       <r>   -2.1525    1.0000 </r>
       <r>   -1.9808    1.0000 </r>
       <r>   -1.8901    1.0000 </r>
       <r>   -1.8295    1.0000 </r>
       <r>   -1.6261    1.0000 </r>
       <r>   -1.5815    1.0000 </r>
       <r>   -1.4966    1.0000 </r>
       <r>   -1.4297    1.0000 </r>
       <r>   -1.3653    1.0000 </r>
       <r>   -1.2082    1.0000 </r>
       <r>   -1.1053    1.0000 </r>
       <r>   -0.9859    1.0000 </r>
       <r>   -0.8058    1.0000 </r>
       <r>   -0.2091    0.9963 </r>
       <r>    0.1103    0.0331 </r>
       <r>    0.1517    0.0077 </r>
       <r>    0.9110    0.0000 </r>
       <r>    1.1968    0.0000 </r>
       <r>    1.3638    0.0000 </r>
       <r>    1.4772    0.0000 </r>
       <r>    1.7163    0.0000 </r>
       <r>    1.7965    0.0000 </r>
       <r>    1.8590    0.0000 </r>
       <r>    2.2160    0.0000 </r>
       <r>    2.2633    0.0000 </r>
       <r>    2.4355    0.0000 </r>
       <r>    2.5158    0.0000 </r>
       <r>    2.6410    0.0000 </r>
       <r>    2.7367    0.0000 </r>
      </set>
      <set comment="kpoint 9">
       <r>  -14.4288    1.0000 </r>
       <r>  -13.4101    1.0000 </r>
       <r>  -12.9593    1.0000 </r>
       <r>  -12.7690    1.0000 </r>
       <r>  -12.4542    1.0000 </r>
       <r>  -12.3624    1.0000 </r>
       <r>  -11.8288    1.0000 </r>
       <r>  -11.7643    1.0000 </r>
       <r>  -11.4366    1.0000 </r>
       <r>  -11.3378    1.0000 </r>
       <r>  -10.9578    1.0000 </r>
       <r>  -10.2898    1.0000 </r>
       <r>   -8.9480    1.0000 </r>
       <r>   -8.5772    1.0000 </r>
       <r>   -7.3578    1.0000 </r>
       <r>   -7.1605    1.0000 </r>
       <r>   -6.6972    1.0000 </r>
       <r>   -6.6762    1.0000 </r>
       <r>   -6.5284    1.0000 </r>
       <r>   -6.5215    1.0000 </r>
       <r>   -5.7641    1.0000 </r>
       <r>   -5.6845    1.0000 </r>
       <r>   -4.7519    1.0000 </r>
       <r>   -4.6419    1.0000 </r>
       <r>   -4.5238    1.0000 </r>
       <r>   -4.2528    1.0000 </r>
       <r>   -4.0745    1.0000 </r>
       <r>   -3.7395    1.0000 </r>
       <r>   -3.6141    1.0000 </r>
       <r>   -3.4815    1.0000 </r>
       <r>   -3.3862    1.0000 </r>
       <r>   -3.0890    1.0000 </r>
       <r>   -3.0217    1.0000 </r>
       <r>   -2.9622    1.0000 </r>
       <r>   -2.7125    1.0000 </r>
       <r>   -2.6729    1.0000 </r>
       <r>   -2.6038    1.0000 </r>
       <r>   -2.4944    1.0000 </r>
       <r>   -2.3617    1.0000 </r>
       <r>   -2.2906    1.0000 </r>
       <r>   -2.1680    1.0000 </r>
       <r>   -2.1247    1.0000 </r>
       <r>   -2.0158    1.0000 </r>
       <r>   -1.9251    1.0000 </r>
       <r>   -1.8385    1.0000 </r>
       <r>   -1.7528    1.0000 </r>
       <r>   -1.5115    1.0000 </r>
       <r>   -1.3639    1.0000 </r>
       <r>   -1.1282    1.0000 </r>
       <r>   -1.0187    1.0000 </r>
       <r>   -0.9361    1.0000 </r>
       <r>   -0.7600    1.0000 </r>
       <r>   -0.2611    0.9997 </r>
       <r>   -0.1144    0.9099 </r>
       <r>    0.5540    0.0000 </r>
       <r>    1.0718    0.0000 </r>
       <r>    1.5726    0.0000 </r>
       <r>    1.7151    0.0000 </r>
       <r>    1.7786    0.0000 </r>
       <r>    1.9402    0.0000 </r>
       <r>    2.1077    0.0000 </r>
       <r>    2.1951    0.0000 </r>
       <r>    2.2802    0.0000 </r>
       <r>    2.5009    0.0000 </r>
       <r>    2.5199    0.0000 </r>
       <r>    2.6523    0.0000 </r>
       <r>    2.8461    0.0000 </r>
       <r>    2.9849    0.0000 </r>
      </set>
      <set comment="kpoint 10">
       <r>  -14.2604    1.0000 </r>
       <r>  -13.2134    1.0000 </r>
       <r>  -12.8228    1.0000 </r>
       <r>  -12.6121    1.0000 </r>
       <r>  -12.2881    1.0000 </r>
       <r>  -12.1997    1.0000 </r>
       <r>  -11.6753    1.0000 </r>
       <r>  -11.5717    1.0000 </r>
       <r>  -11.2970    1.0000 </r>
       <r>  -11.1826    1.0000 </r>
       <r>  -10.8163    1.0000 </r>
       <r>  -10.1822    1.0000 </r>
       <r>   -8.9315    1.0000 </r>
       <r>   -8.6427    1.0000 </r>
       <r>   -7.3181    1.0000 </r>
       <r>   -7.1073    1.0000 </r>
       <r>   -6.6691    1.0000 </r>
       <r>   -6.6517    1.0000 </r>
       <r>   -6.5714    1.0000 </r>
       <r>   -6.4867    1.0000 </r>
       <r>   -5.7707    1.0000 </r>
       <r>   -5.6489    1.0000 </r>
       <r>   -5.2159    1.0000 </r>
       <r>   -4.8545    1.0000 </r>
       <r>   -4.7966    1.0000 </r>
       <r>   -4.3893    1.0000 </r>
       <r>   -4.3549    1.0000 </r>
       <r>   -4.2642    1.0000 </r>
       <r>   -3.9836    1.0000 </r>
       <r>   -3.8830    1.0000 </r>
       <r>   -3.6502    1.0000 </r>
       <r>   -3.5384    1.0000 </r>
       <r>   -3.4654    1.0000 </r>
       <r>   -3.3667    1.0000 </r>
       <r>   -3.1305    1.0000 </r>
       <r>   -2.9832    1.0000 </r>
       <r>   -2.9587    1.0000 </r>
       <r>   -2.8130    1.0000 </r>
       <r>   -2.7760    1.0000 </r>
       <r>   -2.6265    1.0000 </r>
       <r>   -2.5621    1.0000 </r>
       <r>   -2.3908    1.0000 </r>
       <r>   -2.3563    1.0000 </r>
       <r>   -2.3095    1.0000 </r>
       <r>   -1.9611    1.0000 </r>
       <r>   -1.8873    1.0000 </r>
       <r>   -1.5602    1.0000 </r>
       <r>   -1.4812    1.0000 </r>
       <r>   -1.2107    1.0000 </r>
       <r>   -1.1385    1.0000 </r>
       <r>   -0.9689    1.0000 </r>
       <r>   -0.7697    1.0000 </r>
       <r>   -0.6129    1.0000 </r>
       <r>   -0.1483    0.9656 </r>
       <r>    0.8665    0.0000 </r>
       <r>    1.2744    0.0000 </r>
       <r>    1.6144    0.0000 </r>
       <r>    1.7337    0.0000 </r>
       <r>    2.0799    0.0000 </r>
       <r>    2.1232    0.0000 </r>
       <r>    2.3053    0.0000 </r>
       <r>    2.3822    0.0000 </r>
       <r>    2.7116    0.0000 </r>
       <r>    2.7504    0.0000 </r>
       <r>    2.8557    0.0000 </r>
       <r>    2.9647    0.0000 </r>
       <r>    3.0394    0.0000 </r>
       <r>    3.1059    0.0000 </r>
      </set>
      <set comment="kpoint 11">
       <r>  -13.9885    1.0000 </r>
       <r>  -12.9019    1.0000 </r>
       <r>  -12.5714    1.0000 </r>
       <r>  -12.3524    1.0000 </r>
       <r>  -12.0200    1.0000 </r>
       <r>  -11.9365    1.0000 </r>
       <r>  -11.4554    1.0000 </r>
       <r>  -11.2978    1.0000 </r>
       <r>  -11.0749    1.0000 </r>
       <r>  -10.9555    1.0000 </r>
       <r>  -10.5988    1.0000 </r>
       <r>  -10.0619    1.0000 </r>
       <r>   -8.8679    1.0000 </r>
       <r>   -8.7733    1.0000 </r>
       <r>   -7.3992    1.0000 </r>
       <r>   -7.2700    1.0000 </r>
       <r>   -6.8519    1.0000 </r>
       <r>   -6.6972    1.0000 </r>
       <r>   -6.6533    1.0000 </r>
       <r>   -6.5277    1.0000 </r>
       <r>   -6.1008    1.0000 </r>
       <r>   -5.8248    1.0000 </r>
       <r>   -5.6145    1.0000 </r>
       <r>   -5.2127    1.0000 </r>
       <r>   -5.1056    1.0000 </r>
       <r>   -5.0307    1.0000 </r>
       <r>   -4.6657    1.0000 </r>
       <r>   -4.5777    1.0000 </r>
       <r>   -4.4959    1.0000 </r>
       <r>   -4.4203    1.0000 </r>
       <r>   -4.0536    1.0000 </r>
       <r>   -3.9859    1.0000 </r>
       <r>   -3.8391    1.0000 </r>
       <r>   -3.7324    1.0000 </r>
       <r>   -3.3783    1.0000 </r>
       <r>   -3.2274    1.0000 </r>
       <r>   -3.1629    1.0000 </r>
       <r>   -3.0952    1.0000 </r>
       <r>   -2.9457    1.0000 </r>
       <r>   -2.6995    1.0000 </r>
       <r>   -2.6408    1.0000 </r>
       <r>   -2.5387    1.0000 </r>
       <r>   -2.4849    1.0000 </r>
       <r>   -2.4022    1.0000 </r>
       <r>   -1.9966    1.0000 </r>
       <r>   -1.9758    1.0000 </r>
       <r>   -1.8783    1.0000 </r>
       <r>   -1.7720    1.0000 </r>
       <r>   -1.4234    1.0000 </r>
       <r>   -1.3796    1.0000 </r>
       <r>   -1.0763    1.0000 </r>
       <r>   -0.9092    1.0000 </r>
       <r>   -0.6647    1.0000 </r>
       <r>   -0.1785    0.9877 </r>
       <r>    0.4594    0.0000 </r>
       <r>    0.8714    0.0000 </r>
       <r>    1.2461    0.0000 </r>
       <r>    1.4582    0.0000 </r>
       <r>    1.5902    0.0000 </r>
       <r>    1.8588    0.0000 </r>
       <r>    2.1785    0.0000 </r>
       <r>    2.2963    0.0000 </r>
       <r>    2.5775    0.0000 </r>
       <r>    2.6901    0.0000 </r>
       <r>    2.8293    0.0000 </r>
       <r>    2.9758    0.0000 </r>
       <r>    3.0642    0.0000 </r>
       <r>    3.2483    0.0000 </r>
      </set>
      <set comment="kpoint 12">
       <r>  -13.6299    1.0000 </r>
       <r>  -12.4851    1.0000 </r>
       <r>  -12.2124    1.0000 </r>
       <r>  -12.0115    1.0000 </r>
       <r>  -11.6678    1.0000 </r>
       <r>  -11.5936    1.0000 </r>
       <r>  -11.2229    1.0000 </r>
       <r>  -10.9862    1.0000 </r>
       <r>  -10.8107    1.0000 </r>
       <r>  -10.7031    1.0000 </r>
       <r>  -10.3929    1.0000 </r>
       <r>  -10.0145    1.0000 </r>
       <r>   -8.9728    1.0000 </r>
       <r>   -8.7614    1.0000 </r>
       <r>   -7.7139    1.0000 </r>
       <r>   -7.6792    1.0000 </r>
       <r>   -7.1873    1.0000 </r>
       <r>   -7.1145    1.0000 </r>
       <r>   -6.9615    1.0000 </r>
       <r>   -6.6948    1.0000 </r>
       <r>   -6.5037    1.0000 </r>
       <r>   -6.2299    1.0000 </r>
       <r>   -6.1918    1.0000 </r>
       <r>   -5.9177    1.0000 </r>
       <r>   -5.3843    1.0000 </r>
       <r>   -5.2028    1.0000 </r>
       <r>   -4.9380    1.0000 </r>
       <r>   -4.7085    1.0000 </r>
       <r>   -4.6012    1.0000 </r>
       <r>   -4.4639    1.0000 </r>
       <r>   -4.3973    1.0000 </r>
       <r>   -4.3002    1.0000 </r>
       <r>   -4.0157    1.0000 </r>
       <r>   -3.9337    1.0000 </r>
       <r>   -3.3472    1.0000 </r>
       <r>   -3.2994    1.0000 </r>
       <r>   -3.1351    1.0000 </r>
       <r>   -3.0020    1.0000 </r>
       <r>   -2.9889    1.0000 </r>
       <r>   -2.9293    1.0000 </r>
       <r>   -2.8706    1.0000 </r>
       <r>   -2.6478    1.0000 </r>
       <r>   -2.5142    1.0000 </r>
       <r>   -2.4202    1.0000 </r>
       <r>   -2.2928    1.0000 </r>
       <r>   -2.2558    1.0000 </r>
       <r>   -1.9579    1.0000 </r>
       <r>   -1.8847    1.0000 </r>
       <r>   -1.7472    1.0000 </r>
       <r>   -1.5073    1.0000 </r>
       <r>   -1.3186    1.0000 </r>
       <r>   -1.1578    1.0000 </r>
       <r>   -0.7208    1.0000 </r>
       <r>   -0.2204    0.9977 </r>
       <r>    0.1948    0.0012 </r>
       <r>    0.4928    0.0000 </r>
       <r>    0.7673    0.0000 </r>
       <r>    1.2178    0.0000 </r>
       <r>    1.2749    0.0000 </r>
       <r>    1.3928    0.0000 </r>
       <r>    1.8786    0.0000 </r>
       <r>    2.1655    0.0000 </r>
       <r>    2.2839    0.0000 </r>
       <r>    2.4506    0.0000 </r>
       <r>    2.5822    0.0000 </r>
       <r>    2.6614    0.0000 </r>
       <r>    2.8723    0.0000 </r>
       <r>    2.9643    0.0000 </r>
      </set>
      <set comment="kpoint 13">
       <r>  -13.2258    1.0000 </r>
       <r>  -11.9817    1.0000 </r>
       <r>  -11.7624    1.0000 </r>
       <r>  -11.6692    1.0000 </r>
       <r>  -11.2804    1.0000 </r>
       <r>  -11.2302    1.0000 </r>
       <r>  -11.0513    1.0000 </r>
       <r>  -10.7300    1.0000 </r>
       <r>  -10.5986    1.0000 </r>
       <r>  -10.5115    1.0000 </r>
       <r>  -10.4688    1.0000 </r>
       <r>  -10.0638    1.0000 </r>
       <r>   -8.9626    1.0000 </r>
       <r>   -8.6370    1.0000 </r>
       <r>   -8.1137    1.0000 </r>
       <r>   -7.9690    1.0000 </r>
       <r>   -7.7823    1.0000 </r>
       <r>   -7.5675    1.0000 </r>
       <r>   -7.3579    1.0000 </r>
       <r>   -7.2092    1.0000 </r>
       <r>   -7.0256    1.0000 </r>
       <r>   -6.6956    1.0000 </r>
       <r>   -6.6639    1.0000 </r>
       <r>   -6.6123    1.0000 </r>
       <r>   -5.3480    1.0000 </r>
       <r>   -5.1934    1.0000 </r>
       <r>   -4.7920    1.0000 </r>
       <r>   -4.7818    1.0000 </r>
       <r>   -4.5185    1.0000 </r>
       <r>   -4.4429    1.0000 </r>
       <r>   -4.2819    1.0000 </r>
       <r>   -4.1154    1.0000 </r>
       <r>   -3.9318    1.0000 </r>
       <r>   -3.8626    1.0000 </r>
       <r>   -3.5759    1.0000 </r>
       <r>   -3.3576    1.0000 </r>
       <r>   -3.2860    1.0000 </r>
       <r>   -3.2638    1.0000 </r>
       <r>   -3.1336    1.0000 </r>
       <r>   -3.1133    1.0000 </r>
       <r>   -2.9556    1.0000 </r>
       <r>   -2.8444    1.0000 </r>
       <r>   -2.7003    1.0000 </r>
       <r>   -2.5226    1.0000 </r>
       <r>   -2.3169    1.0000 </r>
       <r>   -2.2694    1.0000 </r>
       <r>   -2.0975    1.0000 </r>
       <r>   -2.0572    1.0000 </r>
       <r>   -1.8588    1.0000 </r>
       <r>   -1.6919    1.0000 </r>
       <r>   -1.4786    1.0000 </r>
       <r>   -1.3486    1.0000 </r>
       <r>   -0.7384    1.0000 </r>
       <r>   -0.2912    0.9999 </r>
       <r>    0.1310    0.0166 </r>
       <r>    0.3090    0.0000 </r>
       <r>    0.4466    0.0000 </r>
       <r>    1.0084    0.0000 </r>
       <r>    1.1913    0.0000 </r>
       <r>    1.3547    0.0000 </r>
       <r>    1.6989    0.0000 </r>
       <r>    1.8235    0.0000 </r>
       <r>    2.0321    0.0000 </r>
       <r>    2.1468    0.0000 </r>
       <r>    2.2805    0.0000 </r>
       <r>    2.6063    0.0000 </r>
       <r>    2.6274    0.0000 </r>
       <r>    2.7401    0.0000 </r>
      </set>
      <set comment="kpoint 14">
       <r>  -12.8948    1.0000 </r>
       <r>  -11.5863    1.0000 </r>
       <r>  -11.4322    1.0000 </r>
       <r>  -11.2679    1.0000 </r>
       <r>  -11.0003    1.0000 </r>
       <r>  -10.9582    1.0000 </r>
       <r>  -10.8703    1.0000 </r>
       <r>  -10.8103    1.0000 </r>
       <r>  -10.7051    1.0000 </r>
       <r>  -10.5767    1.0000 </r>
       <r>  -10.4801    1.0000 </r>
       <r>  -10.1558    1.0000 </r>
       <r>   -8.5811    1.0000 </r>
       <r>   -8.5564    1.0000 </r>
       <r>   -8.4011    1.0000 </r>
       <r>   -8.3299    1.0000 </r>
       <r>   -7.9953    1.0000 </r>
       <r>   -7.8271    1.0000 </r>
       <r>   -7.5687    1.0000 </r>
       <r>   -7.5154    1.0000 </r>
       <r>   -7.4521    1.0000 </r>
       <r>   -7.3130    1.0000 </r>
       <r>   -7.1445    1.0000 </r>
       <r>   -6.8267    1.0000 </r>
       <r>   -5.1063    1.0000 </r>
       <r>   -5.0234    1.0000 </r>
       <r>   -4.7038    1.0000 </r>
       <r>   -4.4733    1.0000 </r>
       <r>   -4.3382    1.0000 </r>
       <r>   -4.2194    1.0000 </r>
       <r>   -4.1625    1.0000 </r>
       <r>   -4.1015    1.0000 </r>
       <r>   -3.9991    1.0000 </r>
       <r>   -3.9316    1.0000 </r>
       <r>   -3.8251    1.0000 </r>
       <r>   -3.6677    1.0000 </r>
       <r>   -3.5224    1.0000 </r>
       <r>   -3.4804    1.0000 </r>
       <r>   -3.2711    1.0000 </r>
       <r>   -3.2587    1.0000 </r>
       <r>   -3.0235    1.0000 </r>
       <r>   -2.9810    1.0000 </r>
       <r>   -2.6546    1.0000 </r>
       <r>   -2.6095    1.0000 </r>
       <r>   -2.5348    1.0000 </r>
       <r>   -2.1971    1.0000 </r>
       <r>   -2.1435    1.0000 </r>
       <r>   -2.1067    1.0000 </r>
       <r>   -1.7758    1.0000 </r>
       <r>   -1.7030    1.0000 </r>
       <r>   -1.5637    1.0000 </r>
       <r>   -1.4226    1.0000 </r>
       <r>   -0.6645    1.0000 </r>
       <r>   -0.3570    1.0000 </r>
       <r>    0.0059    0.3589 </r>
       <r>    0.2859    0.0000 </r>
       <r>    0.4137    0.0000 </r>
       <r>    0.9346    0.0000 </r>
       <r>    1.4104    0.0000 </r>
       <r>    1.5079    0.0000 </r>
       <r>    1.5607    0.0000 </r>
       <r>    1.7257    0.0000 </r>
       <r>    1.8130    0.0000 </r>
       <r>    2.0891    0.0000 </r>
       <r>    2.1331    0.0000 </r>
       <r>    2.4056    0.0000 </r>
       <r>    2.4547    0.0000 </r>
       <r>    2.4951    0.0000 </r>
      </set>
      <set comment="kpoint 15">
       <r>  -12.8964    1.0000 </r>
       <r>  -11.5866    1.0000 </r>
       <r>  -11.5366    1.0000 </r>
       <r>  -11.0763    1.0000 </r>
       <r>  -10.9751    1.0000 </r>
       <r>  -10.9344    1.0000 </r>
       <r>  -10.8132    1.0000 </r>
       <r>  -10.8081    1.0000 </r>
       <r>  -10.7582    1.0000 </r>
       <r>  -10.6978    1.0000 </r>
       <r>  -10.5041    1.0000 </r>
       <r>  -10.1617    1.0000 </r>
       <r>   -8.7596    1.0000 </r>
       <r>   -8.5930    1.0000 </r>
       <r>   -8.4343    1.0000 </r>
       <r>   -8.1433    1.0000 </r>
       <r>   -7.9454    1.0000 </r>
       <r>   -7.7754    1.0000 </r>
       <r>   -7.6037    1.0000 </r>
       <r>   -7.5403    1.0000 </r>
       <r>   -7.3164    1.0000 </r>
       <r>   -7.2824    1.0000 </r>
       <r>   -7.2206    1.0000 </r>
       <r>   -6.8105    1.0000 </r>
       <r>   -4.9808    1.0000 </r>
       <r>   -4.7885    1.0000 </r>
       <r>   -4.7394    1.0000 </r>
       <r>   -4.5823    1.0000 </r>
       <r>   -4.5609    1.0000 </r>
       <r>   -4.3643    1.0000 </r>
       <r>   -4.1948    1.0000 </r>
       <r>   -4.0063    1.0000 </r>
       <r>   -4.0006    1.0000 </r>
       <r>   -3.8947    1.0000 </r>
       <r>   -3.8578    1.0000 </r>
       <r>   -3.6913    1.0000 </r>
       <r>   -3.6310    1.0000 </r>
       <r>   -3.5595    1.0000 </r>
       <r>   -3.4398    1.0000 </r>
       <r>   -3.3553    1.0000 </r>
       <r>   -3.0738    1.0000 </r>
       <r>   -2.8080    1.0000 </r>
       <r>   -2.6871    1.0000 </r>
       <r>   -2.5913    1.0000 </r>
       <r>   -2.3850    1.0000 </r>
       <r>   -2.1715    1.0000 </r>
       <r>   -2.1422    1.0000 </r>
       <r>   -2.1031    1.0000 </r>
       <r>   -1.7500    1.0000 </r>
       <r>   -1.6858    1.0000 </r>
       <r>   -1.5005    1.0000 </r>
       <r>   -1.2990    1.0000 </r>
       <r>   -0.6601    1.0000 </r>
       <r>   -0.3030    1.0000 </r>
       <r>   -0.0529    0.6811 </r>
       <r>    0.2621    0.0000 </r>
       <r>    0.6826    0.0000 </r>
       <r>    1.0272    0.0000 </r>
       <r>    1.3533    0.0000 </r>
       <r>    1.6420    0.0000 </r>
       <r>    1.7186    0.0000 </r>
       <r>    1.7756    0.0000 </r>
       <r>    1.8729    0.0000 </r>
       <r>    2.0565    0.0000 </r>
       <r>    2.2104    0.0000 </r>
       <r>    2.2952    0.0000 </r>
       <r>    2.3552    0.0000 </r>
       <r>    2.5105    0.0000 </r>
      </set>
      <set comment="kpoint 16">
       <r>  -13.2301    1.0000 </r>
       <r>  -12.1036    1.0000 </r>
       <r>  -11.6361    1.0000 </r>
       <r>  -11.4892    1.0000 </r>
       <r>  -11.2623    1.0000 </r>
       <r>  -11.2102    1.0000 </r>
       <r>  -11.0923    1.0000 </r>
       <r>  -10.9300    1.0000 </r>
       <r>  -10.6308    1.0000 </r>
       <r>  -10.5802    1.0000 </r>
       <r>  -10.4511    1.0000 </r>
       <r>  -10.0349    1.0000 </r>
       <r>   -8.7449    1.0000 </r>
       <r>   -8.6638    1.0000 </r>
       <r>   -8.4916    1.0000 </r>
       <r>   -7.9263    1.0000 </r>
       <r>   -7.7324    1.0000 </r>
       <r>   -7.4410    1.0000 </r>
       <r>   -7.3309    1.0000 </r>
       <r>   -7.1348    1.0000 </r>
       <r>   -6.8489    1.0000 </r>
       <r>   -6.8142    1.0000 </r>
       <r>   -6.6654    1.0000 </r>
       <r>   -6.5227    1.0000 </r>
       <r>   -5.2663    1.0000 </r>
       <r>   -5.0616    1.0000 </r>
       <r>   -4.8804    1.0000 </r>
       <r>   -4.8111    1.0000 </r>
       <r>   -4.4082    1.0000 </r>
       <r>   -4.3988    1.0000 </r>
       <r>   -4.2823    1.0000 </r>
       <r>   -4.2545    1.0000 </r>
       <r>   -4.0900    1.0000 </r>
       <r>   -4.0407    1.0000 </r>
       <r>   -3.7286    1.0000 </r>
       <r>   -3.6343    1.0000 </r>
       <r>   -3.5041    1.0000 </r>
       <r>   -3.4074    1.0000 </r>
       <r>   -3.2639    1.0000 </r>
       <r>   -3.1867    1.0000 </r>
       <r>   -2.9085    1.0000 </r>
       <r>   -2.7391    1.0000 </r>
       <r>   -2.6018    1.0000 </r>
       <r>   -2.4555    1.0000 </r>
       <r>   -2.2446    1.0000 </r>
       <r>   -2.2313    1.0000 </r>
       <r>   -2.0581    1.0000 </r>
       <r>   -1.9411    1.0000 </r>
       <r>   -1.8241    1.0000 </r>
       <r>   -1.5964    1.0000 </r>
       <r>   -1.3973    1.0000 </r>
       <r>   -1.1413    1.0000 </r>
       <r>   -0.6510    1.0000 </r>
       <r>   -0.1924    0.9927 </r>
       <r>    0.0048    0.3646 </r>
       <r>    0.4010    0.0000 </r>
       <r>    0.9370    0.0000 </r>
       <r>    1.3446    0.0000 </r>
       <r>    1.3792    0.0000 </r>
       <r>    1.7081    0.0000 </r>
       <r>    1.8177    0.0000 </r>
       <r>    1.8792    0.0000 </r>
       <r>    1.9717    0.0000 </r>
       <r>    2.1269    0.0000 </r>
       <r>    2.2500    0.0000 </r>
       <r>    2.2922    0.0000 </r>
       <r>    2.4395    0.0000 </r>
       <r>    2.6043    0.0000 </r>
      </set>
      <set comment="kpoint 17">
       <r>  -13.6353    1.0000 </r>
       <r>  -12.5976    1.0000 </r>
       <r>  -11.9589    1.0000 </r>
       <r>  -11.9505    1.0000 </r>
       <r>  -11.6649    1.0000 </r>
       <r>  -11.5755    1.0000 </r>
       <r>  -11.2870    1.0000 </r>
       <r>  -11.2312    1.0000 </r>
       <r>  -10.7887    1.0000 </r>
       <r>  -10.7721    1.0000 </r>
       <r>  -10.4231    1.0000 </r>
       <r>  -10.0121    1.0000 </r>
       <r>   -8.5849    1.0000 </r>
       <r>   -8.5557    1.0000 </r>
       <r>   -8.1884    1.0000 </r>
       <r>   -7.7467    1.0000 </r>
       <r>   -7.3453    1.0000 </r>
       <r>   -7.0012    1.0000 </r>
       <r>   -6.8762    1.0000 </r>
       <r>   -6.7040    1.0000 </r>
       <r>   -6.3191    1.0000 </r>
       <r>   -6.1670    1.0000 </r>
       <r>   -6.1395    1.0000 </r>
       <r>   -5.9703    1.0000 </r>
       <r>   -5.3513    1.0000 </r>
       <r>   -5.1510    1.0000 </r>
       <r>   -4.8943    1.0000 </r>
       <r>   -4.7405    1.0000 </r>
       <r>   -4.6411    1.0000 </r>
       <r>   -4.4897    1.0000 </r>
       <r>   -4.3249    1.0000 </r>
       <r>   -4.3011    1.0000 </r>
       <r>   -4.2402    1.0000 </r>
       <r>   -3.8594    1.0000 </r>
       <r>   -3.5801    1.0000 </r>
       <r>   -3.4593    1.0000 </r>
       <r>   -3.3059    1.0000 </r>
       <r>   -3.1992    1.0000 </r>
       <r>   -3.0894    1.0000 </r>
       <r>   -3.0550    1.0000 </r>
       <r>   -2.8285    1.0000 </r>
       <r>   -2.6691    1.0000 </r>
       <r>   -2.5023    1.0000 </r>
       <r>   -2.3787    1.0000 </r>
       <r>   -2.1601    1.0000 </r>
       <r>   -2.0238    1.0000 </r>
       <r>   -1.8728    1.0000 </r>
       <r>   -1.8644    1.0000 </r>
       <r>   -1.7070    1.0000 </r>
       <r>   -1.4111    1.0000 </r>
       <r>   -1.3104    1.0000 </r>
       <r>   -1.0884    1.0000 </r>
       <r>   -0.6773    1.0000 </r>
       <r>   -0.1644    0.9797 </r>
       <r>    0.2828    0.0000 </r>
       <r>    0.7336    0.0000 </r>
       <r>    1.1004    0.0000 </r>
       <r>    1.6215    0.0000 </r>
       <r>    1.7242    0.0000 </r>
       <r>    1.8579    0.0000 </r>
       <r>    1.9289    0.0000 </r>
       <r>    2.0007    0.0000 </r>
       <r>    2.2040    0.0000 </r>
       <r>    2.2826    0.0000 </r>
       <r>    2.3445    0.0000 </r>
       <r>    2.4210    0.0000 </r>
       <r>    2.6950    0.0000 </r>
       <r>    2.7493    0.0000 </r>
      </set>
      <set comment="kpoint 18">
       <r>  -13.9936    1.0000 </r>
       <r>  -12.9928    1.0000 </r>
       <r>  -12.3554    1.0000 </r>
       <r>  -12.3035    1.0000 </r>
       <r>  -12.0202    1.0000 </r>
       <r>  -11.9247    1.0000 </r>
       <r>  -11.5481    1.0000 </r>
       <r>  -11.4883    1.0000 </r>
       <r>  -11.0335    1.0000 </r>
       <r>  -11.0234    1.0000 </r>
       <r>  -10.6020    1.0000 </r>
       <r>  -10.1008    1.0000 </r>
       <r>   -8.5521    1.0000 </r>
       <r>   -8.4007    1.0000 </r>
       <r>   -7.7841    1.0000 </r>
       <r>   -7.5523    1.0000 </r>
       <r>   -6.8524    1.0000 </r>
       <r>   -6.7144    1.0000 </r>
       <r>   -6.6379    1.0000 </r>
       <r>   -6.5575    1.0000 </r>
       <r>   -6.0521    1.0000 </r>
       <r>   -5.7427    1.0000 </r>
       <r>   -5.5122    1.0000 </r>
       <r>   -5.3372    1.0000 </r>
       <r>   -5.2598    1.0000 </r>
       <r>   -4.8349    1.0000 </r>
       <r>   -4.6045    1.0000 </r>
       <r>   -4.5209    1.0000 </r>
       <r>   -4.3960    1.0000 </r>
       <r>   -4.2587    1.0000 </r>
       <r>   -4.1926    1.0000 </r>
       <r>   -4.1120    1.0000 </r>
       <r>   -3.8050    1.0000 </r>
       <r>   -3.6844    1.0000 </r>
       <r>   -3.5323    1.0000 </r>
       <r>   -3.4491    1.0000 </r>
       <r>   -3.2331    1.0000 </r>
       <r>   -3.0857    1.0000 </r>
       <r>   -2.9737    1.0000 </r>
       <r>   -2.7579    1.0000 </r>
       <r>   -2.6974    1.0000 </r>
       <r>   -2.5234    1.0000 </r>
       <r>   -2.4190    1.0000 </r>
       <r>   -2.3685    1.0000 </r>
       <r>   -1.9137    1.0000 </r>
       <r>   -1.8550    1.0000 </r>
       <r>   -1.8289    1.0000 </r>
       <r>   -1.7436    1.0000 </r>
       <r>   -1.4583    1.0000 </r>
       <r>   -1.2801    1.0000 </r>
       <r>   -1.1036    1.0000 </r>
       <r>   -1.0052    1.0000 </r>
       <r>   -0.6987    1.0000 </r>
       <r>   -0.1675    0.9817 </r>
       <r>    0.6065    0.0000 </r>
       <r>    1.1302    0.0000 </r>
       <r>    1.3241    0.0000 </r>
       <r>    1.8020    0.0000 </r>
       <r>    1.9902    0.0000 </r>
       <r>    2.1110    0.0000 </r>
       <r>    2.2145    0.0000 </r>
       <r>    2.2475    0.0000 </r>
       <r>    2.3611    0.0000 </r>
       <r>    2.6193    0.0000 </r>
       <r>    2.6858    0.0000 </r>
       <r>    2.8812    0.0000 </r>
       <r>    2.9393    0.0000 </r>
       <r>    2.9923    0.0000 </r>
      </set>
      <set comment="kpoint 19">
       <r>  -14.2643    1.0000 </r>
       <r>  -13.2766    1.0000 </r>
       <r>  -12.6705    1.0000 </r>
       <r>  -12.5761    1.0000 </r>
       <r>  -12.2890    1.0000 </r>
       <r>  -12.1923    1.0000 </r>
       <r>  -11.7629    1.0000 </r>
       <r>  -11.6939    1.0000 </r>
       <r>  -11.2623    1.0000 </r>
       <r>  -11.2333    1.0000 </r>
       <r>  -10.8046    1.0000 </r>
       <r>  -10.2238    1.0000 </r>
       <r>   -8.6578    1.0000 </r>
       <r>   -8.3810    1.0000 </r>
       <r>   -7.5450    1.0000 </r>
       <r>   -7.3997    1.0000 </r>
       <r>   -6.7402    1.0000 </r>
       <r>   -6.6188    1.0000 </r>
       <r>   -6.5548    1.0000 </r>
       <r>   -6.4847    1.0000 </r>
       <r>   -5.8287    1.0000 </r>
       <r>   -5.6885    1.0000 </r>
       <r>   -5.1223    1.0000 </r>
       <r>   -4.9591    1.0000 </r>
       <r>   -4.8376    1.0000 </r>
       <r>   -4.2929    1.0000 </r>
       <r>   -4.1775    1.0000 </r>
       <r>   -4.1274    1.0000 </r>
       <r>   -3.9530    1.0000 </r>
[...]
       <r>    2.7093    0.0000 </r>
      </set>
      <set comment="kpoint 54">
       <r>  -12.8953    1.0000 </r>
       <r>  -11.5871    1.0000 </r>
       <r>  -11.4917    1.0000 </r>
       <r>  -11.1738    1.0000 </r>
       <r>  -10.9911    1.0000 </r>
       <r>  -10.9488    1.0000 </r>
       <r>  -10.8552    1.0000 </r>
       <r>  -10.8075    1.0000 </r>
       <r>  -10.7268    1.0000 </r>
       <r>  -10.6174    1.0000 </r>
       <r>  -10.4890    1.0000 </r>
       <r>  -10.1583    1.0000 </r>
       <r>   -8.6683    1.0000 </r>
       <r>   -8.5909    1.0000 </r>
       <r>   -8.4412    1.0000 </r>
       <r>   -8.1215    1.0000 </r>
       <r>   -8.0392    1.0000 </r>
       <r>   -7.7914    1.0000 </r>
       <r>   -7.5617    1.0000 </r>
       <r>   -7.5283    1.0000 </r>
       <r>   -7.4662    1.0000 </r>
       <r>   -7.2892    1.0000 </r>
       <r>   -7.1743    1.0000 </r>
       <r>   -6.8208    1.0000 </r>
       <r>   -5.0452    1.0000 </r>
       <r>   -4.9492    1.0000 </r>
       <r>   -4.6760    1.0000 </r>
       <r>   -4.4930    1.0000 </r>
       <r>   -4.4328    1.0000 </r>
       <r>   -4.2598    1.0000 </r>
       <r>   -4.1648    1.0000 </r>
       <r>   -4.0662    1.0000 </r>
       <r>   -3.9870    1.0000 </r>
       <r>   -3.9376    1.0000 </r>
       <r>   -3.7952    1.0000 </r>
       <r>   -3.7658    1.0000 </r>
       <r>   -3.5548    1.0000 </r>
       <r>   -3.5311    1.0000 </r>
       <r>   -3.3233    1.0000 </r>
       <r>   -3.2628    1.0000 </r>
       <r>   -3.0992    1.0000 </r>
       <r>   -3.0200    1.0000 </r>
       <r>   -2.6967    1.0000 </r>
       <r>   -2.5699    1.0000 </r>
       <r>   -2.3766    1.0000 </r>
       <r>   -2.1917    1.0000 </r>
       <r>   -2.1444    1.0000 </r>
       <r>   -2.0881    1.0000 </r>
       <r>   -1.7658    1.0000 </r>
       <r>   -1.7140    1.0000 </r>
       <r>   -1.5335    1.0000 </r>
       <r>   -1.3543    1.0000 </r>
       <r>   -0.6826    1.0000 </r>
       <r>   -0.2825    0.9999 </r>
       <r>   -0.0993    0.8701 </r>
       <r>    0.2104    0.0006 </r>
       <r>    0.6314    0.0000 </r>
       <r>    1.0704    0.0000 </r>
       <r>    1.3443    0.0000 </r>
       <r>    1.5677    0.0000 </r>
       <r>    1.6286    0.0000 </r>
       <r>    1.7319    0.0000 </r>
       <r>    1.8608    0.0000 </r>
       <r>    1.9868    0.0000 </r>
       <r>    2.0571    0.0000 </r>
       <r>    2.2898    0.0000 </r>
       <r>    2.3662    0.0000 </r>
       <r>    2.4888    0.0000 </r>
      </set>
     </set>
    </set>
   </array>
  </eigenvalues>
  <separator name="orbital magnetization" >
   <v name="MAGDIPOLOUT">      0.00000000      0.00000000      0.00000000</v>
  </separator>
  <dos>
   <i name="efermi">     -0.01962671 </i>
   <total>
    <array>
     <dimension dim="1">gridpoints</dimension>
     <dimension dim="2">spin</dimension>
     <field>energy</field>
     <field>total</field>
     <field>integrated</field>
     <set>
      <set comment="spin 1">
       <r>   -15.4908     0.0000     0.0000 </r>
       <r>   -15.4250     0.0000     0.0000 </r>
       <r>   -15.3592     0.0000     0.0000 </r>
       <r>   -15.2934     0.0000     0.0000 </r>
       <r>   -15.2276     0.0000     0.0000 </r>
       <r>   -15.1618     0.0000     0.0000 </r>
       <r>   -15.0960     0.0000     0.0000 </r>
       <r>   -15.0302     0.0000     0.0000 </r>
       <r>   -14.9644     0.0000     0.0000 </r>
       <r>   -14.8986     0.0000     0.0000 </r>
       <r>   -14.8328     0.0000     0.0000 </r>
       <r>   -14.7670     0.0001     0.0000 </r>
       <r>   -14.7012     0.0030     0.0002 </r>
       <r>   -14.6354     0.0466     0.0033 </r>
       <r>   -14.5696     0.3430     0.0258 </r>
       <r>   -14.5038     1.2415     0.1075 </r>
       <r>   -14.4380     2.2786     0.2575 </r>
       <r>   -14.3722     2.2865     0.4079 </r>
       <r>   -14.3064     1.8594     0.5302 </r>
       <r>   -14.2406     1.8402     0.6513 </r>
       <r>   -14.1748     1.3075     0.7373 </r>
       <r>   -14.1090     0.6367     0.7792 </r>
       <r>   -14.0433     0.9202     0.8398 </r>
       <r>   -13.9775     1.6215     0.9465 </r>
       <r>   -13.9117     1.3701     1.0366 </r>
       <r>   -13.8459     0.5244     1.0711 </r>
       <r>   -13.7801     0.1684     1.0822 </r>
       <r>   -13.7143     0.5059     1.1155 </r>
       <r>   -13.6485     1.4020     1.2077 </r>
       <r>   -13.5827     1.9606     1.3367 </r>
       <r>   -13.5169     1.8912     1.4612 </r>
       <r>   -13.4511     1.9840     1.5917 </r>
       <r>   -13.3853     2.0990     1.7298 </r>
       <r>   -13.3195     2.3255     1.8828 </r>
       <r>   -13.2537     3.0591     2.0841 </r>
       <r>   -13.1879     3.3766     2.3063 </r>
       <r>   -13.1221     2.5530     2.4743 </r>
       <r>   -13.0563     1.8744     2.5976 </r>
       <r>   -12.9905     2.5806     2.7674 </r>
       <r>   -12.9247     4.2907     3.0497 </r>
       <r>   -12.8589     5.4551     3.4086 </r>
       <r>   -12.7931     5.1520     3.7476 </r>
       <r>   -12.7273     4.1953     4.0237 </r>
       <r>   -12.6615     3.7864     4.2728 </r>
       <r>   -12.5957     4.6310     4.5775 </r>
       <r>   -12.5299     5.5584     4.9432 </r>
       <r>   -12.4641     5.8066     5.3253 </r>
       <r>   -12.3983     6.2301     5.7352 </r>
       <r>   -12.3325     6.8196     6.1839 </r>
       <r>   -12.2667     6.3930     6.6045 </r>
       <r>   -12.2009     5.0947     6.9397 </r>
       <r>   -12.1351     4.1835     7.2150 </r>
       <r>   -12.0693     4.6496     7.5209 </r>
       <r>   -12.0036     6.5659     7.9530 </r>
       <r>   -11.9378     7.7152     8.4606 </r>
       <r>   -11.8720     7.0776     8.9263 </r>
       <r>   -11.8062     5.9743     9.3194 </r>
       <r>   -11.7404     5.9534     9.7111 </r>
       <r>   -11.6746     7.8425    10.2271 </r>
       <r>   -11.6088    10.0324    10.8872 </r>
       <r>   -11.5430    10.5103    11.5787 </r>
       <r>   -11.4772     9.7341    12.2192 </r>
       <r>   -11.4114     8.5809    12.7838 </r>
       <r>   -11.3456     8.1562    13.3205 </r>
       <r>   -11.2798     9.8706    13.9699 </r>
       <r>   -11.2140    10.9829    14.6925 </r>
       <r>   -11.1482     9.0870    15.2904 </r>
       <r>   -11.0824     7.9590    15.8141 </r>
       <r>   -11.0166     9.7054    16.4527 </r>
       <r>   -10.9508    10.9422    17.1727 </r>
       <r>   -10.8850    10.1159    17.8383 </r>
       <r>   -10.8192    10.1513    18.5062 </r>
       <r>   -10.7534    10.4471    19.1936 </r>
       <r>   -10.6876     8.8865    19.7783 </r>
       <r>   -10.6218     7.7771    20.2900 </r>
       <r>   -10.5560     7.6546    20.7936 </r>
       <r>   -10.4902     7.1911    21.2668 </r>
       <r>   -10.4244     6.4160    21.6889 </r>
       <r>   -10.3586     5.1812    22.0298 </r>
       <r>   -10.2928     4.1307    22.3016 </r>
       <r>   -10.2270     4.0305    22.5668 </r>
       <r>   -10.1612     4.7150    22.8770 </r>
       <r>   -10.0954     5.5006    23.2390 </r>
       <r>   -10.0296     5.5916    23.6069 </r>
       <r>    -9.9638     4.0020    23.8702 </r>
       <r>    -9.8981     1.6148    23.9764 </r>
       <r>    -9.8323     0.3256    23.9979 </r>
       <r>    -9.7665     0.0310    23.9999 </r>
       <r>    -9.7007     0.0014    24.0000 </r>
       <r>    -9.6349     0.0000    24.0000 </r>
       <r>    -9.5691     0.0000    24.0000 </r>
       <r>    -9.5033     0.0000    24.0000 </r>
       <r>    -9.4375     0.0004    24.0000 </r>
       <r>    -9.3717     0.0083    24.0006 </r>
       <r>    -9.3059     0.0734    24.0054 </r>
       <r>    -9.2401     0.3069    24.0256 </r>
       <r>    -9.1743     0.6461    24.0681 </r>
       <r>    -9.1085     0.8494    24.1240 </r>
       <r>    -9.0427     1.2313    24.2050 </r>
       <r>    -8.9769     2.4203    24.3643 </r>
       <r>    -8.9111     3.8692    24.6188 </r>
       <r>    -8.8453     4.4909    24.9143 </r>
       <r>    -8.7795     5.1611    25.2539 </r>
       <r>    -8.7137     6.3165    25.6695 </r>
       <r>    -8.6479     7.2999    26.1498 </r>
       <r>    -8.5821     7.7657    26.6608 </r>
       <r>    -8.5163     7.2044    27.1348 </r>
       <r>    -8.4505     6.5419    27.5652 </r>
       <r>    -8.3847     5.9633    27.9576 </r>
       <r>    -8.3189     4.1825    28.2328 </r>
       <r>    -8.2531     2.4363    28.3931 </r>
       <r>    -8.1873     2.4083    28.5516 </r>
       <r>    -8.1215     3.5422    28.7846 </r>
       <r>    -8.0557     4.2076    29.0615 </r>
       <r>    -7.9899     4.0110    29.3254 </r>
       <r>    -7.9241     3.6901    29.5682 </r>
       <r>    -7.8583     4.1148    29.8389 </r>
       <r>    -7.7926     6.0290    30.2356 </r>
       <r>    -7.7268     7.2856    30.7150 </r>
       <r>    -7.6610     6.5727    31.1474 </r>
       <r>    -7.5952     6.2894    31.5613 </r>
       <r>    -7.5294     6.9351    32.0176 </r>
       <r>    -7.4636     7.1669    32.4891 </r>
       <r>    -7.3978     7.7650    33.0000 </r>
       <r>    -7.3320     9.0569    33.5960 </r>
       <r>    -7.2662     9.4029    34.2146 </r>
       <r>    -7.2004     8.2476    34.7573 </r>
       <r>    -7.1346     6.8351    35.2070 </r>
       <r>    -7.0688     5.7707    35.5867 </r>
       <r>    -7.0030     5.4393    35.9446 </r>
       <r>    -6.9372     5.7938    36.3258 </r>
       <r>    -6.8714     7.0471    36.7895 </r>
       <r>    -6.8056     9.3244    37.4030 </r>
       <r>    -6.7398    11.9973    38.1924 </r>
       <r>    -6.6740    14.6672    39.1575 </r>
       <r>    -6.6082    14.9133    40.1387 </r>
       <r>    -6.5424    12.6870    40.9735 </r>
       <r>    -6.4766    10.2999    41.6512 </r>
       <r>    -6.4108     7.2762    42.1299 </r>
       <r>    -6.3450     4.6608    42.4366 </r>
       <r>    -6.2792     4.0409    42.7025 </r>
       <r>    -6.2134     4.4006    42.9920 </r>
       <r>    -6.1476     4.3028    43.2751 </r>
       <r>    -6.0818     3.2300    43.4877 </r>
       <r>    -6.0160     2.3644    43.6432 </r>
       <r>    -5.9502     2.7932    43.8270 </r>
       <r>    -5.8844     3.8744    44.0819 </r>
       <r>    -5.8186     5.3949    44.4369 </r>
       <r>    -5.7529     7.0589    44.9014 </r>
       <r>    -5.6871     6.9841    45.3609 </r>
       <r>    -5.6213     5.2838    45.7085 </r>
       <r>    -5.5555     3.6476    45.9485 </r>
       <r>    -5.4897     2.3781    46.1050 </r>
       <r>    -5.4239     2.1482    46.2464 </r>
       <r>    -5.3581     3.6406    46.4859 </r>
       <r>    -5.2923     5.4697    46.8458 </r>
       <r>    -5.2265     6.8037    47.2935 </r>
       <r>    -5.1607     7.5255    47.7886 </r>
       <r>    -5.0949     7.1372    48.2582 </r>
       <r>    -5.0291     6.7288    48.7009 </r>
       <r>    -4.9633     7.0292    49.1634 </r>
       <r>    -4.8975     7.9305    49.6852 </r>
       <r>    -4.8317     9.4915    50.3098 </r>
       <r>    -4.7659    10.7721    51.0185 </r>
       <r>    -4.7001    10.8521    51.7326 </r>
       <r>    -4.6343    10.4023    52.4170 </r>
       <r>    -4.5685    10.7706    53.1257 </r>
       <r>    -4.5027    12.4599    53.9455 </r>
       <r>    -4.4369    14.0001    54.8667 </r>
       <r>    -4.3711    14.0468    55.7909 </r>
       <r>    -4.3053    13.8013    56.6990 </r>
       <r>    -4.2395    13.6490    57.5970 </r>
       <r>    -4.1737    12.6137    58.4270 </r>
       <r>    -4.1079    12.7876    59.2684 </r>
       <r>    -4.0421    14.8208    60.2435 </r>
       <r>    -3.9763    15.1706    61.2417 </r>
       <r>    -3.9105    12.9581    62.0943 </r>
       <r>    -3.8447    11.1400    62.8273 </r>
       <r>    -3.7789    10.7597    63.5352 </r>
       <r>    -3.7131    10.8026    64.2460 </r>
       <r>    -3.6474    11.1133    64.9772 </r>
       <r>    -3.5816    12.5507    65.8030 </r>
       <r>    -3.5158    14.3502    66.7472 </r>
       <r>    -3.4500    14.4481    67.6979 </r>
       <r>    -3.3842    13.9649    68.6167 </r>
       <r>    -3.3184    14.3562    69.5613 </r>
       <r>    -3.2526    14.8066    70.5355 </r>
       <r>    -3.1868    15.0749    71.5274 </r>
       <r>    -3.1210    15.9499    72.5769 </r>
       <r>    -3.0552    17.5176    73.7295 </r>
       <r>    -2.9894    18.3669    74.9379 </r>
       <r>    -2.9236    16.5874    76.0293 </r>
       <r>    -2.8578    13.0176    76.8859 </r>
       <r>    -2.7920    11.3298    77.6313 </r>
       <r>    -2.7262    13.2043    78.5001 </r>
       <r>    -2.6604    16.2623    79.5701 </r>
       <r>    -2.5946    17.4151    80.7160 </r>
       <r>    -2.5288    17.4512    81.8642 </r>
       <r>    -2.4630    17.5802    83.0209 </r>
       <r>    -2.3972    17.9007    84.1988 </r>
       <r>    -2.3314    17.4379    85.3461 </r>
       <r>    -2.2656    15.5974    86.3724 </r>
       <r>    -2.1998    14.5827    87.3319 </r>
       <r>    -2.1340    14.8360    88.3080 </r>
       <r>    -2.0682    14.5944    89.2683 </r>
       <r>    -2.0024    14.0694    90.1940 </r>
       <r>    -1.9366    15.0366    91.1834 </r>
       <r>    -1.8708    16.6134    92.2765 </r>
       <r>    -1.8050    16.4776    93.3606 </r>
       <r>    -1.7392    14.8991    94.3410 </r>
       <r>    -1.6734    12.6224    95.1715 </r>
       <r>    -1.6076    10.3195    95.8505 </r>
       <r>    -1.5419     9.9884    96.5077 </r>
       <r>    -1.4761    11.7133    97.2784 </r>
       <r>    -1.4103    12.9638    98.1313 </r>
       <r>    -1.3445    12.1859    98.9331 </r>
       <r>    -1.2787    10.5188    99.6252 </r>
       <r>    -1.2129     9.5196   100.2516 </r>
       <r>    -1.1471     9.8039   100.8967 </r>
       <r>    -1.0813    10.1177   101.5624 </r>
       <r>    -1.0155     9.0994   102.1611 </r>
       <r>    -0.9497     7.3565   102.6451 </r>
       <r>    -0.8839     5.5802   103.0123 </r>
       <r>    -0.8181     5.2619   103.3585 </r>
       <r>    -0.7523     7.5228   103.8535 </r>
       <r>    -0.6865    10.0885   104.5173 </r>
       <r>    -0.6207     9.0800   105.1147 </r>
       <r>    -0.5549     4.8267   105.4323 </r>
       <r>    -0.4891     1.6400   105.5402 </r>
       <r>    -0.4233     1.0192   105.6073 </r>
       <r>    -0.3575     2.1421   105.7482 </r>
       <r>    -0.2917     4.6882   106.0567 </r>
       <r>    -0.2259     7.6977   106.5631 </r>
       <r>    -0.1601     9.0908   107.1613 </r>
       <r>    -0.0943     7.5386   107.6573 </r>
       <r>    -0.0285     4.7204   107.9679 </r>
       <r>     0.0373     3.4037   108.1918 </r>
       <r>     0.1031     3.7492   108.4385 </r>
       <r>     0.1689     4.1753   108.7132 </r>
       <r>     0.2347     4.4068   109.0032 </r>
       <r>     0.3005     4.7472   109.3156 </r>
       <r>     0.3663     4.4895   109.6110 </r>
       <r>     0.4321     4.1825   109.8861 </r>
       <r>     0.4978     4.2798   110.1677 </r>
       <r>     0.5636     4.2193   110.4454 </r>
       <r>     0.6294     4.0343   110.7108 </r>
       <r>     0.6952     3.7580   110.9581 </r>
       <r>     0.7610     3.5019   111.1885 </r>
       <r>     0.8268     3.5941   111.4250 </r>
       <r>     0.8926     4.2048   111.7016 </r>
       <r>     0.9584     4.8443   112.0204 </r>
       <r>     1.0242     5.1602   112.3599 </r>
       <r>     1.0900     5.2290   112.7039 </r>
       <r>     1.1558     5.1244   113.0411 </r>
       <r>     1.2216     5.7027   113.4163 </r>
       <r>     1.2874     7.3409   113.8993 </r>
       <r>     1.3532     8.8665   114.4827 </r>
       <r>     1.4190     8.9103   115.0690 </r>
       <r>     1.4848     8.1308   115.6040 </r>
       <r>     1.5506     8.6404   116.1725 </r>
       <r>     1.6164    10.3092   116.8508 </r>
       <r>     1.6822    11.9616   117.6378 </r>
       <r>     1.7480    13.4653   118.5238 </r>
       <r>     1.8138    13.8880   119.4376 </r>
       <r>     1.8796    12.8995   120.2864 </r>
       <r>     1.9454    11.2030   121.0235 </r>
       <r>     2.0112    10.8502   121.7374 </r>
       <r>     2.0770    12.4156   122.5543 </r>
       <r>     2.1428    14.3601   123.4991 </r>
       <r>     2.2086    16.1187   124.5597 </r>
       <r>     2.2744    17.3917   125.7040 </r>
       <r>     2.3402    16.7617   126.8069 </r>
       <r>     2.4060    14.8184   127.7819 </r>
       <r>     2.4718    13.7075   128.6838 </r>
       <r>     2.5376    13.2448   129.5553 </r>
       <r>     2.6033    13.0799   130.4159 </r>
       <r>     2.6691    13.3757   131.2960 </r>
       <r>     2.7349    13.0604   132.1553 </r>
       <r>     2.8007    11.6735   132.9234 </r>
       <r>     2.8665    10.3991   133.6076 </r>
       <r>     2.9323     9.7107   134.2465 </r>
       <r>     2.9981     8.8103   134.8262 </r>
       <r>     3.0639     7.1421   135.2962 </r>
       <r>     3.1297     4.9913   135.6246 </r>
       <r>     3.1955     3.0000   135.8220 </r>
       <r>     3.2613     1.6578   135.9310 </r>
       <r>     3.3271     0.7824   135.9825 </r>
       <r>     3.3929     0.2296   135.9976 </r>
       <r>     3.4587     0.0337   135.9998 </r>
       <r>     3.5245     0.0023   136.0000 </r>
       <r>     3.5903     0.0001   136.0000 </r>
       <r>     3.6561     0.0000   136.0000 </r>
       <r>     3.7219     0.0000   136.0000 </r>
       <r>     3.7877     0.0000   136.0000 </r>
       <r>     3.8535     0.0000   136.0000 </r>
       <r>     3.9193     0.0000   136.0000 </r>
       <r>     3.9851     0.0000   136.0000 </r>
       <r>     4.0509     0.0000   136.0000 </r>
       <r>     4.1167     0.0000   136.0000 </r>
       <r>     4.1825     0.0000   136.0000 </r>
       <r>     4.2483     0.0000   136.0000 </r>
      </set>
     </set>
    </array>
   </total>
  </dos>
 </calculation>
 <structure name="finalpos" >
  <crystal>
   <varray name="basis" >
    <v>       3.54040000       0.00000000       0.00000000 </v>
    <v>      -1.77020000      10.29434800       0.00000000 </v>
    <v>       0.00000000       0.00000000      27.50142900 </v>
   </varray>
   <i name="volume">   1002.32009712 </i>
   <varray name="rec_basis" >
    <v>       0.28245396       0.04857034       0.00000000 </v>
    <v>       0.00000000       0.09714068       0.00000000 </v>
    <v>       0.00000000       0.00000000       0.03636175 </v>
   </varray>
  </crystal>
  <varray name="positions" >
   <v>       0.11402300       0.22804500       0.23316207 </v>
   <v>       0.21402300       0.32804500       0.51499159 </v>
   <v>       0.45808900       0.91617900       0.20939482 </v>
   <v>       0.55808900       0.01617900       0.49122434 </v>
   <v>       0.31085400       0.62170900       0.08414979 </v>
   <v>       0.31085400       0.62170900       0.36597930 </v>
   <v>       0.99923000       0.99846000       0.08631254 </v>
   <v>       0.99923000       0.99846000       0.36814206 </v>
   <v>       0.65492700       0.30985400       0.06041748 </v>
   <v>       0.65492700       0.30985400       0.34224700 </v>
   <v>       0.76973800       0.53947500       0.20725292 </v>
   <v>       0.86973800       0.63947500       0.48908244 </v>
   <v>       0.93971600       0.87943300       0.15783749 </v>
   <v>       0.03971600       0.97943300       0.43966701 </v>
   <v>       0.20515200       0.41030300       0.18578822 </v>
   <v>       0.30515200       0.51030300       0.46761774 </v>
   <v>       0.20184900       0.40369900       0.09969156 </v>
   <v>       0.20184900       0.40369900       0.38152107 </v>
   <v>       0.56380500       0.12761000       0.10779021 </v>
   <v>       0.56380500       0.12761000       0.38961973 </v>
   <v>       0.56710600       0.13421200       0.19387616 </v>
   <v>       0.66710600       0.23421200       0.47570568 </v>
   <v>       0.82923400       0.65846800       0.13571444 </v>
   <v>       0.92923400       0.75846800       0.41754396 </v>
  </varray>
 </structure>
</modeling>
