  24  24   0   0
  0.4176334E+02  0.3540400E-09  0.1044544E-08  0.2750143E-08  0.5000000E-15
  1.000000000000000E-004
  CAR 
 unknown system                          
      4.23286309    -14.72812469  301     -0.20128734      1.00000000
    -14.728  0.0000E+00  0.0000E+00
    -14.665  0.0000E+00  0.0000E+00
    -14.602  0.0000E+00  0.0000E+00
    -14.539  0.0000E+00  0.0000E+00
    -14.475  0.0000E+00  0.0000E+00
    -14.412  0.0000E+00  0.0000E+00
    -14.349  0.0000E+00  0.0000E+00
    -14.286  0.1081E-14  0.6832E-16
    -14.222  0.9871E-12  0.6246E-13
    -14.159  0.4157E-09  0.2634E-10
    -14.096  0.8194E-07  0.5205E-08
    -14.033  0.7650E-05  0.4887E-06
    -13.970  0.3441E-03  0.2223E-04
    -13.906  0.7633E-02  0.5047E-03
    -13.843  0.8635E-01  0.5962E-02
    -13.780  0.5197E+00  0.3881E-01
    -13.717  0.1742E+01  0.1489E+00
    -13.654  0.3387E+01  0.3629E+00
    -13.590  0.4060E+01  0.6195E+00
    -13.527  0.3685E+01  0.8525E+00
    -13.464  0.3576E+01  0.1078E+01
    -13.401  0.3414E+01  0.1294E+01
    -13.338  0.2576E+01  0.1457E+01
    -13.274  0.1913E+01  0.1578E+01
    -13.211  0.2252E+01  0.1720E+01
    -13.148  0.3524E+01  0.1943E+01
    -13.085  0.4330E+01  0.2217E+01
    -13.022  0.3793E+01  0.2456E+01
    -12.958  0.2792E+01  0.2633E+01
    -12.895  0.2409E+01  0.2785E+01
    -12.832  0.3159E+01  0.2985E+01
    -12.769  0.5073E+01  0.3305E+01
    -12.706  0.7031E+01  0.3750E+01
    -12.642  0.7369E+01  0.4216E+01
    -12.579  0.6130E+01  0.4603E+01
    -12.516  0.4795E+01  0.4906E+01
    -12.453  0.4608E+01  0.5197E+01
    -12.390  0.5284E+01  0.5531E+01
    -12.326  0.5955E+01  0.5908E+01
    -12.263  0.6666E+01  0.6329E+01
    -12.200  0.7833E+01  0.6824E+01
    -12.137  0.8583E+01  0.7367E+01
    -12.074  0.7044E+01  0.7812E+01
    -12.010  0.4931E+01  0.8123E+01
    -11.947  0.4907E+01  0.8434E+01
    -11.884  0.6303E+01  0.8832E+01
    -11.821  0.7774E+01  0.9323E+01
    -11.758  0.9008E+01  0.9893E+01
    -11.694  0.9950E+01  0.1052E+02
    -11.631  0.1020E+02  0.1117E+02
    -11.568  0.9555E+01  0.1177E+02
    -11.505  0.8817E+01  0.1233E+02
    -11.442  0.8661E+01  0.1287E+02
    -11.378  0.8379E+01  0.1340E+02
    -11.315  0.7203E+01  0.1386E+02
    -11.252  0.7025E+01  0.1430E+02
    -11.189  0.9354E+01  0.1489E+02
    -11.126  0.1187E+02  0.1565E+02
    -11.062  0.1220E+02  0.1642E+02
    -10.999  0.1202E+02  0.1718E+02
    -10.936  0.1218E+02  0.1795E+02
    -10.873  0.1115E+02  0.1865E+02
    -10.810  0.1023E+02  0.1930E+02
    -10.746  0.9714E+01  0.1991E+02
    -10.683  0.7798E+01  0.2040E+02
    -10.620  0.6576E+01  0.2082E+02
    -10.557  0.7131E+01  0.2127E+02
    -10.494  0.6495E+01  0.2168E+02
    -10.430  0.4438E+01  0.2196E+02
    -10.367  0.3431E+01  0.2218E+02
    -10.304  0.4232E+01  0.2245E+02
    -10.241  0.4807E+01  0.2275E+02
    -10.177  0.3705E+01  0.2298E+02
    -10.114  0.2555E+01  0.2315E+02
    -10.051  0.3029E+01  0.2334E+02
     -9.988  0.4211E+01  0.2360E+02
     -9.925  0.3833E+01  0.2385E+02
     -9.861  0.2124E+01  0.2398E+02
     -9.798  0.1378E+01  0.2407E+02
     -9.735  0.1683E+01  0.2417E+02
     -9.672  0.1420E+01  0.2426E+02
     -9.609  0.6196E+00  0.2430E+02
     -9.545  0.3367E+00  0.2432E+02
     -9.482  0.7950E+00  0.2437E+02
     -9.419  0.1446E+01  0.2446E+02
     -9.356  0.1414E+01  0.2455E+02
     -9.293  0.7560E+00  0.2460E+02
     -9.229  0.3625E+00  0.2462E+02
     -9.166  0.6944E+00  0.2467E+02
     -9.103  0.1466E+01  0.2476E+02
     -9.040  0.1967E+01  0.2489E+02
     -8.977  0.2395E+01  0.2504E+02
     -8.913  0.3441E+01  0.2525E+02
     -8.850  0.4451E+01  0.2554E+02
     -8.787  0.4779E+01  0.2584E+02
     -8.724  0.5123E+01  0.2616E+02
     -8.661  0.5877E+01  0.2653E+02
     -8.597  0.6606E+01  0.2695E+02
     -8.534  0.6678E+01  0.2737E+02
     -8.471  0.5599E+01  0.2773E+02
     -8.408  0.4470E+01  0.2801E+02
     -8.345  0.4471E+01  0.2829E+02
     -8.281  0.5025E+01  0.2861E+02
     -8.218  0.5106E+01  0.2893E+02
     -8.155  0.4517E+01  0.2922E+02
     -8.092  0.4134E+01  0.2948E+02
     -8.029  0.4032E+01  0.2973E+02
     -7.965  0.4021E+01  0.2999E+02
     -7.902  0.3934E+01  0.3024E+02
     -7.839  0.3383E+01  0.3045E+02
     -7.776  0.3814E+01  0.3069E+02
     -7.713  0.6142E+01  0.3108E+02
     -7.649  0.7986E+01  0.3158E+02
     -7.586  0.7871E+01  0.3208E+02
     -7.523  0.7563E+01  0.3256E+02
     -7.460  0.7799E+01  0.3305E+02
     -7.397  0.7872E+01  0.3355E+02
     -7.333  0.7256E+01  0.3401E+02
     -7.270  0.5746E+01  0.3437E+02
     -7.207  0.4345E+01  0.3465E+02
     -7.144  0.4589E+01  0.3494E+02
     -7.081  0.6130E+01  0.3532E+02
     -7.017  0.7943E+01  0.3583E+02
     -6.954  0.9815E+01  0.3645E+02
     -6.891  0.1171E+02  0.3719E+02
     -6.828  0.1340E+02  0.3803E+02
     -6.765  0.1266E+02  0.3883E+02
     -6.701  0.9576E+01  0.3944E+02
     -6.638  0.7304E+01  0.3990E+02
     -6.575  0.6197E+01  0.4029E+02
     -6.512  0.5046E+01  0.4061E+02
     -6.448  0.3978E+01  0.4086E+02
     -6.385  0.4261E+01  0.4113E+02
     -6.322  0.5362E+01  0.4147E+02
     -6.259  0.5149E+01  0.4180E+02
     -6.196  0.4113E+01  0.4206E+02
     -6.132  0.4556E+01  0.4234E+02
     -6.069  0.5651E+01  0.4270E+02
     -6.006  0.5359E+01  0.4304E+02
     -5.943  0.4774E+01  0.4334E+02
     -5.880  0.5218E+01  0.4367E+02
     -5.816  0.5639E+01  0.4403E+02
     -5.753  0.5561E+01  0.4438E+02
     -5.690  0.5477E+01  0.4473E+02
     -5.627  0.5128E+01  0.4505E+02
     -5.564  0.4542E+01  0.4534E+02
     -5.500  0.4490E+01  0.4562E+02
     -5.437  0.4649E+01  0.4591E+02
     -5.374  0.4601E+01  0.4621E+02
     -5.311  0.4300E+01  0.4648E+02
     -5.248  0.3580E+01  0.4670E+02
     -5.184  0.3628E+01  0.4693E+02
     -5.121  0.5018E+01  0.4725E+02
     -5.058  0.7093E+01  0.4770E+02
     -4.995  0.8641E+01  0.4824E+02
     -4.932  0.9178E+01  0.4882E+02
     -4.868  0.9975E+01  0.4945E+02
     -4.805  0.1132E+02  0.5017E+02
     -4.742  0.1177E+02  0.5091E+02
     -4.679  0.1146E+02  0.5164E+02
     -4.616  0.1166E+02  0.5238E+02
     -4.552  0.1266E+02  0.5318E+02
     -4.489  0.1403E+02  0.5406E+02
     -4.426  0.1487E+02  0.5500E+02
     -4.363  0.1425E+02  0.5590E+02
     -4.300  0.1326E+02  0.5674E+02
     -4.236  0.1352E+02  0.5760E+02
     -4.173  0.1458E+02  0.5852E+02
     -4.110  0.1408E+02  0.5941E+02
     -4.047  0.1135E+02  0.6012E+02
     -3.984  0.9434E+01  0.6072E+02
     -3.920  0.1021E+02  0.6137E+02
     -3.857  0.1168E+02  0.6210E+02
     -3.794  0.1194E+02  0.6286E+02
     -3.731  0.1254E+02  0.6365E+02
     -3.668  0.1420E+02  0.6455E+02
     -3.604  0.1504E+02  0.6550E+02
     -3.541  0.1477E+02  0.6643E+02
     -3.478  0.1412E+02  0.6732E+02
     -3.415  0.1325E+02  0.6816E+02
     -3.352  0.1350E+02  0.6901E+02
     -3.288  0.1532E+02  0.6998E+02
     -3.225  0.1716E+02  0.7107E+02
     -3.162  0.1751E+02  0.7217E+02
     -3.099  0.1605E+02  0.7319E+02
     -3.036  0.1393E+02  0.7407E+02
     -2.972  0.1273E+02  0.7487E+02
     -2.909  0.1343E+02  0.7572E+02
     -2.846  0.1553E+02  0.7670E+02
     -2.783  0.1689E+02  0.7777E+02
     -2.719  0.1718E+02  0.7886E+02
     -2.656  0.1706E+02  0.7994E+02
     -2.593  0.1582E+02  0.8094E+02
     -2.530  0.1458E+02  0.8186E+02
     -2.467  0.1432E+02  0.8276E+02
     -2.403  0.1451E+02  0.8368E+02
     -2.340  0.1499E+02  0.8463E+02
     -2.277  0.1589E+02  0.8563E+02
     -2.214  0.1712E+02  0.8671E+02
     -2.151  0.1819E+02  0.8786E+02
     -2.087  0.1802E+02  0.8900E+02
     -2.024  0.1696E+02  0.9007E+02
     -1.961  0.1637E+02  0.9111E+02
     -1.898  0.1617E+02  0.9213E+02
     -1.835  0.1503E+02  0.9308E+02
     -1.771  0.1331E+02  0.9392E+02
     -1.708  0.1169E+02  0.9466E+02
     -1.645  0.1058E+02  0.9533E+02
     -1.582  0.1123E+02  0.9604E+02
     -1.519  0.1258E+02  0.9684E+02
     -1.455  0.1237E+02  0.9762E+02
     -1.392  0.1125E+02  0.9833E+02
     -1.329  0.1026E+02  0.9898E+02
     -1.266  0.9991E+01  0.9961E+02
     -1.203  0.1042E+02  0.1003E+03
     -1.139  0.1045E+02  0.1009E+03
     -1.076  0.9710E+01  0.1015E+03
     -1.013  0.8385E+01  0.1021E+03
     -0.950  0.6864E+01  0.1025E+03
     -0.887  0.5908E+01  0.1029E+03
     -0.823  0.6484E+01  0.1033E+03
     -0.760  0.8505E+01  0.1038E+03
     -0.697  0.8945E+01  0.1044E+03
     -0.634  0.7065E+01  0.1048E+03
     -0.571  0.6255E+01  0.1052E+03
     -0.507  0.7001E+01  0.1057E+03
     -0.444  0.7572E+01  0.1062E+03
     -0.381  0.7437E+01  0.1066E+03
     -0.318  0.7111E+01  0.1071E+03
     -0.255  0.7626E+01  0.1076E+03
     -0.191  0.8329E+01  0.1081E+03
     -0.128  0.7551E+01  0.1086E+03
     -0.065  0.6017E+01  0.1089E+03
     -0.002  0.5119E+01  0.1093E+03
      0.061  0.4760E+01  0.1096E+03
      0.125  0.4468E+01  0.1098E+03
      0.188  0.3876E+01  0.1101E+03
      0.251  0.3210E+01  0.1103E+03
      0.314  0.2927E+01  0.1105E+03
      0.377  0.2300E+01  0.1106E+03
      0.441  0.1341E+01  0.1107E+03
      0.504  0.1069E+01  0.1108E+03
      0.567  0.1523E+01  0.1109E+03
      0.630  0.2159E+01  0.1110E+03
      0.693  0.2681E+01  0.1112E+03
      0.757  0.3087E+01  0.1114E+03
      0.820  0.3132E+01  0.1116E+03
      0.883  0.3158E+01  0.1118E+03
      0.946  0.4089E+01  0.1120E+03
      1.009  0.5950E+01  0.1124E+03
      1.073  0.7433E+01  0.1129E+03
      1.136  0.7903E+01  0.1134E+03
      1.199  0.8720E+01  0.1139E+03
      1.262  0.9746E+01  0.1145E+03
      1.326  0.9462E+01  0.1151E+03
      1.389  0.9107E+01  0.1157E+03
      1.452  0.1024E+02  0.1164E+03
      1.515  0.1123E+02  0.1171E+03
      1.578  0.1121E+02  0.1178E+03
      1.642  0.1129E+02  0.1185E+03
      1.705  0.1104E+02  0.1192E+03
      1.768  0.1021E+02  0.1198E+03
      1.831  0.9960E+01  0.1205E+03
      1.894  0.1067E+02  0.1211E+03
      1.958  0.1173E+02  0.1219E+03
      2.021  0.1251E+02  0.1227E+03
      2.084  0.1285E+02  0.1235E+03
      2.147  0.1260E+02  0.1243E+03
      2.210  0.1254E+02  0.1251E+03
      2.274  0.1332E+02  0.1259E+03
      2.337  0.1357E+02  0.1268E+03
      2.400  0.1312E+02  0.1276E+03
      2.463  0.1378E+02  0.1285E+03
      2.526  0.1480E+02  0.1294E+03
      2.590  0.1441E+02  0.1303E+03
      2.653  0.1302E+02  0.1311E+03
      2.716  0.1175E+02  0.1319E+03
      2.779  0.1145E+02  0.1326E+03
      2.842  0.1109E+02  0.1333E+03
      2.906  0.9470E+01  0.1339E+03
      2.969  0.7689E+01  0.1344E+03
      3.032  0.7064E+01  0.1348E+03
      3.095  0.6716E+01  0.1353E+03
      3.158  0.5655E+01  0.1356E+03
      3.222  0.3723E+01  0.1359E+03
      3.285  0.1663E+01  0.1360E+03
      3.348  0.4720E+00  0.1360E+03
      3.411  0.8184E-01  0.1360E+03
      3.474  0.8025E-02  0.1360E+03
      3.538  0.4084E-03  0.1360E+03
      3.601  0.1016E-04  0.1360E+03
      3.664  0.1196E-06  0.1360E+03
      3.727  0.6537E-09  0.1360E+03
      3.790  0.1643E-11  0.1360E+03
      3.854  0.1892E-14  0.1360E+03
      3.917  0.0000E+00  0.1360E+03
      3.980  0.0000E+00  0.1360E+03
      4.043  0.0000E+00  0.1360E+03
      4.106  0.0000E+00  0.1360E+03
      4.170  0.0000E+00  0.1360E+03
      4.233  0.0000E+00  0.1360E+03
