 running on    8 total cores
 distrk:  each k-point on    8 cores,    1 groups
 distr:  one band on    2 cores,    4 groups
 using from now: INCAR     
 vasp.5.3.5 31Mar14 (build Oct 29 2014 16:16:03) complex                        
  
 POSCAR found type information on POSCAR  P  Si
 POSCAR found :  2 types and      24 ions
 scaLAPACK will be used

 ----------------------------------------------------------------------------- 
|                                                                             |
|  ADVICE TO THIS USER RUNNING 'VASP/VAMP'   (HEAR YOUR MASTER'S VOICE ...):  |
|                                                                             |
|      You have switched on vdW-DFT.                                          |
|      This routine was written and supplied by Jiri Klimes.                  |
|      We recommed that you carefully read and cite the following             |
|      publication                                                            |
|      J. Klimes, D.R. Bowler, A. Michelides                                  |
|        J. Phys.: Cond Matt. 22 022201 (2010)                                |
|      J. Klimes, D.R. Bowler, A. Michelides                                  |
|        Phys. Rev. B. 83, 195131 (2011)                                      |
|      and references therein.                                                |
|                                                                             |
 ----------------------------------------------------------------------------- 


 ----------------------------------------------------------------------------- 
|                                                                             |
|  ADVICE TO THIS USER RUNNING 'VASP/VAMP'   (HEAR YOUR MASTER'S VOICE ...):  |
|                                                                             |
|      You enforced a specific xc-type in the INCAR file,                     |
|      a different type was found on the POTCAR file                          |
|          I HOPE YOU KNOW, WHAT YOU ARE  DOING                               |
|                                                                             |
 ----------------------------------------------------------------------------- 

 LDA part: xc-table for Pade appr. of Perdew


 VERY BAD NEWS! internal error in subroutine IBZKPT:
 Reciprocal lattice and k-lattice belong to different class of lattices. Often results are still useful...      96


 VERY BAD NEWS! internal error in subroutine IBZKPT:
 Reciprocal lattice and k-lattice belong to different class of lattices. Often results are still useful...      96


 VERY BAD NEWS! internal error in subroutine IBZKPT:
 Reciprocal lattice and k-lattice belong to different class of lattices. Often results are still useful...      96


 VERY BAD NEWS! internal error in subroutine IBZKPT:
 Reciprocal lattice and k-lattice belong to different class of lattices. Often results are still useful...      96


 VERY BAD NEWS! internal error in subroutine IBZKPT:
 Reciprocal lattice and k-lattice belong to different class of lattices. Often results are still useful...      96


 VERY BAD NEWS! internal error in subroutine IBZKPT:
 Reciprocal lattice and k-lattice belong to different class of lattices. Often results are still useful...      96


 VERY BAD NEWS! internal error in subroutine IBZKPT:
 Reciprocal lattice and k-lattice belong to different class of lattices. Often results are still useful...      96


 VERY BAD NEWS! internal error in subroutine IBZKPT:
 Reciprocal lattice and k-lattice belong to different class of lattices. Often results are still useful...      96
 POSCAR, INCAR and KPOINTS ok, starting setup
 WARNING: small aliasing (wrap around) errors must be expected
 FFT: planning ...
 WAVECAR not read
 entering main loop
       N       E                     dE             d eps       ncg     rms          rms(c)
Total vdW correction in eV:     15.8954204
DAV:   1     0.485166492284E+03    0.48517E+03   -0.28633E+04  7368   0.790E+02
DAV:   2    -0.695113698259E+02   -0.55468E+03   -0.54044E+03  9776   0.188E+02
DAV:   3    -0.124763563263E+03   -0.55252E+02   -0.54472E+02  8820   0.616E+01
DAV:   4    -0.127176985104E+03   -0.24134E+01   -0.24007E+01 10784   0.139E+01
DAV:   5    -0.127238028519E+03   -0.61043E-01   -0.60991E-01  9936   0.216E+00    0.996E+00
Total vdW correction in eV:     16.3168688
DAV:   6    -0.125346328236E+03    0.18917E+01   -0.74212E+00  8704   0.586E+00    0.573E+00
Total vdW correction in eV:     16.6616177
DAV:   7    -0.125198920224E+03    0.14741E+00   -0.54991E+00  9080   0.543E+00    0.299E+00
Total vdW correction in eV:     16.9068888
DAV:   8    -0.125047557691E+03    0.15136E+00   -0.19328E+00  8740   0.348E+00    0.101E+00
Total vdW correction in eV:     16.9798648
DAV:   9    -0.125035436622E+03    0.12121E-01   -0.29959E-01  9112   0.148E+00    0.536E-01
Total vdW correction in eV:     17.0012352
DAV:  10    -0.125012732866E+03    0.22704E-01   -0.48725E-02  8960   0.618E-01    0.226E-01
Total vdW correction in eV:     17.0179711
DAV:  11    -0.125002148849E+03    0.10584E-01   -0.15782E-02  8904   0.344E-01    0.122E-01
Total vdW correction in eV:     17.0236487
DAV:  12    -0.124997616744E+03    0.45321E-02   -0.52278E-03  8952   0.180E-01    0.523E-02
Total vdW correction in eV:     17.0275813
DAV:  13    -0.124994768815E+03    0.28479E-02   -0.66174E-04  8880   0.740E-02    0.279E-02
Total vdW correction in eV:     17.0319474
DAV:  14    -0.124992465633E+03    0.23032E-02   -0.20217E-04  9256   0.440E-02    0.141E-02
Total vdW correction in eV:     17.0348542
DAV:  15    -0.124991662708E+03    0.80293E-03   -0.73591E-05  8976   0.236E-02    0.918E-03
Total vdW correction in eV:     17.0376171
DAV:  16    -0.124991508025E+03    0.15468E-03   -0.57163E-05  8160   0.195E-02    0.543E-03
Total vdW correction in eV:     17.0390494
DAV:  17    -0.124992093701E+03   -0.58568E-03   -0.13002E-04  8208   0.222E-02    0.311E-03
Total vdW correction in eV:     17.0392247
DAV:  18    -0.124992304208E+03   -0.21051E-03   -0.12177E-04  7600   0.183E-02    0.182E-03
Total vdW correction in eV:     17.0389922
DAV:  19    -0.124992307144E+03   -0.29356E-05   -0.30061E-05  6960   0.126E-02    0.108E-03
Total vdW correction in eV:     17.0388667
DAV:  20    -0.124992367160E+03   -0.60016E-04   -0.85052E-06  6136   0.769E-03    0.698E-04
Total vdW correction in eV:     17.0387109
DAV:  21    -0.124992336569E+03    0.30591E-04   -0.36093E-05  7008   0.110E-02    0.499E-04
Total vdW correction in eV:     17.0386573
DAV:  22    -0.124992330851E+03    0.57179E-05   -0.19763E-05  6544   0.114E-02    0.293E-04
Total vdW correction in eV:     17.0386244
DAV:  23    -0.124992266464E+03    0.64387E-04   -0.13111E-05  6520   0.869E-03    0.150E-04
Total vdW correction in eV:     17.0386170
DAV:  24    -0.124992258488E+03    0.79767E-05   -0.95280E-06  6672   0.861E-03    0.796E-05
Total vdW correction in eV:     17.0386140
DAV:  25    -0.124992237146E+03    0.21341E-04   -0.59317E-06  6544   0.748E-03    0.408E-05
Total vdW correction in eV:     17.0386132
DAV:  26    -0.124992238219E+03   -0.10725E-05   -0.30171E-06  5856   0.638E-03    0.221E-05
Total vdW correction in eV:     17.0386119
DAV:  27    -0.124992236825E+03    0.13938E-05   -0.24086E-06  5660   0.573E-03    0.137E-05
Total vdW correction in eV:     17.0386116
DAV:  28    -0.124992239158E+03   -0.23334E-05   -0.18695E-06  5420   0.515E-03    0.906E-06
Total vdW correction in eV:     17.0386115
DAV:  29    -0.124992239202E+03   -0.43538E-07   -0.18148E-06  6184   0.479E-03
Total vdW correction in eV:     17.0386116
Total vdW correction in eV:     17.0386114
   1 F= -.12499224E+03 E0= -.12497140E+03  d E =-.416799E-01
