 vasp.5.3.5 31Mar14 (build Oct 29 2014 16:16:03) complex                        
  
 executed on          Linux-UFHPC date 2016.02.09  18:08:21
 running on    8 total cores
 distrk:  each k-point on    8 cores,    1 groups
 distr:  one band on NCORES_PER_BAND=   2 cores,    4 groups


--------------------------------------------------------------------------------------------------------


 INCAR:
 POTCAR:    PAW_PBE P 17Jan2003                   
 POTCAR:   PAW_PBE Si 05Jan2001                   

 ----------------------------------------------------------------------------- 
|                                                                             |
|  ADVICE TO THIS USER RUNNING 'VASP/VAMP'   (HEAR YOUR MASTER'S VOICE ...):  |
|                                                                             |
|      You have switched on vdW-DFT.                                          |
|      This routine was written and supplied by Jiri Klimes.                  |
|      We recommed that you carefully read and cite the following             |
|      publication                                                            |
|      J. Klimes, D.R. Bowler, A. Michelides                                  |
|        J. Phys.: Cond Matt. 22 022201 (2010)                                |
|      J. Klimes, D.R. Bowler, A. Michelides                                  |
|        Phys. Rev. B. 83, 195131 (2011)                                      |
|      and references therein.                                                |
|                                                                             |
 ----------------------------------------------------------------------------- 

 POTCAR:    PAW_PBE P 17Jan2003                   
   VRHFIN =P : s2p3                                                             
   LEXCH  = PE                                                                  
   EATOM  =   176.0430 eV,   12.9388 Ry                                         
                                                                                
   TITEL  = PAW_PBE P 17Jan2003                                                 
   LULTRA =        F    use ultrasoft PP ?                                      
   IUNSCR =        1    unscreen: 0-lin 1-nonlin 2-no                           
   RPACOR =    1.500    partial core radius                                     
   POMASS =   30.974; ZVAL   =    5.000    mass and valenz                      
   RCORE  =    1.900    outmost cutoff radius                                   
   RWIGS  =    2.330; RWIGS  =    1.233    wigner-seitz radius (au A)           
   ENMAX  =  270.000; ENMIN  =  191.280 eV                                      
   ICORE  =        2    local potential                                         
   LCOR   =        T    correct aug charges                                     
   LPAW   =        T    paw PP                                                  
   EAUG   =  342.924                                                            
   DEXC   =    -.002                                                            
   RMAX   =    2.887    core radius for proj-oper                               
   RAUG   =    1.300    factor for augmentation sphere                          
   RDEP   =    1.931    radius for radial grids                                 
   QCUT   =   -4.330; QGAM   =    8.659    optimization parameters              
                                                                                
   Description                                                                  
     l     E      TYP  RCUT    TYP  RCUT                                        
     0   .000     23  1.900                                                     
     0   .000     23  1.900                                                     
     1   .000     23  1.900                                                     
     1   .000     23  1.900                                                     
     2   .000     23  1.900                                                     
  local pseudopotential read in
  partial core-charges read in
  atomic valenz-charges read in
  non local Contribution for L=           0  read in
    real space projection operators read in
  non local Contribution for L=           0  read in
    real space projection operators read in
  non local Contribution for L=           1  read in
    real space projection operators read in
  non local Contribution for L=           1  read in
    real space projection operators read in
    PAW grid and wavefunctions read in
 
   number of l-projection  operators is LMAX  =           4
   number of lm-projection operators is LMMAX =           8
 
 POTCAR:   PAW_PBE Si 05Jan2001                   
   VRHFIN =Si: s2p2                                                             
   LEXCH  = PE                                                                  
   EATOM  =   103.0669 eV,    7.5752 Ry                                         
                                                                                
   TITEL  = PAW_PBE Si 05Jan2001                                                
   LULTRA =        F    use ultrasoft PP ?                                      
   IUNSCR =        1    unscreen: 0-lin 1-nonlin 2-no                           
   RPACOR =    1.500    partial core radius                                     
   POMASS =   28.085; ZVAL   =    4.000    mass and valenz                      
   RCORE  =    1.900    outmost cutoff radius                                   
   RWIGS  =    2.480; RWIGS  =    1.312    wigner-seitz radius (au A)           
   ENMAX  =  245.345; ENMIN  =  184.009 eV                                      
   ICORE  =        2    local potential                                         
   LCOR   =        T    correct aug charges                                     
   LPAW   =        T    paw PP                                                  
   EAUG   =  322.069                                                            
   DEXC   =    -.007                                                            
   RMAX   =    2.944    core radius for proj-oper                               
   RAUG   =    1.300    factor for augmentation sphere                          
   RDEP   =    1.993    radius for radial grids                                 
   QCUT   =   -4.246; QGAM   =    8.493    optimization parameters              
                                                                                
   Description                                                                  
     l     E      TYP  RCUT    TYP  RCUT                                        
     0   .000     23  1.900                                                     
     0   .000     23  1.900                                                     
     1   .000     23  1.900                                                     
     1   .000     23  1.900                                                     
     2   .000      7  1.900                                                     
  local pseudopotential read in
  partial core-charges read in
  atomic valenz-charges read in
  non local Contribution for L=           0  read in
    real space projection operators read in
  non local Contribution for L=           0  read in
    real space projection operators read in
  non local Contribution for L=           1  read in
    real space projection operators read in
  non local Contribution for L=           1  read in
    real space projection operators read in
    PAW grid and wavefunctions read in
 
   number of l-projection  operators is LMAX  =           4
   number of lm-projection operators is LMMAX =           8
 
 Optimization of the real space projectors (new method)

 maximal supplied QI-value         = 19.84
 optimisation between [QCUT,QGAM] = [  8.73, 17.66] = [ 21.34, 87.33] Ry 
 Optimized for a Real-space Cutoff    1.50 Angstroem

   l    n(q)    QCUT    max X(q) W(low)/X(q) W(high)/X(q)  e(spline) 
   0      8     8.731     6.651    0.16E-04    0.15E-04    0.77E-08
   0      8     8.731    90.285    0.16E-03    0.90E-04    0.16E-06
   1      7     8.731     4.328    0.47E-04    0.36E-04    0.45E-07
   1      7     8.731    54.583    0.13E-03    0.39E-03    0.20E-06
 Optimization of the real space projectors (new method)

 maximal supplied QI-value         = 19.84
 optimisation between [QCUT,QGAM] = [  8.73, 17.66] = [ 21.34, 87.33] Ry 
 Optimized for a Real-space Cutoff    1.46 Angstroem

   l    n(q)    QCUT    max X(q) W(low)/X(q) W(high)/X(q)  e(spline) 
   0      8     8.731     8.708    0.16E-04    0.11E-04    0.68E-08
   0      8     8.731   106.241    0.24E-03    0.77E-04    0.13E-06
   1      7     8.731     5.901    0.34E-04    0.38E-04    0.36E-07
   1      7     8.731    73.241    0.12E-03    0.39E-03    0.15E-06

 ----------------------------------------------------------------------------- 
|                                                                             |
|  ADVICE TO THIS USER RUNNING 'VASP/VAMP'   (HEAR YOUR MASTER'S VOICE ...):  |
|                                                                             |
|      You enforced a specific xc-type in the INCAR file,                     |
|      a different type was found on the POTCAR file                          |
|          I HOPE YOU KNOW, WHAT YOU ARE  DOING                               |
|                                                                             |
 ----------------------------------------------------------------------------- 

  PAW_PBE P 17Jan2003                   :
 energy of atom  1       EATOM= -176.0430
 kinetic energy error for atom=    0.0040 (will be added to EATOM!!)
 PAW_PBE Si 05Jan2001                   :
 energy of atom  2       EATOM= -103.0669
 kinetic energy error for atom=    0.0021 (will be added to EATOM!!)
 
 
 POSCAR: Si12                                    
  positions in direct lattice
  No initial velocities read in
 exchange correlation table for  LEXCH =       42
   RHO(1)=    0.500       N(1)  =     2000
   RHO(2)=  100.500       N(2)  =     4000
 


--------------------------------------------------------------------------------------------------------


 ion  position               nearest neighbor table
   1  0.114  0.228  0.233-  15 2.28  21 2.29  21 2.29
   2  0.614  0.328  0.515-  16 2.28  22 2.29  22 2.29
   3  0.458  0.916  0.209-  21 2.28  13 2.30  13 2.30
   4  0.958  0.016  0.491-  22 2.28  14 2.30  14 2.30
   5  0.311  0.622  0.084-  17 2.28  23 2.30  23 2.30
   6  0.311  0.622  0.366-  24 2.01  18 2.28
   7  0.999  0.998  0.086-  19 2.29  19 2.29  13 2.32
   8  0.999  0.998  0.368-  20 2.29  20 2.29  14 2.54  14 2.77
   9  0.655  0.310  0.060-  19 2.28  17 2.29  17 2.29
  10  0.655  0.310  0.342-  20 2.28  18 2.29  18 2.29
  11  0.770  0.539  0.207-  15 2.29  15 2.29  23 2.32
  12  0.270  0.639  0.489-  16 2.29  16 2.29  24 2.32
  13  0.940  0.879  0.158-   3 2.30   3 2.30   7 2.32  23 2.35
  14  0.440  0.979  0.440-  20 2.06   4 2.30   4 2.30  24 2.35   8 2.54   8 2.77
  15  0.205  0.410  0.186-   1 2.28  11 2.29  11 2.29  17 2.37
  16  0.705  0.510  0.468-   2 2.28  12 2.29  12 2.29  18 3.06
  17  0.202  0.404  0.100-   5 2.28   9 2.29   9 2.29  15 2.37
  18  0.202  0.404  0.382-   6 2.28  10 2.29  10 2.29  16 3.06  22 3.13
  19  0.564  0.128  0.108-   9 2.28   7 2.29   7 2.29  21 2.37
  20  0.564  0.128  0.390-  14 2.06  10 2.28   8 2.29   8 2.29  22 3.06
  21  0.567  0.134  0.194-   3 2.28   1 2.29   1 2.29  19 2.37
  22  0.067  0.234  0.476-   4 2.28   2 2.29   2 2.29  20 3.06  18 3.13
  23  0.829  0.658  0.136-   5 2.30   5 2.30  11 2.32  13 2.35
  24  0.329  0.758  0.418-   6 2.01  12 2.32  14 2.35
 
  LATTYP: Found a base centered orthorhombic cell.
 ALAT       =     3.5404000000
 B/A-ratio  =     5.8153587165
 C/A-ratio  =     7.7678875268
  
  Lattice vectors:
  
 A1 = (   1.7702000000,  10.2943480000,   0.0000000000)
 A2 = (   1.7702000000, -10.2943480000,   0.0000000000)
 A3 = (   0.0000000000,   0.0000000000, -27.5014290000)


Analysis of symmetry for initial positions (statically):
=====================================================================
 Subroutine PRICEL returns:
 Original cell was already a primitive cell.
 

 Routine SETGRP: Setting up the symmetry group for a 
 base centered orthorhombic supercell.


 Subroutine GETGRP returns: Found  1 space group operations
 (whereof  1 operations were pure point group operations)
 out of a pool of  8 trial point group operations.


The static configuration has the point symmetry C_1 .


Analysis of symmetry for dynamics (positions and initial velocities):
=====================================================================
 Subroutine PRICEL returns:
 Original cell was already a primitive cell.
 

 Routine SETGRP: Setting up the symmetry group for a 
 base centered orthorhombic supercell.


 Subroutine GETGRP returns: Found  1 space group operations
 (whereof  1 operations were pure point group operations)
 out of a pool of  8 trial point group operations.


The dynamic configuration has the point symmetry C_1 .
 
 
 KPOINTS: pymatgen generated KPOINTS with grid den

Automatic generation of k-mesh.
Space group operators:
 irot       det(A)        alpha          n_x          n_y          n_z        tau_x        tau_y        tau_z
    1     1.000000     0.000000     1.000000     0.000000     0.000000     0.000000     0.000000     0.000000
 
 Subroutine IBZKPT returns following result:
 ===========================================
 
 Found     54 irreducible k-points:
 
 Following reciprocal coordinates:
            Coordinates               Weight
  0.000000  0.000000  0.000000      1.000000
  0.076923 -0.000000  0.000000      2.000000
  0.153846 -0.000000  0.000000      2.000000
  0.230769 -0.000000  0.000000      2.000000
  0.307692 -0.000000  0.000000      2.000000
  0.384615 -0.000000  0.000000      2.000000
  0.461538 -0.000000  0.000000      2.000000
  0.000000  0.250000  0.000000      2.000000
  0.076923  0.250000  0.000000      2.000000
  0.153846  0.250000  0.000000      2.000000
  0.230769  0.250000  0.000000      2.000000
  0.307692  0.250000  0.000000      2.000000
  0.384615  0.250000  0.000000      2.000000
  0.461538  0.250000  0.000000      2.000000
 -0.461538  0.250000  0.000000      2.000000
 -0.384615  0.250000  0.000000      2.000000
 -0.307692  0.250000  0.000000      2.000000
 -0.230769  0.250000  0.000000      2.000000
 -0.153846  0.250000  0.000000      2.000000
 -0.076923  0.250000  0.000000      2.000000
  0.000000  0.500000  0.000000      1.000000
  0.076923  0.500000  0.000000      2.000000
  0.153846  0.500000  0.000000      2.000000
  0.230769  0.500000  0.000000      2.000000
  0.307692  0.500000  0.000000      2.000000
  0.384615  0.500000  0.000000      2.000000
  0.461538  0.500000  0.000000      2.000000
  0.000000  0.000000  0.500000      1.000000
  0.076923 -0.000000  0.500000      2.000000
  0.153846 -0.000000  0.500000      2.000000
  0.230769 -0.000000  0.500000      2.000000
  0.307692 -0.000000  0.500000      2.000000
  0.384615 -0.000000  0.500000      2.000000
  0.461538 -0.000000  0.500000      2.000000
  0.000000  0.250000  0.500000      2.000000
  0.076923  0.250000  0.500000      2.000000
  0.153846  0.250000  0.500000      2.000000
  0.230769  0.250000  0.500000      2.000000
  0.307692  0.250000  0.500000      2.000000
  0.384615  0.250000  0.500000      2.000000
  0.461538  0.250000  0.500000      2.000000
 -0.461538  0.250000  0.500000      2.000000
 -0.384615  0.250000  0.500000      2.000000
 -0.307692  0.250000  0.500000      2.000000
 -0.230769  0.250000  0.500000      2.000000
 -0.153846  0.250000  0.500000      2.000000
 -0.076923  0.250000  0.500000      2.000000
  0.000000  0.500000  0.500000      1.000000
  0.076923  0.500000  0.500000      2.000000
  0.153846  0.500000  0.500000      2.000000
  0.230769  0.500000  0.500000      2.000000
  0.307692  0.500000  0.500000      2.000000
  0.384615  0.500000  0.500000      2.000000
  0.461538  0.500000  0.500000      2.000000
 
 Following cartesian coordinates:
            Coordinates               Weight
  0.000000  0.000000  0.000000      1.000000
  0.021727  0.003736  0.000000      2.000000
  0.043454  0.007472  0.000000      2.000000
  0.065182  0.011209  0.000000      2.000000
  0.086909  0.014945  0.000000      2.000000
  0.108636  0.018681  0.000000      2.000000
  0.130363  0.022417  0.000000      2.000000
  0.000000  0.024285  0.000000      2.000000
  0.021727  0.028021  0.000000      2.000000
  0.043454  0.031758  0.000000      2.000000
  0.065182  0.035494  0.000000      2.000000
  0.086909  0.039230  0.000000      2.000000
  0.108636  0.042966  0.000000      2.000000
  0.130363  0.046702  0.000000      2.000000
 -0.130363  0.001868  0.000000      2.000000
 -0.108636  0.005604  0.000000      2.000000
 -0.086909  0.009340  0.000000      2.000000
 -0.065182  0.013077  0.000000      2.000000
 -0.043454  0.016813  0.000000      2.000000
 -0.021727  0.020549  0.000000      2.000000
  0.000000  0.048570  0.000000      1.000000
  0.021727  0.052307  0.000000      2.000000
  0.043454  0.056043  0.000000      2.000000
  0.065182  0.059779  0.000000      2.000000
  0.086909  0.063515  0.000000      2.000000
  0.108636  0.067251  0.000000      2.000000
  0.130363  0.070987  0.000000      2.000000
  0.000000  0.000000  0.018181      1.000000
  0.021727  0.003736  0.018181      2.000000
  0.043454  0.007472  0.018181      2.000000
  0.065182  0.011209  0.018181      2.000000
  0.086909  0.014945  0.018181      2.000000
  0.108636  0.018681  0.018181      2.000000
  0.130363  0.022417  0.018181      2.000000
  0.000000  0.024285  0.018181      2.000000
  0.021727  0.028021  0.018181      2.000000
  0.043454  0.031758  0.018181      2.000000
  0.065182  0.035494  0.018181      2.000000
  0.086909  0.039230  0.018181      2.000000
  0.108636  0.042966  0.018181      2.000000
  0.130363  0.046702  0.018181      2.000000
 -0.130363  0.001868  0.018181      2.000000
 -0.108636  0.005604  0.018181      2.000000
 -0.086909  0.009340  0.018181      2.000000
 -0.065182  0.013077  0.018181      2.000000
 -0.043454  0.016813  0.018181      2.000000
 -0.021727  0.020549  0.018181      2.000000
  0.000000  0.048570  0.018181      1.000000
  0.021727  0.052307  0.018181      2.000000
  0.043454  0.056043  0.018181      2.000000
  0.065182  0.059779  0.018181      2.000000
  0.086909  0.063515  0.018181      2.000000
  0.108636  0.067251  0.018181      2.000000
  0.130363  0.070987  0.018181      2.000000
 


--------------------------------------------------------------------------------------------------------




 Dimension of arrays:
   k-points           NKPTS =     54   k-points in BZ     NKDIM =     54   number of bands    NBANDS=     68
   number of dos      NEDOS =    301   number of ions     NIONS =     24
   non local maximal  LDIM  =      4   non local SUM 2l+1 LMDIM =      8
   total plane-waves  NPLWV = 192000
   max r-space proj   IRMAX =   2772   max aug-charges    IRDMAX=   6603
   dimension x,y,z NGX =    20 NGY =   60 NGZ =  160
   dimension x,y,z NGXF=    40 NGYF=  120 NGZF=  320
   support grid    NGXF=    40 NGYF=  120 NGZF=  320
   ions per type =              12  12
 NGX,Y,Z   is equivalent  to a cutoff of   9.39,  9.55,  9.67 a.u.
 NGXF,Y,Z  is equivalent  to a cutoff of  18.78, 19.10, 19.34 a.u.


 I would recommend the setting:
   dimension x,y,z NGX =    20 NGY =   59 NGZ =  155
 SYSTEM =  unknown system                          
 POSCAR =  Si12                                    

 Startparameter for this run:
   NWRITE =      2    write-flag & timer
   PREC   = accura    normal or accurate (medium, high low for compatibility)
   ISTART =      0    job   : 0-new  1-cont  2-samecut
   ICHARG =      2    charge: 1-file 2-atom 10-const
   ISPIN  =      1    spin polarized calculation?
   LNONCOLLINEAR =      F non collinear calculations
   LSORBIT =      F    spin-orbit coupling
   INIWAV =      1    electr: 0-lowe 1-rand  2-diag
   LASPH  =      F    aspherical Exc in radial PAW
   METAGGA=      F    non-selfconsistent MetaGGA calc.

 Electronic Relaxation 1
   ENCUT  =  300.0 eV  22.05 Ry    4.70 a.u.   5.00 14.75 38.84*2*pi/ulx,y,z
   ENINI  =  300.0     initial cutoff
   ENAUG  =  342.9 eV  augmentation charge cutoff
   NELM   =     60;   NELMIN=  2; NELMDL= -5     # of ELM steps 
   EDIFF  = 0.1E-05   stopping-criterion for ELM
   LREAL  =      T    real-space projection
   NLSPLINE    = F    spline interpolate recip. space projectors
   LCOMPAT=      F    compatible to vasp.4.4
   GGA_COMPAT  = T    GGA compatible to vasp.4.4-vasp.4.6
   LMAXPAW     = -100 max onsite density
   LMAXMIX     =    2 max onsite mixed and CHGCAR
   VOSKOWN=      0    Vosko Wilk Nusair interpolation
   ROPT   =   -0.00025  -0.00025
 Ionic relaxation
   EDIFFG = 0.1E-04   stopping-criterion for IOM
   NSW    =      0    number of steps for IOM
   NBLOCK =      1;   KBLOCK =      1    inner block; outer block 
   IBRION =     -1    ionic relax: 0-MD 1-quasi-New 2-CG
   NFREE  =      1    steps in history (QN), initial steepest desc. (CG)
   ISIF   =      3    stress and relaxation
   IWAVPR =     10    prediction:  0-non 1-charg 2-wave 3-comb
   ISYM   =      2    0-nonsym 1-usesym 2-fastsym
   LCORR  =      T    Harris-Foulkes like correction to forces

   POTIM  = 0.5000    time-step for ionic-motion
   TEIN   =    0.0    initial temperature
   TEBEG  =    0.0;   TEEND  =   0.0 temperature during run
   SMASS  =  -3.00    Nose mass-parameter (am)
   estimated Nose-frequenzy (Omega)   =  0.10E-29 period in steps =****** mass=  -0.286E-27a.u.
   SCALEE = 1.0000    scale energy and forces
   NPACO  =    256;   APACO  = 16.0  distance and # of slots for P.C.
   PSTRESS=    0.0 pullay stress

  Mass of Ions in am
   POMASS =  30.97 28.09
  Ionic Valenz
   ZVAL   =   5.00  4.00
  Atomic Wigner-Seitz radii
   RWIGS  =  -1.00 -1.00
  virtual crystal weights 
   VCA    =   1.00  1.00
   NELECT =     108.0000    total number of electrons
   NUPDOWN=      -1.0000    fix difference up-down

 DOS related values:
   EMIN   =  10.00;   EMAX   =-10.00  energy-range for DOS
   EFERMI =   0.00
   ISMEAR =     0;   SIGMA  =   0.10  broadening in eV -4-tet -1-fermi 0-gaus

 Electronic relaxation 2 (details)
   IALGO  =     38    algorithm
   LDIAG  =      T    sub-space diagonalisation (order eigenvalues)
   LSUBROT=      F    optimize rotation matrix (better conditioning)
   TURBO    =      0    0=normal 1=particle mesh
   IRESTART =      0    0=no restart 2=restart with 2 vectors
   NREBOOT  =      0    no. of reboots
   NMIN     =      0    reboot dimension
   EREF     =   0.00    reference energy to select bands
   IMIX   =      4    mixing-type and parameters
     AMIX     =   0.40;   BMIX     =  1.00
     AMIX_MAG =   1.60;   BMIX_MAG =  1.00
     AMIN     =   0.10
     WC   =   100.;   INIMIX=   1;  MIXPRE=   1;  MAXMIX= -45

 Intra band minimization:
   WEIMIN = 0.0000     energy-eigenvalue tresh-hold
   EBREAK =  0.37E-08  absolut break condition
   DEPER  =   0.30     relativ break condition  

   TIME   =   0.40     timestep for ELM

  volume/ion in A,a.u.               =      41.76       281.83
  Fermi-wavevector in a.u.,A,eV,Ry     =   0.779018  1.472130  8.256946  0.606868
  Thomas-Fermi vector in A             =   1.882034
 
 Write flags
   LWAVE  =      F    write WAVECAR
   LCHARG =      F    write CHGCAR
   LVTOT  =      F    write LOCPOT, total local potential
   LVHAR  =      F    write LOCPOT, Hartree potential only
   LELF   =      F    write electronic localiz. function (ELF)
   LORBIT =      0    0 simple, 1 ext, 2 COOP (PROOUT)


 Dipole corrections
   LMONO  =      F    monopole corrections only (constant potential shift)
   LDIPOL =      F    correct potential (dipole corrections)
   IDIPOL =      0    1-x, 2-y, 3-z, 4-all directions 
   EPSILON=  1.0000000 bulk dielectric constant

 Exchange correlation treatment:
   GGA     =    BO    GGA type
   LEXCH   =    42    internal setting for exchange type
   VOSKOWN=      0    Vosko Wilk Nusair interpolation
   LHFCALC =     F    Hartree Fock is set to
   LHFONE  =     F    Hartree Fock one center treatment
   AEXX    =    0.0000 exact exchange contribution

 vdW DFT:
   LUSE_VDW   =     T    switch on vdW DFT
   Zab_VDW    =-.8491    correlation parameter
   PARAM1     =0.1833
   PARAM2     =0.2200
   PARAM3     =0.0000

 Linear response parameters
   LEPSILON=     F    determine dielectric tensor
   LRPA    =     F    only Hartree local field effects (RPA)
   LNABLA  =     F    use nabla operator in PAW spheres
   LVEL    =     F    velocity operator in full k-point grid
   LINTERFAST=   F  fast interpolation
   KINTER  =     0    interpolate to denser k-point grid
   CSHIFT  =0.1000    complex shift for real part using Kramers Kronig
   OMEGAMAX=  -1.0    maximum frequency
   DEG_THRESHOLD= 0.2000000E-02 threshold for treating states as degnerate
   RTIME   =    0.100 relaxation time in fs

 Orbital magnetization related:
   ORBITALMAG=     F  switch on orbital magnetization
   LCHIMAG   =     F  perturbation theory with respect to B field
   DQ        =  0.001000  dq finite difference perturbation B field



--------------------------------------------------------------------------------------------------------


 Static calculation
 charge density and potential will be updated during run
 non-spin polarized calculation
 Variant of blocked Davidson
 Davidson routine will perform the subspace rotation
 perform sub-space diagonalisation
    after iterative eigenvector-optimisation
 modified Broyden-mixing scheme, WC =      100.0
 initial mixing is a Kerker type mixing with AMIX =  0.4000 and BMIX =      1.0000
 Hartree-type preconditioning will be used
 using additional bands           14
 real space projection scheme for non local part
 use partial core corrections
 calculate Harris-corrections to forces 
   (improved forces if not selfconsistent)
 use gradient corrections 
 use of overlap-Matrix (Vanderbilt PP)
 Gauss-broadening in eV      SIGMA  =   0.10


--------------------------------------------------------------------------------------------------------


  energy-cutoff  :      300.00
  volume of cell :     1002.32
      direct lattice vectors                 reciprocal lattice vectors
     3.540400000  0.000000000  0.000000000     0.282453960  0.048570342  0.000000000
    -1.770200000 10.294348000  0.000000000     0.000000000  0.097140683  0.000000000
     0.000000000  0.000000000 27.501429000     0.000000000  0.000000000  0.036361747

  length of vectors
     3.540400000 10.445439617 27.501429000     0.286599577  0.097140683  0.036361747


 
 k-points in units of 2pi/SCALE and weight: pymatgen generated KPOINTS with grid den
   0.00000000  0.00000000  0.00000000       0.010
   0.02172723  0.00373618  0.00000000       0.019
   0.04345446  0.00747236  0.00000000       0.019
   0.06518168  0.01120854  0.00000000       0.019
   0.08690891  0.01494472  0.00000000       0.019
   0.10863614  0.01868090  0.00000000       0.019
   0.13036337  0.02241708  0.00000000       0.019
   0.00000000  0.02428517  0.00000000       0.019
   0.02172723  0.02802135  0.00000000       0.019
   0.04345446  0.03175753  0.00000000       0.019
   0.06518168  0.03549371  0.00000000       0.019
   0.08690891  0.03922989  0.00000000       0.019
   0.10863614  0.04296607  0.00000000       0.019
   0.13036337  0.04670225  0.00000000       0.019
  -0.13036337  0.00186809  0.00000000       0.019
  -0.10863614  0.00560427  0.00000000       0.019
  -0.08690891  0.00934045  0.00000000       0.019
  -0.06518168  0.01307663  0.00000000       0.019
  -0.04345446  0.01681281  0.00000000       0.019
  -0.02172723  0.02054899  0.00000000       0.019
   0.00000000  0.04857034  0.00000000       0.010
   0.02172723  0.05230652  0.00000000       0.019
   0.04345446  0.05604270  0.00000000       0.019
   0.06518168  0.05977888  0.00000000       0.019
   0.08690891  0.06351506  0.00000000       0.019
   0.10863614  0.06725124  0.00000000       0.019
   0.13036337  0.07098742  0.00000000       0.019
   0.00000000  0.00000000  0.01818087       0.010
   0.02172723  0.00373618  0.01818087       0.019
   0.04345446  0.00747236  0.01818087       0.019
   0.06518168  0.01120854  0.01818087       0.019
   0.08690891  0.01494472  0.01818087       0.019
   0.10863614  0.01868090  0.01818087       0.019
   0.13036337  0.02241708  0.01818087       0.019
   0.00000000  0.02428517  0.01818087       0.019
   0.02172723  0.02802135  0.01818087       0.019
   0.04345446  0.03175753  0.01818087       0.019
   0.06518168  0.03549371  0.01818087       0.019
   0.08690891  0.03922989  0.01818087       0.019
   0.10863614  0.04296607  0.01818087       0.019
   0.13036337  0.04670225  0.01818087       0.019
  -0.13036337  0.00186809  0.01818087       0.019
  -0.10863614  0.00560427  0.01818087       0.019
  -0.08690891  0.00934045  0.01818087       0.019
  -0.06518168  0.01307663  0.01818087       0.019
  -0.04345446  0.01681281  0.01818087       0.019
  -0.02172723  0.02054899  0.01818087       0.019
   0.00000000  0.04857034  0.01818087       0.010
   0.02172723  0.05230652  0.01818087       0.019
   0.04345446  0.05604270  0.01818087       0.019
   0.06518168  0.05977888  0.01818087       0.019
   0.08690891  0.06351506  0.01818087       0.019
   0.10863614  0.06725124  0.01818087       0.019
   0.13036337  0.07098742  0.01818087       0.019
 
 k-points in reciprocal lattice and weights: pymatgen generated KPOINTS with grid den
   0.00000000  0.00000000  0.00000000       0.010
   0.07692308 -0.00000000  0.00000000       0.019
   0.15384615 -0.00000000  0.00000000       0.019
   0.23076923 -0.00000000  0.00000000       0.019
   0.30769231 -0.00000000  0.00000000       0.019
   0.38461538 -0.00000000  0.00000000       0.019
   0.46153846 -0.00000000  0.00000000       0.019
   0.00000000  0.25000000  0.00000000       0.019
   0.07692308  0.25000000  0.00000000       0.019
   0.15384615  0.25000000  0.00000000       0.019
   0.23076923  0.25000000  0.00000000       0.019
   0.30769231  0.25000000  0.00000000       0.019
   0.38461538  0.25000000  0.00000000       0.019
   0.46153846  0.25000000  0.00000000       0.019
  -0.46153846  0.25000000  0.00000000       0.019
  -0.38461538  0.25000000  0.00000000       0.019
  -0.30769231  0.25000000  0.00000000       0.019
  -0.23076923  0.25000000  0.00000000       0.019
  -0.15384615  0.25000000  0.00000000       0.019
  -0.07692308  0.25000000  0.00000000       0.019
   0.00000000  0.50000000  0.00000000       0.010
   0.07692308  0.50000000  0.00000000       0.019
   0.15384615  0.50000000  0.00000000       0.019
   0.23076923  0.50000000  0.00000000       0.019
   0.30769231  0.50000000  0.00000000       0.019
   0.38461538  0.50000000  0.00000000       0.019
   0.46153846  0.50000000  0.00000000       0.019
   0.00000000  0.00000000  0.50000000       0.010
   0.07692308 -0.00000000  0.50000000       0.019
   0.15384615 -0.00000000  0.50000000       0.019
   0.23076923 -0.00000000  0.50000000       0.019
   0.30769231 -0.00000000  0.50000000       0.019
   0.38461538 -0.00000000  0.50000000       0.019
   0.46153846 -0.00000000  0.50000000       0.019
   0.00000000  0.25000000  0.50000000       0.019
   0.07692308  0.25000000  0.50000000       0.019
   0.15384615  0.25000000  0.50000000       0.019
   0.23076923  0.25000000  0.50000000       0.019
   0.30769231  0.25000000  0.50000000       0.019
   0.38461538  0.25000000  0.50000000       0.019
   0.46153846  0.25000000  0.50000000       0.019
  -0.46153846  0.25000000  0.50000000       0.019
  -0.38461538  0.25000000  0.50000000       0.019
  -0.30769231  0.25000000  0.50000000       0.019
  -0.23076923  0.25000000  0.50000000       0.019
  -0.15384615  0.25000000  0.50000000       0.019
  -0.07692308  0.25000000  0.50000000       0.019
   0.00000000  0.50000000  0.50000000       0.010
   0.07692308  0.50000000  0.50000000       0.019
   0.15384615  0.50000000  0.50000000       0.019
   0.23076923  0.50000000  0.50000000       0.019
   0.30769231  0.50000000  0.50000000       0.019
   0.38461538  0.50000000  0.50000000       0.019
   0.46153846  0.50000000  0.50000000       0.019
 
 position of ions in fractional coordinates (direct lattice) 
   0.11402300  0.22804500  0.23316207
   0.61402300  0.32804500  0.51499159
   0.45808900  0.91617900  0.20939482
   0.95808900  0.01617900  0.49122434
   0.31085400  0.62170900  0.08414979
   0.31085400  0.62170900  0.36597930
   0.99923000  0.99846000  0.08631254
   0.99923000  0.99846000  0.36814206
   0.65492700  0.30985400  0.06041748
   0.65492700  0.30985400  0.34224700
   0.76973800  0.53947500  0.20725292
   0.26973800  0.63947500  0.48908244
   0.93971600  0.87943300  0.15783749
   0.43971600  0.97943300  0.43966701
   0.20515200  0.41030300  0.18578822
   0.70515200  0.51030300  0.46761774
   0.20184900  0.40369900  0.09969156
   0.20184900  0.40369900  0.38152107
   0.56380500  0.12761000  0.10779021
   0.56380500  0.12761000  0.38961973
   0.56710600  0.13421200  0.19387616
   0.06710600  0.23421200  0.47570568
   0.82923400  0.65846800  0.13571444
   0.32923400  0.75846800  0.41754396
 
 position of ions in cartesian coordinates  (Angst):
   0.00000177  2.34757459  6.41229012
   1.59318177  3.37700939 14.16300462
  -0.00000177  9.43146546  5.75865686
   3.36337823  0.16655226 13.50937136
  -0.00000177  6.40008880  2.31423934
  -0.00000177  6.40008880 10.06495384
   1.77020000 10.27849470  2.37371832
   1.77020000 10.27849470 10.12443282
   1.77020000  3.18974491  1.66156717
   1.77020000  3.18974491  9.41228167
   1.77020177  5.55354339  5.69975143
  -0.17701823  6.58297819 13.45046593
   1.77019823  9.05318934  4.34075665
  -0.17702177 10.08262414 12.09147115
   0.00000177  4.22380187  5.10944151
   1.59318177  5.25323667 12.86015601
  -0.00000177  4.15581799  2.74166024
  -0.00000177  4.15581799 10.49237474
   1.77020000  1.31366175  2.96438477
   1.77020000  1.31366175 10.71509927
   1.77020000  1.38162503  5.33187152
  -0.17702000  2.41105983 13.08258602
   1.77020000  6.77849874  3.73234107
  -0.17702000  7.80793354 11.48305557
 


--------------------------------------------------------------------------------------------------------


 k-point  1 :   0.0000 0.0000 0.0000  plane waves:   11717
 k-point  2 :   0.0769-0.0000 0.0000  plane waves:   11762
 k-point  3 :   0.1538-0.0000 0.0000  plane waves:   11805
 k-point  4 :   0.2308-0.0000 0.0000  plane waves:   11824
 k-point  5 :   0.3077-0.0000 0.0000  plane waves:   11875
 k-point  6 :   0.3846-0.0000 0.0000  plane waves:   11864
 k-point  7 :   0.4615-0.0000 0.0000  plane waves:   11883
 k-point  8 :   0.0000 0.2500 0.0000  plane waves:   11683
 k-point  9 :   0.0769 0.2500 0.0000  plane waves:   11756
 k-point 10 :   0.1538 0.2500 0.0000  plane waves:   11807
 k-point 11 :   0.2308 0.2500 0.0000  plane waves:   11853
 k-point 12 :   0.3077 0.2500 0.0000  plane waves:   11866
 k-point 13 :   0.3846 0.2500 0.0000  plane waves:   11889
 k-point 14 :   0.4615 0.2500 0.0000  plane waves:   11885
 k-point 15 :  -0.4615 0.2500 0.0000  plane waves:   11886
 k-point 16 :  -0.3846 0.2500 0.0000  plane waves:   11867
 k-point 17 :  -0.3077 0.2500 0.0000  plane waves:   11849
 k-point 18 :  -0.2308 0.2500 0.0000  plane waves:   11827
 k-point 19 :  -0.1538 0.2500 0.0000  plane waves:   11801
 k-point 20 :  -0.0769 0.2500 0.0000  plane waves:   11757
 k-point 21 :   0.0000 0.5000 0.0000  plane waves:   11710
 k-point 22 :   0.0769 0.5000 0.0000  plane waves:   11762
 k-point 23 :   0.1538 0.5000 0.0000  plane waves:   11782
 k-point 24 :   0.2308 0.5000 0.0000  plane waves:   11841
 k-point 25 :   0.3077 0.5000 0.0000  plane waves:   11876
 k-point 26 :   0.3846 0.5000 0.0000  plane waves:   11889
 k-point 27 :   0.4615 0.5000 0.0000  plane waves:   11881
 k-point 28 :   0.0000 0.0000 0.5000  plane waves:   11698
 k-point 29 :   0.0769-0.0000 0.5000  plane waves:   11752
 k-point 30 :   0.1538-0.0000 0.5000  plane waves:   11800
 k-point 31 :   0.2308-0.0000 0.5000  plane waves:   11834
 k-point 32 :   0.3077-0.0000 0.5000  plane waves:   11850
 k-point 33 :   0.3846-0.0000 0.5000  plane waves:   11888
 k-point 34 :   0.4615-0.0000 0.5000  plane waves:   11896
 k-point 35 :   0.0000 0.2500 0.5000  plane waves:   11714
 k-point 36 :   0.0769 0.2500 0.5000  plane waves:   11754
 k-point 37 :   0.1538 0.2500 0.5000  plane waves:   11802
 k-point 38 :   0.2308 0.2500 0.5000  plane waves:   11840
 k-point 39 :   0.3077 0.2500 0.5000  plane waves:   11858
 k-point 40 :   0.3846 0.2500 0.5000  plane waves:   11896
 k-point 41 :   0.4615 0.2500 0.5000  plane waves:   11886
 k-point 42 :  -0.4615 0.2500 0.5000  plane waves:   11852
 k-point 43 :  -0.3846 0.2500 0.5000  plane waves:   11838
 k-point 44 :  -0.3077 0.2500 0.5000  plane waves:   11842
 k-point 45 :  -0.2308 0.2500 0.5000  plane waves:   11840
 k-point 46 :  -0.1538 0.2500 0.5000  plane waves:   11804
 k-point 47 :  -0.0769 0.2500 0.5000  plane waves:   11748
 k-point 48 :   0.0000 0.5000 0.5000  plane waves:   11724
 k-point 49 :   0.0769 0.5000 0.5000  plane waves:   11748
 k-point 50 :   0.1538 0.5000 0.5000  plane waves:   11814
 k-point 51 :   0.2308 0.5000 0.5000  plane waves:   11832
 k-point 52 :   0.3077 0.5000 0.5000  plane waves:   11868
 k-point 53 :   0.3846 0.5000 0.5000  plane waves:   11892
 k-point 54 :   0.4615 0.5000 0.5000  plane waves:   11878

 maximum and minimum number of plane-waves per node :      5964     5832

 maximum number of plane-waves:     11896
 maximum index in each direction: 
   IXMAX=    5   IYMAX=   14   IZMAX=   38
   IXMIN=   -5   IYMIN=  -15   IZMIN=  -39

 WARNING: aliasing errors must be expected set NGX to  22 to avoid them
 NGY is ok and might be reduce to  60
 NGZ is ok and might be reduce to 156
 aliasing errors are usually negligible using standard VASP settings
 and one can safely disregard these warnings

 real space projection operators:
  total allocation   :       3793.25 KBytes
  max/ min on nodes  :       1899.38       1893.88


 parallel 3D FFT for wavefunctions:
    minimum data exchange during FFTs selected (reduces bandwidth)
 parallel 3D FFT for charge:
    minimum data exchange during FFTs selected (reduces bandwidth)


 total amount of memory used by VASP on root node   146493. kBytes
========================================================================

   base      :      30000. kBytes
   nonlr-proj:       3452. kBytes
   fftplans  :       9347. kBytes
   grid      :      14649. kBytes
   one-center:         36. kBytes
   wavefun   :      89009. kBytes
 
     INWAV:  cpu time    0.00: real time    0.00
 Broyden mixing: mesh for mixing (old mesh)
   NGX =  9   NGY = 29   NGZ = 77
  (NGX  = 40   NGY  =120   NGZ  =320)
  gives a total of  20097 points

 initial charge density was supplied:
 charge density of overlapping atoms calculated
 number of electron     108.0000000 magnetization 
 keeping initial charge density in first step


--------------------------------------------------------------------------------------------------------


 Maximum index for non-local projection operator         1333
 Maximum index for augmentation-charges          822 (set IRDMAX)


--------------------------------------------------------------------------------------------------------


 First call to EWALD:  gamma=   0.177
 Maximum number of real-space cells 7x 3x 1
 Maximum number of reciprocal cells 1x 3x 7

 FEWALD executed in parallel
    FEWALD:  cpu time    0.00: real time    0.00


----------------------------------------- Iteration    1(   1)  ---------------------------------------


vdW kernel read from vdw_kernel.bindat
  0.0000  0.2424  0.5071  0.7962  1.1119  1.4567  1.8333  2.2446  2.6937  3.1842
  3.7199  4.3049  4.9438  5.6415  6.4036  7.2358  8.1446  9.1372 10.2212 11.4050
 12.6979 14.1099 15.6519 17.3360 19.1751 21.1837 23.3773 25.7729 28.3892 31.2465
 34.3669 37.7748 41.4965 45.5611 50.0000
 
    POTLOK:  cpu time   16.50: real time   16.54
    SETDIJ:  cpu time    0.01: real time    0.01
     EDDAV:  cpu time   64.31: real time   64.35
       DOS:  cpu time    0.01: real time    0.01
    --------------------------------------------
      LOOP:  cpu time   80.83: real time   80.92

 eigenvalue-minimisations  :  7368
 total energy-change (2. order) : 0.4851665E+03  (-0.2863297E+04)
 number of electron     108.0000000 magnetization 
 augmentation part      108.0000000 magnetization 

 Free energy of the ion-electron system (eV)
  ---------------------------------------------------
  alpha Z        PSCENC =        36.80884744
  Ewald energy   TEWEN  =     11894.46325772
  -Hartree energ DENC   =    -14950.22911201
  -exchange      EXHF   =         0.00000000
  -V(xc)+E(xc)   XCENC  =       -88.27391444
  PAW double counting   =      1056.43050070     -732.41190547
  entropy T*S    EENTRO =        -0.04429896
  eigenvalues    EBANDS =       -85.61814315
  atomic energy  EATOM  =      3354.04126044
  ---------------------------------------------------
  free energy    TOTEN  =       485.16649228 eV

  energy without entropy =      485.21079125  energy(sigma->0) =      485.18864177


--------------------------------------------------------------------------------------------------------




----------------------------------------- Iteration    1(   2)  ---------------------------------------


     EDDAV:  cpu time   80.13: real time   80.22
       DOS:  cpu time    0.01: real time    0.01
    --------------------------------------------
      LOOP:  cpu time   80.14: real time   80.23

 eigenvalue-minimisations  :  9776
 total energy-change (2. order) :-0.5546779E+03  (-0.5404439E+03)
 number of electron     108.0000000 magnetization 
 augmentation part      108.0000000 magnetization 

 Free energy of the ion-electron system (eV)
  ---------------------------------------------------
  alpha Z        PSCENC =        36.80884744
  Ewald energy   TEWEN  =     11894.46325772
  -Hartree energ DENC   =    -14950.22911201
  -exchange      EXHF   =         0.00000000
  -V(xc)+E(xc)   XCENC  =       -88.27391444
  PAW double counting   =      1056.43050070     -732.41190547
  entropy T*S    EENTRO =        -0.02352095
  eigenvalues    EBANDS =      -640.31678327
  atomic energy  EATOM  =      3354.04126044
  ---------------------------------------------------
  free energy    TOTEN  =       -69.51136983 eV

  energy without entropy =      -69.48784887  energy(sigma->0) =      -69.49960935


--------------------------------------------------------------------------------------------------------




----------------------------------------- Iteration    1(   3)  ---------------------------------------


     EDDAV:  cpu time   73.93: real time   74.01
       DOS:  cpu time    0.01: real time    0.01
    --------------------------------------------
      LOOP:  cpu time   73.94: real time   74.03

 eigenvalue-minimisations  :  8820
 total energy-change (2. order) :-0.5525219E+02  (-0.5447164E+02)
 number of electron     108.0000000 magnetization 
 augmentation part      108.0000000 magnetization 

 Free energy of the ion-electron system (eV)
  ---------------------------------------------------
  alpha Z        PSCENC =        36.80884744
  Ewald energy   TEWEN  =     11894.46325772
  -Hartree energ DENC   =    -14950.22911201
  -exchange      EXHF   =         0.00000000
  -V(xc)+E(xc)   XCENC  =       -88.27391444
  PAW double counting   =      1056.43050070     -732.41190547
  entropy T*S    EENTRO =        -0.02709953
  eigenvalues    EBANDS =      -695.56539813
  atomic energy  EATOM  =      3354.04126044
  ---------------------------------------------------
  free energy    TOTEN  =      -124.76356326 eV

  energy without entropy =     -124.73646373  energy(sigma->0) =     -124.75001350


--------------------------------------------------------------------------------------------------------




----------------------------------------- Iteration    1(   4)  ---------------------------------------


     EDDAV:  cpu time   87.13: real time   87.34
       DOS:  cpu time    0.01: real time    0.01
    --------------------------------------------
      LOOP:  cpu time   87.15: real time   87.36

 eigenvalue-minimisations  : 10784
 total energy-change (2. order) :-0.2413422E+01  (-0.2400655E+01)
 number of electron     108.0000000 magnetization 
 augmentation part      108.0000000 magnetization 

 Free energy of the ion-electron system (eV)
  ---------------------------------------------------
  alpha Z        PSCENC =        36.80884744
  Ewald energy   TEWEN  =     11894.46325772
  -Hartree energ DENC   =    -14950.22911201
  -exchange      EXHF   =         0.00000000
  -V(xc)+E(xc)   XCENC  =       -88.27391444
  PAW double counting   =      1056.43050070     -732.41190547
  entropy T*S    EENTRO =        -0.02832035
  eigenvalues    EBANDS =      -697.97759915
  atomic energy  EATOM  =      3354.04126044
  ---------------------------------------------------
  free energy    TOTEN  =      -127.17698510 eV

  energy without entropy =     -127.14866475  energy(sigma->0) =     -127.16282493


--------------------------------------------------------------------------------------------------------




----------------------------------------- Iteration    1(   5)  ---------------------------------------


     EDDAV:  cpu time   83.10: real time   83.13
       DOS:  cpu time    0.01: real time    0.01
    CHARGE:  cpu time    4.65: real time    4.65
    MIXING:  cpu time    0.01: real time    0.01
    --------------------------------------------
      LOOP:  cpu time   87.76: real time   87.80

 eigenvalue-minimisations  :  9936
 total energy-change (2. order) :-0.6104342E-01  (-0.6099085E-01)
 number of electron     107.9999994 magnetization 
 augmentation part       -9.5250679 magnetization 

 Broyden mixing:
  rms(total) = 0.99646E+00    rms(broyden)= 0.99626E+00
  rms(prec ) = 0.10629E+01
  weight for this iteration     100.00

 Free energy of the ion-electron system (eV)
  ---------------------------------------------------
  alpha Z        PSCENC =        36.80884744
  Ewald energy   TEWEN  =     11894.46325772
  -Hartree energ DENC   =    -14950.22911201
  -exchange      EXHF   =         0.00000000
  -V(xc)+E(xc)   XCENC  =       -88.27391444
  PAW double counting   =      1056.43050070     -732.41190547
  entropy T*S    EENTRO =        -0.02842258
  eigenvalues    EBANDS =      -698.03854034
  atomic energy  EATOM  =      3354.04126044
  ---------------------------------------------------
  free energy    TOTEN  =      -127.23802852 eV

  energy without entropy =     -127.20960594  energy(sigma->0) =     -127.22381723


--------------------------------------------------------------------------------------------------------




----------------------------------------- Iteration    1(   6)  ---------------------------------------


    POTLOK:  cpu time   15.44: real time   15.47
    SETDIJ:  cpu time    0.01: real time    0.01
     EDDAV:  cpu time   76.97: real time   77.03
       DOS:  cpu time    0.01: real time    0.01
    CHARGE:  cpu time    4.61: real time    4.61
    MIXING:  cpu time    0.01: real time    0.01
    --------------------------------------------
      LOOP:  cpu time   97.05: real time   97.14

 eigenvalue-minimisations  :  8704
 total energy-change (2. order) : 0.1891700E+01  (-0.7421158E+00)
 number of electron     107.9999995 magnetization 
 augmentation part       -9.3935588 magnetization 

 Broyden mixing:
  rms(total) = 0.57274E+00    rms(broyden)= 0.57271E+00
  rms(prec ) = 0.61285E+00
  weight for this iteration     100.00

 eigenvalues of (default mixing * dielectric matrix)
  average eigenvalue GAMMA=   1.6303
  1.6303

 Free energy of the ion-electron system (eV)
  ---------------------------------------------------
  alpha Z        PSCENC =        36.80884744
  Ewald energy   TEWEN  =     11894.46325772
  -Hartree energ DENC   =    -14987.04931745
  -exchange      EXHF   =         0.00000000
  -V(xc)+E(xc)   XCENC  =       -85.19057720
  PAW double counting   =      1115.00748214     -792.55901011
  entropy T*S    EENTRO =        -0.03872961
  eigenvalues    EBANDS =      -660.82954161
  atomic energy  EATOM  =      3354.04126044
  ---------------------------------------------------
  free energy    TOTEN  =      -125.34632824 eV

  energy without entropy =     -125.30759863  energy(sigma->0) =     -125.32696343


--------------------------------------------------------------------------------------------------------




----------------------------------------- Iteration    1(   7)  ---------------------------------------


    POTLOK:  cpu time   15.39: real time   15.40
    SETDIJ:  cpu time    0.01: real time    0.01
     EDDAV:  cpu time   78.24: real time   78.27
       DOS:  cpu time    0.01: real time    0.01
    CHARGE:  cpu time    4.49: real time    4.49
    MIXING:  cpu time    0.01: real time    0.01
    --------------------------------------------
      LOOP:  cpu time   98.15: real time   98.20

 eigenvalue-minimisations  :  9080
 total energy-change (2. order) : 0.1474080E+00  (-0.5499081E+00)
 number of electron     107.9999994 magnetization 
 augmentation part       -9.3182944 magnetization 

 Broyden mixing:
  rms(total) = 0.29925E+00    rms(broyden)= 0.29922E+00
  rms(prec ) = 0.35007E+00
  weight for this iteration     100.00

 eigenvalues of (default mixing * dielectric matrix)
  average eigenvalue GAMMA=   1.4249
  0.6540  2.1958

 Free energy of the ion-electron system (eV)
  ---------------------------------------------------
  alpha Z        PSCENC =        36.80884744
  Ewald energy   TEWEN  =     11894.46325772
  -Hartree energ DENC   =    -15003.71406030
  -exchange      EXHF   =         0.00000000
  -V(xc)+E(xc)   XCENC  =       -82.86590128
  PAW double counting   =      1149.27519594     -827.80307587
  entropy T*S    EENTRO =        -0.02700335
  eigenvalues    EBANDS =      -645.37744097
  atomic energy  EATOM  =      3354.04126044
  ---------------------------------------------------
  free energy    TOTEN  =      -125.19892022 eV

  energy without entropy =     -125.17191687  energy(sigma->0) =     -125.18541855


--------------------------------------------------------------------------------------------------------




----------------------------------------- Iteration    1(   8)  ---------------------------------------


    POTLOK:  cpu time   15.41: real time   15.42
    SETDIJ:  cpu time    0.01: real time    0.01
     EDDAV:  cpu time   76.81: real time   76.84
       DOS:  cpu time    0.01: real time    0.01
    CHARGE:  cpu time    4.64: real time    4.64
    MIXING:  cpu time    0.01: real time    0.01
    --------------------------------------------
      LOOP:  cpu time   96.89: real time   96.94

 eigenvalue-minimisations  :  8740
 total energy-change (2. order) : 0.1513625E+00  (-0.1932788E+00)
 number of electron     107.9999994 magnetization 
 augmentation part       -9.2713546 magnetization 

 Broyden mixing:
  rms(total) = 0.10107E+00    rms(broyden)= 0.10105E+00
  rms(prec ) = 0.10690E+00
  weight for this iteration     100.00

 eigenvalues of (default mixing * dielectric matrix)
  average eigenvalue GAMMA=   1.4528
  2.3778  1.3632  0.6173

 Free energy of the ion-electron system (eV)
  ---------------------------------------------------
  alpha Z        PSCENC =        36.80884744
  Ewald energy   TEWEN  =     11894.46325772
  -Hartree energ DENC   =    -15026.25402293
  -exchange      EXHF   =         0.00000000
  -V(xc)+E(xc)   XCENC  =       -81.34336777
  PAW double counting   =      1166.18720480     -845.19773278
  entropy T*S    EENTRO =        -0.04021366
  eigenvalues    EBANDS =      -623.71279096
  atomic energy  EATOM  =      3354.04126044
  ---------------------------------------------------
  free energy    TOTEN  =      -125.04755769 eV

  energy without entropy =     -125.00734403  energy(sigma->0) =     -125.02745086


--------------------------------------------------------------------------------------------------------




----------------------------------------- Iteration    1(   9)  ---------------------------------------


    POTLOK:  cpu time   15.39: real time   15.40
    SETDIJ:  cpu time    0.01: real time    0.01
     EDDAV:  cpu time   80.80: real time   80.93
       DOS:  cpu time    0.01: real time    0.01
    CHARGE:  cpu time    4.61: real time    4.61
    MIXING:  cpu time    0.01: real time    0.01
    --------------------------------------------
      LOOP:  cpu time  100.84: real time  100.98

 eigenvalue-minimisations  :  9112
 total energy-change (2. order) : 0.1212107E-01  (-0.2995862E-01)
 number of electron     107.9999994 magnetization 
 augmentation part       -9.2755865 magnetization 

 Broyden mixing:
  rms(total) = 0.53558E-01    rms(broyden)= 0.53544E-01
  rms(prec ) = 0.59493E-01
  weight for this iteration     100.00

 eigenvalues of (default mixing * dielectric matrix)
  average eigenvalue GAMMA=   1.3665
  2.4409  1.6238  0.7006  0.7006

 Free energy of the ion-electron system (eV)
  ---------------------------------------------------
  alpha Z        PSCENC =        36.80884744
  Ewald energy   TEWEN  =     11894.46325772
  -Hartree energ DENC   =    -15028.17792275
  -exchange      EXHF   =         0.00000000
  -V(xc)+E(xc)   XCENC  =       -81.00902547
  PAW double counting   =      1162.59478374     -841.51780400
  entropy T*S    EENTRO =        -0.04355298
  eigenvalues    EBANDS =      -622.19528078
  atomic energy  EATOM  =      3354.04126044
  ---------------------------------------------------
  free energy    TOTEN  =      -125.03543662 eV

  energy without entropy =     -124.99188365  energy(sigma->0) =     -125.01366013


--------------------------------------------------------------------------------------------------------




----------------------------------------- Iteration    1(  10)  ---------------------------------------


    POTLOK:  cpu time   15.41: real time   15.41
    SETDIJ:  cpu time    0.01: real time    0.01
     EDDAV:  cpu time   79.03: real time   79.16
       DOS:  cpu time    0.01: real time    0.01
    CHARGE:  cpu time    4.64: real time    4.64
    MIXING:  cpu time    0.01: real time    0.01
    --------------------------------------------
      LOOP:  cpu time   99.12: real time   99.25

 eigenvalue-minimisations  :  8960
 total energy-change (2. order) : 0.2270376E-01  (-0.4872472E-02)
 number of electron     107.9999994 magnetization 
 augmentation part       -9.2819277 magnetization 

 Broyden mixing:
  rms(total) = 0.22572E-01    rms(broyden)= 0.22570E-01
  rms(prec ) = 0.24773E-01
  weight for this iteration     100.00

 eigenvalues of (default mixing * dielectric matrix)
  average eigenvalue GAMMA=   1.3768
  2.5890  1.7598  0.6613  1.0037  0.8702

 Free energy of the ion-electron system (eV)
  ---------------------------------------------------
  alpha Z        PSCENC =        36.80884744
  Ewald energy   TEWEN  =     11894.46325772
  -Hartree energ DENC   =    -15028.64715192
  -exchange      EXHF   =         0.00000000
  -V(xc)+E(xc)   XCENC  =       -80.94723893
  PAW double counting   =      1159.48524781     -838.32328144
  entropy T*S    EENTRO =        -0.04128540
  eigenvalues    EBANDS =      -621.85238859
  atomic energy  EATOM  =      3354.04126044
  ---------------------------------------------------
  free energy    TOTEN  =      -125.01273287 eV

  energy without entropy =     -124.97144747  energy(sigma->0) =     -124.99209017


--------------------------------------------------------------------------------------------------------




----------------------------------------- Iteration    1(  11)  ---------------------------------------


    POTLOK:  cpu time   15.34: real time   15.41
    SETDIJ:  cpu time    0.01: real time    0.01
     EDDAV:  cpu time   78.65: real time   78.83
       DOS:  cpu time    0.01: real time    0.01
    CHARGE:  cpu time    4.64: real time    4.68
    MIXING:  cpu time    0.02: real time    0.02
    --------------------------------------------
      LOOP:  cpu time   98.67: real time   98.97

 eigenvalue-minimisations  :  8904
 total energy-change (2. order) : 0.1058402E-01  (-0.1578228E-02)
 number of electron     107.9999994 magnetization 
 augmentation part       -9.2831713 magnetization 

 Broyden mixing:
  rms(total) = 0.12226E-01    rms(broyden)= 0.12224E-01
  rms(prec ) = 0.15718E-01
  weight for this iteration     100.00

 eigenvalues of (default mixing * dielectric matrix)
  average eigenvalue GAMMA=   1.3114
  2.6159  1.8065  1.3410  0.7543  0.7543  0.5965

 Free energy of the ion-electron system (eV)
  ---------------------------------------------------
  alpha Z        PSCENC =        36.80884744
  Ewald energy   TEWEN  =     11894.46325772
  -Hartree energ DENC   =    -15029.58688619
  -exchange      EXHF   =         0.00000000
  -V(xc)+E(xc)   XCENC  =       -80.89462048
  PAW double counting   =      1158.02341877     -836.81989857
  entropy T*S    EENTRO =        -0.04131813
  eigenvalues    EBANDS =      -620.99620987
  atomic energy  EATOM  =      3354.04126044
  ---------------------------------------------------
  free energy    TOTEN  =      -125.00214885 eV

  energy without entropy =     -124.96083072  energy(sigma->0) =     -124.98148978


--------------------------------------------------------------------------------------------------------




----------------------------------------- Iteration    1(  12)  ---------------------------------------


    POTLOK:  cpu time   15.37: real time   15.39
    SETDIJ:  cpu time    0.01: real time    0.01
     EDDAV:  cpu time   79.13: real time   79.23
       DOS:  cpu time    0.01: real time    0.01
    CHARGE:  cpu time    4.59: real time    4.60
    MIXING:  cpu time    0.01: real time    0.01
    --------------------------------------------
      LOOP:  cpu time   99.14: real time   99.27

 eigenvalue-minimisations  :  8952
 total energy-change (2. order) : 0.4532104E-02  (-0.5227803E-03)
 number of electron     107.9999994 magnetization 
 augmentation part       -9.2829826 magnetization 

 Broyden mixing:
  rms(total) = 0.52343E-02    rms(broyden)= 0.52323E-02
  rms(prec ) = 0.66678E-02
  weight for this iteration     100.00

 eigenvalues of (default mixing * dielectric matrix)
  average eigenvalue GAMMA=   1.2887
  2.6607  1.9201  1.2048  1.2048  0.8320  0.6747  0.5242

 Free energy of the ion-electron system (eV)
  ---------------------------------------------------
  alpha Z        PSCENC =        36.80884744
  Ewald energy   TEWEN  =     11894.46325772
  -Hartree energ DENC   =    -15030.58993991
  -exchange      EXHF   =         0.00000000
  -V(xc)+E(xc)   XCENC  =       -80.88332961
  PAW double counting   =      1157.48187105     -836.26338048
  entropy T*S    EENTRO =        -0.04161206
  eigenvalues    EBANDS =      -620.01459135
  atomic energy  EATOM  =      3354.04126044
  ---------------------------------------------------
  free energy    TOTEN  =      -124.99761674 eV

  energy without entropy =     -124.95600469  energy(sigma->0) =     -124.97681072


--------------------------------------------------------------------------------------------------------




----------------------------------------- Iteration    1(  13)  ---------------------------------------


    POTLOK:  cpu time   15.36: real time   15.37
    SETDIJ:  cpu time    0.01: real time    0.01
     EDDAV:  cpu time   80.43: real time   80.65
       DOS:  cpu time    0.01: real time    0.01
    CHARGE:  cpu time    4.61: real time    4.62
    MIXING:  cpu time    0.01: real time    0.01
    --------------------------------------------
      LOOP:  cpu time  100.44: real time  100.67

 eigenvalue-minimisations  :  8880
 total energy-change (2. order) : 0.2847929E-02  (-0.6617422E-04)
 number of electron     107.9999994 magnetization 
 augmentation part       -9.2827719 magnetization 

 Broyden mixing:
  rms(total) = 0.27931E-02    rms(broyden)= 0.27929E-02
  rms(prec ) = 0.39037E-02
  weight for this iteration     100.00

 eigenvalues of (default mixing * dielectric matrix)
  average eigenvalue GAMMA=   1.3368
  2.7147  2.0782  1.6471  1.2949  0.8909  0.8909  0.6673  0.5109

 Free energy of the ion-electron system (eV)
  ---------------------------------------------------
  alpha Z        PSCENC =        36.80884744
  Ewald energy   TEWEN  =     11894.46325772
  -Hartree energ DENC   =    -15031.32729072
  -exchange      EXHF   =         0.00000000
  -V(xc)+E(xc)   XCENC  =       -80.87880491
  PAW double counting   =      1157.07352678     -835.84467635
  entropy T*S    EENTRO =        -0.04164763
  eigenvalues    EBANDS =      -619.28924159
  atomic energy  EATOM  =      3354.04126044
  ---------------------------------------------------
  free energy    TOTEN  =      -124.99476882 eV

  energy without entropy =     -124.95312118  energy(sigma->0) =     -124.97394500


--------------------------------------------------------------------------------------------------------




----------------------------------------- Iteration    1(  14)  ---------------------------------------


    POTLOK:  cpu time   15.37: real time   15.40
    SETDIJ:  cpu time    0.01: real time    0.01
     EDDAV:  cpu time   81.90: real time   82.12
       DOS:  cpu time    0.01: real time    0.01
    CHARGE:  cpu time    4.67: real time    4.67
    MIXING:  cpu time    0.01: real time    0.01
    --------------------------------------------
      LOOP:  cpu time  101.96: real time  102.22

 eigenvalue-minimisations  :  9256
 total energy-change (2. order) : 0.2303182E-02  (-0.2021719E-04)
 number of electron     107.9999994 magnetization 
 augmentation part       -9.2826936 magnetization 

 Broyden mixing:
  rms(total) = 0.14078E-02    rms(broyden)= 0.14077E-02
  rms(prec ) = 0.23780E-02
  weight for this iteration     100.00

 eigenvalues of (default mixing * dielectric matrix)
  average eigenvalue GAMMA=   1.3534
  2.7976  2.3270  1.7385  1.2230  1.2230  0.8414  0.8414  0.6729  0.5156

 Free energy of the ion-electron system (eV)
  ---------------------------------------------------
  alpha Z        PSCENC =        36.80884744
  Ewald energy   TEWEN  =     11894.46325772
  -Hartree energ DENC   =    -15032.15848196
  -exchange      EXHF   =         0.00000000
  -V(xc)+E(xc)   XCENC  =       -80.87389438
  PAW double counting   =      1156.76256753     -835.52618593
  entropy T*S    EENTRO =        -0.04166599
  eigenvalues    EBANDS =      -618.46817051
  atomic energy  EATOM  =      3354.04126044
  ---------------------------------------------------
  free energy    TOTEN  =      -124.99246563 eV

  energy without entropy =     -124.95079964  energy(sigma->0) =     -124.97163264


--------------------------------------------------------------------------------------------------------




----------------------------------------- Iteration    1(  15)  ---------------------------------------


    POTLOK:  cpu time   15.34: real time   15.45
    SETDIJ:  cpu time    0.01: real time    0.01
     EDDAV:  cpu time   79.48: real time   79.60
       DOS:  cpu time    0.01: real time    0.01
    CHARGE:  cpu time    4.61: real time    4.64
    MIXING:  cpu time    0.01: real time    0.01
    --------------------------------------------
      LOOP:  cpu time   99.48: real time   99.73

 eigenvalue-minimisations  :  8976
 total energy-change (2. order) : 0.8029251E-03  (-0.7359051E-05)
 number of electron     107.9999994 magnetization 
 augmentation part       -9.2826388 magnetization 

 Broyden mixing:
  rms(total) = 0.91783E-03    rms(broyden)= 0.91775E-03
  rms(prec ) = 0.16554E-02
  weight for this iteration     100.00

 eigenvalues of (default mixing * dielectric matrix)
  average eigenvalue GAMMA=   1.4138
  3.0927  2.5807  1.6878  1.6878  1.0592  1.0592  0.9968  0.7826  0.6741  0.5175

 Free energy of the ion-electron system (eV)
  ---------------------------------------------------
  alpha Z        PSCENC =        36.80884744
  Ewald energy   TEWEN  =     11894.46325772
  -Hartree energ DENC   =    -15032.80948594
  -exchange      EXHF   =         0.00000000
  -V(xc)+E(xc)   XCENC  =       -80.86995693
  PAW double counting   =      1156.65086476     -835.41184960
  entropy T*S    EENTRO =        -0.04167467
  eigenvalues    EBANDS =      -617.82292594
  atomic energy  EATOM  =      3354.04126044
  ---------------------------------------------------
  free energy    TOTEN  =      -124.99166271 eV

  energy without entropy =     -124.94998804  energy(sigma->0) =     -124.97082537


--------------------------------------------------------------------------------------------------------




----------------------------------------- Iteration    1(  16)  ---------------------------------------


    POTLOK:  cpu time   15.38: real time   15.39
    SETDIJ:  cpu time    0.01: real time    0.01
     EDDAV:  cpu time   74.42: real time   74.67
       DOS:  cpu time    0.01: real time    0.01
    CHARGE:  cpu time    4.55: real time    4.55
    MIXING:  cpu time    0.01: real time    0.01
    --------------------------------------------
      LOOP:  cpu time   94.39: real time   94.65

 eigenvalue-minimisations  :  8160
 total energy-change (2. order) : 0.1546830E-03  (-0.5716282E-05)
 number of electron     107.9999994 magnetization 
 augmentation part       -9.2825645 magnetization 

 Broyden mixing:
  rms(total) = 0.54252E-03    rms(broyden)= 0.54249E-03
  rms(prec ) = 0.98618E-03
  weight for this iteration     100.00

 eigenvalues of (default mixing * dielectric matrix)
  average eigenvalue GAMMA=   1.5029
  3.6597  2.6904  2.1648  1.4803  1.4803  1.1031  1.1031  0.8301  0.8301  0.6725
  0.5174

 Free energy of the ion-electron system (eV)
  ---------------------------------------------------
  alpha Z        PSCENC =        36.80884744
  Ewald energy   TEWEN  =     11894.46325772
  -Hartree energ DENC   =    -15033.57094153
  -exchange      EXHF   =         0.00000000
  -V(xc)+E(xc)   XCENC  =       -80.86658300
  PAW double counting   =      1156.57259910     -835.33186451
  entropy T*S    EENTRO =        -0.04167537
  eigenvalues    EBANDS =      -617.06640832
  atomic energy  EATOM  =      3354.04126044
  ---------------------------------------------------
  free energy    TOTEN  =      -124.99150803 eV

  energy without entropy =     -124.94983265  energy(sigma->0) =     -124.97067034


--------------------------------------------------------------------------------------------------------




----------------------------------------- Iteration    1(  17)  ---------------------------------------


    POTLOK:  cpu time   15.44: real time   15.44
    SETDIJ:  cpu time    0.01: real time    0.01
     EDDAV:  cpu time   74.18: real time   74.32
       DOS:  cpu time    0.01: real time    0.01
    CHARGE:  cpu time    4.62: real time    4.62
    MIXING:  cpu time    0.01: real time    0.01
    --------------------------------------------
      LOOP:  cpu time   94.28: real time   94.42

 eigenvalue-minimisations  :  8208
 total energy-change (2. order) :-0.5856762E-03  (-0.1300195E-04)
 number of electron     107.9999994 magnetization 
 augmentation part       -9.2824073 magnetization 

 Broyden mixing:
  rms(total) = 0.31142E-03    rms(broyden)= 0.31140E-03
  rms(prec ) = 0.54325E-03
  weight for this iteration     100.00

 eigenvalues of (default mixing * dielectric matrix)
  average eigenvalue GAMMA=   1.6536
  5.1240  2.8101  2.3241  1.6845  1.6845  1.1342  1.1342  1.0713  0.8621  0.8233
  0.6731  0.5175

 Free energy of the ion-electron system (eV)
  ---------------------------------------------------
  alpha Z        PSCENC =        36.80884744
  Ewald energy   TEWEN  =     11894.46325772
  -Hartree energ DENC   =    -15034.16931578
  -exchange      EXHF   =         0.00000000
  -V(xc)+E(xc)   XCENC  =       -80.86306944
  PAW double counting   =      1156.61611653     -835.37660147
  entropy T*S    EENTRO =        -0.04167841
  eigenvalues    EBANDS =      -616.47091074
  atomic energy  EATOM  =      3354.04126044
  ---------------------------------------------------
  free energy    TOTEN  =      -124.99209370 eV

  energy without entropy =     -124.95041529  energy(sigma->0) =     -124.97125450


--------------------------------------------------------------------------------------------------------




----------------------------------------- Iteration    1(  18)  ---------------------------------------


    POTLOK:  cpu time   15.41: real time   15.42
    SETDIJ:  cpu time    0.01: real time    0.01
     EDDAV:  cpu time   69.85: real time   69.88
       DOS:  cpu time    0.01: real time    0.01
    CHARGE:  cpu time    4.68: real time    4.68
    MIXING:  cpu time    0.01: real time    0.01
    --------------------------------------------
      LOOP:  cpu time   89.97: real time   90.02

 eigenvalue-minimisations  :  7600
 total energy-change (2. order) :-0.2105070E-03  (-0.1217695E-04)
 number of electron     107.9999994 magnetization 
 augmentation part       -9.2823586 magnetization 

 Broyden mixing:
  rms(total) = 0.18172E-03    rms(broyden)= 0.18170E-03
  rms(prec ) = 0.31227E-03
  weight for this iteration     100.00

 eigenvalues of (default mixing * dielectric matrix)
  average eigenvalue GAMMA=   1.7413
  6.0184  2.8865  2.6027  2.1392  1.3950  1.3950  1.1373  1.1373  1.0444  0.8623
  0.8284  0.6731  0.5175

 Free energy of the ion-electron system (eV)
  ---------------------------------------------------
  alpha Z        PSCENC =        36.80884744
  Ewald energy   TEWEN  =     11894.46325772
  -Hartree energ DENC   =    -15034.51843664
  -exchange      EXHF   =         0.00000000
  -V(xc)+E(xc)   XCENC  =       -80.86158888
  PAW double counting   =      1156.62868861     -835.38931265
  entropy T*S    EENTRO =        -0.04167907
  eigenvalues    EBANDS =      -616.12334118
  atomic energy  EATOM  =      3354.04126044
  ---------------------------------------------------
  free energy    TOTEN  =      -124.99230421 eV

  energy without entropy =     -124.95062513  energy(sigma->0) =     -124.97146467


--------------------------------------------------------------------------------------------------------




----------------------------------------- Iteration    1(  19)  ---------------------------------------


    POTLOK:  cpu time   15.38: real time   15.40
    SETDIJ:  cpu time    0.01: real time    0.01
     EDDAV:  cpu time   66.03: real time   66.08
       DOS:  cpu time    0.01: real time    0.01
    CHARGE:  cpu time    4.68: real time    4.68
    MIXING:  cpu time    0.01: real time    0.01
    --------------------------------------------
      LOOP:  cpu time   86.12: real time   86.21

 eigenvalue-minimisations  :  6960
 total energy-change (2. order) :-0.2935614E-05  (-0.3006077E-05)
 number of electron     107.9999994 magnetization 
 augmentation part       -9.2823729 magnetization 

 Broyden mixing:
  rms(total) = 0.10775E-03    rms(broyden)= 0.10774E-03
  rms(prec ) = 0.19005E-03
  weight for this iteration     100.00

 eigenvalues of (default mixing * dielectric matrix)
  average eigenvalue GAMMA=   1.7776
  6.5557  2.9676  2.6033  1.8797  1.8797  1.4401  1.4401  1.1243  1.1243  0.9847
  0.8735  0.8231  0.6731  0.5175

 Free energy of the ion-electron system (eV)
  ---------------------------------------------------
  alpha Z        PSCENC =        36.80884744
  Ewald energy   TEWEN  =     11894.46325772
  -Hartree energ DENC   =    -15034.69026321
  -exchange      EXHF   =         0.00000000
  -V(xc)+E(xc)   XCENC  =       -80.86094154
  PAW double counting   =      1156.62341968     -835.38373764
  entropy T*S    EENTRO =        -0.04167851
  eigenvalues    EBANDS =      -615.95247153
  atomic energy  EATOM  =      3354.04126044
  ---------------------------------------------------
  free energy    TOTEN  =      -124.99230714 eV

  energy without entropy =     -124.95062864  energy(sigma->0) =     -124.97146789


--------------------------------------------------------------------------------------------------------




----------------------------------------- Iteration    1(  20)  ---------------------------------------


    POTLOK:  cpu time   15.39: real time   15.41
    SETDIJ:  cpu time    0.01: real time    0.01
     EDDAV:  cpu time   60.10: real time   60.17
       DOS:  cpu time    0.01: real time    0.01
    CHARGE:  cpu time    4.65: real time    4.68
    MIXING:  cpu time    0.01: real time    0.01
    --------------------------------------------
      LOOP:  cpu time   80.19: real time   80.30

 eigenvalue-minimisations  :  6136
 total energy-change (2. order) :-0.6001594E-04  (-0.8505186E-06)
 number of electron     107.9999994 magnetization 
 augmentation part       -9.2823695 magnetization 

 Broyden mixing:
  rms(total) = 0.69786E-04    rms(broyden)= 0.69783E-04
  rms(prec ) = 0.12704E-03
  weight for this iteration     100.00

 eigenvalues of (default mixing * dielectric matrix)
  average eigenvalue GAMMA=   1.8328
  6.9061  3.4060  2.7739  2.3900  1.8520  1.4872  1.2646  1.2646  1.1292  1.1292
  0.5175  0.6731  0.8245  0.8669  1.0068

 Free energy of the ion-electron system (eV)
  ---------------------------------------------------
  alpha Z        PSCENC =        36.80884744
  Ewald energy   TEWEN  =     11894.46325772
  -Hartree energ DENC   =    -15034.73117869
  -exchange      EXHF   =         0.00000000
  -V(xc)+E(xc)   XCENC  =       -80.86091599
  PAW double counting   =      1156.62504894     -835.38544426
  entropy T*S    EENTRO =        -0.04167860
  eigenvalues    EBANDS =      -615.91156416
  atomic energy  EATOM  =      3354.04126044
  ---------------------------------------------------
  free energy    TOTEN  =      -124.99236716 eV

  energy without entropy =     -124.95068856  energy(sigma->0) =     -124.97152786


--------------------------------------------------------------------------------------------------------




----------------------------------------- Iteration    1(  21)  ---------------------------------------


    POTLOK:  cpu time   15.31: real time   15.42
    SETDIJ:  cpu time    0.01: real time    0.01
     EDDAV:  cpu time   66.80: real time   66.92
       DOS:  cpu time    0.01: real time    0.01
    CHARGE:  cpu time    4.60: real time    4.60
    MIXING:  cpu time    0.01: real time    0.02
    --------------------------------------------
      LOOP:  cpu time   86.75: real time   86.98

 eigenvalue-minimisations  :  7008
 total energy-change (2. order) : 0.3059117E-04  (-0.3609251E-05)
 number of electron     107.9999994 magnetization 
 augmentation part       -9.2823679 magnetization 

 Broyden mixing:
  rms(total) = 0.49949E-04    rms(broyden)= 0.49947E-04
  rms(prec ) = 0.72151E-04
  weight for this iteration     100.00

 eigenvalues of (default mixing * dielectric matrix)
  average eigenvalue GAMMA=   1.8577
  7.0178  3.9443  2.8093  2.4547  1.7763  1.7763  1.4197  1.4197  1.1134  1.1134
  0.5175  0.6731  1.0580  0.8221  0.9232  0.8851

 Free energy of the ion-electron system (eV)
  ---------------------------------------------------
  alpha Z        PSCENC =        36.80884744
  Ewald energy   TEWEN  =     11894.46325772
  -Hartree energ DENC   =    -15034.78693381
  -exchange      EXHF   =         0.00000000
  -V(xc)+E(xc)   XCENC  =       -80.86088250
  PAW double counting   =      1156.62081605     -835.38111051
  entropy T*S    EENTRO =        -0.04168004
  eigenvalues    EBANDS =      -615.85591137
  atomic energy  EATOM  =      3354.04126044
  ---------------------------------------------------
  free energy    TOTEN  =      -124.99233657 eV

  energy without entropy =     -124.95065653  energy(sigma->0) =     -124.97149655


--------------------------------------------------------------------------------------------------------




----------------------------------------- Iteration    1(  22)  ---------------------------------------


    POTLOK:  cpu time   15.38: real time   15.44
    SETDIJ:  cpu time    0.01: real time    0.01
     EDDAV:  cpu time   63.95: real time   63.97
       DOS:  cpu time    0.01: real time    0.01
    CHARGE:  cpu time    4.74: real time    4.74
    MIXING:  cpu time    0.01: real time    0.02
    --------------------------------------------
      LOOP:  cpu time   84.11: real time   84.19

 eigenvalue-minimisations  :  6544
 total energy-change (2. order) : 0.5717908E-05  (-0.1976264E-05)
 number of electron     107.9999994 magnetization 
 augmentation part       -9.2823677 magnetization 

 Broyden mixing:
  rms(total) = 0.29290E-04    rms(broyden)= 0.29287E-04
  rms(prec ) = 0.41862E-04
  weight for this iteration     100.00

 eigenvalues of (default mixing * dielectric matrix)
  average eigenvalue GAMMA=   1.9940
  7.8369  5.4569  2.9335  2.6092  2.0406  1.6743  1.3820  1.3820  1.4436  0.5175
  0.6731  1.1062  1.1062  0.8246  0.8648  1.0233  1.0233

 Free energy of the ion-electron system (eV)
  ---------------------------------------------------
  alpha Z        PSCENC =        36.80884744
  Ewald energy   TEWEN  =     11894.46325772
  -Hartree energ DENC   =    -15034.78994828
  -exchange      EXHF   =         0.00000000
  -V(xc)+E(xc)   XCENC  =       -80.86098393
  PAW double counting   =      1156.62069508     -835.38100534
  entropy T*S    EENTRO =        -0.04167902
  eigenvalues    EBANDS =      -615.85277497
  atomic energy  EATOM  =      3354.04126044
  ---------------------------------------------------
  free energy    TOTEN  =      -124.99233085 eV

  energy without entropy =     -124.95065183  energy(sigma->0) =     -124.97149134


--------------------------------------------------------------------------------------------------------




----------------------------------------- Iteration    1(  23)  ---------------------------------------


    POTLOK:  cpu time   15.34: real time   15.34
    SETDIJ:  cpu time    0.01: real time    0.01
     EDDAV:  cpu time   62.73: real time   62.80
       DOS:  cpu time    0.01: real time    0.01
    CHARGE:  cpu time    4.63: real time    4.64
    MIXING:  cpu time    0.02: real time    0.02
    --------------------------------------------
      LOOP:  cpu time   82.73: real time   82.82

 eigenvalue-minimisations  :  6520
 total energy-change (2. order) : 0.6438662E-04  (-0.1311117E-05)
 number of electron     107.9999994 magnetization 
 augmentation part       -9.2823679 magnetization 

 Broyden mixing:
  rms(total) = 0.14961E-04    rms(broyden)= 0.14958E-04
  rms(prec ) = 0.18727E-04
  weight for this iteration     100.00

 eigenvalues of (default mixing * dielectric matrix)
  average eigenvalue GAMMA=   2.0358
  8.0311  6.2779  2.9589  2.6445  2.0770  2.0770  1.5095  1.5095  0.5175  1.2783
  1.2783  0.6731  1.0914  1.0914  0.8286  0.8535  0.9732  0.9732

 Free energy of the ion-electron system (eV)
  ---------------------------------------------------
  alpha Z        PSCENC =        36.80884744
  Ewald energy   TEWEN  =     11894.46325772
  -Hartree energ DENC   =    -15034.80055954
  -exchange      EXHF   =         0.00000000
  -V(xc)+E(xc)   XCENC  =       -80.86100085
  PAW double counting   =      1156.62009886     -835.38040321
  entropy T*S    EENTRO =        -0.04167998
  eigenvalues    EBANDS =      -615.84208735
  atomic energy  EATOM  =      3354.04126044
  ---------------------------------------------------
  free energy    TOTEN  =      -124.99226646 eV

  energy without entropy =     -124.95058649  energy(sigma->0) =     -124.97142648


[...]
     31      -4.1786      2.00000
     32      -4.1250      2.00000
     33      -3.8859      2.00000
     34      -3.6792      2.00000
     35      -3.4152      2.00000
     36      -3.3553      2.00000
     37      -3.2153      2.00000
     38      -3.1732      2.00000
     39      -2.8480      2.00000
     40      -2.7303      2.00000
     41      -2.6921      2.00000
     42      -2.6181      2.00000
     43      -2.3112      2.00000
     44      -2.1564      2.00000
     45      -2.0459      2.00000
     46      -1.9469      2.00000
     47      -1.9159      2.00000
     48      -1.5392      2.00000
     49      -1.3649      2.00000
     50      -1.2455      2.00000
     51      -1.1584      2.00000
     52      -0.8173      2.00000
     53      -0.6268      2.00000
     54      -0.3855      1.99082
     55       0.0577      0.00025
     56       0.6028      0.00000
     57       1.2903      0.00000
     58       1.4182      0.00000
     59       1.4697      0.00000
     60       1.6688      0.00000
     61       2.0510      0.00000
     62       2.2829      0.00000
     63       2.4248      0.00000
     64       2.5639      0.00000
     65       2.8772      0.00000
     66       3.0452      0.00000
     67       3.1025      0.00000
     68       3.1816      0.00000

 k-point    52 :       0.3077    0.5000    0.5000
  band No.  band energies     occupation 
      1     -12.7047      2.00000
      2     -12.6617      2.00000
      3     -12.3148      2.00000
      4     -12.1023      2.00000
      5     -11.8057      2.00000
      6     -11.5331      2.00000
      7     -11.1732      2.00000
      8     -11.0648      2.00000
      9     -10.9611      2.00000
     10     -10.5757      2.00000
     11     -10.5467      2.00000
     12     -10.0229      2.00000
     13      -9.0773      2.00000
     14      -8.7197      2.00000
     15      -8.1009      2.00000
     16      -7.9329      2.00000
     17      -7.2807      2.00000
     18      -7.2159      2.00000
     19      -7.1225      2.00000
     20      -6.5577      2.00000
     21      -6.3340      2.00000
     22      -6.1106      2.00000
     23      -6.0724      2.00000
     24      -5.5105      2.00000
     25      -5.3562      2.00000
     26      -5.0537      2.00000
     27      -4.8495      2.00000
     28      -4.7280      2.00000
     29      -4.6369      2.00000
     30      -4.5883      2.00000
     31      -4.4525      2.00000
     32      -4.2320      2.00000
     33      -4.1729      2.00000
     34      -3.6682      2.00000
     35      -3.4109      2.00000
     36      -3.2762      2.00000
     37      -3.2310      2.00000
     38      -3.1545      2.00000
     39      -3.0550      2.00000
     40      -3.0029      2.00000
     41      -2.7209      2.00000
     42      -2.6262      2.00000
     43      -2.4536      2.00000
     44      -2.4042      2.00000
     45      -2.3076      2.00000
     46      -2.0881      2.00000
     47      -2.0174      2.00000
     48      -1.8860      2.00000
     49      -1.6483      2.00000
     50      -1.4504      2.00000
     51      -1.4093      2.00000
     52      -0.8821      2.00000
     53      -0.7299      2.00000
     54      -0.5369      2.00000
     55      -0.1953      0.93255
     56       0.2535      0.00000
     57       1.1334      0.00000
     58       1.1882      0.00000
     59       1.2309      0.00000
     60       1.3037      0.00000
     61       1.8525      0.00000
     62       2.0267      0.00000
     63       2.1203      0.00000
     64       2.3096      0.00000
     65       2.3886      0.00000
     66       2.7567      0.00000
     67       2.8602      0.00000
     68       2.9706      0.00000

 k-point    53 :       0.3846    0.5000    0.5000
  band No.  band energies     occupation 
      1     -12.1987      2.00000
      2     -12.1743      2.00000
      3     -11.8182      2.00000
      4     -11.7560      2.00000
      5     -11.4104      2.00000
      6     -11.1419      2.00000
      7     -10.9284      2.00000
      8     -10.8590      2.00000
      9     -10.7691      2.00000
     10     -10.6145      2.00000
     11     -10.2847      2.00000
     12      -9.9651      2.00000
     13      -9.4120      2.00000
     14      -9.0612      2.00000
     15      -8.4067      2.00000
     16      -8.1240      2.00000
     17      -7.7682      2.00000
     18      -7.6981      2.00000
     19      -7.5402      2.00000
     20      -6.9965      2.00000
     21      -6.8715      2.00000
     22      -6.8130      2.00000
     23      -6.5860      2.00000
     24      -5.8519      2.00000
     25      -5.4522      2.00000
     26      -4.8353      2.00000
     27      -4.8207      2.00000
     28      -4.7015      2.00000
     29      -4.6124      2.00000
     30      -4.4267      2.00000
     31      -4.2787      2.00000
     32      -4.1879      2.00000
     33      -3.8634      2.00000
     34      -3.6848      2.00000
     35      -3.6069      2.00000
     36      -3.5267      2.00000
     37      -3.3429      2.00000
     38      -3.2800      2.00000
     39      -3.2415      2.00000
     40      -3.0270      2.00000
     41      -2.8760      2.00000
     42      -2.7597      2.00000
     43      -2.6497      2.00000
     44      -2.5064      2.00000
     45      -2.4065      2.00000
     46      -2.2259      2.00000
     47      -2.1447      2.00000
     48      -1.9986      2.00000
     49      -1.9138      2.00000
     50      -1.7300      2.00000
     51      -1.5673      2.00000
     52      -1.3125      2.00000
     53      -0.7442      2.00000
     54      -0.4756      1.99990
     55      -0.3360      1.94316
     56       0.1965      0.00000
     57       0.9769      0.00000
     58       1.1134      0.00000
     59       1.1724      0.00000
     60       1.3740      0.00000
     61       1.5714      0.00000
     62       1.6984      0.00000
     63       1.9312      0.00000
     64       2.0001      0.00000
     65       2.1671      0.00000
     66       2.4934      0.00000
     67       2.6520      0.00000
     68       2.7541      0.00000

 k-point    54 :       0.4615    0.5000    0.5000
  band No.  band energies     occupation 
      1     -11.6932      2.00000
      2     -11.6449      2.00000
      3     -11.4303      2.00000
      4     -11.3191      2.00000
      5     -11.1130      2.00000
      6     -11.0030      2.00000
      7     -10.9651      2.00000
      8     -10.8741      2.00000
      9     -10.7756      2.00000
     10     -10.7587      2.00000
     11     -10.2709      2.00000
     12      -9.9952      2.00000
     13      -9.7486      2.00000
     14      -8.8169      2.00000
     15      -8.5972      2.00000
     16      -8.3596      2.00000
     17      -8.2710      2.00000
     18      -7.7182      2.00000
     19      -7.6864      2.00000
     20      -7.4460      2.00000
     21      -7.3718      2.00000
     22      -7.3172      2.00000
     23      -6.9667      2.00000
     24      -6.0833      2.00000
     25      -5.0995      2.00000
     26      -4.7441      2.00000
     27      -4.6285      2.00000
     28      -4.4968      2.00000
     29      -4.4249      2.00000
     30      -4.2497      2.00000
     31      -4.1441      2.00000
     32      -4.0805      2.00000
     33      -3.9205      2.00000
     34      -3.8628      2.00000
     35      -3.7295      2.00000
     36      -3.6435      2.00000
     37      -3.5277      2.00000
     38      -3.4077      2.00000
     39      -3.2553      2.00000
     40      -3.1810      2.00000
     41      -3.1301      2.00000
     42      -2.8420      2.00000
     43      -2.7784      2.00000
     44      -2.5308      2.00000
     45      -2.3966      2.00000
     46      -2.3016      2.00000
     47      -2.2164      2.00000
     48      -2.1675      2.00000
     49      -1.9279      2.00000
     50      -1.7933      2.00000
     51      -1.6903      2.00000
     52      -1.5570      2.00000
     53      -0.7823      2.00000
     54      -0.4283      1.99867
     55      -0.3131      1.88626
     56       0.1601      0.00000
     57       0.8676      0.00000
     58       1.0931      0.00000
     59       1.2152      0.00000
     60       1.4259      0.00000
     61       1.4642      0.00000
     62       1.5475      0.00000
     63       1.7259      0.00000
     64       1.9014      0.00000
     65       2.1932      0.00000
     66       2.3119      0.00000
     67       2.5699      0.00000
     68       2.6619      0.00000


--------------------------------------------------------------------------------------------------------


 soft charge-density along one line, spin component           1
         0         1         2         3         4         5         6         7         8         9
 total charge-density along one line
 
 pseudopotential strength for first ion, spin component:           1
 29.819   0.008  -0.000  -0.022  -0.000  -0.000  -0.001   0.000
  0.008   0.009  -0.000  -0.000   0.000   0.000   0.000  -0.000
 -0.000  -0.000   6.555  -0.001  -0.000  -0.003   0.000   0.000
 -0.022  -0.000  -0.001   6.551  -0.000   0.000  -0.003   0.000
 -0.000   0.000  -0.000  -0.000   6.556   0.000   0.000  -0.003
 -0.000   0.000  -0.003   0.000   0.000   0.015  -0.000  -0.000
 -0.001   0.000   0.000  -0.003   0.000  -0.000   0.015  -0.000
  0.000  -0.000   0.000   0.000  -0.003  -0.000  -0.000   0.015
 total augmentation occupancy for first ion, spin component:           1
  1.814  -0.351   0.005   0.249  -0.000   0.003   0.118  -0.000
 -0.351   1.282   0.020   0.850  -0.000   0.004  -0.432  -0.000
  0.005   0.020   1.146   0.009  -0.000  -0.501   0.014   0.000
  0.249   0.850   0.009   1.280  -0.000   0.014  -0.414  -0.000
 -0.000  -0.000  -0.000  -0.000   1.147   0.000  -0.000  -0.525
  0.003   0.004  -0.501   0.014   0.000   0.289  -0.015  -0.000
  0.118  -0.432   0.014  -0.414  -0.000  -0.015   0.225   0.000
 -0.000  -0.000   0.000  -0.000  -0.525  -0.000   0.000   0.323


------------------------ aborting loop because EDIFF is reached ----------------------------------------


    CHARGE:  cpu time    4.86: real time    4.86
    FORLOC:  cpu time    0.06: real time    0.06
    FORNL :  cpu time   24.70: real time   24.75
    STRESS:  cpu time   76.49: real time   76.62
    FORCOR:  cpu time   15.45: real time   15.51
    FORHAR:  cpu time    0.15: real time    0.15
    MIXING:  cpu time    0.02: real time    0.02
    OFIELD:  cpu time    0.00: real time    0.00

  FORCE on cell =-STRESS in cart. coord.  units (eV):
  Direction    XX          YY          ZZ          XY          YZ          ZX
  --------------------------------------------------------------------------------------
  Alpha Z    36.80885    36.80885    36.80885
  Ewald   14336.75904 14002.63370-16444.93701    -3.29841    -2.03017     1.53317
  Hartree 14871.31052 14592.64959-14429.16101    -1.10896    -1.52603     0.51754
  E(xc)    -356.09216  -356.15799  -354.73674     0.02044    -0.05986     0.09591
  Local  -30751.65756-30148.99969 29286.39295     4.60824    -0.78807    -0.78230
  n-local  1141.39625  1159.62762  1138.60602    -0.45046     2.87899    -1.43296
  augment  -199.95241  -201.96235  -204.16073     0.02143    -0.34975     0.25730
  Kinetic   917.16248   920.18049   982.31214     0.34242    -1.49508    -1.48228
  Fock        0.00000     0.00000     0.00000     0.00000     0.00000     0.00000
  -------------------------------------------------------------------------------------
  Total      -4.26499     4.78021    11.12448     0.13469    -3.36996    -1.29363
  in kB      -6.81745     7.64101    17.78213     0.21530    -5.38677    -2.06783
  external pressure =        6.20 kB  Pullay stress =        0.00 kB


 VOLUME and BASIS-vectors are now :
 -----------------------------------------------------------------------------
  energy-cutoff  :      300.00
  volume of cell :     1002.32
      direct lattice vectors                 reciprocal lattice vectors
     3.540400000  0.000000000  0.000000000     0.282453960  0.048570342  0.000000000
    -1.770200000 10.294348000  0.000000000     0.000000000  0.097140683  0.000000000
     0.000000000  0.000000000 27.501429000     0.000000000  0.000000000  0.036361747

  length of vectors
     3.540400000 10.445439617 27.501429000     0.286599577  0.097140683  0.036361747


 FORCES acting on ions
    electron-ion (+dipol)            ewald-force                    non-local-force                 convergence-correction
 -----------------------------------------------------------------------------------------------
   -.267E-02 0.596E+01 0.269E+02   -.936E-03 -.582E+01 -.226E+02   0.108E-01 -.167E+00 -.427E+01   -.253E-07 0.191E-05 -.583E-06
   0.294E-02 -.897E+01 -.571E+03   0.407E-01 0.958E+01 0.575E+03   -.867E-04 -.704E+00 -.359E+01   -.153E-06 -.277E-07 0.161E-04
   -.396E-02 0.630E+02 0.506E+02   0.248E-02 -.646E+02 -.463E+02   0.178E-02 0.157E+01 -.419E+01   0.191E-07 0.177E-05 -.704E-05
   -.305E+00 0.581E+02 -.544E+03   0.172E+00 -.595E+02 0.548E+03   0.262E+00 0.110E+01 -.281E+01   -.177E-06 0.114E-04 0.109E-04
   0.336E-03 -.570E+02 0.526E+03   0.910E-04 0.586E+02 -.531E+03   -.213E-03 -.154E+01 0.428E+01   0.237E-07 0.147E-05 -.994E-05
   -.283E+01 -.307E+02 -.497E+02   0.347E+01 0.332E+02 0.451E+02   -.168E+00 -.392E+01 0.930E+00   0.323E-06 -.105E-04 -.637E-05
   -.375E-03 0.538E+02 0.526E+03   0.107E-04 -.557E+02 -.530E+03   0.281E-04 0.193E+01 0.416E+01   0.177E-07 -.466E-06 -.105E-04
   0.386E+01 0.731E+02 -.533E+02   -.349E+01 -.758E+02 0.496E+02   -.425E+00 0.248E+01 0.222E+01   -.254E-07 0.914E-05 -.316E-05
   0.520E-04 0.170E+01 0.572E+03   -.865E-04 -.190E+01 -.577E+03   0.146E-02 0.203E+00 0.476E+01   -.961E-07 -.726E-06 -.108E-04
   0.190E+00 -.207E+02 -.275E+02   -.123E-01 0.199E+02 0.237E+02   -.281E+00 0.992E+00 0.352E+01   0.721E-07 -.883E-06 0.524E-07
   0.326E-02 -.629E+02 0.580E+02   -.103E-02 0.648E+02 -.538E+02   -.133E-02 -.195E+01 -.410E+01   -.309E-07 -.210E-05 -.479E-05
   0.131E+00 -.489E+02 -.516E+03   -.349E+00 0.509E+02 0.520E+03   0.436E-01 -.180E+01 -.347E+01   -.134E-06 -.119E-04 0.153E-04
   -.239E-02 0.310E+02 0.209E+03   -.192E-03 -.331E+02 -.210E+03   0.527E-02 0.213E+01 0.309E+00   -.759E-08 0.256E-06 -.882E-05
   -.572E+00 0.544E+02 -.283E+03   0.580E+00 -.522E+02 0.284E+03   -.575E+00 -.506E+01 0.211E+01   0.195E-06 0.761E-05 0.372E-05
   -.417E-03 -.122E+02 0.138E+03   0.101E-03 0.125E+02 -.140E+03   -.153E-02 -.284E+00 0.253E+01   -.142E-07 0.279E-06 -.302E-05
   -.125E+01 -.162E+02 -.312E+03   0.112E+01 0.163E+02 0.312E+03   -.258E-02 -.337E+00 -.628E-02   -.236E-07 -.142E-04 0.108E-04
   -.649E-03 -.520E+01 0.345E+03   0.735E-04 0.566E+01 -.343E+03   -.474E-04 -.468E+00 -.252E+01   0.181E-07 0.134E-05 -.590E-05
   0.469E+00 -.236E+02 -.141E+03   -.411E+00 0.236E+02 0.142E+03   0.295E-01 0.253E+00 0.389E+00   0.282E-07 -.966E-05 0.233E-05
   0.647E-03 0.955E+01 0.335E+03   0.240E-06 -.977E+01 -.333E+03   -.240E-02 0.221E+00 -.244E+01   0.194E-08 -.249E-05 -.669E-05
   -.130E+01 -.173E+02 -.129E+03   0.150E+01 0.141E+02 0.132E+03   0.288E+00 0.682E+01 -.656E+01   0.186E-06 0.101E-04 0.616E-06
   0.139E-02 0.101E+02 0.127E+03   0.393E-03 -.106E+02 -.129E+03   -.233E-02 0.437E+00 0.255E+01   0.187E-08 0.145E-05 -.473E-05
   -.394E+00 -.644E+01 -.335E+03   0.479E+00 0.597E+01 0.336E+03   -.517E-01 0.509E+00 -.911E+00   0.716E-07 0.899E-05 0.856E-05
   -.836E-03 -.310E+02 0.254E+03   -.137E-03 0.331E+02 -.254E+03   0.289E-02 -.212E+01 -.364E+00   -.964E-08 0.569E-07 -.691E-05
   0.394E+01 -.236E+02 -.203E+03   -.309E+01 0.208E+02 0.203E+03   -.106E+01 0.370E+01 0.326E+01   -.130E-06 0.194E-05 0.446E-05
 -----------------------------------------------------------------------------------------------
   0.194E+01 -.399E+01 0.420E+01   -.138E-13 0.711E-14 0.171E-12   -.193E+01 0.399E+01 -.420E+01   0.131E-06 0.480E-05 -.164E-04
 
 
 POSITION                                       TOTAL-FORCE (eV/Angst)
 -----------------------------------------------------------------------------------
      0.00000      2.34757      6.41229         0.006927     -0.028233      0.028310
      1.59318      3.37701     14.16300         0.043374     -0.091068      0.026980
     -0.00000      9.43147      5.75866         0.000072     -0.012306      0.100274
      3.36338      0.16655     13.50937         0.128045     -0.357134      1.206050
     -0.00000      6.40009      2.31424        -0.000010     -0.005957      0.004226
     -0.00000      6.40009     10.06495         0.469042     -1.445133     -3.692900
      1.77020     10.27849      2.37372        -0.000561      0.012439      0.010592
      1.77020     10.27849     10.12443        -0.056836     -0.219223     -1.499261
      1.77020      3.18974      1.66157         0.001199     -0.002427      0.026250
      1.77020      3.18974      9.41228        -0.104087      0.233981     -0.324862
      1.77020      5.55354      5.69975         0.000678      0.004716      0.098997
     -0.17702      6.58298     13.45047        -0.174525      0.223233      0.471328
      1.77020      9.05319      4.34076         0.002469     -0.006049      0.017217
     -0.17702     10.08262     12.09147        -0.566398     -2.822326      3.411001
      0.00000      4.22380      5.10944        -0.002075      0.042132      0.053722
      1.59318      5.25324     12.86016        -0.129540     -0.218997     -0.103470
     -0.00000      4.15582      2.74166        -0.000847     -0.000945     -0.036053
     -0.00000      4.15582     10.49237         0.086772      0.197766      1.349794
      1.77020      1.31366      2.96438        -0.001974      0.001587     -0.060592
      1.77020      1.31366     10.71510         0.484732      3.633041     -3.534986
      1.77020      1.38163      5.33187        -0.000770     -0.053301      0.066762
     -0.17702      2.41106     13.08259         0.032627      0.038103     -0.536680
      1.77020      6.77850      3.73234         0.001688      0.003209      0.001690
     -0.17702      7.80793     11.48306        -0.220002      0.872891      2.915611
 -----------------------------------------------------------------------------------
    total drift:                                0.005383      0.000018      0.002480


--------------------------------------------------------------------------------------------------------



  FREE ENERGIE OF THE ION-ELECTRON SYSTEM (eV)
  ---------------------------------------------------
  free  energy   TOTEN  =      -124.99223920 eV

  energy  without entropy=     -124.95055932  energy(sigma->0) =     -124.97139926
 


--------------------------------------------------------------------------------------------------------


    POTLOK:  cpu time   15.44: real time   15.47


--------------------------------------------------------------------------------------------------------


     LOOP+:  cpu time 2721.53: real time 2725.66
    4ORBIT:  cpu time    0.00: real time    0.00

 total amount of memory used by VASP on root node   146493. kBytes
========================================================================

   base      :      30000. kBytes
   nonlr-proj:       3452. kBytes
   fftplans  :       9347. kBytes
   grid      :      14649. kBytes
   one-center:         36. kBytes
   wavefun   :      89009. kBytes
 
  
  
 General timing and accounting informations for this job:
 ========================================================
  
                  Total CPU time used (sec):     2737.267
                            User time (sec):     2687.152
                          System time (sec):       50.114
                         Elapsed time (sec):     2742.559
  
                   Maximum memory used (kb):      335136.
                   Average memory used (kb):           0.
  
                          Minor page faults:      8315773
                          Major page faults:            6
                 Voluntary context switches:         1458
