 vasp.5.3.5 31Mar14 (build Oct 29 2014 16:16:03) complex                        
  
 executed on          Linux-UFHPC date 2016.02.09  17:25:17
 running on    8 total cores
 distrk:  each k-point on    8 cores,    1 groups
 distr:  one band on NCORES_PER_BAND=   2 cores,    4 groups


--------------------------------------------------------------------------------------------------------


 INCAR:
 POTCAR:    PAW_PBE P 17Jan2003                   
 POTCAR:   PAW_PBE Si 05Jan2001                   

 ----------------------------------------------------------------------------- 
|                                                                             |
|  ADVICE TO THIS USER RUNNING 'VASP/VAMP'   (HEAR YOUR MASTER'S VOICE ...):  |
|                                                                             |
|      You have switched on vdW-DFT.                                          |
|      This routine was written and supplied by Jiri Klimes.                  |
|      We recommed that you carefully read and cite the following             |
|      publication                                                            |
|      J. Klimes, D.R. Bowler, A. Michelides                                  |
|        J. Phys.: Cond Matt. 22 022201 (2010)                                |
|      J. Klimes, D.R. Bowler, A. Michelides                                  |
|        Phys. Rev. B. 83, 195131 (2011)                                      |
|      and references therein.                                                |
|                                                                             |
 ----------------------------------------------------------------------------- 

 POTCAR:    PAW_PBE P 17Jan2003                   
   VRHFIN =P : s2p3                                                             
   LEXCH  = PE                                                                  
   EATOM  =   176.0430 eV,   12.9388 Ry                                         
                                                                                
   TITEL  = PAW_PBE P 17Jan2003                                                 
   LULTRA =        F    use ultrasoft PP ?                                      
   IUNSCR =        1    unscreen: 0-lin 1-nonlin 2-no                           
   RPACOR =    1.500    partial core radius                                     
   POMASS =   30.974; ZVAL   =    5.000    mass and valenz                      
   RCORE  =    1.900    outmost cutoff radius                                   
   RWIGS  =    2.330; RWIGS  =    1.233    wigner-seitz radius (au A)           
   ENMAX  =  270.000; ENMIN  =  191.280 eV                                      
   ICORE  =        2    local potential                                         
   LCOR   =        T    correct aug charges                                     
   LPAW   =        T    paw PP                                                  
   EAUG   =  342.924                                                            
   DEXC   =    -.002                                                            
   RMAX   =    2.887    core radius for proj-oper                               
   RAUG   =    1.300    factor for augmentation sphere                          
   RDEP   =    1.931    radius for radial grids                                 
   QCUT   =   -4.330; QGAM   =    8.659    optimization parameters              
                                                                                
   Description                                                                  
     l     E      TYP  RCUT    TYP  RCUT                                        
     0   .000     23  1.900                                                     
     0   .000     23  1.900                                                     
     1   .000     23  1.900                                                     
     1   .000     23  1.900                                                     
     2   .000     23  1.900                                                     
  local pseudopotential read in
  partial core-charges read in
  atomic valenz-charges read in
  non local Contribution for L=           0  read in
    real space projection operators read in
  non local Contribution for L=           0  read in
    real space projection operators read in
  non local Contribution for L=           1  read in
    real space projection operators read in
  non local Contribution for L=           1  read in
    real space projection operators read in
    PAW grid and wavefunctions read in
 
   number of l-projection  operators is LMAX  =           4
   number of lm-projection operators is LMMAX =           8
 
 POTCAR:   PAW_PBE Si 05Jan2001                   
   VRHFIN =Si: s2p2                                                             
   LEXCH  = PE                                                                  
   EATOM  =   103.0669 eV,    7.5752 Ry                                         
                                                                                
   TITEL  = PAW_PBE Si 05Jan2001                                                
   LULTRA =        F    use ultrasoft PP ?                                      
   IUNSCR =        1    unscreen: 0-lin 1-nonlin 2-no                           
   RPACOR =    1.500    partial core radius                                     
   POMASS =   28.085; ZVAL   =    4.000    mass and valenz                      
   RCORE  =    1.900    outmost cutoff radius                                   
   RWIGS  =    2.480; RWIGS  =    1.312    wigner-seitz radius (au A)           
   ENMAX  =  245.345; ENMIN  =  184.009 eV                                      
   ICORE  =        2    local potential                                         
   LCOR   =        T    correct aug charges                                     
   LPAW   =        T    paw PP                                                  
   EAUG   =  322.069                                                            
   DEXC   =    -.007                                                            
   RMAX   =    2.944    core radius for proj-oper                               
   RAUG   =    1.300    factor for augmentation sphere                          
   RDEP   =    1.993    radius for radial grids                                 
   QCUT   =   -4.246; QGAM   =    8.493    optimization parameters              
                                                                                
   Description                                                                  
     l     E      TYP  RCUT    TYP  RCUT                                        
     0   .000     23  1.900                                                     
     0   .000     23  1.900                                                     
     1   .000     23  1.900                                                     
     1   .000     23  1.900                                                     
     2   .000      7  1.900                                                     
  local pseudopotential read in
  partial core-charges read in
  atomic valenz-charges read in
  non local Contribution for L=           0  read in
    real space projection operators read in
  non local Contribution for L=           0  read in
    real space projection operators read in
  non local Contribution for L=           1  read in
    real space projection operators read in
  non local Contribution for L=           1  read in
    real space projection operators read in
    PAW grid and wavefunctions read in
 
   number of l-projection  operators is LMAX  =           4
   number of lm-projection operators is LMMAX =           8
 
 Optimization of the real space projectors (new method)

 maximal supplied QI-value         = 19.84
 optimisation between [QCUT,QGAM] = [  8.73, 17.66] = [ 21.34, 87.33] Ry 
 Optimized for a Real-space Cutoff    1.50 Angstroem

   l    n(q)    QCUT    max X(q) W(low)/X(q) W(high)/X(q)  e(spline) 
   0      8     8.731     6.651    0.16E-04    0.15E-04    0.77E-08
   0      8     8.731    90.285    0.16E-03    0.90E-04    0.16E-06
   1      7     8.731     4.328    0.47E-04    0.36E-04    0.45E-07
   1      7     8.731    54.583    0.13E-03    0.39E-03    0.20E-06
 Optimization of the real space projectors (new method)

 maximal supplied QI-value         = 19.84
 optimisation between [QCUT,QGAM] = [  8.73, 17.66] = [ 21.34, 87.33] Ry 
 Optimized for a Real-space Cutoff    1.46 Angstroem

   l    n(q)    QCUT    max X(q) W(low)/X(q) W(high)/X(q)  e(spline) 
   0      8     8.731     8.708    0.16E-04    0.11E-04    0.68E-08
   0      8     8.731   106.241    0.24E-03    0.77E-04    0.13E-06
   1      7     8.731     5.901    0.34E-04    0.38E-04    0.36E-07
   1      7     8.731    73.241    0.12E-03    0.39E-03    0.15E-06

 ----------------------------------------------------------------------------- 
|                                                                             |
|  ADVICE TO THIS USER RUNNING 'VASP/VAMP'   (HEAR YOUR MASTER'S VOICE ...):  |
|                                                                             |
|      You enforced a specific xc-type in the INCAR file,                     |
|      a different type was found on the POTCAR file                          |
|          I HOPE YOU KNOW, WHAT YOU ARE  DOING                               |
|                                                                             |
 ----------------------------------------------------------------------------- 

  PAW_PBE P 17Jan2003                   :
 energy of atom  1       EATOM= -176.0430
 kinetic energy error for atom=    0.0040 (will be added to EATOM!!)
 PAW_PBE Si 05Jan2001                   :
 energy of atom  2       EATOM= -103.0669
 kinetic energy error for atom=    0.0021 (will be added to EATOM!!)
 
 
 POSCAR: Si12                                    
  positions in direct lattice
  No initial velocities read in
 exchange correlation table for  LEXCH =       42
   RHO(1)=    0.500       N(1)  =     2000
   RHO(2)=  100.500       N(2)  =     4000
 


--------------------------------------------------------------------------------------------------------


 ion  position               nearest neighbor table
   1  0.114  0.228  0.233-  15 2.28  21 2.29  21 2.29
   2  0.214  0.228  0.515-  16 2.28  22 2.29  22 2.29
   3  0.458  0.916  0.209-  21 2.28  13 2.30  13 2.30
   4  0.558  0.916  0.491-  22 2.28  14 2.30  14 2.30
   5  0.311  0.622  0.084-  17 2.28  23 2.30  23 2.30
   6  0.311  0.622  0.366-  24 2.04  18 2.28  24 2.58
   7  0.999  0.998  0.086-  19 2.29  19 2.29  13 2.32
   8  0.999  0.998  0.368-  20 2.29  20 2.29  14 2.34
   9  0.655  0.310  0.060-  19 2.28  17 2.29  17 2.29
  10  0.655  0.310  0.342-  20 2.28  18 2.29  18 2.29
  11  0.770  0.539  0.207-  15 2.29  15 2.29  23 2.32
  12  0.870  0.539  0.489-  16 2.29  16 2.29  24 2.32
  13  0.940  0.879  0.158-   3 2.30   3 2.30   7 2.32  23 2.35
  14  0.040  0.879  0.440-   4 2.30   4 2.30   8 2.34  24 2.35
  15  0.205  0.410  0.186-   1 2.28  11 2.29  11 2.29  17 2.37
  16  0.305  0.410  0.468-   2 2.28  12 2.29  12 2.29  18 2.40
  17  0.202  0.404  0.100-   5 2.28   9 2.29   9 2.29  15 2.37
  18  0.202  0.404  0.382-   6 2.28  10 2.29  10 2.29  16 2.40  24 3.14
  19  0.564  0.128  0.108-   9 2.28   7 2.29   7 2.29  21 2.37
  20  0.564  0.128  0.390-  10 2.28   8 2.29   8 2.29  22 2.39
  21  0.567  0.134  0.194-   3 2.28   1 2.29   1 2.29  19 2.37
  22  0.667  0.134  0.476-   4 2.28   2 2.29   2 2.29  20 2.39
  23  0.829  0.658  0.136-   5 2.30   5 2.30  11 2.32  13 2.35
  24  0.929  0.658  0.418-   6 2.04  12 2.32  14 2.35   6 2.58  18 3.14
 
  LATTYP: Found a base centered orthorhombic cell.
 ALAT       =     3.5404000000
 B/A-ratio  =     5.8153587165
 C/A-ratio  =     7.7678875268
  
  Lattice vectors:
  
 A1 = (   1.7702000000,  10.2943480000,   0.0000000000)
 A2 = (   1.7702000000, -10.2943480000,   0.0000000000)
 A3 = (   0.0000000000,   0.0000000000, -27.5014290000)


Analysis of symmetry for initial positions (statically):
=====================================================================
 Subroutine PRICEL returns:
 Original cell was already a primitive cell.
 

 Routine SETGRP: Setting up the symmetry group for a 
 base centered orthorhombic supercell.


 Subroutine GETGRP returns: Found  1 space group operations
 (whereof  1 operations were pure point group operations)
 out of a pool of  8 trial point group operations.


The static configuration has the point symmetry C_1 .


Analysis of symmetry for dynamics (positions and initial velocities):
=====================================================================
 Subroutine PRICEL returns:
 Original cell was already a primitive cell.
 

 Routine SETGRP: Setting up the symmetry group for a 
 base centered orthorhombic supercell.


 Subroutine GETGRP returns: Found  1 space group operations
 (whereof  1 operations were pure point group operations)
 out of a pool of  8 trial point group operations.


The dynamic configuration has the point symmetry C_1 .
 
 
 KPOINTS: pymatgen generated KPOINTS with grid den

Automatic generation of k-mesh.
Space group operators:
 irot       det(A)        alpha          n_x          n_y          n_z        tau_x        tau_y        tau_z
    1     1.000000     0.000000     1.000000     0.000000     0.000000     0.000000     0.000000     0.000000
 
 Subroutine IBZKPT returns following result:
 ===========================================
 
 Found     54 irreducible k-points:
 
 Following reciprocal coordinates:
            Coordinates               Weight
  0.000000  0.000000  0.000000      1.000000
  0.076923 -0.000000  0.000000      2.000000
  0.153846 -0.000000  0.000000      2.000000
  0.230769 -0.000000  0.000000      2.000000
  0.307692 -0.000000  0.000000      2.000000
  0.384615 -0.000000  0.000000      2.000000
  0.461538 -0.000000  0.000000      2.000000
  0.000000  0.250000  0.000000      2.000000
  0.076923  0.250000  0.000000      2.000000
  0.153846  0.250000  0.000000      2.000000
  0.230769  0.250000  0.000000      2.000000
  0.307692  0.250000  0.000000      2.000000
  0.384615  0.250000  0.000000      2.000000
  0.461538  0.250000  0.000000      2.000000
 -0.461538  0.250000  0.000000      2.000000
 -0.384615  0.250000  0.000000      2.000000
 -0.307692  0.250000  0.000000      2.000000
 -0.230769  0.250000  0.000000      2.000000
 -0.153846  0.250000  0.000000      2.000000
 -0.076923  0.250000  0.000000      2.000000
  0.000000  0.500000  0.000000      1.000000
  0.076923  0.500000  0.000000      2.000000
  0.153846  0.500000  0.000000      2.000000
  0.230769  0.500000  0.000000      2.000000
  0.307692  0.500000  0.000000      2.000000
  0.384615  0.500000  0.000000      2.000000
  0.461538  0.500000  0.000000      2.000000
  0.000000  0.000000  0.500000      1.000000
  0.076923 -0.000000  0.500000      2.000000
  0.153846 -0.000000  0.500000      2.000000
  0.230769 -0.000000  0.500000      2.000000
  0.307692 -0.000000  0.500000      2.000000
  0.384615 -0.000000  0.500000      2.000000
  0.461538 -0.000000  0.500000      2.000000
  0.000000  0.250000  0.500000      2.000000
  0.076923  0.250000  0.500000      2.000000
  0.153846  0.250000  0.500000      2.000000
  0.230769  0.250000  0.500000      2.000000
  0.307692  0.250000  0.500000      2.000000
  0.384615  0.250000  0.500000      2.000000
  0.461538  0.250000  0.500000      2.000000
 -0.461538  0.250000  0.500000      2.000000
 -0.384615  0.250000  0.500000      2.000000
 -0.307692  0.250000  0.500000      2.000000
 -0.230769  0.250000  0.500000      2.000000
 -0.153846  0.250000  0.500000      2.000000
 -0.076923  0.250000  0.500000      2.000000
  0.000000  0.500000  0.500000      1.000000
  0.076923  0.500000  0.500000      2.000000
  0.153846  0.500000  0.500000      2.000000
  0.230769  0.500000  0.500000      2.000000
  0.307692  0.500000  0.500000      2.000000
  0.384615  0.500000  0.500000      2.000000
  0.461538  0.500000  0.500000      2.000000
 
 Following cartesian coordinates:
            Coordinates               Weight
  0.000000  0.000000  0.000000      1.000000
  0.021727  0.003736  0.000000      2.000000
  0.043454  0.007472  0.000000      2.000000
  0.065182  0.011209  0.000000      2.000000
  0.086909  0.014945  0.000000      2.000000
  0.108636  0.018681  0.000000      2.000000
  0.130363  0.022417  0.000000      2.000000
  0.000000  0.024285  0.000000      2.000000
  0.021727  0.028021  0.000000      2.000000
  0.043454  0.031758  0.000000      2.000000
  0.065182  0.035494  0.000000      2.000000
  0.086909  0.039230  0.000000      2.000000
  0.108636  0.042966  0.000000      2.000000
  0.130363  0.046702  0.000000      2.000000
 -0.130363  0.001868  0.000000      2.000000
 -0.108636  0.005604  0.000000      2.000000
 -0.086909  0.009340  0.000000      2.000000
 -0.065182  0.013077  0.000000      2.000000
 -0.043454  0.016813  0.000000      2.000000
 -0.021727  0.020549  0.000000      2.000000
  0.000000  0.048570  0.000000      1.000000
  0.021727  0.052307  0.000000      2.000000
  0.043454  0.056043  0.000000      2.000000
  0.065182  0.059779  0.000000      2.000000
  0.086909  0.063515  0.000000      2.000000
  0.108636  0.067251  0.000000      2.000000
  0.130363  0.070987  0.000000      2.000000
  0.000000  0.000000  0.018181      1.000000
  0.021727  0.003736  0.018181      2.000000
  0.043454  0.007472  0.018181      2.000000
  0.065182  0.011209  0.018181      2.000000
  0.086909  0.014945  0.018181      2.000000
  0.108636  0.018681  0.018181      2.000000
  0.130363  0.022417  0.018181      2.000000
  0.000000  0.024285  0.018181      2.000000
  0.021727  0.028021  0.018181      2.000000
  0.043454  0.031758  0.018181      2.000000
  0.065182  0.035494  0.018181      2.000000
  0.086909  0.039230  0.018181      2.000000
  0.108636  0.042966  0.018181      2.000000
  0.130363  0.046702  0.018181      2.000000
 -0.130363  0.001868  0.018181      2.000000
 -0.108636  0.005604  0.018181      2.000000
 -0.086909  0.009340  0.018181      2.000000
 -0.065182  0.013077  0.018181      2.000000
 -0.043454  0.016813  0.018181      2.000000
 -0.021727  0.020549  0.018181      2.000000
  0.000000  0.048570  0.018181      1.000000
  0.021727  0.052307  0.018181      2.000000
  0.043454  0.056043  0.018181      2.000000
  0.065182  0.059779  0.018181      2.000000
  0.086909  0.063515  0.018181      2.000000
  0.108636  0.067251  0.018181      2.000000
  0.130363  0.070987  0.018181      2.000000
 


--------------------------------------------------------------------------------------------------------




 Dimension of arrays:
   k-points           NKPTS =     54   k-points in BZ     NKDIM =     54   number of bands    NBANDS=     68
   number of dos      NEDOS =    301   number of ions     NIONS =     24
   non local maximal  LDIM  =      4   non local SUM 2l+1 LMDIM =      8
   total plane-waves  NPLWV = 192000
   max r-space proj   IRMAX =   2772   max aug-charges    IRDMAX=   6603
   dimension x,y,z NGX =    20 NGY =   60 NGZ =  160
   dimension x,y,z NGXF=    40 NGYF=  120 NGZF=  320
   support grid    NGXF=    40 NGYF=  120 NGZF=  320
   ions per type =              12  12
 NGX,Y,Z   is equivalent  to a cutoff of   9.39,  9.55,  9.67 a.u.
 NGXF,Y,Z  is equivalent  to a cutoff of  18.78, 19.10, 19.34 a.u.


 I would recommend the setting:
   dimension x,y,z NGX =    20 NGY =   59 NGZ =  155
 SYSTEM =  unknown system                          
 POSCAR =  Si12                                    

 Startparameter for this run:
   NWRITE =      2    write-flag & timer
   PREC   = accura    normal or accurate (medium, high low for compatibility)
   ISTART =      0    job   : 0-new  1-cont  2-samecut
   ICHARG =      2    charge: 1-file 2-atom 10-const
   ISPIN  =      1    spin polarized calculation?
   LNONCOLLINEAR =      F non collinear calculations
   LSORBIT =      F    spin-orbit coupling
   INIWAV =      1    electr: 0-lowe 1-rand  2-diag
   LASPH  =      F    aspherical Exc in radial PAW
   METAGGA=      F    non-selfconsistent MetaGGA calc.

 Electronic Relaxation 1
   ENCUT  =  300.0 eV  22.05 Ry    4.70 a.u.   5.00 14.75 38.84*2*pi/ulx,y,z
   ENINI  =  300.0     initial cutoff
   ENAUG  =  342.9 eV  augmentation charge cutoff
   NELM   =     60;   NELMIN=  2; NELMDL= -5     # of ELM steps 
   EDIFF  = 0.1E-05   stopping-criterion for ELM
   LREAL  =      T    real-space projection
   NLSPLINE    = F    spline interpolate recip. space projectors
   LCOMPAT=      F    compatible to vasp.4.4
   GGA_COMPAT  = T    GGA compatible to vasp.4.4-vasp.4.6
   LMAXPAW     = -100 max onsite density
   LMAXMIX     =    2 max onsite mixed and CHGCAR
   VOSKOWN=      0    Vosko Wilk Nusair interpolation
   ROPT   =   -0.00025  -0.00025
 Ionic relaxation
   EDIFFG = 0.1E-04   stopping-criterion for IOM
   NSW    =      0    number of steps for IOM
   NBLOCK =      1;   KBLOCK =      1    inner block; outer block 
   IBRION =     -1    ionic relax: 0-MD 1-quasi-New 2-CG
   NFREE  =      1    steps in history (QN), initial steepest desc. (CG)
   ISIF   =      3    stress and relaxation
   IWAVPR =     10    prediction:  0-non 1-charg 2-wave 3-comb
   ISYM   =      2    0-nonsym 1-usesym 2-fastsym
   LCORR  =      T    Harris-Foulkes like correction to forces

   POTIM  = 0.5000    time-step for ionic-motion
   TEIN   =    0.0    initial temperature
   TEBEG  =    0.0;   TEEND  =   0.0 temperature during run
   SMASS  =  -3.00    Nose mass-parameter (am)
   estimated Nose-frequenzy (Omega)   =  0.10E-29 period in steps =****** mass=  -0.286E-27a.u.
   SCALEE = 1.0000    scale energy and forces
   NPACO  =    256;   APACO  = 16.0  distance and # of slots for P.C.
   PSTRESS=    0.0 pullay stress

  Mass of Ions in am
   POMASS =  30.97 28.09
  Ionic Valenz
   ZVAL   =   5.00  4.00
  Atomic Wigner-Seitz radii
   RWIGS  =  -1.00 -1.00
  virtual crystal weights 
   VCA    =   1.00  1.00
   NELECT =     108.0000    total number of electrons
   NUPDOWN=      -1.0000    fix difference up-down

 DOS related values:
   EMIN   =  10.00;   EMAX   =-10.00  energy-range for DOS
   EFERMI =   0.00
   ISMEAR =     0;   SIGMA  =   0.10  broadening in eV -4-tet -1-fermi 0-gaus

 Electronic relaxation 2 (details)
   IALGO  =     38    algorithm
   LDIAG  =      T    sub-space diagonalisation (order eigenvalues)
   LSUBROT=      F    optimize rotation matrix (better conditioning)
   TURBO    =      0    0=normal 1=particle mesh
   IRESTART =      0    0=no restart 2=restart with 2 vectors
   NREBOOT  =      0    no. of reboots
   NMIN     =      0    reboot dimension
   EREF     =   0.00    reference energy to select bands
   IMIX   =      4    mixing-type and parameters
     AMIX     =   0.40;   BMIX     =  1.00
     AMIX_MAG =   1.60;   BMIX_MAG =  1.00
     AMIN     =   0.10
     WC   =   100.;   INIMIX=   1;  MIXPRE=   1;  MAXMIX= -45

 Intra band minimization:
   WEIMIN = 0.0000     energy-eigenvalue tresh-hold
   EBREAK =  0.37E-08  absolut break condition
   DEPER  =   0.30     relativ break condition  

   TIME   =   0.40     timestep for ELM

  volume/ion in A,a.u.               =      41.76       281.83
  Fermi-wavevector in a.u.,A,eV,Ry     =   0.779018  1.472130  8.256946  0.606868
  Thomas-Fermi vector in A             =   1.882034
 
 Write flags
   LWAVE  =      F    write WAVECAR
   LCHARG =      F    write CHGCAR
   LVTOT  =      F    write LOCPOT, total local potential
   LVHAR  =      F    write LOCPOT, Hartree potential only
   LELF   =      F    write electronic localiz. function (ELF)
   LORBIT =      0    0 simple, 1 ext, 2 COOP (PROOUT)


 Dipole corrections
   LMONO  =      F    monopole corrections only (constant potential shift)
   LDIPOL =      F    correct potential (dipole corrections)
   IDIPOL =      0    1-x, 2-y, 3-z, 4-all directions 
   EPSILON=  1.0000000 bulk dielectric constant

 Exchange correlation treatment:
   GGA     =    BO    GGA type
   LEXCH   =    42    internal setting for exchange type
   VOSKOWN=      0    Vosko Wilk Nusair interpolation
   LHFCALC =     F    Hartree Fock is set to
   LHFONE  =     F    Hartree Fock one center treatment
   AEXX    =    0.0000 exact exchange contribution

 vdW DFT:
   LUSE_VDW   =     T    switch on vdW DFT
   Zab_VDW    =-.8491    correlation parameter
   PARAM1     =0.1833
   PARAM2     =0.2200
   PARAM3     =0.0000

 Linear response parameters
   LEPSILON=     F    determine dielectric tensor
   LRPA    =     F    only Hartree local field effects (RPA)
   LNABLA  =     F    use nabla operator in PAW spheres
   LVEL    =     F    velocity operator in full k-point grid
   LINTERFAST=   F  fast interpolation
   KINTER  =     0    interpolate to denser k-point grid
   CSHIFT  =0.1000    complex shift for real part using Kramers Kronig
   OMEGAMAX=  -1.0    maximum frequency
   DEG_THRESHOLD= 0.2000000E-02 threshold for treating states as degnerate
   RTIME   =    0.100 relaxation time in fs

 Orbital magnetization related:
   ORBITALMAG=     F  switch on orbital magnetization
   LCHIMAG   =     F  perturbation theory with respect to B field
   DQ        =  0.001000  dq finite difference perturbation B field



--------------------------------------------------------------------------------------------------------


 Static calculation
 charge density and potential will be updated during run
 non-spin polarized calculation
 Variant of blocked Davidson
 Davidson routine will perform the subspace rotation
 perform sub-space diagonalisation
    after iterative eigenvector-optimisation
 modified Broyden-mixing scheme, WC =      100.0
 initial mixing is a Kerker type mixing with AMIX =  0.4000 and BMIX =      1.0000
 Hartree-type preconditioning will be used
 using additional bands           14
 real space projection scheme for non local part
 use partial core corrections
 calculate Harris-corrections to forces 
   (improved forces if not selfconsistent)
 use gradient corrections 
 use of overlap-Matrix (Vanderbilt PP)
 Gauss-broadening in eV      SIGMA  =   0.10


--------------------------------------------------------------------------------------------------------


  energy-cutoff  :      300.00
  volume of cell :     1002.32
      direct lattice vectors                 reciprocal lattice vectors
     3.540400000  0.000000000  0.000000000     0.282453960  0.048570342  0.000000000
    -1.770200000 10.294348000  0.000000000     0.000000000  0.097140683  0.000000000
     0.000000000  0.000000000 27.501429000     0.000000000  0.000000000  0.036361747

  length of vectors
     3.540400000 10.445439617 27.501429000     0.286599577  0.097140683  0.036361747


 
 k-points in units of 2pi/SCALE and weight: pymatgen generated KPOINTS with grid den
   0.00000000  0.00000000  0.00000000       0.010
   0.02172723  0.00373618  0.00000000       0.019
   0.04345446  0.00747236  0.00000000       0.019
   0.06518168  0.01120854  0.00000000       0.019
   0.08690891  0.01494472  0.00000000       0.019
   0.10863614  0.01868090  0.00000000       0.019
   0.13036337  0.02241708  0.00000000       0.019
   0.00000000  0.02428517  0.00000000       0.019
   0.02172723  0.02802135  0.00000000       0.019
   0.04345446  0.03175753  0.00000000       0.019
   0.06518168  0.03549371  0.00000000       0.019
   0.08690891  0.03922989  0.00000000       0.019
   0.10863614  0.04296607  0.00000000       0.019
   0.13036337  0.04670225  0.00000000       0.019
  -0.13036337  0.00186809  0.00000000       0.019
  -0.10863614  0.00560427  0.00000000       0.019
  -0.08690891  0.00934045  0.00000000       0.019
  -0.06518168  0.01307663  0.00000000       0.019
  -0.04345446  0.01681281  0.00000000       0.019
  -0.02172723  0.02054899  0.00000000       0.019
   0.00000000  0.04857034  0.00000000       0.010
   0.02172723  0.05230652  0.00000000       0.019
   0.04345446  0.05604270  0.00000000       0.019
   0.06518168  0.05977888  0.00000000       0.019
   0.08690891  0.06351506  0.00000000       0.019
   0.10863614  0.06725124  0.00000000       0.019
   0.13036337  0.07098742  0.00000000       0.019
   0.00000000  0.00000000  0.01818087       0.010
   0.02172723  0.00373618  0.01818087       0.019
   0.04345446  0.00747236  0.01818087       0.019
   0.06518168  0.01120854  0.01818087       0.019
   0.08690891  0.01494472  0.01818087       0.019
   0.10863614  0.01868090  0.01818087       0.019
   0.13036337  0.02241708  0.01818087       0.019
   0.00000000  0.02428517  0.01818087       0.019
   0.02172723  0.02802135  0.01818087       0.019
   0.04345446  0.03175753  0.01818087       0.019
   0.06518168  0.03549371  0.01818087       0.019
   0.08690891  0.03922989  0.01818087       0.019
   0.10863614  0.04296607  0.01818087       0.019
   0.13036337  0.04670225  0.01818087       0.019
  -0.13036337  0.00186809  0.01818087       0.019
  -0.10863614  0.00560427  0.01818087       0.019
  -0.08690891  0.00934045  0.01818087       0.019
  -0.06518168  0.01307663  0.01818087       0.019
  -0.04345446  0.01681281  0.01818087       0.019
  -0.02172723  0.02054899  0.01818087       0.019
   0.00000000  0.04857034  0.01818087       0.010
   0.02172723  0.05230652  0.01818087       0.019
   0.04345446  0.05604270  0.01818087       0.019
   0.06518168  0.05977888  0.01818087       0.019
   0.08690891  0.06351506  0.01818087       0.019
   0.10863614  0.06725124  0.01818087       0.019
   0.13036337  0.07098742  0.01818087       0.019
 
 k-points in reciprocal lattice and weights: pymatgen generated KPOINTS with grid den
   0.00000000  0.00000000  0.00000000       0.010
   0.07692308 -0.00000000  0.00000000       0.019
   0.15384615 -0.00000000  0.00000000       0.019
   0.23076923 -0.00000000  0.00000000       0.019
   0.30769231 -0.00000000  0.00000000       0.019
   0.38461538 -0.00000000  0.00000000       0.019
   0.46153846 -0.00000000  0.00000000       0.019
   0.00000000  0.25000000  0.00000000       0.019
   0.07692308  0.25000000  0.00000000       0.019
   0.15384615  0.25000000  0.00000000       0.019
   0.23076923  0.25000000  0.00000000       0.019
   0.30769231  0.25000000  0.00000000       0.019
   0.38461538  0.25000000  0.00000000       0.019
   0.46153846  0.25000000  0.00000000       0.019
  -0.46153846  0.25000000  0.00000000       0.019
  -0.38461538  0.25000000  0.00000000       0.019
  -0.30769231  0.25000000  0.00000000       0.019
  -0.23076923  0.25000000  0.00000000       0.019
  -0.15384615  0.25000000  0.00000000       0.019
  -0.07692308  0.25000000  0.00000000       0.019
   0.00000000  0.50000000  0.00000000       0.010
   0.07692308  0.50000000  0.00000000       0.019
   0.15384615  0.50000000  0.00000000       0.019
   0.23076923  0.50000000  0.00000000       0.019
   0.30769231  0.50000000  0.00000000       0.019
   0.38461538  0.50000000  0.00000000       0.019
   0.46153846  0.50000000  0.00000000       0.019
   0.00000000  0.00000000  0.50000000       0.010
   0.07692308 -0.00000000  0.50000000       0.019
   0.15384615 -0.00000000  0.50000000       0.019
   0.23076923 -0.00000000  0.50000000       0.019
   0.30769231 -0.00000000  0.50000000       0.019
   0.38461538 -0.00000000  0.50000000       0.019
   0.46153846 -0.00000000  0.50000000       0.019
   0.00000000  0.25000000  0.50000000       0.019
   0.07692308  0.25000000  0.50000000       0.019
   0.15384615  0.25000000  0.50000000       0.019
   0.23076923  0.25000000  0.50000000       0.019
   0.30769231  0.25000000  0.50000000       0.019
   0.38461538  0.25000000  0.50000000       0.019
   0.46153846  0.25000000  0.50000000       0.019
  -0.46153846  0.25000000  0.50000000       0.019
  -0.38461538  0.25000000  0.50000000       0.019
  -0.30769231  0.25000000  0.50000000       0.019
  -0.23076923  0.25000000  0.50000000       0.019
  -0.15384615  0.25000000  0.50000000       0.019
  -0.07692308  0.25000000  0.50000000       0.019
   0.00000000  0.50000000  0.50000000       0.010
   0.07692308  0.50000000  0.50000000       0.019
   0.15384615  0.50000000  0.50000000       0.019
   0.23076923  0.50000000  0.50000000       0.019
   0.30769231  0.50000000  0.50000000       0.019
   0.38461538  0.50000000  0.50000000       0.019
   0.46153846  0.50000000  0.50000000       0.019
 
 position of ions in fractional coordinates (direct lattice) 
   0.11402300  0.22804500  0.23316207
   0.21402300  0.22804500  0.51499159
   0.45808900  0.91617900  0.20939482
   0.55808900  0.91617900  0.49122434
   0.31085400  0.62170900  0.08414979
   0.31085400  0.62170900  0.36597930
   0.99923000  0.99846000  0.08631254
   0.99923000  0.99846000  0.36814206
   0.65492700  0.30985400  0.06041748
   0.65492700  0.30985400  0.34224700
   0.76973800  0.53947500  0.20725292
   0.86973800  0.53947500  0.48908244
   0.93971600  0.87943300  0.15783749
   0.03971600  0.87943300  0.43966701
   0.20515200  0.41030300  0.18578822
   0.30515200  0.41030300  0.46761774
   0.20184900  0.40369900  0.09969156
   0.20184900  0.40369900  0.38152107
   0.56380500  0.12761000  0.10779021
   0.56380500  0.12761000  0.38961973
   0.56710600  0.13421200  0.19387616
   0.66710600  0.13421200  0.47570568
   0.82923400  0.65846800  0.13571444
   0.92923400  0.65846800  0.41754396
 
 position of ions in cartesian coordinates  (Angst):
   0.00000177  2.34757459  6.41229012
   0.35404177  2.34757459 14.16300462
  -0.00000177  9.43146546  5.75865686
   0.35403823  9.43146546 13.50937136
  -0.00000177  6.40008880  2.31423934
  -0.00000177  6.40008880 10.06495384
   1.77020000 10.27849470  2.37371832
   1.77020000 10.27849470 10.12443282
   1.77020000  3.18974491  1.66156717
   1.77020000  3.18974491  9.41228167
   1.77020177  5.55354339  5.69975143
   2.12424177  5.55354339 13.45046593
   1.77019823  9.05318934  4.34075665
  -1.41616177  9.05318934 12.09147115
   0.00000177  4.22380187  5.10944151
   0.35404177  4.22380187 12.86015601
  -0.00000177  4.15581799  2.74166024
  -0.00000177  4.15581799 10.49237474
   1.77020000  1.31366175  2.96438477
   1.77020000  1.31366175 10.71509927
   1.77020000  1.38162503  5.33187152
   2.12424000  1.38162503 13.08258602
   1.77020000  6.77849874  3.73234107
   2.12424000  6.77849874 11.48305557
 


--------------------------------------------------------------------------------------------------------


 k-point  1 :   0.0000 0.0000 0.0000  plane waves:   11717
 k-point  2 :   0.0769-0.0000 0.0000  plane waves:   11762
 k-point  3 :   0.1538-0.0000 0.0000  plane waves:   11805
 k-point  4 :   0.2308-0.0000 0.0000  plane waves:   11824
 k-point  5 :   0.3077-0.0000 0.0000  plane waves:   11875
 k-point  6 :   0.3846-0.0000 0.0000  plane waves:   11864
 k-point  7 :   0.4615-0.0000 0.0000  plane waves:   11883
 k-point  8 :   0.0000 0.2500 0.0000  plane waves:   11683
 k-point  9 :   0.0769 0.2500 0.0000  plane waves:   11756
 k-point 10 :   0.1538 0.2500 0.0000  plane waves:   11807
 k-point 11 :   0.2308 0.2500 0.0000  plane waves:   11853
 k-point 12 :   0.3077 0.2500 0.0000  plane waves:   11866
 k-point 13 :   0.3846 0.2500 0.0000  plane waves:   11889
 k-point 14 :   0.4615 0.2500 0.0000  plane waves:   11885
 k-point 15 :  -0.4615 0.2500 0.0000  plane waves:   11886
 k-point 16 :  -0.3846 0.2500 0.0000  plane waves:   11867
 k-point 17 :  -0.3077 0.2500 0.0000  plane waves:   11849
 k-point 18 :  -0.2308 0.2500 0.0000  plane waves:   11827
 k-point 19 :  -0.1538 0.2500 0.0000  plane waves:   11801
 k-point 20 :  -0.0769 0.2500 0.0000  plane waves:   11757
 k-point 21 :   0.0000 0.5000 0.0000  plane waves:   11710
 k-point 22 :   0.0769 0.5000 0.0000  plane waves:   11762
 k-point 23 :   0.1538 0.5000 0.0000  plane waves:   11782
 k-point 24 :   0.2308 0.5000 0.0000  plane waves:   11841
 k-point 25 :   0.3077 0.5000 0.0000  plane waves:   11876
 k-point 26 :   0.3846 0.5000 0.0000  plane waves:   11889
 k-point 27 :   0.4615 0.5000 0.0000  plane waves:   11881
 k-point 28 :   0.0000 0.0000 0.5000  plane waves:   11698
 k-point 29 :   0.0769-0.0000 0.5000  plane waves:   11752
 k-point 30 :   0.1538-0.0000 0.5000  plane waves:   11800
 k-point 31 :   0.2308-0.0000 0.5000  plane waves:   11834
 k-point 32 :   0.3077-0.0000 0.5000  plane waves:   11850
 k-point 33 :   0.3846-0.0000 0.5000  plane waves:   11888
 k-point 34 :   0.4615-0.0000 0.5000  plane waves:   11896
 k-point 35 :   0.0000 0.2500 0.5000  plane waves:   11714
 k-point 36 :   0.0769 0.2500 0.5000  plane waves:   11754
 k-point 37 :   0.1538 0.2500 0.5000  plane waves:   11802
 k-point 38 :   0.2308 0.2500 0.5000  plane waves:   11840
 k-point 39 :   0.3077 0.2500 0.5000  plane waves:   11858
 k-point 40 :   0.3846 0.2500 0.5000  plane waves:   11896
 k-point 41 :   0.4615 0.2500 0.5000  plane waves:   11886
 k-point 42 :  -0.4615 0.2500 0.5000  plane waves:   11852
 k-point 43 :  -0.3846 0.2500 0.5000  plane waves:   11838
 k-point 44 :  -0.3077 0.2500 0.5000  plane waves:   11842
 k-point 45 :  -0.2308 0.2500 0.5000  plane waves:   11840
 k-point 46 :  -0.1538 0.2500 0.5000  plane waves:   11804
 k-point 47 :  -0.0769 0.2500 0.5000  plane waves:   11748
 k-point 48 :   0.0000 0.5000 0.5000  plane waves:   11724
 k-point 49 :   0.0769 0.5000 0.5000  plane waves:   11748
 k-point 50 :   0.1538 0.5000 0.5000  plane waves:   11814
 k-point 51 :   0.2308 0.5000 0.5000  plane waves:   11832
 k-point 52 :   0.3077 0.5000 0.5000  plane waves:   11868
 k-point 53 :   0.3846 0.5000 0.5000  plane waves:   11892
 k-point 54 :   0.4615 0.5000 0.5000  plane waves:   11878

 maximum and minimum number of plane-waves per node :      5964     5832

 maximum number of plane-waves:     11896
 maximum index in each direction: 
   IXMAX=    5   IYMAX=   14   IZMAX=   38
   IXMIN=   -5   IYMIN=  -15   IZMIN=  -39

 WARNING: aliasing errors must be expected set NGX to  22 to avoid them
 NGY is ok and might be reduce to  60
 NGZ is ok and might be reduce to 156
 aliasing errors are usually negligible using standard VASP settings
 and one can safely disregard these warnings

 real space projection operators:
  total allocation   :       3793.25 KBytes
  max/ min on nodes  :       1899.38       1893.88


 parallel 3D FFT for wavefunctions:
    minimum data exchange during FFTs selected (reduces bandwidth)
 parallel 3D FFT for charge:
    minimum data exchange during FFTs selected (reduces bandwidth)


 total amount of memory used by VASP on root node   146493. kBytes
========================================================================

   base      :      30000. kBytes
   nonlr-proj:       3452. kBytes
   fftplans  :       9347. kBytes
   grid      :      14649. kBytes
   one-center:         36. kBytes
   wavefun   :      89009. kBytes
 
     INWAV:  cpu time    0.00: real time    0.00
 Broyden mixing: mesh for mixing (old mesh)
   NGX =  9   NGY = 29   NGZ = 77
  (NGX  = 40   NGY  =120   NGZ  =320)
  gives a total of  20097 points

 initial charge density was supplied:
 charge density of overlapping atoms calculated
 number of electron     108.0000000 magnetization 
 keeping initial charge density in first step


--------------------------------------------------------------------------------------------------------


 Maximum index for non-local projection operator         1333
 Maximum index for augmentation-charges          822 (set IRDMAX)


--------------------------------------------------------------------------------------------------------


 First call to EWALD:  gamma=   0.177
 Maximum number of real-space cells 7x 3x 1
 Maximum number of reciprocal cells 1x 3x 7

 FEWALD executed in parallel
    FEWALD:  cpu time    0.00: real time    0.00


----------------------------------------- Iteration    1(   1)  ---------------------------------------


vdW kernel read from vdw_kernel.bindat
  0.0000  0.2424  0.5071  0.7962  1.1119  1.4567  1.8333  2.2446  2.6937  3.1842
  3.7199  4.3049  4.9438  5.6415  6.4036  7.2358  8.1446  9.1372 10.2212 11.4050
 12.6979 14.1099 15.6519 17.3360 19.1751 21.1837 23.3773 25.7729 28.3892 31.2465
 34.3669 37.7748 41.4965 45.5611 50.0000
 
    POTLOK:  cpu time   19.22: real time   19.39
    SETDIJ:  cpu time    0.01: real time    0.01
     EDDAV:  cpu time  128.05: real time  128.14
       DOS:  cpu time    0.01: real time    0.01
    --------------------------------------------
      LOOP:  cpu time  147.30: real time  147.57

 eigenvalue-minimisations  :  7360
 total energy-change (2. order) : 0.4839917E+03  (-0.2863504E+04)
 number of electron     108.0000000 magnetization 
 augmentation part      108.0000000 magnetization 

 Free energy of the ion-electron system (eV)
  ---------------------------------------------------
  alpha Z        PSCENC =        36.80884744
  Ewald energy   TEWEN  =     11889.27748384
  -Hartree energ DENC   =    -14946.26390845
  -exchange      EXHF   =         0.00000000
  -V(xc)+E(xc)   XCENC  =       -88.21865401
  PAW double counting   =      1056.43050070     -732.41190547
  entropy T*S    EENTRO =        -0.04056315
  eigenvalues    EBANDS =       -85.63140334
  atomic energy  EATOM  =      3354.04126044
  ---------------------------------------------------
  free energy    TOTEN  =       483.99165801 eV

  energy without entropy =      484.03222116  energy(sigma->0) =      484.01193958


--------------------------------------------------------------------------------------------------------




----------------------------------------- Iteration    1(   2)  ---------------------------------------


     EDDAV:  cpu time  164.45: real time  164.55
       DOS:  cpu time    0.01: real time    0.01
    --------------------------------------------
      LOOP:  cpu time  164.46: real time  164.59

 eigenvalue-minimisations  :  9816
 total energy-change (2. order) :-0.5594712E+03  (-0.5449955E+03)
 number of electron     108.0000000 magnetization 
 augmentation part      108.0000000 magnetization 

 Free energy of the ion-electron system (eV)
  ---------------------------------------------------
  alpha Z        PSCENC =        36.80884744
  Ewald energy   TEWEN  =     11889.27748384
  -Hartree energ DENC   =    -14946.26390845
  -exchange      EXHF   =         0.00000000
  -V(xc)+E(xc)   XCENC  =       -88.21865401
  PAW double counting   =      1056.43050070     -732.41190547
  entropy T*S    EENTRO =        -0.00000000
  eigenvalues    EBANDS =      -645.14315644
  atomic energy  EATOM  =      3354.04126044
  ---------------------------------------------------
  free energy    TOTEN  =       -75.47953194 eV

  energy without entropy =      -75.47953194  energy(sigma->0) =      -75.47953194


--------------------------------------------------------------------------------------------------------




----------------------------------------- Iteration    1(   3)  ---------------------------------------


     EDDAV:  cpu time  148.34: real time  148.45
       DOS:  cpu time    0.01: real time    0.01
    --------------------------------------------
      LOOP:  cpu time  148.34: real time  148.46

 eigenvalue-minimisations  :  8768
 total energy-change (2. order) :-0.5500769E+02  (-0.5445163E+02)
 number of electron     108.0000000 magnetization 
 augmentation part      108.0000000 magnetization 

 Free energy of the ion-electron system (eV)
  ---------------------------------------------------
  alpha Z        PSCENC =        36.80884744
  Ewald energy   TEWEN  =     11889.27748384
  -Hartree energ DENC   =    -14946.26390845
  -exchange      EXHF   =         0.00000000
  -V(xc)+E(xc)   XCENC  =       -88.21865401
  PAW double counting   =      1056.43050070     -732.41190547
  entropy T*S    EENTRO =        -0.00000000
  eigenvalues    EBANDS =      -700.15084192
  atomic energy  EATOM  =      3354.04126044
  ---------------------------------------------------
  free energy    TOTEN  =      -130.48721743 eV

  energy without entropy =     -130.48721743  energy(sigma->0) =     -130.48721743


--------------------------------------------------------------------------------------------------------




----------------------------------------- Iteration    1(   4)  ---------------------------------------


     EDDAV:  cpu time  183.90: real time  184.22
       DOS:  cpu time    0.01: real time    0.01
    --------------------------------------------
      LOOP:  cpu time  183.91: real time  184.23

 eigenvalue-minimisations  : 11032
 total energy-change (2. order) :-0.2378590E+01  (-0.2369392E+01)
 number of electron     108.0000000 magnetization 
 augmentation part      108.0000000 magnetization 

 Free energy of the ion-electron system (eV)
  ---------------------------------------------------
  alpha Z        PSCENC =        36.80884744
  Ewald energy   TEWEN  =     11889.27748384
  -Hartree energ DENC   =    -14946.26390845
  -exchange      EXHF   =         0.00000000
  -V(xc)+E(xc)   XCENC  =       -88.21865401
  PAW double counting   =      1056.43050070     -732.41190547
  entropy T*S    EENTRO =        -0.00000000
  eigenvalues    EBANDS =      -702.52943204
  atomic energy  EATOM  =      3354.04126044
  ---------------------------------------------------
  free energy    TOTEN  =      -132.86580754 eV

  energy without entropy =     -132.86580754  energy(sigma->0) =     -132.86580754


--------------------------------------------------------------------------------------------------------




----------------------------------------- Iteration    1(   5)  ---------------------------------------


     EDDAV:  cpu time  164.61: real time  164.90
       DOS:  cpu time    0.01: real time    0.01
    CHARGE:  cpu time    8.62: real time    8.63
    MIXING:  cpu time    0.03: real time    0.04
    --------------------------------------------
      LOOP:  cpu time  173.27: real time  173.57

 eigenvalue-minimisations  : 10144
 total energy-change (2. order) :-0.5515141E-01  (-0.5509981E-01)
 number of electron     107.9999995 magnetization 
 augmentation part       -9.5097223 magnetization 

 Broyden mixing:
  rms(total) = 0.10093E+01    rms(broyden)= 0.10090E+01
  rms(prec ) = 0.10643E+01
  weight for this iteration     100.00

 Free energy of the ion-electron system (eV)
  ---------------------------------------------------
  alpha Z        PSCENC =        36.80884744
  Ewald energy   TEWEN  =     11889.27748384
  -Hartree energ DENC   =    -14946.26390845
  -exchange      EXHF   =         0.00000000
  -V(xc)+E(xc)   XCENC  =       -88.21865401
  PAW double counting   =      1056.43050070     -732.41190547
  entropy T*S    EENTRO =        -0.00000000
  eigenvalues    EBANDS =      -702.58458345
  atomic energy  EATOM  =      3354.04126044
  ---------------------------------------------------
  free energy    TOTEN  =      -132.92095895 eV

  energy without entropy =     -132.92095895  energy(sigma->0) =     -132.92095895


--------------------------------------------------------------------------------------------------------




----------------------------------------- Iteration    1(   6)  ---------------------------------------


    POTLOK:  cpu time   18.22: real time   18.24
    SETDIJ:  cpu time    0.01: real time    0.01
     EDDAV:  cpu time  145.45: real time  145.73
       DOS:  cpu time    0.01: real time    0.01
    CHARGE:  cpu time    6.06: real time    6.06
    MIXING:  cpu time    0.02: real time    0.02
    --------------------------------------------
      LOOP:  cpu time  169.78: real time  170.08

 eigenvalue-minimisations  :  8716
 total energy-change (2. order) : 0.1624172E+01  (-0.2904182E+00)
 number of electron     107.9999995 magnetization 
 augmentation part       -9.3652686 magnetization 

 Broyden mixing:
  rms(total) = 0.57973E+00    rms(broyden)= 0.57972E+00
  rms(prec ) = 0.60786E+00
  weight for this iteration     100.00

 eigenvalues of (default mixing * dielectric matrix)
  average eigenvalue GAMMA=   2.1462
  2.1462

 Free energy of the ion-electron system (eV)
  ---------------------------------------------------
  alpha Z        PSCENC =        36.80884744
  Ewald energy   TEWEN  =     11889.27748384
  -Hartree energ DENC   =    -14981.72245578
  -exchange      EXHF   =         0.00000000
  -V(xc)+E(xc)   XCENC  =       -84.99461683
  PAW double counting   =      1116.56597003     -794.16708904
  entropy T*S    EENTRO =        -0.00000000
  eigenvalues    EBANDS =      -667.10618677
  atomic energy  EATOM  =      3354.04126044
  ---------------------------------------------------
  free energy    TOTEN  =      -131.29678667 eV

  energy without entropy =     -131.29678667  energy(sigma->0) =     -131.29678667


--------------------------------------------------------------------------------------------------------




----------------------------------------- Iteration    1(   7)  ---------------------------------------


    POTLOK:  cpu time   18.68: real time   18.70
    SETDIJ:  cpu time    0.01: real time    0.01
     EDDAV:  cpu time  151.26: real time  151.40
       DOS:  cpu time    0.01: real time    0.01
    CHARGE:  cpu time    6.23: real time    6.24
    MIXING:  cpu time    0.02: real time    0.03
    --------------------------------------------
      LOOP:  cpu time  176.23: real time  176.39

 eigenvalue-minimisations  :  8816
 total energy-change (2. order) : 0.2675003E+00  (-0.2796836E+00)
 number of electron     107.9999995 magnetization 
 augmentation part       -9.2129935 magnetization 

 Broyden mixing:
  rms(total) = 0.13611E+00    rms(broyden)= 0.13608E+00
  rms(prec ) = 0.14241E+00
  weight for this iteration     100.00

 eigenvalues of (default mixing * dielectric matrix)
  average eigenvalue GAMMA=   2.0025
  1.5738  2.4312

 Free energy of the ion-electron system (eV)
  ---------------------------------------------------
  alpha Z        PSCENC =        36.80884744
  Ewald energy   TEWEN  =     11889.27748384
  -Hartree energ DENC   =    -15024.16946172
  -exchange      EXHF   =         0.00000000
  -V(xc)+E(xc)   XCENC  =       -80.90119433
  PAW double counting   =      1172.42594268     -851.58391813
  entropy T*S    EENTRO =        -0.00000000
  eigenvalues    EBANDS =      -626.92824657
  atomic energy  EATOM  =      3354.04126044
  ---------------------------------------------------
  free energy    TOTEN  =      -131.02928635 eV

  energy without entropy =     -131.02928635  energy(sigma->0) =     -131.02928635


--------------------------------------------------------------------------------------------------------




----------------------------------------- Iteration    1(   8)  ---------------------------------------


    POTLOK:  cpu time   17.31: real time   17.32
    SETDIJ:  cpu time    0.01: real time    0.01
     EDDAV:  cpu time  152.80: real time  152.88
       DOS:  cpu time    0.01: real time    0.01
    CHARGE:  cpu time    5.76: real time    5.76
    MIXING:  cpu time    0.02: real time    0.02
    --------------------------------------------
      LOOP:  cpu time  175.91: real time  176.01

 eigenvalue-minimisations  :  9168
 total energy-change (2. order) : 0.3656685E-01  (-0.3043364E-01)
 number of electron     107.9999995 magnetization 
 augmentation part       -9.2388552 magnetization 

 Broyden mixing:
  rms(total) = 0.38576E-01    rms(broyden)= 0.38571E-01
  rms(prec ) = 0.40986E-01
  weight for this iteration     100.00

 eigenvalues of (default mixing * dielectric matrix)
  average eigenvalue GAMMA=   1.8757
  2.6860  1.3566  1.5845

 Free energy of the ion-electron system (eV)
  ---------------------------------------------------
  alpha Z        PSCENC =        36.80884744
  Ewald energy   TEWEN  =     11889.27748384
  -Hartree energ DENC   =    -15027.57968722
  -exchange      EXHF   =         0.00000000
  -V(xc)+E(xc)   XCENC  =       -80.38570567
  PAW double counting   =      1163.53362063     -842.48484020
  entropy T*S    EENTRO =        -0.00000000
  eigenvalues    EBANDS =      -624.20369877
  atomic energy  EATOM  =      3354.04126044
  ---------------------------------------------------
  free energy    TOTEN  =      -130.99271950 eV

  energy without entropy =     -130.99271950  energy(sigma->0) =     -130.99271950


--------------------------------------------------------------------------------------------------------




----------------------------------------- Iteration    1(   9)  ---------------------------------------


    POTLOK:  cpu time   17.02: real time   17.03
    SETDIJ:  cpu time    0.01: real time    0.01
     EDDAV:  cpu time  159.82: real time  160.06
       DOS:  cpu time    0.01: real time    0.01
    CHARGE:  cpu time    5.88: real time    5.88
    MIXING:  cpu time    0.02: real time    0.02
    --------------------------------------------
      LOOP:  cpu time  182.77: real time  183.02

 eigenvalue-minimisations  :  9200
 total energy-change (2. order) : 0.1768415E-01  (-0.3344222E-02)
 number of electron     107.9999995 magnetization 
 augmentation part       -9.2422368 magnetization 

 Broyden mixing:
  rms(total) = 0.14398E-01    rms(broyden)= 0.14396E-01
  rms(prec ) = 0.15813E-01
  weight for this iteration     100.00

 eigenvalues of (default mixing * dielectric matrix)
  average eigenvalue GAMMA=   1.7680
  2.5177  1.1656  1.9022  1.4865

 Free energy of the ion-electron system (eV)
  ---------------------------------------------------
  alpha Z        PSCENC =        36.80884744
  Ewald energy   TEWEN  =     11889.27748384
  -Hartree energ DENC   =    -15030.82209062
  -exchange      EXHF   =         0.00000000
  -V(xc)+E(xc)   XCENC  =       -80.16308549
  PAW double counting   =      1161.92043482     -840.81494224
  entropy T*S    EENTRO =        -0.00000000
  eigenvalues    EBANDS =      -621.22294354
  atomic energy  EATOM  =      3354.04126044
  ---------------------------------------------------
  free energy    TOTEN  =      -130.97503535 eV

  energy without entropy =     -130.97503535  energy(sigma->0) =     -130.97503535


--------------------------------------------------------------------------------------------------------




----------------------------------------- Iteration    1(  10)  ---------------------------------------


    POTLOK:  cpu time   16.78: real time   16.78
    SETDIJ:  cpu time    0.01: real time    0.01
     EDDAV:  cpu time  156.33: real time  156.40
       DOS:  cpu time    0.01: real time    0.01
    CHARGE:  cpu time    6.16: real time    6.17
    MIXING:  cpu time    0.02: real time    0.02
    --------------------------------------------
      LOOP:  cpu time  179.31: real time  179.40

 eigenvalue-minimisations  :  9496
 total energy-change (2. order) : 0.9685166E-02  (-0.4875853E-03)
 number of electron     107.9999995 magnetization 
 augmentation part       -9.2417968 magnetization 

 Broyden mixing:
  rms(total) = 0.59348E-02    rms(broyden)= 0.59339E-02
  rms(prec ) = 0.74007E-02
  weight for this iteration     100.00

 eigenvalues of (default mixing * dielectric matrix)
  average eigenvalue GAMMA=   1.7139
  2.6941  2.1201  0.9826  1.3864  1.3864

 Free energy of the ion-electron system (eV)
  ---------------------------------------------------
  alpha Z        PSCENC =        36.80884744
  Ewald energy   TEWEN  =     11889.27748384
  -Hartree energ DENC   =    -15031.95599123
  -exchange      EXHF   =         0.00000000
  -V(xc)+E(xc)   XCENC  =       -80.17617078
  PAW double counting   =      1160.52538301     -839.37672166
  entropy T*S    EENTRO =        -0.00000000
  eigenvalues    EBANDS =      -620.10944125
  atomic energy  EATOM  =      3354.04126044
  ---------------------------------------------------
  free energy    TOTEN  =      -130.96535018 eV

  energy without entropy =     -130.96535018  energy(sigma->0) =     -130.96535018


--------------------------------------------------------------------------------------------------------




----------------------------------------- Iteration    1(  11)  ---------------------------------------


    POTLOK:  cpu time   16.95: real time   16.96
    SETDIJ:  cpu time    0.01: real time    0.01
     EDDAV:  cpu time  145.63: real time  145.70
       DOS:  cpu time    0.01: real time    0.01
    CHARGE:  cpu time    5.71: real time    5.72
    MIXING:  cpu time    0.03: real time    0.03
    --------------------------------------------
      LOOP:  cpu time  168.35: real time  168.43

 eigenvalue-minimisations  :  9032
 total energy-change (2. order) : 0.4081716E-02  (-0.9291521E-04)
 number of electron     107.9999995 magnetization 
 augmentation part       -9.2411912 magnetization 

 Broyden mixing:
  rms(total) = 0.26249E-02    rms(broyden)= 0.26244E-02
  rms(prec ) = 0.39337E-02
  weight for this iteration     100.00

 eigenvalues of (default mixing * dielectric matrix)
  average eigenvalue GAMMA=   1.6904
  2.7692  2.0464  0.8794  1.6829  1.3824  1.3824

 Free energy of the ion-electron system (eV)
  ---------------------------------------------------
  alpha Z        PSCENC =        36.80884744
  Ewald energy   TEWEN  =     11889.27748384
  -Hartree energ DENC   =    -15033.00090949
  -exchange      EXHF   =         0.00000000
  -V(xc)+E(xc)   XCENC  =       -80.15858151
  PAW double counting   =      1159.74576123     -838.57827160
  entropy T*S    EENTRO =        -0.00000000
  eigenvalues    EBANDS =      -619.09685882
  atomic energy  EATOM  =      3354.04126044
  ---------------------------------------------------
  free energy    TOTEN  =      -130.96126847 eV

  energy without entropy =     -130.96126847  energy(sigma->0) =     -130.96126847


--------------------------------------------------------------------------------------------------------




----------------------------------------- Iteration    1(  12)  ---------------------------------------


    POTLOK:  cpu time   17.18: real time   17.21
    SETDIJ:  cpu time    0.01: real time    0.01
     EDDAV:  cpu time  153.25: real time  153.41
       DOS:  cpu time    0.01: real time    0.01
    CHARGE:  cpu time    5.75: real time    5.76
    MIXING:  cpu time    0.02: real time    0.02
    --------------------------------------------
      LOOP:  cpu time  176.23: real time  176.43

 eigenvalue-minimisations  :  9432
 total energy-change (2. order) : 0.2060971E-02  (-0.2689679E-04)
 number of electron     107.9999995 magnetization 
 augmentation part       -9.2409481 magnetization 

 Broyden mixing:
  rms(total) = 0.15432E-02    rms(broyden)= 0.15431E-02
  rms(prec ) = 0.25936E-02
  weight for this iteration     100.00

 eigenvalues of (default mixing * dielectric matrix)
  average eigenvalue GAMMA=   1.7091
  2.9239  2.4793  1.5470  1.5470  0.9912  1.2377  1.2377

 Free energy of the ion-electron system (eV)
  ---------------------------------------------------
  alpha Z        PSCENC =        36.80884744
  Ewald energy   TEWEN  =     11889.27748384
  -Hartree energ DENC   =    -15034.00262199
  -exchange      EXHF   =         0.00000000
  -V(xc)+E(xc)   XCENC  =       -80.14906399
  PAW double counting   =      1159.55487658     -838.38236490
  entropy T*S    EENTRO =        -0.00000000
  eigenvalues    EBANDS =      -618.10762493
  atomic energy  EATOM  =      3354.04126044
  ---------------------------------------------------
  free energy    TOTEN  =      -130.95920750 eV

  energy without entropy =     -130.95920750  energy(sigma->0) =     -130.95920750


--------------------------------------------------------------------------------------------------------




----------------------------------------- Iteration    1(  13)  ---------------------------------------


    POTLOK:  cpu time   17.07: real time   17.08
    SETDIJ:  cpu time    0.01: real time    0.01
     EDDAV:  cpu time  143.78: real time  143.90
       DOS:  cpu time    0.01: real time    0.01
    CHARGE:  cpu time    5.68: real time    5.69
    MIXING:  cpu time    0.02: real time    0.02
    --------------------------------------------
      LOOP:  cpu time  166.58: real time  166.72

 eigenvalue-minimisations  :  9496
 total energy-change (2. order) : 0.1639717E-02  (-0.8966690E-05)
 number of electron     107.9999995 magnetization 
 augmentation part       -9.2408357 magnetization 

 Broyden mixing:
  rms(total) = 0.89541E-03    rms(broyden)= 0.89538E-03
  rms(prec ) = 0.15723E-02
  weight for this iteration     100.00

 eigenvalues of (default mixing * dielectric matrix)
  average eigenvalue GAMMA=   1.7091
  3.0496  2.4416  1.7858  1.7858  1.2580  1.2580  0.9022  1.1915

 Free energy of the ion-electron system (eV)
  ---------------------------------------------------
  alpha Z        PSCENC =        36.80884744
  Ewald energy   TEWEN  =     11889.27748384
  -Hartree energ DENC   =    -15035.03732483
  -exchange      EXHF   =         0.00000000
  -V(xc)+E(xc)   XCENC  =       -80.14345091
  PAW double counting   =      1159.29534910     -838.11628444
  entropy T*S    EENTRO =        -0.00000000
  eigenvalues    EBANDS =      -617.08344843
  atomic energy  EATOM  =      3354.04126044
  ---------------------------------------------------
  free energy    TOTEN  =      -130.95756778 eV

  energy without entropy =     -130.95756778  energy(sigma->0) =     -130.95756778


--------------------------------------------------------------------------------------------------------




----------------------------------------- Iteration    1(  14)  ---------------------------------------


    POTLOK:  cpu time   16.98: real time   17.02
    SETDIJ:  cpu time    0.01: real time    0.01
     EDDAV:  cpu time  132.10: real time  132.34
       DOS:  cpu time    0.01: real time    0.01
    CHARGE:  cpu time    5.67: real time    5.68
    MIXING:  cpu time    0.02: real time    0.02
    --------------------------------------------
      LOOP:  cpu time  154.79: real time  155.09

 eigenvalue-minimisations  :  8504
 total energy-change (2. order) :-0.1650922E-03  (-0.3476660E-05)
 number of electron     107.9999995 magnetization 
 augmentation part       -9.2407404 magnetization 

 Broyden mixing:
  rms(total) = 0.53217E-03    rms(broyden)= 0.53215E-03
  rms(prec ) = 0.99179E-03
  weight for this iteration     100.00

 eigenvalues of (default mixing * dielectric matrix)
  average eigenvalue GAMMA=   1.8705
  4.1397  2.7416  2.2534  1.5782  1.5782  1.2618  1.2618  0.9408  1.0787

 Free energy of the ion-electron system (eV)
  ---------------------------------------------------
  alpha Z        PSCENC =        36.80884744
  Ewald energy   TEWEN  =     11889.27748384
  -Hartree energ DENC   =    -15035.67667231
  -exchange      EXHF   =         0.00000000
  -V(xc)+E(xc)   XCENC  =       -80.13939273
  PAW double counting   =      1159.30358624     -838.12502039
  entropy T*S    EENTRO =        -0.00000000
  eigenvalues    EBANDS =      -616.44782541
  atomic energy  EATOM  =      3354.04126044
  ---------------------------------------------------
  free energy    TOTEN  =      -130.95773287 eV

  energy without entropy =     -130.95773287  energy(sigma->0) =     -130.95773287


--------------------------------------------------------------------------------------------------------




----------------------------------------- Iteration    1(  15)  ---------------------------------------


    POTLOK:  cpu time   17.04: real time   17.05
    SETDIJ:  cpu time    0.01: real time    0.01
     EDDAV:  cpu time  133.37: real time  133.47
       DOS:  cpu time    0.01: real time    0.01
    CHARGE:  cpu time    5.93: real time    5.93
    MIXING:  cpu time    0.02: real time    0.03
    --------------------------------------------
      LOOP:  cpu time  156.39: real time  156.51

 eigenvalue-minimisations  :  8416
 total energy-change (2. order) :-0.5244243E-03  (-0.2223551E-04)
 number of electron     107.9999995 magnetization 
 augmentation part       -9.2405988 magnetization 

 Broyden mixing:
  rms(total) = 0.31073E-03    rms(broyden)= 0.31071E-03
  rms(prec ) = 0.49912E-03
  weight for this iteration     100.00

 eigenvalues of (default mixing * dielectric matrix)
  average eigenvalue GAMMA=   2.0360
  5.5783  2.7389  2.6683  1.9925  1.4339  1.4339  1.2562  1.2562  0.9434  1.0586

 Free energy of the ion-electron system (eV)
  ---------------------------------------------------
  alpha Z        PSCENC =        36.80884744
  Ewald energy   TEWEN  =     11889.27748384
  -Hartree energ DENC   =    -15036.43442016
  -exchange      EXHF   =         0.00000000
  -V(xc)+E(xc)   XCENC  =       -80.13579034
  PAW double counting   =      1159.32440541     -838.14636552
  entropy T*S    EENTRO =        -0.00000000
  eigenvalues    EBANDS =      -615.69367841
  atomic energy  EATOM  =      3354.04126044
  ---------------------------------------------------
  free energy    TOTEN  =      -130.95825730 eV

  energy without entropy =     -130.95825730  energy(sigma->0) =     -130.95825730


--------------------------------------------------------------------------------------------------------




----------------------------------------- Iteration    1(  16)  ---------------------------------------


    POTLOK:  cpu time   17.12: real time   17.13
    SETDIJ:  cpu time    0.01: real time    0.01
     EDDAV:  cpu time  121.35: real time  121.44
       DOS:  cpu time    0.01: real time    0.01
    CHARGE:  cpu time    5.52: real time    5.53
    MIXING:  cpu time    0.02: real time    0.02
    --------------------------------------------
      LOOP:  cpu time  144.03: real time  144.15

 eigenvalue-minimisations  :  7808
 total energy-change (2. order) :-0.2755758E-03  (-0.1150670E-04)
 number of electron     107.9999995 magnetization 
 augmentation part       -9.2405888 magnetization 

 Broyden mixing:
  rms(total) = 0.16000E-03    rms(broyden)= 0.15998E-03
  rms(prec ) = 0.27867E-03
  weight for this iteration     100.00

 eigenvalues of (default mixing * dielectric matrix)
  average eigenvalue GAMMA=   2.0402
  6.2012  2.8969  2.6714  1.7898  1.7898  1.2802  1.2802  1.3207  1.3207  0.9454
  0.9454

 Free energy of the ion-electron system (eV)
  ---------------------------------------------------
  alpha Z        PSCENC =        36.80884744
  Ewald energy   TEWEN  =     11889.27748384
  -Hartree energ DENC   =    -15036.75091899
  -exchange      EXHF   =         0.00000000
  -V(xc)+E(xc)   XCENC  =       -80.13442376
  PAW double counting   =      1159.34050854     -838.16278499
  entropy T*S    EENTRO =        -0.00000000
  eigenvalues    EBANDS =      -615.37850540
  atomic energy  EATOM  =      3354.04126044
  ---------------------------------------------------
  free energy    TOTEN  =      -130.95853287 eV

  energy without entropy =     -130.95853287  energy(sigma->0) =     -130.95853287


--------------------------------------------------------------------------------------------------------




----------------------------------------- Iteration    1(  17)  ---------------------------------------


    POTLOK:  cpu time   16.94: real time   16.95
    SETDIJ:  cpu time    0.01: real time    0.01
     EDDAV:  cpu time  107.71: real time  107.83
       DOS:  cpu time    0.01: real time    0.01
    CHARGE:  cpu time    5.51: real time    5.51
    MIXING:  cpu time    0.02: real time    0.02
    --------------------------------------------
      LOOP:  cpu time  130.21: real time  130.34

 eigenvalue-minimisations  :  6352
 total energy-change (2. order) :-0.4931537E-04  (-0.9127562E-06)
 number of electron     107.9999995 magnetization 
 augmentation part       -9.2405819 magnetization 

 Broyden mixing:
  rms(total) = 0.10905E-03    rms(broyden)= 0.10904E-03
  rms(prec ) = 0.19772E-03
  weight for this iteration     100.00

 eigenvalues of (default mixing * dielectric matrix)
  average eigenvalue GAMMA=   2.0779
  6.5544  3.0355  2.5538  2.4510  1.7131  1.4962  1.4962  1.2468  1.2468  0.9533
  0.9798  1.2082

 Free energy of the ion-electron system (eV)
  ---------------------------------------------------
  alpha Z        PSCENC =        36.80884744
  Ewald energy   TEWEN  =     11889.27748384
  -Hartree energ DENC   =    -15036.83502441
  -exchange      EXHF   =         0.00000000
  -V(xc)+E(xc)   XCENC  =       -80.13406536
  PAW double counting   =      1159.35003667     -838.17249191
  entropy T*S    EENTRO =        -0.00000000
  eigenvalues    EBANDS =      -615.29462892
  atomic energy  EATOM  =      3354.04126044
  ---------------------------------------------------
  free energy    TOTEN  =      -130.95858219 eV

  energy without entropy =     -130.95858219  energy(sigma->0) =     -130.95858219


--------------------------------------------------------------------------------------------------------




----------------------------------------- Iteration    1(  18)  ---------------------------------------


    POTLOK:  cpu time   16.96: real time   16.96
    SETDIJ:  cpu time    0.01: real time    0.01
     EDDAV:  cpu time  113.31: real time  113.42
       DOS:  cpu time    0.01: real time    0.01
    CHARGE:  cpu time    5.82: real time    5.82
    MIXING:  cpu time    0.03: real time    0.03
    --------------------------------------------
      LOOP:  cpu time  136.13: real time  136.27

 eigenvalue-minimisations  :  7032
 total energy-change (2. order) : 0.2604979E-04  (-0.2447435E-05)
 number of electron     107.9999995 magnetization 
 augmentation part       -9.2405857 magnetization 

 Broyden mixing:
  rms(total) = 0.74020E-04    rms(broyden)= 0.74016E-04
  rms(prec ) = 0.11963E-03
  weight for this iteration     100.00

 eigenvalues of (default mixing * dielectric matrix)
  average eigenvalue GAMMA=   2.0893
  6.7596  3.4090  2.7772  2.2966  1.8390  1.8390  1.4152  1.4152  1.2073  1.2073
  0.9594  0.9594  1.0773

 Free energy of the ion-electron system (eV)
  ---------------------------------------------------
  alpha Z        PSCENC =        36.80884744
  Ewald energy   TEWEN  =     11889.27748384
  -Hartree energ DENC   =    -15036.91083766
  -exchange      EXHF   =         0.00000000
  -V(xc)+E(xc)   XCENC  =       -80.13408795
  PAW double counting   =      1159.34169823     -838.16385475
  entropy T*S    EENTRO =        -0.00000000
  eigenvalues    EBANDS =      -615.21906574
  atomic energy  EATOM  =      3354.04126044
  ---------------------------------------------------
  free energy    TOTEN  =      -130.95855614 eV

  energy without entropy =     -130.95855614  energy(sigma->0) =     -130.95855614


--------------------------------------------------------------------------------------------------------




----------------------------------------- Iteration    1(  19)  ---------------------------------------


    POTLOK:  cpu time   17.14: real time   17.15
    SETDIJ:  cpu time    0.01: real time    0.01
     EDDAV:  cpu time  113.01: real time  113.09
       DOS:  cpu time    0.01: real time    0.01
    CHARGE:  cpu time    5.54: real time    5.55
    MIXING:  cpu time    0.02: real time    0.02
    --------------------------------------------
      LOOP:  cpu time  135.74: real time  135.85

 eigenvalue-minimisations  :  6976
 total energy-change (2. order) :-0.1359580E-04  (-0.1382758E-05)
 number of electron     107.9999995 magnetization 
 augmentation part       -9.2405856 magnetization 

 Broyden mixing:
  rms(total) = 0.48197E-04    rms(broyden)= 0.48195E-04
  rms(prec ) = 0.70129E-04
  weight for this iteration     100.00

 eigenvalues of (default mixing * dielectric matrix)
  average eigenvalue GAMMA=   2.2710
  7.4243  5.1764  2.9466  2.6023  2.2317  1.5446  1.5446  1.4575  1.4575  1.2294
  1.2294  1.0087  1.0087  0.9325

 Free energy of the ion-electron system (eV)
  ---------------------------------------------------
  alpha Z        PSCENC =        36.80884744
  Ewald energy   TEWEN  =     11889.27748384
  -Hartree energ DENC   =    -15036.93300159
  -exchange      EXHF   =         0.00000000
  -V(xc)+E(xc)   XCENC  =       -80.13420033
  PAW double counting   =      1159.33948128     -838.16163538
  entropy T*S    EENTRO =        -0.00000000
  eigenvalues    EBANDS =      -615.19680545
  atomic energy  EATOM  =      3354.04126044
  ---------------------------------------------------
  free energy    TOTEN  =      -130.95856973 eV

  energy without entropy =     -130.95856973  energy(sigma->0) =     -130.95856973


--------------------------------------------------------------------------------------------------------




----------------------------------------- Iteration    1(  20)  ---------------------------------------


    POTLOK:  cpu time   16.92: real time   16.93
    SETDIJ:  cpu time    0.01: real time    0.01
     EDDAV:  cpu time  108.68: real time  108.93
       DOS:  cpu time    0.01: real time    0.01
    CHARGE:  cpu time    6.09: real time    6.09
    MIXING:  cpu time    0.02: real time    0.02
    --------------------------------------------
      LOOP:  cpu time  131.74: real time  132.00

 eigenvalue-minimisations  :  6696
 total energy-change (2. order) : 0.8521220E-04  (-0.1761553E-05)
 number of electron     107.9999995 magnetization 
 augmentation part       -9.2405805 magnetization 

 Broyden mixing:
  rms(total) = 0.27354E-04    rms(broyden)= 0.27351E-04
  rms(prec ) = 0.32439E-04
  weight for this iteration     100.00

 eigenvalues of (default mixing * dielectric matrix)
  average eigenvalue GAMMA=   2.2958
  7.6855  6.1401  2.9314  2.7020  1.9164  1.8194  1.8194  1.4466  1.4466  1.2110
  1.2110  1.1915  0.9387  0.9887  0.9887

 Free energy of the ion-electron system (eV)
  ---------------------------------------------------
  alpha Z        PSCENC =        36.80884744
  Ewald energy   TEWEN  =     11889.27748384
  -Hartree energ DENC   =    -15036.95599945
  -exchange      EXHF   =         0.00000000
  -V(xc)+E(xc)   XCENC  =       -80.13419428
  PAW double counting   =      1159.33893622     -838.16109560
  entropy T*S    EENTRO =        -0.00000000
  eigenvalues    EBANDS =      -615.17372313
  atomic energy  EATOM  =      3354.04126044
  ---------------------------------------------------
  free energy    TOTEN  =      -130.95848452 eV

  energy without entropy =     -130.95848452  energy(sigma->0) =     -130.95848452


--------------------------------------------------------------------------------------------------------




----------------------------------------- Iteration    1(  21)  ---------------------------------------


    POTLOK:  cpu time   17.17: real time   17.21
    SETDIJ:  cpu time    0.01: real time    0.01
     EDDAV:  cpu time  108.51: real time  108.60
       DOS:  cpu time    0.01: real time    0.01
    CHARGE:  cpu time    5.59: real time    5.59
    MIXING:  cpu time    0.02: real time    0.02
    --------------------------------------------
      LOOP:  cpu time  131.32: real time  131.45

 eigenvalue-minimisations  :  6256
 total energy-change (2. order) : 0.1949672E-04  (-0.6414648E-06)
 number of electron     107.9999995 magnetization 
 augmentation part       -9.2405836 magnetization 

 Broyden mixing:
  rms(total) = 0.12090E-04    rms(broyden)= 0.12088E-04
  rms(prec ) = 0.14346E-04
  weight for this iteration     100.00

 eigenvalues of (default mixing * dielectric matrix)
  average eigenvalue GAMMA=   2.3924
  8.7583  6.7411  3.0810  2.6221  2.6221  1.9629  1.5594  1.5594  1.4545  1.4545
  1.2155  1.2155  1.1411  0.9793  0.9793  0.9317

 Free energy of the ion-electron system (eV)
  ---------------------------------------------------
  alpha Z        PSCENC =        36.80884744
  Ewald energy   TEWEN  =     11889.27748384
  -Hartree energ DENC   =    -15036.95613617
  -exchange      EXHF   =         0.00000000
  -V(xc)+E(xc)   XCENC  =       -80.13427180
  PAW double counting   =      1159.33789095     -838.16001860
  entropy T*S    EENTRO =        -0.00000000
  eigenvalues    EBANDS =      -615.17352113
  atomic energy  EATOM  =      3354.04126044
  ---------------------------------------------------
  free energy    TOTEN  =      -130.95846503 eV

  energy without entropy =     -130.95846503  energy(sigma->0) =     -130.95846503


--------------------------------------------------------------------------------------------------------




----------------------------------------- Iteration    1(  22)  ---------------------------------------


    POTLOK:  cpu time   16.95: real time   16.96
    SETDIJ:  cpu time    0.01: real time    0.01
     EDDAV:  cpu time  109.71: real time  109.83
       DOS:  cpu time    0.01: real time    0.01
    CHARGE:  cpu time    6.01: real time    6.01
    MIXING:  cpu time    0.03: real time    0.03
    --------------------------------------------
      LOOP:  cpu time  132.72: real time  132.86

 eigenvalue-minimisations  :  6664
 total energy-change (2. order) : 0.9209671E-05  (-0.8511479E-06)
 number of electron     107.9999995 magnetization 
 augmentation part       -9.2405847 magnetization 

 Broyden mixing:
  rms(total) = 0.71212E-05    rms(broyden)= 0.71181E-05
  rms(prec ) = 0.81540E-05
  weight for this iteration     100.00

 eigenvalues of (default mixing * dielectric matrix)
  average eigenvalue GAMMA=   2.3583
  8.8785  6.7990  3.1102  2.6394  2.6394  1.9397  1.9397  1.5662  1.4432  1.4432
  1.2102  1.2102  1.2988  0.9427  0.9808  1.0247  1.0247

 Free energy of the ion-electron system (eV)
  ---------------------------------------------------
  alpha Z        PSCENC =        36.80884744
  Ewald energy   TEWEN  =     11889.27748384
  -Hartree energ DENC   =    -15036.95436509
  -exchange      EXHF   =         0.00000000
  -V(xc)+E(xc)   XCENC  =       -80.13428416
  PAW double counting   =      1159.33832595     -838.16047416
  entropy T*S    EENTRO =        -0.00000000
  eigenvalues    EBANDS =      -615.17525009
  atomic energy  EATOM  =      3354.04126044
  ---------------------------------------------------
  free energy    TOTEN  =      -130.95845582 eV

  energy without entropy =     -130.95845582  energy(sigma->0) =     -130.95845582


--------------------------------------------------------------------------------------------------------




----------------------------------------- Iteration    1(  23)  ---------------------------------------


    POTLOK:  cpu time   17.13: real time   17.19
    SETDIJ:  cpu time    0.01: real time    0.01
     EDDAV:  cpu time   90.03: real time   90.33
       DOS:  cpu time    0.01: real time    0.01
    --------------------------------------------
      LOOP:  cpu time  107.18: real time  107.55

 eigenvalue-minimisations  :  5648
 total energy-change (2. order) : 0.1568847E-06  (-0.2277299E-06)
 number of electron     107.9999995 magnetization 
 augmentation part       -9.2405847 magnetization 

 Free energy of the ion-electron system (eV)
  ---------------------------------------------------
  alpha Z        PSCENC =        36.80884744
  Ewald energy   TEWEN  =     11889.27748384
  -Hartree energ DENC   =    -15036.95681156
  -exchange      EXHF   =         0.00000000
  -V(xc)+E(xc)   XCENC  =       -80.13426669
  PAW double counting   =      1159.33867059     -838.16082662
  entropy T*S    EENTRO =        -0.00000000
  eigenvalues    EBANDS =      -615.17281311
  atomic energy  EATOM  =      3354.04126044
  ---------------------------------------------------
  free energy    TOTEN  =      -130.95845566 eV

  energy without entropy =     -130.95845566  energy(sigma->0) =     -130.95845566


--------------------------------------------------------------------------------------------------------




 average (electrostatic) potential at core
  the test charge radii are     0.9587  0.9892
  (the norm of the test charge is              1.0000)
       1 -88.7023       2 -88.7199       3 -88.6761       4 -88.7330       5 -88.6922
       6 -88.5972       7 -88.5899       8 -88.6551       9 -88.7008      10 -88.7099
      11 -88.6210      12 -88.6111      13 -90.1482      14 -90.2080      15 -90.1512
[...]
     26      -3.9135      2.00000
     27      -3.7429      2.00000
     28      -3.5840      2.00000
     29      -3.4979      2.00000
     30      -3.3721      2.00000
     31      -3.3055      2.00000
     32      -3.0664      2.00000
     33      -3.0439      2.00000
     34      -2.9755      2.00000
     35      -2.7012      2.00000
     36      -2.6442      2.00000
     37      -2.3464      2.00000
     38      -2.3330      2.00000
     39      -2.3060      2.00000
     40      -2.2320      2.00000
     41      -2.1515      2.00000
     42      -2.0363      2.00000
     43      -1.9889      2.00000
     44      -1.9266      2.00000
     45      -1.7546      2.00000
     46      -1.7416      2.00000
     47      -1.6918      2.00000
     48      -1.5001      2.00000
     49      -1.4170      2.00000
     50      -1.3278      2.00000
     51      -1.1558      2.00000
     52      -1.0024      2.00000
     53      -0.9462      2.00000
     54      -0.3920      2.00000
     55       1.4177      0.00000
     56       1.6263      0.00000
     57       1.7847      0.00000
     58       1.8331      0.00000
     59       1.9023      0.00000
     60       2.0016      0.00000
     61       2.0948      0.00000
     62       2.2693      0.00000
     63       2.4228      0.00000
     64       2.4964      0.00000
     65       2.6351      0.00000
     66       2.7424      0.00000
     67       2.8199      0.00000
     68       2.9422      0.00000

 k-point    48 :       0.0000    0.5000    0.5000
  band No.  band energies     occupation 
      1     -13.3712      2.00000
      2     -13.3228      2.00000
      3     -13.1665      2.00000
      4     -13.0997      2.00000
      5     -12.4647      2.00000
      6     -12.3824      2.00000
      7     -11.7185      2.00000
      8     -11.6213      2.00000
      9     -11.4645      2.00000
     10     -11.4492      2.00000
     11     -11.0465      2.00000
     12     -10.9858      2.00000
     13      -8.6884      2.00000
     14      -8.6686      2.00000
     15      -7.2784      2.00000
     16      -7.0821      2.00000
     17      -6.7868      2.00000
     18      -6.7414      2.00000
     19      -6.2358      2.00000
     20      -6.1927      2.00000
     21      -5.5517      2.00000
     22      -5.4876      2.00000
     23      -4.9966      2.00000
     24      -4.9550      2.00000
     25      -4.1072      2.00000
     26      -3.9147      2.00000
     27      -3.5694      2.00000
     28      -3.2567      2.00000
     29      -3.2276      2.00000
     30      -3.1166      2.00000
     31      -3.0724      2.00000
     32      -2.9912      2.00000
     33      -2.7025      2.00000
     34      -2.6542      2.00000
     35      -2.5851      2.00000
     36      -2.5237      2.00000
     37      -2.3939      2.00000
     38      -2.3276      2.00000
     39      -2.2165      2.00000
     40      -2.1947      2.00000
     41      -2.1450      2.00000
     42      -1.9815      2.00000
     43      -1.9611      2.00000
     44      -1.7639      2.00000
     45      -1.6593      2.00000
     46      -1.5557      2.00000
     47      -1.3522      2.00000
     48      -1.2668      2.00000
     49      -1.2082      2.00000
     50      -1.0771      2.00000
     51      -0.9596      2.00000
     52      -0.8146      2.00000
     53      -0.7366      2.00000
     54      -0.3842      2.00000
     55       1.0548      0.00000
     56       1.2560      0.00000
     57       1.3960      0.00000
     58       1.4969      0.00000
     59       1.6142      0.00000
     60       1.6505      0.00000
     61       1.8028      0.00000
     62       1.8374      0.00000
     63       2.0874      0.00000
     64       2.1831      0.00000
     65       2.4281      0.00000
     66       2.4731      0.00000
     67       2.6512      0.00000
     68       2.6981      0.00000

 k-point    49 :       0.0769    0.5000    0.5000
  band No.  band energies     occupation 
      1     -13.3165      2.00000
      2     -13.2682      2.00000
      3     -13.1027      2.00000
      4     -13.0340      2.00000
      5     -12.4089      2.00000
      6     -12.3271      2.00000
      7     -11.6730      2.00000
      8     -11.5748      2.00000
      9     -11.4136      2.00000
     10     -11.3987      2.00000
     11     -10.9921      2.00000
     12     -10.9300      2.00000
     13      -8.6795      2.00000
     14      -8.6611      2.00000
     15      -7.2605      2.00000
     16      -7.0732      2.00000
     17      -6.7552      2.00000
     18      -6.7087      2.00000
     19      -6.2521      2.00000
     20      -6.2094      2.00000
     21      -5.5676      2.00000
     22      -5.5045      2.00000
     23      -4.9574      2.00000
     24      -4.9078      2.00000
     25      -4.1141      2.00000
     26      -3.9813      2.00000
     27      -3.6497      2.00000
     28      -3.6009      2.00000
     29      -3.4919      2.00000
     30      -3.3105      2.00000
     31      -3.2958      2.00000
     32      -3.0350      2.00000
     33      -2.9604      2.00000
     34      -2.9308      2.00000
     35      -2.7048      2.00000
     36      -2.6037      2.00000
     37      -2.5472      2.00000
     38      -2.4913      2.00000
     39      -2.4171      2.00000
     40      -2.3645      2.00000
     41      -2.2096      2.00000
     42      -2.1053      2.00000
     43      -2.0682      2.00000
     44      -1.9815      2.00000
     45      -1.8549      2.00000
     46      -1.8426      2.00000
     47      -1.6383      2.00000
     48      -1.4514      2.00000
     49      -1.3057      2.00000
     50      -1.1171      2.00000
     51      -0.9669      2.00000
     52      -0.8990      2.00000
     53      -0.8348      2.00000
     54      -0.3568      2.00000
     55       1.4711      0.00000
     56       1.5651      0.00000
     57       1.6675      0.00000
     58       1.7479      0.00000
     59       1.9519      0.00000
     60       2.0919      0.00000
     61       2.1296      0.00000
     62       2.2890      0.00000
     63       2.4605      0.00000
     64       2.5294      0.00000
     65       2.6466      0.00000
     66       2.7916      0.00000
     67       2.8278      0.00000
     68       2.9109      0.00000

 k-point    50 :       0.1538    0.5000    0.5000
  band No.  band energies     occupation 
      1     -13.1522      2.00000
      2     -13.1034      2.00000
      3     -12.9149      2.00000
      4     -12.8402      2.00000
      5     -12.2439      2.00000
      6     -12.1635      2.00000
      7     -11.5396      2.00000
      8     -11.4384      2.00000
      9     -11.2649      2.00000
     10     -11.2509      2.00000
     11     -10.8357      2.00000
     12     -10.7706      2.00000
     13      -8.6744      2.00000
     14      -8.6605      2.00000
     15      -7.2374      2.00000
     16      -7.0810      2.00000
     17      -6.6886      2.00000
     18      -6.6368      2.00000
     19      -6.3440      2.00000
     20      -6.2940      2.00000
     21      -5.6295      2.00000
     22      -5.5661      2.00000
     23      -4.9198      2.00000
     24      -4.8435      2.00000
     25      -4.3940      2.00000
     26      -4.3532      2.00000
     27      -4.2555      2.00000
     28      -4.2237      2.00000
     29      -3.9764      2.00000
     30      -3.9547      2.00000
     31      -3.5896      2.00000
     32      -3.5063      2.00000
     33      -3.4218      2.00000
     34      -3.0726      2.00000
     35      -2.9978      2.00000
     36      -2.9023      2.00000
     37      -2.8529      2.00000
     38      -2.7646      2.00000
     39      -2.7280      2.00000
     40      -2.6476      2.00000
     41      -2.5820      2.00000
     42      -2.5092      2.00000
     43      -2.3334      2.00000
     44      -2.3257      2.00000
     45      -1.9945      2.00000
     46      -1.9163      2.00000
     47      -1.9039      2.00000
     48      -1.7395      2.00000
     49      -1.4099      2.00000
     50      -1.3243      2.00000
     51      -1.0953      2.00000
     52      -1.0129      2.00000
     53      -0.9610      2.00000
     54      -0.4486      2.00000
     55       1.6160      0.00000
     56       1.6761      0.00000
     57       1.9420      0.00000
     58       2.1260      0.00000
     59       2.1763      0.00000
     60       2.3423      0.00000
     61       2.6741      0.00000
     62       2.7415      0.00000
     63       2.8085      0.00000
     64       2.8716      0.00000
     65       2.9602      0.00000
     66       3.0949      0.00000
     67       3.1707      0.00000
     68       3.1938      0.00000

 k-point    51 :       0.2308    0.5000    0.5000
  band No.  band energies     occupation 
      1     -12.8798      2.00000
      2     -12.8288      2.00000
      3     -12.6134      2.00000
      4     -12.5265      2.00000
      5     -11.9767      2.00000
      6     -11.8993      2.00000
      7     -11.3301      2.00000
      8     -11.2229      2.00000
      9     -11.0340      2.00000
     10     -11.0213      2.00000
     11     -10.6044      2.00000
     12     -10.5388      2.00000
     13      -8.7328      2.00000
     14      -8.7274      2.00000
     15      -7.3330      2.00000
     16      -7.2195      2.00000
     17      -6.7139      2.00000
     18      -6.6396      2.00000
     19      -6.5883      2.00000
     20      -6.5366      2.00000
     21      -5.8105      2.00000
     22      -5.7484      2.00000
     23      -5.2145      2.00000
     24      -5.1402      2.00000
     25      -5.0026      2.00000
     26      -4.9674      2.00000
     27      -4.6423      2.00000
     28      -4.6107      2.00000
     29      -4.5280      2.00000
     30      -4.4431      2.00000
     31      -4.0131      2.00000
     32      -3.9343      2.00000
     33      -3.7440      2.00000
     34      -3.6576      2.00000
     35      -3.2715      2.00000
     36      -3.1812      2.00000
     37      -3.1661      2.00000
     38      -3.0098      2.00000
     39      -2.9831      2.00000
     40      -2.6877      2.00000
     41      -2.6035      2.00000
     42      -2.5450      2.00000
     43      -2.4827      2.00000
     44      -2.3636      2.00000
     45      -2.0544      2.00000
     46      -1.9508      2.00000
     47      -1.9221      2.00000
     48      -1.7535      2.00000
     49      -1.7027      2.00000
     50      -1.6254      2.00000
     51      -1.3464      2.00000
     52      -1.3142      2.00000
     53      -1.0852      2.00000
     54      -0.7199      2.00000
     55       1.3677      0.00000
     56       1.4978      0.00000
     57       1.5440      0.00000
     58       1.6504      0.00000
     59       2.0728      0.00000
     60       2.2649      0.00000
     61       2.4634      0.00000
     62       2.5981      0.00000
     63       2.6492      0.00000
     64       2.7700      0.00000
     65       3.0377      0.00000
     66       3.1001      0.00000
     67       3.1948      0.00000
     68       3.2282      0.00000

 k-point    52 :       0.3077    0.5000    0.5000
  band No.  band energies     occupation 
      1     -12.5067      2.00000
      2     -12.4483      2.00000
      3     -12.2167      2.00000
      4     -12.1076      2.00000
      5     -11.6237      2.00000
      6     -11.5519      2.00000
      7     -11.0757      2.00000
      8     -10.9570      2.00000
      9     -10.7607      2.00000
     10     -10.7532      2.00000
     11     -10.3811      2.00000
     12     -10.3351      2.00000
     13      -8.8931      2.00000
     14      -8.8644      2.00000
     15      -7.7174      2.00000
     16      -7.5756      2.00000
     17      -7.0747      2.00000
     18      -7.0073      2.00000
     19      -6.9455      2.00000
     20      -6.8999      2.00000
     21      -6.1387      2.00000
     22      -6.0654      2.00000
     23      -5.8861      2.00000
     24      -5.8591      2.00000
     25      -5.3274      2.00000
     26      -5.2937      2.00000
     27      -4.8743      2.00000
     28      -4.8292      2.00000
     29      -4.4931      2.00000
     30      -4.3768      2.00000
     31      -4.3334      2.00000
     32      -4.2153      2.00000
     33      -4.1121      2.00000
     34      -4.0246      2.00000
     35      -3.2253      2.00000
     36      -3.1933      2.00000
     37      -3.0611      2.00000
     38      -3.0146      2.00000
     39      -2.9573      2.00000
     40      -2.9287      2.00000
     41      -2.8338      2.00000
     42      -2.5394      2.00000
     43      -2.4863      2.00000
     44      -2.3628      2.00000
     45      -2.2531      2.00000
     46      -2.1667      2.00000
     47      -1.9308      2.00000
     48      -1.9044      2.00000
     49      -1.8638      2.00000
     50      -1.7438      2.00000
     51      -1.6876      2.00000
     52      -1.6742      2.00000
     53      -1.2804      2.00000
     54      -1.0694      2.00000
     55       1.1605      0.00000
     56       1.3151      0.00000
     57       1.3563      0.00000
     58       1.4767      0.00000
     59       1.9184      0.00000
     60       2.2010      0.00000
     61       2.2361      0.00000
     62       2.3066      0.00000
     63       2.4544      0.00000
     64       2.5223      0.00000
     65       2.5747      0.00000
     66       2.6639      0.00000
     67       2.9180      0.00000
     68       3.0528      0.00000

 k-point    53 :       0.3846    0.5000    0.5000
  band No.  band energies     occupation 
      1     -12.0557      2.00000
      2     -11.9737      2.00000
      3     -11.7611      2.00000
      4     -11.6107      2.00000
      5     -11.2216      2.00000
      6     -11.1608      2.00000
      7     -10.8567      2.00000
      8     -10.7131      2.00000
      9     -10.5635      2.00000
     10     -10.5398      2.00000
     11     -10.4039      2.00000
     12     -10.3730      2.00000
     13      -8.9550      2.00000
     14      -8.8495      2.00000
     15      -8.1924      2.00000
     16      -8.0143      2.00000
     17      -7.6422      2.00000
     18      -7.5573      2.00000
     19      -7.3773      2.00000
     20      -7.3219      2.00000
     21      -6.6810      2.00000
     22      -6.6610      2.00000
     23      -6.6009      2.00000
     24      -6.4201      2.00000
     25      -5.2824      2.00000
     26      -5.2389      2.00000
     27      -4.6722      2.00000
     28      -4.6106      2.00000
     29      -4.5449      2.00000
     30      -4.3771      2.00000
     31      -4.1143      2.00000
     32      -4.0764      2.00000
     33      -4.0387      2.00000
     34      -3.9786      2.00000
     35      -3.5218      2.00000
     36      -3.4723      2.00000
     37      -3.1754      2.00000
     38      -3.1345      2.00000
     39      -3.0798      2.00000
     40      -3.0343      2.00000
     41      -2.8383      2.00000
     42      -2.7952      2.00000
     43      -2.5646      2.00000
     44      -2.4310      2.00000
     45      -2.3468      2.00000
     46      -2.2463      2.00000
     47      -2.1150      2.00000
     48      -2.0578      2.00000
     49      -2.0168      2.00000
     50      -1.9557      2.00000
     51      -1.8046      2.00000
     52      -1.7677      2.00000
     53      -1.3645      2.00000
     54      -1.2855      2.00000
     55       1.1233      0.00000
     56       1.3132      0.00000
     57       1.3781      0.00000
     58       1.5371      0.00000
     59       1.7987      0.00000
     60       1.8810      0.00000
     61       2.0157      0.00000
     62       2.0804      0.00000
     63       2.1887      0.00000
     64       2.2276      0.00000
     65       2.3414      0.00000
     66       2.5148      0.00000
     67       2.6588      0.00000
     68       2.7736      0.00000

 k-point    54 :       0.4615    0.5000    0.5000
  band No.  band energies     occupation 
      1     -11.6243      2.00000
      2     -11.4324      2.00000
      3     -11.3164      2.00000
      4     -11.1121      2.00000
      5     -10.9236      2.00000
      6     -10.8899      2.00000
      7     -10.8246      2.00000
      8     -10.7882      2.00000
      9     -10.6644      2.00000
     10     -10.6105      2.00000
     11     -10.5642      2.00000
     12     -10.4754      2.00000
     13      -8.7315      2.00000
     14      -8.6089      2.00000
     15      -8.3822      2.00000
     16      -8.2996      2.00000
     17      -8.1298      2.00000
     18      -8.0605      2.00000
     19      -7.5565      2.00000
     20      -7.5026      2.00000
     21      -7.2566      2.00000
     22      -7.2315      2.00000
     23      -7.1137      2.00000
     24      -6.8152      2.00000
     25      -4.9512      2.00000
     26      -4.8874      2.00000
     27      -4.4619      2.00000
     28      -4.4242      2.00000
     29      -4.2897      2.00000
     30      -4.1815      2.00000
     31      -4.0451      2.00000
     32      -4.0035      2.00000
     33      -3.9271      2.00000
     34      -3.8679      2.00000
     35      -3.7971      2.00000
     36      -3.7130      2.00000
     37      -3.5259      2.00000
     38      -3.4861      2.00000
     39      -3.2026      2.00000
     40      -3.1555      2.00000
     41      -2.9989      2.00000
     42      -2.9451      2.00000
     43      -2.6536      2.00000
     44      -2.6078      2.00000
     45      -2.4436      2.00000
     46      -2.3192      2.00000
     47      -2.1614      2.00000
     48      -2.0961      2.00000
     49      -2.0684      2.00000
     50      -1.9802      2.00000
     51      -1.7102      2.00000
     52      -1.6159      2.00000
     53      -1.4803      2.00000
     54      -1.3672      2.00000
     55       1.1777      0.00000
     56       1.2646      0.00000
     57       1.4056      0.00000
     58       1.5981      0.00000
     59       1.6749      0.00000
     60       1.8145      0.00000
     61       1.8875      0.00000
     62       1.9238      0.00000
     63       2.0336      0.00000
     64       2.1172      0.00000
     65       2.3383      0.00000
     66       2.3934      0.00000
     67       2.5924      0.00000
     68       2.6270      0.00000


--------------------------------------------------------------------------------------------------------


 soft charge-density along one line, spin component           1
         0         1         2         3         4         5         6         7         8         9
 total charge-density along one line
 
 pseudopotential strength for first ion, spin component:           1
 29.760   0.008  -0.001  -0.024  -0.000  -0.000  -0.001   0.000
  0.008   0.009  -0.000  -0.000   0.000   0.000   0.000  -0.000
 -0.001  -0.000   6.546  -0.001  -0.000  -0.003   0.000   0.000
 -0.024  -0.000  -0.001   6.540  -0.000   0.000  -0.002   0.000
 -0.000   0.000  -0.000  -0.000   6.546   0.000   0.000  -0.003
 -0.000   0.000  -0.003   0.000   0.000   0.015  -0.000   0.000
 -0.001   0.000   0.000  -0.002   0.000  -0.000   0.015   0.000
  0.000  -0.000   0.000   0.000  -0.003   0.000   0.000   0.015
 total augmentation occupancy for first ion, spin component:           1
  1.815  -0.360   0.007   0.260  -0.000   0.003   0.110  -0.000
 -0.360   1.296   0.026   0.865  -0.000   0.004  -0.434  -0.000
  0.007   0.026   1.141   0.014   0.000  -0.506   0.014  -0.000
  0.260   0.865   0.014   1.300   0.000   0.014  -0.423  -0.000
 -0.000  -0.000   0.000   0.000   1.143  -0.000  -0.000  -0.529
  0.003   0.004  -0.506   0.014  -0.000   0.294  -0.015   0.000
  0.110  -0.434   0.014  -0.423  -0.000  -0.015   0.229   0.000
 -0.000  -0.000  -0.000  -0.000  -0.529   0.000   0.000   0.327


------------------------ aborting loop because EDIFF is reached ----------------------------------------


    CHARGE:  cpu time    5.50: real time    5.52
    FORLOC:  cpu time    0.12: real time    0.12
