<?xml version="1.0" encoding="ISO-8859-1"?>
<modeling>
 <generator>
  <i name="program" type="string">vasp </i>
  <i name="version" type="string">5.3.5  </i>
  <i name="subversion" type="string">31Mar14 (build Oct 29 2014 16:16:03) complex                          parallel </i>
  <i name="platform" type="string">Linux-UFHPC </i>
  <i name="date" type="string">2016 02 09 </i>
  <i name="time" type="string">18:36:53 </i>
 </generator>
 <incar>
  <i type="string" name="PREC">accurate</i>
  <i type="int" name="IBRION">     2</i>
  <i name="EDIFF">      0.00000100</i>
  <i type="int" name="NSW">     0</i>
  <i type="int" name="ISIF">     3</i>
  <i name="ENCUT">    300.00000000</i>
  <i type="string" name="LREAL"> Auto</i>
  <i type="int" name="ISMEAR">     0</i>
  <i name="SIGMA">      0.10000000</i>
  <i type="logical" name="LWAVE"> F  </i>
  <i type="logical" name="LCHARG"> F  </i>
  <i type="logical" name="LAECHG"> F  </i>
  <i type="string" name="GGA"> Bo</i>
  <i name="PARAM1">      0.18333333</i>
  <i name="PARAM2">      0.22000000</i>
  <i type="logical" name="LUSE_VDW"> T  </i>
  <i name="AGGAC">      0.00000000</i>
 </incar>
 <kpoints>
  <generation param="Gamma">
   <v type="int" name="divisions">      13        4        2 </v>
   <v name="usershift">      0.00000000       0.00000000       0.00000000 </v>
   <v name="genvec1">      0.07692308      -0.00000000       0.00000000 </v>
   <v name="genvec2">      0.00000000       0.25000000       0.00000000 </v>
   <v name="genvec3">      0.00000000       0.00000000       0.50000000 </v>
   <v name="shift">      0.00000000       0.00000000       0.00000000 </v>
  </generation>
  <varray name="kpointlist" >
   <v>       0.00000000       0.00000000       0.00000000 </v>
   <v>       0.07692308      -0.00000000       0.00000000 </v>
   <v>       0.15384615      -0.00000000       0.00000000 </v>
   <v>       0.23076923      -0.00000000       0.00000000 </v>
   <v>       0.30769231      -0.00000000       0.00000000 </v>
   <v>       0.38461538      -0.00000000       0.00000000 </v>
   <v>       0.46153846      -0.00000000       0.00000000 </v>
   <v>       0.00000000       0.25000000       0.00000000 </v>
   <v>       0.07692308       0.25000000       0.00000000 </v>
   <v>       0.15384615       0.25000000       0.00000000 </v>
   <v>       0.23076923       0.25000000       0.00000000 </v>
   <v>       0.30769231       0.25000000       0.00000000 </v>
   <v>       0.38461538       0.25000000       0.00000000 </v>
   <v>       0.46153846       0.25000000       0.00000000 </v>
   <v>      -0.46153846       0.25000000       0.00000000 </v>
   <v>      -0.38461538       0.25000000       0.00000000 </v>
   <v>      -0.30769231       0.25000000       0.00000000 </v>
   <v>      -0.23076923       0.25000000       0.00000000 </v>
   <v>      -0.15384615       0.25000000       0.00000000 </v>
   <v>      -0.07692308       0.25000000       0.00000000 </v>
   <v>       0.00000000       0.50000000       0.00000000 </v>
   <v>       0.07692308       0.50000000       0.00000000 </v>
   <v>       0.15384615       0.50000000       0.00000000 </v>
   <v>       0.23076923       0.50000000       0.00000000 </v>
   <v>       0.30769231       0.50000000       0.00000000 </v>
   <v>       0.38461538       0.50000000       0.00000000 </v>
   <v>       0.46153846       0.50000000       0.00000000 </v>
   <v>       0.00000000       0.00000000       0.50000000 </v>
   <v>       0.07692308      -0.00000000       0.50000000 </v>
   <v>       0.15384615      -0.00000000       0.50000000 </v>
   <v>       0.23076923      -0.00000000       0.50000000 </v>
   <v>       0.30769231      -0.00000000       0.50000000 </v>
   <v>       0.38461538      -0.00000000       0.50000000 </v>
   <v>       0.46153846      -0.00000000       0.50000000 </v>
   <v>       0.00000000       0.25000000       0.50000000 </v>
   <v>       0.07692308       0.25000000       0.50000000 </v>
   <v>       0.15384615       0.25000000       0.50000000 </v>
   <v>       0.23076923       0.25000000       0.50000000 </v>
   <v>       0.30769231       0.25000000       0.50000000 </v>
   <v>       0.38461538       0.25000000       0.50000000 </v>
   <v>       0.46153846       0.25000000       0.50000000 </v>
   <v>      -0.46153846       0.25000000       0.50000000 </v>
   <v>      -0.38461538       0.25000000       0.50000000 </v>
   <v>      -0.30769231       0.25000000       0.50000000 </v>
   <v>      -0.23076923       0.25000000       0.50000000 </v>
   <v>      -0.15384615       0.25000000       0.50000000 </v>
   <v>      -0.07692308       0.25000000       0.50000000 </v>
   <v>       0.00000000       0.50000000       0.50000000 </v>
   <v>       0.07692308       0.50000000       0.50000000 </v>
   <v>       0.15384615       0.50000000       0.50000000 </v>
   <v>       0.23076923       0.50000000       0.50000000 </v>
   <v>       0.30769231       0.50000000       0.50000000 </v>
   <v>       0.38461538       0.50000000       0.50000000 </v>
   <v>       0.46153846       0.50000000       0.50000000 </v>
  </varray>
  <varray name="weights" >
   <v>       0.00961538 </v>
   <v>       0.01923077 </v>
   <v>       0.01923077 </v>
   <v>       0.01923077 </v>
   <v>       0.01923077 </v>
   <v>       0.01923077 </v>
   <v>       0.01923077 </v>
   <v>       0.01923077 </v>
   <v>       0.01923077 </v>
   <v>       0.01923077 </v>
   <v>       0.01923077 </v>
   <v>       0.01923077 </v>
   <v>       0.01923077 </v>
   <v>       0.01923077 </v>
   <v>       0.01923077 </v>
   <v>       0.01923077 </v>
   <v>       0.01923077 </v>
   <v>       0.01923077 </v>
   <v>       0.01923077 </v>
   <v>       0.01923077 </v>
   <v>       0.00961538 </v>
   <v>       0.01923077 </v>
   <v>       0.01923077 </v>
   <v>       0.01923077 </v>
   <v>       0.01923077 </v>
   <v>       0.01923077 </v>
   <v>       0.01923077 </v>
   <v>       0.00961538 </v>
   <v>       0.01923077 </v>
   <v>       0.01923077 </v>
   <v>       0.01923077 </v>
   <v>       0.01923077 </v>
   <v>       0.01923077 </v>
   <v>       0.01923077 </v>
   <v>       0.01923077 </v>
   <v>       0.01923077 </v>
   <v>       0.01923077 </v>
   <v>       0.01923077 </v>
   <v>       0.01923077 </v>
   <v>       0.01923077 </v>
   <v>       0.01923077 </v>
   <v>       0.01923077 </v>
   <v>       0.01923077 </v>
   <v>       0.01923077 </v>
   <v>       0.01923077 </v>
   <v>       0.01923077 </v>
   <v>       0.01923077 </v>
   <v>       0.00961538 </v>
   <v>       0.01923077 </v>
   <v>       0.01923077 </v>
   <v>       0.01923077 </v>
   <v>       0.01923077 </v>
   <v>       0.01923077 </v>
   <v>       0.01923077 </v>
  </varray>
 </kpoints>
 <parameters>
  <separator name="general" >
   <i type="string" name="SYSTEM">unknown system</i>
   <i type="logical" name="LCOMPAT"> F  </i>
  </separator>
  <separator name="electronic" >
   <i type="string" name="PREC">accura</i>
   <i name="ENMAX">    300.00000000</i>
   <i name="ENAUG">    342.92400000</i>
   <i name="EDIFF">      0.00000100</i>
   <i type="int" name="IALGO">    38</i>
   <i type="int" name="IWAVPR">    10</i>
   <i type="int" name="NBANDS">    68</i>
   <i name="NELECT">    108.00000000</i>
   <i type="int" name="TURBO">     0</i>
   <i type="int" name="IRESTART">     0</i>
   <i type="int" name="NREBOOT">     0</i>
   <i type="int" name="NMIN">     0</i>
   <i name="EREF">      0.00000000</i>
   <separator name="electronic smearing" >
    <i type="int" name="ISMEAR">     0</i>
    <i name="SIGMA">      0.10000000</i>
    <i name="KSPACING">      0.50000000</i>
    <i type="logical" name="KGAMMA"> T  </i>
   </separator>
   <separator name="electronic projectors" >
    <i type="logical" name="LREAL"> T  </i>
    <v name="ROPT">     -0.00025000     -0.00025000</v>
    <i type="int" name="LMAXPAW">  -100</i>
    <i type="int" name="LMAXMIX">     2</i>
    <i type="logical" name="NLSPLINE"> F  </i>
   </separator>
   <separator name="electronic startup" >
    <i type="int" name="ISTART">     0</i>
    <i type="int" name="ICHARG">     2</i>
    <i type="int" name="INIWAV">     1</i>
   </separator>
   <separator name="electronic spin" >
    <i type="int" name="ISPIN">     1</i>
    <i type="logical" name="LNONCOLLINEAR"> F  </i>
    <v name="MAGMOM">      1.00000000      1.00000000      1.00000000      1.00000000      1.00000000      1.00000000      1.00000000      1.00000000      1.00000000      1.00000000      1.00000000      1.00000000      1.00000000      1.00000000      1.00000000      1.00000000      1.00000000      1.00000000      1.00000000      1.00000000
      1.00000000      1.00000000      1.00000000      1.00000000</v>
    <i name="NUPDOWN">     -1.00000000</i>
    <i type="logical" name="LSORBIT"> F  </i>
    <v name="SAXIS">      0.00000000      0.00000000      1.00000000</v>
    <i type="logical" name="LSPIRAL"> F  </i>
    <v name="QSPIRAL">      0.00000000      0.00000000      0.00000000</v>
    <i type="logical" name="LZEROZ"> F  </i>
   </separator>
   <separator name="electronic exchange-correlation" >
    <i type="logical" name="LASPH"> F  </i>
    <i type="logical" name="LMETAGGA"> F  </i>
   </separator>
   <separator name="electronic convergence" >
    <i type="int" name="NELM">    60</i>
    <i type="int" name="NELMDL">    -5</i>
    <i type="int" name="NELMIN">     2</i>
    <i name="ENINI">    300.00000000</i>
    <separator name="electronic convergence detail" >
     <i type="logical" name="LDIAG"> T  </i>
     <i type="logical" name="LSUBROT"> F  </i>
     <i name="WEIMIN">      0.00000000</i>
     <i name="EBREAK">      0.00000000</i>
     <i name="DEPER">      0.30000000</i>
     <i type="int" name="NRMM">     4</i>
     <i name="TIME">      0.40000000</i>
    </separator>
   </separator>
   <separator name="electronic mixer" >
    <i name="AMIX">      0.40000000</i>
    <i name="BMIX">      1.00000000</i>
    <i name="AMIN">      0.10000000</i>
    <i name="AMIX_MAG">      1.60000000</i>
    <i name="BMIX_MAG">      1.00000000</i>
    <separator name="electronic mixer details" >
     <i type="int" name="IMIX">     4</i>
     <i type="int" name="MAXMIX">   -45</i>
     <i name="WC">    100.00000000</i>
     <i type="int" name="INIMIX">     1</i>
     <i type="int" name="MIXPRE">     1</i>
     <i type="int" name="MREMOVE">     5</i>
    </separator>
   </separator>
   <separator name="electronic dipolcorrection" >
    <i type="logical" name="LDIPOL"> F  </i>
    <i type="logical" name="LMONO"> F  </i>
    <i type="int" name="IDIPOL">     0</i>
    <i name="EPSILON">      1.00000000</i>
    <v name="DIPOL">   -100.00000000   -100.00000000   -100.00000000</v>
    <i name="EFIELD">      0.00000000</i>
   </separator>
  </separator>
  <separator name="grids" >
   <i type="int" name="NGX">    20</i>
   <i type="int" name="NGY">    60</i>
   <i type="int" name="NGZ">   160</i>
   <i type="int" name="NGXF">    40</i>
   <i type="int" name="NGYF">   120</i>
   <i type="int" name="NGZF">   320</i>
   <i type="logical" name="ADDGRID"> F  </i>
  </separator>
  <separator name="ionic" >
   <i type="int" name="NSW">     0</i>
   <i type="int" name="IBRION">    -1</i>
   <i type="int" name="ISIF">     3</i>
   <i name="PSTRESS">      0.00000000</i>
   <i name="EDIFFG">      0.00001000</i>
   <i type="int" name="NFREE">     1</i>
   <i name="POTIM">      0.50000000</i>
   <i name="SMASS">     -3.00000000</i>
   <i name="SCALEE">      1.00000000</i>
  </separator>
  <separator name="ionic md" >
   <i name="TEBEG">      0.00010000</i>
   <i name="TEEND">      0.00010000</i>
   <i type="int" name="NBLOCK">     1</i>
   <i type="int" name="KBLOCK">     1</i>
   <i type="int" name="NPACO">   256</i>
   <i name="APACO">     16.00000000</i>
  </separator>
  <separator name="symmetry" >
   <i type="int" name="ISYM">     2</i>
   <i name="SYMPREC">      0.00001000</i>
  </separator>
  <separator name="dos" >
   <i type="logical" name="LORBIT"> F  </i>
   <v name="RWIGS">     -1.00000000     -1.00000000</v>
   <i type="int" name="NEDOS">   301</i>
   <i name="EMIN">     10.00000000</i>
   <i name="EMAX">    -10.00000000</i>
   <i name="EFERMI">      0.00000000</i>
  </separator>
  <separator name="writing" >
   <i type="int" name="NWRITE">     2</i>
   <i type="logical" name="LWAVE"> F  </i>
   <i type="logical" name="LCHARG"> F  </i>
   <i type="logical" name="LPARD"> F  </i>
   <i type="logical" name="LVTOT"> F  </i>
   <i type="logical" name="LVHAR"> F  </i>
   <i type="logical" name="LELF"> F  </i>
   <i type="logical" name="LOPTICS"> F  </i>
   <v name="STM">      0.00000000      0.00000000      0.00000000      0.00000000      0.00000000      0.00000000      0.00000000</v>
  </separator>
  <separator name="performance" >
   <i type="int" name="NPAR">     4</i>
   <i type="int" name="NSIM">     4</i>
   <i type="int" name="NBLK">    -1</i>
   <i type="logical" name="LPLANE"> T  </i>
   <i type="logical" name="LSCALAPACK"> T  </i>
   <i type="logical" name="LSCAAWARE"> F  </i>
   <i type="logical" name="LSCALU"> F  </i>
   <i type="logical" name="LASYNC"> F  </i>
   <i type="logical" name="LORBITALREAL"> F  </i>
  </separator>
  <separator name="miscellaneous" >
   <i type="int" name="IDIOT">     3</i>
   <i type="logical" name="LMUSIC"> F  </i>
   <v name="POMASS">     30.97400000     28.08500000</v>
   <v name="DARWINR">      0.00000000      0.00000000</v>
   <v name="DARWINV">      1.00000000      1.00000000</v>
   <i type="logical" name="LCORR"> T  </i>
  </separator>
  <i type="logical" name="GGA_COMPAT"> T  </i>
  <i type="logical" name="LBERRY"> F  </i>
  <i type="int" name="ICORELEVEL">     0</i>
  <i type="logical" name="LDAU"> F  </i>
  <i type="int" name="I_CONSTRAINED_M">     0</i>
  <separator name="electronic exchange-correlation" >
   <i type="string" name="GGA">BO</i>
   <i type="int" name="VOSKOWN">     0</i>
   <i type="logical" name="LHFCALC"> F  </i>
   <i type="string" name="PRECFOCK"></i>
   <i type="logical" name="LSYMGRAD"> F  </i>
   <i type="logical" name="LHFONE"> F  </i>
   <i type="logical" name="LRHFCALC"> F  </i>
   <i type="logical" name="LTHOMAS"> F  </i>
   <i type="logical" name="LMODELHF"> F  </i>
   <i name="ENCUT4O">     -1.00000000</i>
   <i type="int" name="EXXOEP">     0</i>
   <i type="int" name="FOURORBIT">     0</i>
   <i name="AEXX">      0.00000000</i>
   <i name="HFALPHA">      0.00000000</i>
   <i name="MCALPHA">      0.00000000</i>
   <i name="ALDAX">      1.00000000</i>
   <i name="AGGAX">      1.00000000</i>
   <i name="ALDAC">      1.00000000</i>
   <i name="AGGAC">      0.00000000</i>
   <i type="int" name="NKREDX">     1</i>
   <i type="int" name="NKREDY">     1</i>
   <i type="int" name="NKREDZ">     1</i>
   <i type="logical" name="SHIFTRED"> F  </i>
   <i type="logical" name="ODDONLY"> F  </i>
   <i type="logical" name="EVENONLY"> F  </i>
   <i type="int" name="LMAXFOCK">     0</i>
   <i type="int" name="NMAXFOCKAE">     0</i>
   <i type="logical" name="LFOCKAEDFT"> F  </i>
   <i name="HFSCREEN">      0.00000000</i>
   <i name="HFSCREENC">      0.00000000</i>
   <i type="int" name="NBANDSGWLOW">     0</i>
  </separator>
  <separator name="vdW DFT" >
   <i type="logical" name="LUSE_VDW"> T  </i>
   <i name="Zab_VDW">     -0.84910000</i>
   <i name="PARAM1">      0.18333333</i>
   <i name="PARAM2">      0.22000000</i>
   <i name="PARAM3">      0.00000000</i>
  </separator>
  <separator name="model GW" >
   <i type="int" name="MODEL_GW">     0</i>
   <i name="MODEL_EPS0">     25.05800243</i>
   <i name="MODEL_ALPHA">      1.00000000</i>
  </separator>
  <separator name="linear response parameters" >
   <i type="logical" name="LEPSILON"> F  </i>
   <i type="logical" name="LRPA"> F  </i>
   <i type="logical" name="LNABLA"> F  </i>
   <i type="logical" name="LVEL"> F  </i>
   <i type="int" name="KINTER">     0</i>
   <i name="CSHIFT">      0.10000000</i>
   <i name="OMEGAMAX">     -1.00000000</i>
   <i name="DEG_THRESHOLD">      0.00200000</i>
  </separator>
  <separator name="orbital magnetization" >
   <i type="logical" name="NUCIND"> F  </i>
   <v name="MAGPOS">      0.00000000      0.00000000      0.00000000</v>
   <i type="logical" name="LNICSALL"> T  </i>
   <i type="logical" name="ORBITALMAG"> F  </i>
   <i type="logical" name="LMAGBLOCH"> F  </i>
   <i type="logical" name="LCHIMAG"> F  </i>
   <i type="logical" name="LGAUGE"> T  </i>
   <i type="int" name="MAGATOM">     0</i>
   <v name="MAGDIPOL">      0.00000000      0.00000000      0.00000000</v>
   <v name="AVECCONST">      0.00000000      0.00000000      0.00000000</v>
  </separator>
  <separator name="response functions" >
   <i type="logical" name="LADDER"> F  </i>
   <i type="logical" name="LFXC"> F  </i>
   <i type="logical" name="LHARTREE"> T  </i>
   <i type="int" name="IBSE">     0</i>
   <i type="logical" name="LTCTE"> F  </i>
   <i type="logical" name="LTETE"> F  </i>
   <i type="logical" name="LTRIPLET"> F  </i>
   <i type="logical" name="LFXCEPS"> F  </i>
   <i type="logical" name="LFXHEG"> F  </i>
   <i type="logical" name="L2ORDER"> F  </i>
   <i type="logical" name="LUSEW"> F  </i>
   <i name="ENCUTGW">     -2.00000000</i>
   <i name="ENCUTGWSOFT">     -2.00000000</i>
   <i name="ENCUTLF">     -1.00000000</i>
   <i type="int" name="LMAXMP2">    -1</i>
   <i name="SCISSOR">      0.00000000</i>
   <i type="int" name="NOMEGA">     0</i>
   <i type="int" name="NOMEGAR">     0</i>
   <i type="int" name="NBANDSGW">    -1</i>
   <i type="int" name="NBANDSO">    -1</i>
   <i type="int" name="NBANDSV">    -1</i>
   <i type="int" name="NELM">     1</i>
   <i type="int" name="DIM">     3</i>
   <i type="int" name="ANTIRES">     0</i>
   <i name="OMEGAMAX">    -30.00000000</i>
   <i name="OMEGAMIN">    -30.00000000</i>
   <i name="OMEGATL">   -200.00000000</i>
   <i type="int" name="OMEGAGRID">     0</i>
   <i name="CSHIFT">     -0.10000000</i>
   <i type="logical" name="SELFENERGY"> F  </i>
   <i type="logical" name="LSPECTRAL"> F  </i>
   <i type="logical" name="ODDONLYGW"> F  </i>
   <i type="logical" name="EVENONLYGW"> F  </i>
   <i type="int" name="NKREDLFX">     1</i>
   <i type="int" name="NKREDLFY">     1</i>
   <i type="int" name="NKREDLFZ">     1</i>
   <i type="int" name="MAXMEM">  1800</i>
   <i type="int" name="TELESCOPE">     0</i>
   <i type="int" name="TAUPAR">     1</i>
  </separator>
  <separator name="External order field" >
   <i name="OFIELD_KAPPA">      0.00000000</i>
   <v name="OFIELD_K">      0.00000000      0.00000000      0.00000000</v>
   <i name="OFIELD_Q6_NEAR">      0.00000000</i>
   <i name="OFIELD_Q6_FAR">      0.00000000</i>
   <i name="OFIELD_A">      0.00000000</i>
  </separator>
 </parameters>
 <atominfo>
  <atoms>      24 </atoms>
  <types>       2 </types>
  <array name="atoms" >
   <dimension dim="1">ion</dimension>
   <field type="string">element</field>
   <field type="int">atomtype</field>
   <set>
    <rc><c>P </c><c>   1</c></rc>
    <rc><c>P </c><c>   1</c></rc>
    <rc><c>P </c><c>   1</c></rc>
    <rc><c>P </c><c>   1</c></rc>
    <rc><c>P </c><c>   1</c></rc>
    <rc><c>P </c><c>   1</c></rc>
    <rc><c>P </c><c>   1</c></rc>
    <rc><c>P </c><c>   1</c></rc>
    <rc><c>P </c><c>   1</c></rc>
    <rc><c>P </c><c>   1</c></rc>
    <rc><c>P </c><c>   1</c></rc>
    <rc><c>P </c><c>   1</c></rc>
    <rc><c>Si</c><c>   2</c></rc>
    <rc><c>Si</c><c>   2</c></rc>
    <rc><c>Si</c><c>   2</c></rc>
    <rc><c>Si</c><c>   2</c></rc>
    <rc><c>Si</c><c>   2</c></rc>
    <rc><c>Si</c><c>   2</c></rc>
    <rc><c>Si</c><c>   2</c></rc>
    <rc><c>Si</c><c>   2</c></rc>
    <rc><c>Si</c><c>   2</c></rc>
    <rc><c>Si</c><c>   2</c></rc>
    <rc><c>Si</c><c>   2</c></rc>
    <rc><c>Si</c><c>   2</c></rc>
   </set>
  </array>
  <array name="atomtypes" >
   <dimension dim="1">type</dimension>
   <field type="int">atomspertype</field>
   <field type="string">element</field>
   <field>mass</field>
   <field>valence</field>
   <field type="string">pseudopotential</field>
   <set>
    <rc><c>  12</c><c>P </c><c>     30.97400000</c><c>      5.00000000</c><c>  PAW_PBE P 17Jan2003                   </c></rc>
    <rc><c>  12</c><c>Si</c><c>     28.08500000</c><c>      4.00000000</c><c> PAW_PBE Si 05Jan2001                   </c></rc>
   </set>
  </array>
 </atominfo>
 <structure name="initialpos" >
  <crystal>
   <varray name="basis" >
    <v>       3.54040000       0.00000000       0.00000000 </v>
    <v>      -1.77020000      10.29434800       0.00000000 </v>
    <v>       0.00000000       0.00000000      27.50142900 </v>
   </varray>
   <i name="volume">   1002.32009712 </i>
   <varray name="rec_basis" >
    <v>       0.28245396       0.04857034       0.00000000 </v>
    <v>       0.00000000       0.09714068       0.00000000 </v>
    <v>       0.00000000       0.00000000       0.03636175 </v>
   </varray>
  </crystal>
  <varray name="positions" >
   <v>       0.11402300       0.22804500       0.23316207 </v>
   <v>       0.91402300       0.32804500       0.51499159 </v>
   <v>       0.45808900       0.91617900       0.20939482 </v>
   <v>       0.25808900       0.01617900       0.49122434 </v>
   <v>       0.31085400       0.62170900       0.08414979 </v>
   <v>       0.31085400       0.62170900       0.36597930 </v>
   <v>       0.99923000       0.99846000       0.08631254 </v>
   <v>       0.99923000       0.99846000       0.36814206 </v>
   <v>       0.65492700       0.30985400       0.06041748 </v>
   <v>       0.65492700       0.30985400       0.34224700 </v>
   <v>       0.76973800       0.53947500       0.20725292 </v>
   <v>       0.56973800       0.63947500       0.48908244 </v>
   <v>       0.93971600       0.87943300       0.15783749 </v>
   <v>       0.73971600       0.97943300       0.43966701 </v>
   <v>       0.20515200       0.41030300       0.18578822 </v>
   <v>       0.00515200       0.51030300       0.46761774 </v>
   <v>       0.20184900       0.40369900       0.09969156 </v>
   <v>       0.20184900       0.40369900       0.38152107 </v>
   <v>       0.56380500       0.12761000       0.10779021 </v>
   <v>       0.56380500       0.12761000       0.38961973 </v>
   <v>       0.56710600       0.13421200       0.19387616 </v>
   <v>       0.36710600       0.23421200       0.47570568 </v>
   <v>       0.82923400       0.65846800       0.13571444 </v>
   <v>       0.62923400       0.75846800       0.41754396 </v>
  </varray>
 </structure>
 <calculation>
  <scstep>
   <time name="dav">   80.40   80.43</time>
   <time name="total">   97.31   97.35</time>
   <energy>
    <i name="alphaZ">     36.80884744 </i>
    <i name="ewald">  11893.33392002 </i>
    <i name="hartreedc"> -14950.53979644 </i>
    <i name="XCdc">    -88.24415316 </i>
    <i name="pawpsdc">   1056.43050070 </i>
    <i name="pawaedc">   -732.41190547 </i>
    <i name="eentropy">     -0.04731368 </i>
    <i name="bandstr">    -85.79689046 </i>
    <i name="atom">   3354.04126044 </i>
    <i name="e_fr_energy">    483.57446939 </i>
    <i name="e_wo_entrp">    483.62178307 </i>
    <i name="e_0_energy">    483.59812623 </i>
   </energy>
  </scstep>
  <scstep>
   <time name="dav">  107.26  107.29</time>
   <time name="total">  107.27  107.31</time>
   <energy>
    <i name="e_fr_energy">    -70.31340955 </i>
    <i name="e_wo_entrp">    -70.28934683 </i>
    <i name="e_0_energy">    -70.30137819 </i>
   </energy>
  </scstep>
  <scstep>
   <time name="dav">  111.86  111.90</time>
   <time name="total">  111.88  111.91</time>
   <energy>
    <i name="e_fr_energy">   -125.43625709 </i>
    <i name="e_wo_entrp">   -125.40731128 </i>
    <i name="e_0_energy">   -125.42178419 </i>
   </energy>
  </scstep>
  <scstep>
   <time name="dav">  122.30  122.35</time>
   <time name="total">  122.32  122.36</time>
   <energy>
    <i name="e_fr_energy">   -127.84901885 </i>
    <i name="e_wo_entrp">   -127.81997957 </i>
    <i name="e_0_energy">   -127.83449921 </i>
   </energy>
  </scstep>
  <scstep>
   <time name="dav">  105.88  105.92</time>
   <time name="total">  110.77  110.81</time>
   <energy>
    <i name="e_fr_energy">   -127.90805193 </i>
    <i name="e_wo_entrp">   -127.87891623 </i>
    <i name="e_0_energy">   -127.89348408 </i>
   </energy>
  </scstep>
  <scstep>
   <time name="dav">   79.16   79.18</time>
   <time name="total">   99.21   99.24</time>
   <energy>
    <i name="e_fr_energy">   -126.24133346 </i>
    <i name="e_wo_entrp">   -126.21066959 </i>
    <i name="e_0_energy">   -126.22600153 </i>
   </energy>
  </scstep>
  <scstep>
   <time name="dav">   77.92   77.94</time>
   <time name="total">   97.33   97.47</time>
   <energy>
    <i name="e_fr_energy">   -126.01819572 </i>
    <i name="e_wo_entrp">   -125.98537080 </i>
    <i name="e_0_energy">   -126.00178326 </i>
   </energy>
  </scstep>
  <scstep>
   <time name="dav">   79.20   79.23</time>
   <time name="total">   99.77  100.15</time>
   <energy>
    <i name="e_fr_energy">   -126.01214915 </i>
    <i name="e_wo_entrp">   -125.98136723 </i>
    <i name="e_0_energy">   -125.99675819 </i>
   </energy>
  </scstep>
  <scstep>
   <time name="dav">   82.37   82.44</time>
   <time name="total">  101.85  101.93</time>
   <energy>
    <i name="e_fr_energy">   -125.99136432 </i>
    <i name="e_wo_entrp">   -125.95937028 </i>
    <i name="e_0_energy">   -125.97536730 </i>
   </energy>
  </scstep>
  <scstep>
   <time name="dav">   84.70   84.73</time>
   <time name="total">  105.67  105.70</time>
   <energy>
    <i name="e_fr_energy">   -125.98048625 </i>
    <i name="e_wo_entrp">   -125.94930367 </i>
    <i name="e_0_energy">   -125.96489496 </i>
   </energy>
  </scstep>
  <scstep>
   <time name="dav">   96.41   96.43</time>
   <time name="total">  117.90  117.94</time>
   <energy>
    <i name="e_fr_energy">   -125.97440796 </i>
    <i name="e_wo_entrp">   -125.94280796 </i>
    <i name="e_0_energy">   -125.95860796 </i>
   </energy>
  </scstep>
  <scstep>
   <time name="dav">   93.53   93.84</time>
   <time name="total">  113.70  114.02</time>
   <energy>
    <i name="e_fr_energy">   -125.97071540 </i>
    <i name="e_wo_entrp">   -125.93924008 </i>
    <i name="e_0_energy">   -125.95497774 </i>
   </energy>
  </scstep>
  <scstep>
   <time name="dav">   86.19   86.21</time>
   <time name="total">  105.61  105.64</time>
   <energy>
    <i name="e_fr_energy">   -125.96889064 </i>
    <i name="e_wo_entrp">   -125.93746151 </i>
    <i name="e_0_energy">   -125.95317608 </i>
   </energy>
  </scstep>
  <scstep>
   <time name="dav">   81.33   81.36</time>
   <time name="total">  100.78  100.81</time>
   <energy>
    <i name="e_fr_energy">   -125.96781291 </i>
    <i name="e_wo_entrp">   -125.93635641 </i>
    <i name="e_0_energy">   -125.95208466 </i>
   </energy>
  </scstep>
  <scstep>
   <time name="dav">   78.46   78.48</time>
   <time name="total">   97.99   98.02</time>
   <energy>
    <i name="e_fr_energy">   -125.96790079 </i>
    <i name="e_wo_entrp">   -125.93646579 </i>
    <i name="e_0_energy">   -125.95218329 </i>
   </energy>
  </scstep>
  <scstep>
   <time name="dav">   74.54   74.57</time>
   <time name="total">   93.99   94.02</time>
   <energy>
    <i name="e_fr_energy">   -125.96856487 </i>
    <i name="e_wo_entrp">   -125.93712294 </i>
    <i name="e_0_energy">   -125.95284390 </i>
   </energy>
  </scstep>
  <scstep>
   <time name="dav">   74.73   74.75</time>
   <time name="total">   95.09   95.13</time>
   <energy>
    <i name="e_fr_energy">   -125.96876550 </i>
    <i name="e_wo_entrp">   -125.93732392 </i>
    <i name="e_0_energy">   -125.95304471 </i>
   </energy>
  </scstep>
  <scstep>
   <time name="dav">   64.21   64.23</time>
   <time name="total">   84.26   84.29</time>
   <energy>
    <i name="e_fr_energy">   -125.96876352 </i>
    <i name="e_wo_entrp">   -125.93732048 </i>
    <i name="e_0_energy">   -125.95304200 </i>
   </energy>
  </scstep>
  <scstep>
   <time name="dav">   64.03   64.05</time>
   <time name="total">   83.59   83.61</time>
   <energy>
    <i name="e_fr_energy">   -125.96878633 </i>
    <i name="e_wo_entrp">   -125.93734437 </i>
    <i name="e_0_energy">   -125.95306535 </i>
   </energy>
  </scstep>
  <scstep>
   <time name="dav">   82.89   82.91</time>
   <time name="total">  104.12  104.15</time>
   <energy>
    <i name="e_fr_energy">   -125.96878406 </i>
    <i name="e_wo_entrp">   -125.93734198 </i>
    <i name="e_0_energy">   -125.95306302 </i>
   </energy>
  </scstep>
  <scstep>
   <time name="dav">   78.38   78.40</time>
   <time name="total">   99.42   99.46</time>
   <energy>
    <i name="e_fr_energy">   -125.96871358 </i>
    <i name="e_wo_entrp">   -125.93727105 </i>
    <i name="e_0_energy">   -125.95299232 </i>
   </energy>
  </scstep>
  <scstep>
   <time name="dav">   77.82   77.84</time>
   <time name="total">   98.75   98.78</time>
   <energy>
    <i name="e_fr_energy">   -125.96866631 </i>
    <i name="e_wo_entrp">   -125.93722406 </i>
    <i name="e_0_energy">   -125.95294519 </i>
   </energy>
  </scstep>
  <scstep>
   <time name="dav">   72.32   72.34</time>
   <time name="total">   92.15   92.18</time>
   <energy>
    <i name="e_fr_energy">   -125.96865736 </i>
    <i name="e_wo_entrp">   -125.93721510 </i>
    <i name="e_0_energy">   -125.95293623 </i>
   </energy>
  </scstep>
  <scstep>
   <time name="dav">   64.57   64.59</time>
   <time name="total">   84.08   84.11</time>
   <energy>
    <i name="e_fr_energy">   -125.96864639 </i>
    <i name="e_wo_entrp">   -125.93720414 </i>
    <i name="e_0_energy">   -125.95292527 </i>
   </energy>
  </scstep>
  <scstep>
   <time name="dav">   61.90   61.91</time>
   <time name="total">   77.42   77.44</time>
   <energy>
    <i name="alphaZ">     36.80884744 </i>
    <i name="ewald">  11893.33392002 </i>
    <i name="hartreedc"> -15034.76582768 </i>
    <i name="XCdc">    -80.83409931 </i>
    <i name="pawpsdc">   1154.08288483 </i>
    <i name="pawaedc">   -832.74835385 </i>
    <i name="eentropy">     -0.03144228 </i>
    <i name="bandstr">   -615.85583591 </i>
    <i name="atom">   3354.04126044 </i>
    <i name="e_fr_energy">   -125.96864629 </i>
    <i name="e_wo_entrp">   -125.93720401 </i>
    <i name="e_0_energy">   -125.95292515 </i>
   </energy>
  </scstep>
  <structure>
   <crystal>
    <varray name="basis" >
     <v>       3.54040000       0.00000000       0.00000000 </v>
     <v>      -1.77020000      10.29434800       0.00000000 </v>
     <v>       0.00000000       0.00000000      27.50142900 </v>
    </varray>
    <i name="volume">   1002.32009712 </i>
    <varray name="rec_basis" >
     <v>       0.28245396       0.04857034       0.00000000 </v>
     <v>       0.00000000       0.09714068       0.00000000 </v>
     <v>       0.00000000       0.00000000       0.03636175 </v>
    </varray>
   </crystal>
   <varray name="positions" >
    <v>       0.11402300       0.22804500       0.23316207 </v>
    <v>       0.91402300       0.32804500       0.51499159 </v>
    <v>       0.45808900       0.91617900       0.20939482 </v>
    <v>       0.25808900       0.01617900       0.49122434 </v>
    <v>       0.31085400       0.62170900       0.08414979 </v>
    <v>       0.31085400       0.62170900       0.36597930 </v>
    <v>       0.99923000       0.99846000       0.08631254 </v>
    <v>       0.99923000       0.99846000       0.36814206 </v>
    <v>       0.65492700       0.30985400       0.06041748 </v>
    <v>       0.65492700       0.30985400       0.34224700 </v>
    <v>       0.76973800       0.53947500       0.20725292 </v>
    <v>       0.56973800       0.63947500       0.48908244 </v>
    <v>       0.93971600       0.87943300       0.15783749 </v>
    <v>       0.73971600       0.97943300       0.43966701 </v>
    <v>       0.20515200       0.41030300       0.18578822 </v>
    <v>       0.00515200       0.51030300       0.46761774 </v>
    <v>       0.20184900       0.40369900       0.09969156 </v>
    <v>       0.20184900       0.40369900       0.38152107 </v>
    <v>       0.56380500       0.12761000       0.10779021 </v>
    <v>       0.56380500       0.12761000       0.38961973 </v>
    <v>       0.56710600       0.13421200       0.19387616 </v>
    <v>       0.36710600       0.23421200       0.47570568 </v>
    <v>       0.82923400       0.65846800       0.13571444 </v>
    <v>       0.62923400       0.75846800       0.41754396 </v>
   </varray>
  </structure>
  <varray name="forces" >
   <v>      -0.00728326      -0.03638976       0.01925463 </v>
   <v>      -0.23684567      -0.24495029       0.28035161 </v>
   <v>      -0.00103599      -0.01339655       0.08775859 </v>
   <v>      -0.56241487      -0.54737365       1.26408561 </v>
   <v>      -0.00228971      -0.00513277       0.00625655 </v>
   <v>      -0.72170664       0.59812391      -1.51763764 </v>
   <v>       0.00160234       0.00278658       0.00592893 </v>
   <v>       0.88758134       0.36296690      -2.56565946 </v>
   <v>       0.00101490      -0.00103190       0.01866769 </v>
   <v>       0.34618554       0.41581865      -0.47588105 </v>
   <v>      -0.00128981       0.00507655       0.09578099 </v>
   <v>       0.30181560      -0.23289207       0.16461021 </v>
   <v>       0.00296001      -0.00324097       0.01259075 </v>
   <v>       0.88571529      -1.93791184       2.86319759 </v>
   <v>      -0.00171526       0.02969282       0.06178336 </v>
   <v>       0.28594651      -0.32713350      -0.32450800 </v>
   <v>       0.00036212      -0.00265207      -0.02992858 </v>
   <v>      -0.14504941       0.57055885       1.12642065 </v>
   <v>      -0.00302758      -0.00545996      -0.03418962 </v>
   <v>      -1.23934479       2.77723720      -1.54712350 </v>
   <v>       0.00400014      -0.03444375       0.02151912 </v>
   <v>       0.02491814      -0.06338199      -0.66288382 </v>
   <v>       0.00186376       0.00430634       0.00040081 </v>
   <v>       0.17803728      -1.31117671       1.12920459 </v>
  </varray>
  <varray name="stress" >
   <v>      -6.48654041      -0.68730155       0.02872493 </v>
   <v>      -0.68730173       4.66650690     -13.59891710 </v>
   <v>       0.02872468     -13.59891721      12.89417847 </v>
  </varray>
  <energy>
   <i name="e_fr_energy">   -125.96864629 </i>
   <i name="e_wo_entrp">   -125.95292515 </i>
   <i name="e_0_energy">     -0.03144228 </i>
  </energy>
  <time name="totalsc"> 2611.40 2613.02</time>
  <eigenvalues>
   <array>
    <dimension dim="1">band</dimension>
    <dimension dim="2">kpoint</dimension>
    <dimension dim="3">spin</dimension>
    <field>eigene</field>
    <field>occ</field>
    <set>
     <set comment="spin 1">
      <set comment="kpoint 1">
       <r>  -14.0316    1.0000 </r>
       <r>  -13.6075    1.0000 </r>
       <r>  -12.8669    1.0000 </r>
       <r>  -12.7355    1.0000 </r>
       <r>  -12.5635    1.0000 </r>
       <r>  -12.3981    1.0000 </r>
       <r>  -12.1509    1.0000 </r>
       <r>  -11.9457    1.0000 </r>
       <r>  -11.4988    1.0000 </r>
       <r>  -11.3399    1.0000 </r>
       <r>  -11.0571    1.0000 </r>
       <r>  -10.6179    1.0000 </r>
       <r>   -8.2285    1.0000 </r>
       <r>   -8.0926    1.0000 </r>
       <r>   -7.8957    1.0000 </r>
       <r>   -7.7181    1.0000 </r>
       <r>   -6.9334    1.0000 </r>
       <r>   -6.7129    1.0000 </r>
       <r>   -6.5599    1.0000 </r>
       <r>   -6.2880    1.0000 </r>
       <r>   -5.8921    1.0000 </r>
       <r>   -5.7429    1.0000 </r>
       <r>   -4.9602    1.0000 </r>
       <r>   -4.7816    1.0000 </r>
       <r>   -4.1320    1.0000 </r>
       <r>   -3.8579    1.0000 </r>
       <r>   -3.7518    1.0000 </r>
       <r>   -3.4054    1.0000 </r>
       <r>   -3.3039    1.0000 </r>
       <r>   -3.1238    1.0000 </r>
       <r>   -3.0230    1.0000 </r>
       <r>   -2.9428    1.0000 </r>
       <r>   -2.9091    1.0000 </r>
       <r>   -2.8597    1.0000 </r>
       <r>   -2.5120    1.0000 </r>
       <r>   -2.4627    1.0000 </r>
       <r>   -2.4452    1.0000 </r>
       <r>   -2.3786    1.0000 </r>
       <r>   -2.2367    1.0000 </r>
       <r>   -2.1483    1.0000 </r>
       <r>   -1.9384    1.0000 </r>
       <r>   -1.7947    1.0000 </r>
       <r>   -1.7517    1.0000 </r>
       <r>   -1.7088    1.0000 </r>
       <r>   -1.6373    1.0000 </r>
       <r>   -1.6121    1.0000 </r>
       <r>   -1.4982    1.0000 </r>
       <r>   -1.4164    1.0000 </r>
       <r>   -1.2211    1.0000 </r>
       <r>   -1.1651    1.0000 </r>
       <r>   -1.0761    1.0000 </r>
       <r>   -0.6374    1.0000 </r>
       <r>   -0.3349    0.9989 </r>
       <r>    0.2096    0.0000 </r>
       <r>    0.2754    0.0000 </r>
       <r>    0.9280    0.0000 </r>
       <r>    1.0956    0.0000 </r>
       <r>    1.2503    0.0000 </r>
       <r>    1.3383    0.0000 </r>
       <r>    1.4688    0.0000 </r>
       <r>    1.6557    0.0000 </r>
       <r>    1.9105    0.0000 </r>
       <r>    1.9339    0.0000 </r>
       <r>    2.0431    0.0000 </r>
       <r>    2.3623    0.0000 </r>
       <r>    2.3982    0.0000 </r>
       <r>    2.5748    0.0000 </r>
       <r>    2.7136    0.0000 </r>
      </set>
      <set comment="kpoint 2">
       <r>  -13.9713    1.0000 </r>
       <r>  -13.5462    1.0000 </r>
       <r>  -12.8147    1.0000 </r>
       <r>  -12.6827    1.0000 </r>
       <r>  -12.5078    1.0000 </r>
       <r>  -12.3432    1.0000 </r>
       <r>  -12.0890    1.0000 </r>
       <r>  -11.8911    1.0000 </r>
       <r>  -11.4498    1.0000 </r>
       <r>  -11.2938    1.0000 </r>
       <r>  -11.0087    1.0000 </r>
       <r>  -10.5772    1.0000 </r>
       <r>   -8.2452    1.0000 </r>
       <r>   -8.1309    1.0000 </r>
       <r>   -7.8598    1.0000 </r>
       <r>   -7.6520    1.0000 </r>
       <r>   -6.9004    1.0000 </r>
       <r>   -6.7026    1.0000 </r>
       <r>   -6.5542    1.0000 </r>
       <r>   -6.3140    1.0000 </r>
       <r>   -5.8595    1.0000 </r>
       <r>   -5.7442    1.0000 </r>
       <r>   -4.9488    1.0000 </r>
       <r>   -4.7858    1.0000 </r>
       <r>   -4.1449    1.0000 </r>
       <r>   -3.8866    1.0000 </r>
       <r>   -3.7895    1.0000 </r>
       <r>   -3.7277    1.0000 </r>
       <r>   -3.5850    1.0000 </r>
       <r>   -3.3815    1.0000 </r>
       <r>   -3.3023    1.0000 </r>
       <r>   -3.2070    1.0000 </r>
       <r>   -3.0581    1.0000 </r>
       <r>   -2.9168    1.0000 </r>
       <r>   -2.8249    1.0000 </r>
       <r>   -2.7813    1.0000 </r>
       <r>   -2.5533    1.0000 </r>
       <r>   -2.5222    1.0000 </r>
       <r>   -2.3034    1.0000 </r>
       <r>   -2.2642    1.0000 </r>
       <r>   -2.1353    1.0000 </r>
       <r>   -2.0317    1.0000 </r>
       <r>   -1.9937    1.0000 </r>
       <r>   -1.9187    1.0000 </r>
       <r>   -1.8132    1.0000 </r>
       <r>   -1.7068    1.0000 </r>
       <r>   -1.5624    1.0000 </r>
       <r>   -1.3797    1.0000 </r>
       <r>   -1.1884    1.0000 </r>
       <r>   -1.1372    1.0000 </r>
       <r>   -1.0396    1.0000 </r>
       <r>   -0.6625    1.0000 </r>
       <r>   -0.3387    0.9991 </r>
       <r>   -0.0236    0.0896 </r>
       <r>    0.3869    0.0000 </r>
       <r>    1.0593    0.0000 </r>
       <r>    1.4286    0.0000 </r>
       <r>    1.4957    0.0000 </r>
       <r>    1.6933    0.0000 </r>
       <r>    1.7901    0.0000 </r>
       <r>    2.0637    0.0000 </r>
       <r>    2.1393    0.0000 </r>
       <r>    2.1903    0.0000 </r>
       <r>    2.2606    0.0000 </r>
       <r>    2.5411    0.0000 </r>
       <r>    2.6239    0.0000 </r>
       <r>    2.6998    0.0000 </r>
       <r>    2.9992    0.0000 </r>
      </set>
      <set comment="kpoint 3">
       <r>  -13.7917    1.0000 </r>
       <r>  -13.3632    1.0000 </r>
       <r>  -12.6590    1.0000 </r>
       <r>  -12.5267    1.0000 </r>
       <r>  -12.3426    1.0000 </r>
       <r>  -12.1810    1.0000 </r>
       <r>  -11.9074    1.0000 </r>
       <r>  -11.7315    1.0000 </r>
       <r>  -11.3078    1.0000 </r>
       <r>  -11.1613    1.0000 </r>
       <r>  -10.8699    1.0000 </r>
       <r>  -10.4623    1.0000 </r>
       <r>   -8.2918    1.0000 </r>
       <r>   -8.2287    1.0000 </r>
       <r>   -7.8188    1.0000 </r>
       <r>   -7.5092    1.0000 </r>
       <r>   -6.8426    1.0000 </r>
       <r>   -6.7392    1.0000 </r>
       <r>   -6.5665    1.0000 </r>
       <r>   -6.4044    1.0000 </r>
       <r>   -5.8023    1.0000 </r>
       <r>   -5.7641    1.0000 </r>
       <r>   -4.9864    1.0000 </r>
       <r>   -4.9110    1.0000 </r>
       <r>   -4.5163    1.0000 </r>
       <r>   -4.2829    1.0000 </r>
       <r>   -4.1555    1.0000 </r>
       <r>   -4.0659    1.0000 </r>
       <r>   -4.0009    1.0000 </r>
       <r>   -3.8355    1.0000 </r>
       <r>   -3.7487    1.0000 </r>
       <r>   -3.6172    1.0000 </r>
       <r>   -3.5699    1.0000 </r>
       <r>   -3.3877    1.0000 </r>
       <r>   -3.2780    1.0000 </r>
       <r>   -3.1105    1.0000 </r>
       <r>   -3.0278    1.0000 </r>
       <r>   -2.9648    1.0000 </r>
       <r>   -2.7501    1.0000 </r>
       <r>   -2.5932    1.0000 </r>
       <r>   -2.4406    1.0000 </r>
       <r>   -2.3149    1.0000 </r>
       <r>   -2.2168    1.0000 </r>
       <r>   -2.0384    1.0000 </r>
       <r>   -1.8476    1.0000 </r>
       <r>   -1.7705    1.0000 </r>
       <r>   -1.6603    1.0000 </r>
       <r>   -1.4065    1.0000 </r>
       <r>   -1.2747    1.0000 </r>
       <r>   -1.1796    1.0000 </r>
       <r>   -1.0424    1.0000 </r>
       <r>   -0.7988    1.0000 </r>
       <r>   -0.6940    1.0000 </r>
       <r>   -0.1390    0.6135 </r>
       <r>    0.5441    0.0000 </r>
       <r>    0.9647    0.0000 </r>
       <r>    1.6602    0.0000 </r>
       <r>    1.8873    0.0000 </r>
       <r>    2.1495    0.0000 </r>
       <r>    2.2066    0.0000 </r>
       <r>    2.3128    0.0000 </r>
       <r>    2.3804    0.0000 </r>
       <r>    2.5468    0.0000 </r>
       <r>    2.6052    0.0000 </r>
       <r>    2.8637    0.0000 </r>
       <r>    2.9700    0.0000 </r>
       <r>    3.0054    0.0000 </r>
       <r>    3.1684    0.0000 </r>
      </set>
      <set comment="kpoint 4">
       <r>  -13.4972    1.0000 </r>
       <r>  -13.0622    1.0000 </r>
       <r>  -12.4027    1.0000 </r>
       <r>  -12.2760    1.0000 </r>
       <r>  -12.0751    1.0000 </r>
       <r>  -11.9195    1.0000 </r>
       <r>  -11.6211    1.0000 </r>
       <r>  -11.4817    1.0000 </r>
       <r>  -11.0909    1.0000 </r>
       <r>  -10.9653    1.0000 </r>
       <r>  -10.6668    1.0000 </r>
       <r>  -10.2994    1.0000 </r>
       <r>   -8.4294    1.0000 </r>
       <r>   -8.4050    1.0000 </r>
       <r>   -7.8923    1.0000 </r>
       <r>   -7.4607    1.0000 </r>
       <r>   -7.0466    1.0000 </r>
       <r>   -6.7637    1.0000 </r>
       <r>   -6.7003    1.0000 </r>
       <r>   -6.5598    1.0000 </r>
       <r>   -5.8804    1.0000 </r>
       <r>   -5.8001    1.0000 </r>
       <r>   -5.4051    1.0000 </r>
       <r>   -5.3222    1.0000 </r>
       <r>   -4.8782    1.0000 </r>
       <r>   -4.7604    1.0000 </r>
       <r>   -4.6716    1.0000 </r>
       <r>   -4.5796    1.0000 </r>
       <r>   -4.4222    1.0000 </r>
       <r>   -4.3078    1.0000 </r>
       <r>   -4.2553    1.0000 </r>
       <r>   -4.1053    1.0000 </r>
       <r>   -3.8584    1.0000 </r>
       <r>   -3.7296    1.0000 </r>
       <r>   -3.5476    1.0000 </r>
       <r>   -3.5249    1.0000 </r>
       <r>   -3.2737    1.0000 </r>
       <r>   -3.0594    1.0000 </r>
       <r>   -2.8785    1.0000 </r>
       <r>   -2.7565    1.0000 </r>
       <r>   -2.6042    1.0000 </r>
       <r>   -2.5116    1.0000 </r>
       <r>   -2.4406    1.0000 </r>
       <r>   -1.9883    1.0000 </r>
       <r>   -1.9291    1.0000 </r>
       <r>   -1.8735    1.0000 </r>
       <r>   -1.8032    1.0000 </r>
       <r>   -1.6692    1.0000 </r>
       <r>   -1.5300    1.0000 </r>
       <r>   -1.2969    1.0000 </r>
       <r>   -1.1711    1.0000 </r>
       <r>   -1.0818    1.0000 </r>
       <r>   -0.7252    1.0000 </r>
       <r>   -0.1649    0.7439 </r>
       <r>    0.2359    0.0000 </r>
       <r>    0.7474    0.0000 </r>
       <r>    1.4853    0.0000 </r>
       <r>    1.7490    0.0000 </r>
       <r>    1.8354    0.0000 </r>
       <r>    1.9598    0.0000 </r>
       <r>    2.1841    0.0000 </r>
       <r>    2.2978    0.0000 </r>
       <r>    2.5953    0.0000 </r>
       <r>    2.6217    0.0000 </r>
       <r>    2.6986    0.0000 </r>
       <r>    2.8180    0.0000 </r>
       <r>    2.9086    0.0000 </r>
       <r>    3.0267    0.0000 </r>
      </set>
      <set comment="kpoint 5">
       <r>  -13.0974    1.0000 </r>
       <r>  -12.6504    1.0000 </r>
       <r>  -12.0544    1.0000 </r>
       <r>  -11.9510    1.0000 </r>
       <r>  -11.7220    1.0000 </r>
       <r>  -11.5783    1.0000 </r>
       <r>  -11.2658    1.0000 </r>
       <r>  -11.1781    1.0000 </r>
       <r>  -10.8464    1.0000 </r>
       <r>  -10.7680    1.0000 </r>
       <r>  -10.4809    1.0000 </r>
       <r>  -10.1512    1.0000 </r>
       <r>   -8.7212    1.0000 </r>
       <r>   -8.6853    1.0000 </r>
       <r>   -8.1522    1.0000 </r>
       <r>   -7.7081    1.0000 </r>
       <r>   -7.2539    1.0000 </r>
       <r>   -7.0627    1.0000 </r>
       <r>   -6.9692    1.0000 </r>
       <r>   -6.9000    1.0000 </r>
       <r>   -6.2279    1.0000 </r>
       <r>   -6.2078    1.0000 </r>
       <r>   -6.0308    1.0000 </r>
       <r>   -5.7433    1.0000 </r>
       <r>   -5.2770    1.0000 </r>
       <r>   -4.9992    1.0000 </r>
       <r>   -4.8713    1.0000 </r>
       <r>   -4.7742    1.0000 </r>
       <r>   -4.7147    1.0000 </r>
       <r>   -4.5143    1.0000 </r>
       <r>   -4.3763    1.0000 </r>
       <r>   -4.3213    1.0000 </r>
       <r>   -4.2672    1.0000 </r>
       <r>   -3.7964    1.0000 </r>
       <r>   -3.4783    1.0000 </r>
       <r>   -3.4546    1.0000 </r>
       <r>   -3.2195    1.0000 </r>
       <r>   -3.1308    1.0000 </r>
       <r>   -3.0776    1.0000 </r>
       <r>   -2.9410    1.0000 </r>
       <r>   -2.7532    1.0000 </r>
       <r>   -2.6880    1.0000 </r>
       <r>   -2.4633    1.0000 </r>
       <r>   -2.2517    1.0000 </r>
       <r>   -2.1222    1.0000 </r>
       <r>   -1.9677    1.0000 </r>
       <r>   -1.9405    1.0000 </r>
       <r>   -1.8911    1.0000 </r>
       <r>   -1.7743    1.0000 </r>
       <r>   -1.5085    1.0000 </r>
       <r>   -1.3565    1.0000 </r>
       <r>   -1.3014    1.0000 </r>
       <r>   -0.6705    1.0000 </r>
       <r>   -0.3376    0.9990 </r>
       <r>   -0.0314    0.1089 </r>
       <r>    0.6272    0.0000 </r>
       <r>    1.0823    0.0000 </r>
       <r>    1.3645    0.0000 </r>
       <r>    1.5366    0.0000 </r>
       <r>    1.7225    0.0000 </r>
       <r>    1.9095    0.0000 </r>
       <r>    2.1238    0.0000 </r>
       <r>    2.2149    0.0000 </r>
       <r>    2.2972    0.0000 </r>
       <r>    2.4549    0.0000 </r>
       <r>    2.6359    0.0000 </r>
       <r>    2.7163    0.0000 </r>
       <r>    2.8255    0.0000 </r>
      </set>
      <set comment="kpoint 6">
       <r>  -12.6166    1.0000 </r>
       <r>  -12.1421    1.0000 </r>
       <r>  -11.6354    1.0000 </r>
       <r>  -11.6000    1.0000 </r>
       <r>  -11.3224    1.0000 </r>
       <r>  -11.2165    1.0000 </r>
       <r>  -10.9395    1.0000 </r>
       <r>  -10.9017    1.0000 </r>
       <r>  -10.7155    1.0000 </r>
       <r>  -10.6911    1.0000 </r>
       <r>  -10.5211    1.0000 </r>
       <r>  -10.0823    1.0000 </r>
       <r>   -8.9497    1.0000 </r>
       <r>   -8.8963    1.0000 </r>
       <r>   -8.4445    1.0000 </r>
       <r>   -7.9836    1.0000 </r>
       <r>   -7.5917    1.0000 </r>
       <r>   -7.5239    1.0000 </r>
       <r>   -7.4774    1.0000 </r>
       <r>   -7.2426    1.0000 </r>
       <r>   -6.8252    1.0000 </r>
       <r>   -6.7886    1.0000 </r>
       <r>   -6.7258    1.0000 </r>
       <r>   -6.1516    1.0000 </r>
       <r>   -5.2798    1.0000 </r>
       <r>   -4.9768    1.0000 </r>
       <r>   -4.7809    1.0000 </r>
       <r>   -4.6489    1.0000 </r>
       <r>   -4.5925    1.0000 </r>
       <r>   -4.4217    1.0000 </r>
       <r>   -4.2868    1.0000 </r>
       <r>   -4.1478    1.0000 </r>
       <r>   -4.0905    1.0000 </r>
       <r>   -3.8928    1.0000 </r>
       <r>   -3.7216    1.0000 </r>
       <r>   -3.5413    1.0000 </r>
       <r>   -3.3916    1.0000 </r>
       <r>   -3.3321    1.0000 </r>
       <r>   -3.2278    1.0000 </r>
       <r>   -2.9458    1.0000 </r>
       <r>   -2.8666    1.0000 </r>
       <r>   -2.7200    1.0000 </r>
       <r>   -2.5160    1.0000 </r>
       <r>   -2.4026    1.0000 </r>
       <r>   -2.3697    1.0000 </r>
       <r>   -2.2474    1.0000 </r>
       <r>   -2.1032    1.0000 </r>
       <r>   -2.0609    1.0000 </r>
       <r>   -1.8906    1.0000 </r>
       <r>   -1.7095    1.0000 </r>
       <r>   -1.4998    1.0000 </r>
       <r>   -1.4293    1.0000 </r>
       <r>   -0.7607    1.0000 </r>
       <r>   -0.5079    1.0000 </r>
       <r>   -0.0992    0.3920 </r>
       <r>    0.5391    0.0000 </r>
       <r>    0.8339    0.0000 </r>
       <r>    1.0888    0.0000 </r>
       <r>    1.3491    0.0000 </r>
       <r>    1.6412    0.0000 </r>
       <r>    1.6494    0.0000 </r>
       <r>    1.8002    0.0000 </r>
       <r>    2.0009    0.0000 </r>
       <r>    2.0954    0.0000 </r>
       <r>    2.2095    0.0000 </r>
       <r>    2.3602    0.0000 </r>
       <r>    2.6175    0.0000 </r>
       <r>    2.7427    0.0000 </r>
      </set>
      <set comment="kpoint 7">
       <r>  -12.1460    1.0000 </r>
       <r>  -11.5687    1.0000 </r>
       <r>  -11.3714    1.0000 </r>
       <r>  -11.2127    1.0000 </r>
       <r>  -11.1564    1.0000 </r>
       <r>  -11.0164    1.0000 </r>
       <r>  -10.9091    1.0000 </r>
       <r>  -10.7995    1.0000 </r>
       <r>  -10.7869    1.0000 </r>
       <r>  -10.7036    1.0000 </r>
       <r>  -10.6930    1.0000 </r>
       <r>  -10.0608    1.0000 </r>
       <r>   -9.0383    1.0000 </r>
       <r>   -8.7536    1.0000 </r>
       <r>   -8.5074    1.0000 </r>
       <r>   -8.1955    1.0000 </r>
       <r>   -8.1425    1.0000 </r>
       <r>   -7.7155    1.0000 </r>
       <r>   -7.6375    1.0000 </r>
       <r>   -7.4832    1.0000 </r>
       <r>   -7.3523    1.0000 </r>
       <r>   -7.2917    1.0000 </r>
       <r>   -7.2419    1.0000 </r>
       <r>   -6.4194    1.0000 </r>
       <r>   -4.9858    1.0000 </r>
       <r>   -4.7919    1.0000 </r>
       <r>   -4.5979    1.0000 </r>
       <r>   -4.5451    1.0000 </r>
       <r>   -4.3412    1.0000 </r>
       <r>   -4.1845    1.0000 </r>
       <r>   -4.1234    1.0000 </r>
       <r>   -4.0845    1.0000 </r>
       <r>   -3.9989    1.0000 </r>
       <r>   -3.8953    1.0000 </r>
       <r>   -3.8274    1.0000 </r>
       <r>   -3.7068    1.0000 </r>
       <r>   -3.6316    1.0000 </r>
       <r>   -3.4000    1.0000 </r>
       <r>   -3.3207    1.0000 </r>
       <r>   -3.2594    1.0000 </r>
       <r>   -3.0649    1.0000 </r>
       <r>   -2.9063    1.0000 </r>
       <r>   -2.7530    1.0000 </r>
       <r>   -2.4378    1.0000 </r>
       <r>   -2.3745    1.0000 </r>
       <r>   -2.2911    1.0000 </r>
       <r>   -2.2299    1.0000 </r>
       <r>   -2.1419    1.0000 </r>
       <r>   -1.8224    1.0000 </r>
       <r>   -1.7386    1.0000 </r>
       <r>   -1.5937    1.0000 </r>
       <r>   -1.4442    1.0000 </r>
       <r>   -1.0366    1.0000 </r>
       <r>   -0.5065    1.0000 </r>
       <r>   -0.1186    0.5000 </r>
       <r>    0.5018    0.0000 </r>
       <r>    0.7477    0.0000 </r>
       <r>    0.8667    0.0000 </r>
       <r>    1.3103    0.0000 </r>
       <r>    1.5093    0.0000 </r>
       <r>    1.5546    0.0000 </r>
       <r>    1.6346    0.0000 </r>
       <r>    1.7925    0.0000 </r>
       <r>    1.9817    0.0000 </r>
       <r>    2.1360    0.0000 </r>
       <r>    2.3796    0.0000 </r>
       <r>    2.4448    0.0000 </r>
       <r>    2.6649    0.0000 </r>
      </set>
      <set comment="kpoint 8">
       <r>  -14.0205    1.0000 </r>
       <r>  -13.5523    1.0000 </r>
       <r>  -13.0406    1.0000 </r>
       <r>  -12.8142    1.0000 </r>
       <r>  -12.5614    1.0000 </r>
       <r>  -12.3986    1.0000 </r>
       <r>  -11.9425    1.0000 </r>
       <r>  -11.8357    1.0000 </r>
       <r>  -11.5439    1.0000 </r>
       <r>  -11.3531    1.0000 </r>
       <r>  -11.0659    1.0000 </r>
       <r>  -10.5588    1.0000 </r>
       <r>   -8.7306    1.0000 </r>
       <r>   -8.5816    1.0000 </r>
       <r>   -7.4658    1.0000 </r>
       <r>   -7.1457    1.0000 </r>
       <r>   -6.7405    1.0000 </r>
       <r>   -6.7002    1.0000 </r>
       <r>   -6.6134    1.0000 </r>
       <r>   -6.4665    1.0000 </r>
       <r>   -5.8207    1.0000 </r>
       <r>   -5.7190    1.0000 </r>
       <r>   -4.7605    1.0000 </r>
       <r>   -4.6290    1.0000 </r>
       <r>   -4.2946    1.0000 </r>
       <r>   -4.0839    1.0000 </r>
       <r>   -3.8497    1.0000 </r>
       <r>   -3.5693    1.0000 </r>
       <r>   -3.4386    1.0000 </r>
       <r>   -3.1958    1.0000 </r>
       <r>   -3.1494    1.0000 </r>
       <r>   -2.9645    1.0000 </r>
       <r>   -2.9088    1.0000 </r>
       <r>   -2.7748    1.0000 </r>
       <r>   -2.4644    1.0000 </r>
       <r>   -2.4415    1.0000 </r>
       <r>   -2.3781    1.0000 </r>
       <r>   -2.3227    1.0000 </r>
       <r>   -2.2117    1.0000 </r>
       <r>   -2.1840    1.0000 </r>
       <r>   -2.0464    1.0000 </r>
       <r>   -1.9474    1.0000 </r>
       <r>   -1.7356    1.0000 </r>
       <r>   -1.6941    1.0000 </r>
       <r>   -1.6522    1.0000 </r>
       <r>   -1.5335    1.0000 </r>
       <r>   -1.4287    1.0000 </r>
       <r>   -1.3412    1.0000 </r>
       <r>   -1.1624    1.0000 </r>
       <r>   -1.1268    1.0000 </r>
       <r>   -1.0287    1.0000 </r>
       <r>   -0.8024    1.0000 </r>
       <r>   -0.2111    0.9046 </r>
       <r>    0.2063    0.0000 </r>
       <r>    0.3285    0.0000 </r>
       <r>    0.9355    0.0000 </r>
       <r>    1.1317    0.0000 </r>
       <r>    1.2976    0.0000 </r>
       <r>    1.4459    0.0000 </r>
       <r>    1.5139    0.0000 </r>
       <r>    1.6700    0.0000 </r>
       <r>    1.7521    0.0000 </r>
       <r>    2.0097    0.0000 </r>
       <r>    2.1865    0.0000 </r>
       <r>    2.4016    0.0000 </r>
       <r>    2.4989    0.0000 </r>
       <r>    2.5855    0.0000 </r>
       <r>    2.7703    0.0000 </r>
      </set>
      <set comment="kpoint 9">
       <r>  -13.9576    1.0000 </r>
       <r>  -13.4756    1.0000 </r>
       <r>  -13.0214    1.0000 </r>
       <r>  -12.7775    1.0000 </r>
       <r>  -12.5042    1.0000 </r>
       <r>  -12.3429    1.0000 </r>
       <r>  -11.8441    1.0000 </r>
       <r>  -11.7600    1.0000 </r>
       <r>  -11.5026    1.0000 </r>
       <r>  -11.3065    1.0000 </r>
       <r>  -11.0215    1.0000 </r>
       <r>  -10.5052    1.0000 </r>
       <r>   -8.7936    1.0000 </r>
       <r>   -8.6406    1.0000 </r>
       <r>   -7.4161    1.0000 </r>
       <r>   -7.0429    1.0000 </r>
       <r>   -6.7465    1.0000 </r>
       <r>   -6.6247    1.0000 </r>
       <r>   -6.5785    1.0000 </r>
       <r>   -6.4670    1.0000 </r>
       <r>   -5.7870    1.0000 </r>
       <r>   -5.7277    1.0000 </r>
       <r>   -4.7812    1.0000 </r>
       <r>   -4.6685    1.0000 </r>
       <r>   -4.3717    1.0000 </r>
       <r>   -4.1481    1.0000 </r>
       <r>   -4.0181    1.0000 </r>
       <r>   -3.7333    1.0000 </r>
       <r>   -3.6315    1.0000 </r>
       <r>   -3.4532    1.0000 </r>
       <r>   -3.3001    1.0000 </r>
       <r>   -3.1273    1.0000 </r>
       <r>   -3.0809    1.0000 </r>
       <r>   -2.9781    1.0000 </r>
       <r>   -2.8095    1.0000 </r>
       <r>   -2.7423    1.0000 </r>
       <r>   -2.5633    1.0000 </r>
       <r>   -2.4852    1.0000 </r>
       <r>   -2.3752    1.0000 </r>
       <r>   -2.2883    1.0000 </r>
       <r>   -2.1996    1.0000 </r>
       <r>   -2.0786    1.0000 </r>
       <r>   -2.0146    1.0000 </r>
       <r>   -1.9059    1.0000 </r>
       <r>   -1.8207    1.0000 </r>
       <r>   -1.6304    1.0000 </r>
       <r>   -1.4829    1.0000 </r>
       <r>   -1.3294    1.0000 </r>
       <r>   -1.1473    1.0000 </r>
       <r>   -1.0895    1.0000 </r>
       <r>   -0.9666    1.0000 </r>
       <r>   -0.8346    1.0000 </r>
       <r>   -0.1971    0.8666 </r>
       <r>    0.0123    0.0321 </r>
       <r>    0.4214    0.0000 </r>
       <r>    1.1109    0.0000 </r>
       <r>    1.4082    0.0000 </r>
       <r>    1.5244    0.0000 </r>
       <r>    1.7029    0.0000 </r>
       <r>    1.8450    0.0000 </r>
       <r>    1.8792    0.0000 </r>
       <r>    2.1382    0.0000 </r>
       <r>    2.2278    0.0000 </r>
       <r>    2.4419    0.0000 </r>
       <r>    2.5803    0.0000 </r>
       <r>    2.6174    0.0000 </r>
       <r>    2.8375    0.0000 </r>
       <r>    2.9262    0.0000 </r>
      </set>
      <set comment="kpoint 10">
       <r>  -13.7761    1.0000 </r>
       <r>  -13.2791    1.0000 </r>
       <r>  -12.8848    1.0000 </r>
       <r>  -12.6308    1.0000 </r>
       <r>  -12.3375    1.0000 </r>
       <r>  -12.1788    1.0000 </r>
       <r>  -11.6493    1.0000 </r>
       <r>  -11.5876    1.0000 </r>
       <r>  -11.3632    1.0000 </r>
       <r>  -11.1736    1.0000 </r>
       <r>  -10.8803    1.0000 </r>
       <r>  -10.3856    1.0000 </r>
       <r>   -8.7912    1.0000 </r>
       <r>   -8.7064    1.0000 </r>
       <r>   -7.3819    1.0000 </r>
       <r>   -7.0000    1.0000 </r>
       <r>   -6.7368    1.0000 </r>
       <r>   -6.7239    1.0000 </r>
       <r>   -6.5635    1.0000 </r>
       <r>   -6.3976    1.0000 </r>
       <r>   -5.8027    1.0000 </r>
       <r>   -5.7062    1.0000 </r>
       <r>   -4.9255    1.0000 </r>
       <r>   -4.8758    1.0000 </r>
       <r>   -4.5806    1.0000 </r>
       <r>   -4.4493    1.0000 </r>
       <r>   -4.3894    1.0000 </r>
       <r>   -4.3128    1.0000 </r>
       <r>   -4.0430    1.0000 </r>
       <r>   -3.8484    1.0000 </r>
       <r>   -3.7191    1.0000 </r>
       <r>   -3.5840    1.0000 </r>
       <r>   -3.4075    1.0000 </r>
       <r>   -3.3500    1.0000 </r>
       <r>   -3.1906    1.0000 </r>
       <r>   -3.0500    1.0000 </r>
       <r>   -3.0252    1.0000 </r>
       <r>   -2.8740    1.0000 </r>
       <r>   -2.7232    1.0000 </r>
       <r>   -2.6738    1.0000 </r>
       <r>   -2.5942    1.0000 </r>
       <r>   -2.3830    1.0000 </r>
       <r>   -2.3076    1.0000 </r>
       <r>   -2.0374    1.0000 </r>
       <r>   -1.9572    1.0000 </r>
       <r>   -1.6717    1.0000 </r>
       <r>   -1.5698    1.0000 </r>
       <r>   -1.4403    1.0000 </r>
       <r>   -1.2735    1.0000 </r>
       <r>   -1.1807    1.0000 </r>
       <r>   -0.9662    1.0000 </r>
       <r>   -0.8828    1.0000 </r>
       <r>   -0.5145    1.0000 </r>
       <r>   -0.1166    0.4891 </r>
       <r>    0.5365    0.0000 </r>
       <r>    0.9872    0.0000 </r>
       <r>    1.5194    0.0000 </r>
       <r>    1.5907    0.0000 </r>
       <r>    2.0055    0.0000 </r>
       <r>    2.0783    0.0000 </r>
       <r>    2.2703    0.0000 </r>
       <r>    2.3842    0.0000 </r>
       <r>    2.6678    0.0000 </r>
       <r>    2.7906    0.0000 </r>
       <r>    2.9435    0.0000 </r>
       <r>    3.0189    0.0000 </r>
       <r>    3.0873    0.0000 </r>
       <r>    3.2457    0.0000 </r>
      </set>
      <set comment="kpoint 11">
       <r>  -13.4807    1.0000 </r>
       <r>  -12.9678    1.0000 </r>
       <r>  -12.6332    1.0000 </r>
       <r>  -12.3816    1.0000 </r>
       <r>  -12.0693    1.0000 </r>
       <r>  -11.9146    1.0000 </r>
       <r>  -11.3792    1.0000 </r>
       <r>  -11.3327    1.0000 </r>
       <r>  -11.1414    1.0000 </r>
       <r>  -10.9785    1.0000 </r>
       <r>  -10.6630    1.0000 </r>
       <r>  -10.2324    1.0000 </r>
       <r>   -8.8383    1.0000 </r>
       <r>   -8.7590    1.0000 </r>
       <r>   -7.4683    1.0000 </r>
       <r>   -7.3551    1.0000 </r>
       <r>   -6.8781    1.0000 </r>
       <r>   -6.7633    1.0000 </r>
       <r>   -6.7078    1.0000 </r>
       <r>   -6.4412    1.0000 </r>
       <r>   -5.9135    1.0000 </r>
       <r>   -5.8613    1.0000 </r>
       <r>   -5.3061    1.0000 </r>
       <r>   -5.2716    1.0000 </r>
       <r>   -5.0942    1.0000 </r>
       <r>   -4.8475    1.0000 </r>
       <r>   -4.7281    1.0000 </r>
       <r>   -4.6299    1.0000 </r>
       <r>   -4.5123    1.0000 </r>
       <r>   -4.3960    1.0000 </r>
       <r>   -4.1159    1.0000 </r>
       <r>   -4.0544    1.0000 </r>
       <r>   -3.8759    1.0000 </r>
       <r>   -3.7778    1.0000 </r>
       <r>   -3.3398    1.0000 </r>
       <r>   -3.2692    1.0000 </r>
       <r>   -3.2264    1.0000 </r>
       <r>   -3.1577    1.0000 </r>
       <r>   -2.8350    1.0000 </r>
       <r>   -2.7500    1.0000 </r>
       <r>   -2.6004    1.0000 </r>
       <r>   -2.5588    1.0000 </r>
       <r>   -2.4180    1.0000 </r>
       <r>   -2.0603    1.0000 </r>
       <r>   -1.9959    1.0000 </r>
       <r>   -1.9724    1.0000 </r>
       <r>   -1.8385    1.0000 </r>
       <r>   -1.7416    1.0000 </r>
       <r>   -1.4650    1.0000 </r>
       <r>   -1.3696    1.0000 </r>
       <r>   -1.1039    1.0000 </r>
       <r>   -1.0018    1.0000 </r>
       <r>   -0.6741    1.0000 </r>
       <r>   -0.1992    0.8728 </r>
       <r>    0.2933    0.0000 </r>
       <r>    0.5739    0.0000 </r>
       <r>    1.1445    0.0000 </r>
       <r>    1.3863    0.0000 </r>
       <r>    1.5348    0.0000 </r>
       <r>    1.7497    0.0000 </r>
       <r>    2.1386    0.0000 </r>
       <r>    2.4662    0.0000 </r>
       <r>    2.5960    0.0000 </r>
       <r>    2.6649    0.0000 </r>
       <r>    2.8654    0.0000 </r>
       <r>    2.9988    0.0000 </r>
       <r>    3.1384    0.0000 </r>
       <r>    3.1801    0.0000 </r>
      </set>
      <set comment="kpoint 12">
       <r>  -13.0816    1.0000 </r>
       <r>  -12.5512    1.0000 </r>
       <r>  -12.2739    1.0000 </r>
       <r>  -12.0470    1.0000 </r>
       <r>  -11.7169    1.0000 </r>
       <r>  -11.5701    1.0000 </r>
       <r>  -11.0798    1.0000 </r>
       <r>  -11.0351    1.0000 </r>
       <r>  -10.8777    1.0000 </r>
       <r>  -10.7821    1.0000 </r>
       <r>  -10.4573    1.0000 </r>
       <r>  -10.1166    1.0000 </r>
       <r>   -9.0374    1.0000 </r>
       <r>   -8.7697    1.0000 </r>
       <r>   -7.8812    1.0000 </r>
       <r>   -7.7746    1.0000 </r>
       <r>   -7.2234    1.0000 </r>
       <r>   -7.1751    1.0000 </r>
       <r>   -7.0274    1.0000 </r>
       <r>   -6.6389    1.0000 </r>
       <r>   -6.2958    1.0000 </r>
       <r>   -6.2542    1.0000 </r>
       <r>   -5.9846    1.0000 </r>
       <r>   -5.7826    1.0000 </r>
       <r>   -5.4462    1.0000 </r>
       <r>   -5.0136    1.0000 </r>
       <r>   -4.9595    1.0000 </r>
       <r>   -4.6911    1.0000 </r>
       <r>   -4.5602    1.0000 </r>
       <r>   -4.5042    1.0000 </r>
       <r>   -4.3981    1.0000 </r>
       <r>   -4.3285    1.0000 </r>
       <r>   -4.0755    1.0000 </r>
       <r>   -3.9481    1.0000 </r>
       <r>   -3.4081    1.0000 </r>
       <r>   -3.2468    1.0000 </r>
       <r>   -3.1554    1.0000 </r>
       <r>   -3.0567    1.0000 </r>
       <r>   -2.9515    1.0000 </r>
       <r>   -2.9201    1.0000 </r>
       <r>   -2.7303    1.0000 </r>
       <r>   -2.6008    1.0000 </r>
       <r>   -2.4868    1.0000 </r>
       <r>   -2.4207    1.0000 </r>
       <r>   -2.2948    1.0000 </r>
       <r>   -2.0254    1.0000 </r>
       <r>   -1.9931    1.0000 </r>
       <r>   -1.9209    1.0000 </r>
       <r>   -1.8073    1.0000 </r>
       <r>   -1.5021    1.0000 </r>
       <r>   -1.3640    1.0000 </r>
       <r>   -1.2412    1.0000 </r>
       <r>   -0.6870    1.0000 </r>
       <r>   -0.3197    0.9978 </r>
       <r>   -0.0929    0.3583 </r>
       <r>    0.2996    0.0000 </r>
       <r>    0.8506    0.0000 </r>
       <r>    1.1590    0.0000 </r>
       <r>    1.2243    0.0000 </r>
       <r>    1.3469    0.0000 </r>
       <r>    2.0833    0.0000 </r>
       <r>    2.1181    0.0000 </r>
       <r>    2.2362    0.0000 </r>
       <r>    2.4252    0.0000 </r>
       <r>    2.5000    0.0000 </r>
       <r>    2.5780    0.0000 </r>
       <r>    2.8673    0.0000 </r>
       <r>    3.0309    0.0000 </r>
      </set>
      <set comment="kpoint 13">
       <r>  -12.6039    1.0000 </r>
       <r>  -12.0479    1.0000 </r>
       <r>  -11.8236    1.0000 </r>
       <r>  -11.6657    1.0000 </r>
       <r>  -11.3206    1.0000 </r>
       <r>  -11.2066    1.0000 </r>
       <r>  -10.8953    1.0000 </r>
       <r>  -10.7896    1.0000 </r>
       <r>  -10.6898    1.0000 </r>
       <r>  -10.6655    1.0000 </r>
       <r>  -10.5338    1.0000 </r>
       <r>  -10.0757    1.0000 </r>
       <r>   -9.0274    1.0000 </r>
       <r>   -8.8819    1.0000 </r>
       <r>   -8.1807    1.0000 </r>
       <r>   -8.1299    1.0000 </r>
       <r>   -7.8451    1.0000 </r>
       <r>   -7.6871    1.0000 </r>
       <r>   -7.4238    1.0000 </r>
       <r>   -7.0494    1.0000 </r>
       <r>   -6.7960    1.0000 </r>
       <r>   -6.7562    1.0000 </r>
       <r>   -6.7216    1.0000 </r>
       <r>   -6.2621    1.0000 </r>
       <r>   -5.4101    1.0000 </r>
       <r>   -4.9610    1.0000 </r>
       <r>   -4.8521    1.0000 </r>
       <r>   -4.6754    1.0000 </r>
       <r>   -4.4913    1.0000 </r>
       <r>   -4.4136    1.0000 </r>
       <r>   -4.2035    1.0000 </r>
       <r>   -4.1440    1.0000 </r>
       <r>   -3.9253    1.0000 </r>
       <r>   -3.8562    1.0000 </r>
       <r>   -3.4907    1.0000 </r>
       <r>   -3.4182    1.0000 </r>
       <r>   -3.3439    1.0000 </r>
       <r>   -3.2912    1.0000 </r>
       <r>   -3.1927    1.0000 </r>
       <r>   -2.9979    1.0000 </r>
       <r>   -2.9515    1.0000 </r>
       <r>   -2.7884    1.0000 </r>
       <r>   -2.6182    1.0000 </r>
       <r>   -2.4686    1.0000 </r>
       <r>   -2.3759    1.0000 </r>
       <r>   -2.2413    1.0000 </r>
       <r>   -2.1351    1.0000 </r>
       <r>   -2.0739    1.0000 </r>
       <r>   -1.8981    1.0000 </r>
       <r>   -1.6742    1.0000 </r>
       <r>   -1.5329    1.0000 </r>
       <r>   -1.4046    1.0000 </r>
       <r>   -0.7771    1.0000 </r>
       <r>   -0.5007    1.0000 </r>
       <r>   -0.2901    0.9924 </r>
       <r>    0.2934    0.0000 </r>
       <r>    0.7451    0.0000 </r>
       <r>    0.9698    0.0000 </r>
       <r>    1.1499    0.0000 </r>
       <r>    1.2858    0.0000 </r>
       <r>    1.7531    0.0000 </r>
       <r>    1.8412    0.0000 </r>
       <r>    1.9636    0.0000 </r>
       <r>    2.1694    0.0000 </r>
       <r>    2.2089    0.0000 </r>
       <r>    2.5454    0.0000 </r>
       <r>    2.5889    0.0000 </r>
       <r>    2.8236    0.0000 </r>
      </set>
      <set comment="kpoint 14">
       <r>  -12.1418    1.0000 </r>
       <r>  -11.4990    1.0000 </r>
       <r>  -11.3649    1.0000 </r>
       <r>  -11.3284    1.0000 </r>
       <r>  -11.1915    1.0000 </r>
       <r>  -11.0283    1.0000 </r>
       <r>  -10.9304    1.0000 </r>
       <r>  -10.8033    1.0000 </r>
       <r>  -10.7657    1.0000 </r>
       <r>  -10.6550    1.0000 </r>
       <r>  -10.6459    1.0000 </r>
       <r>  -10.0625    1.0000 </r>
       <r>   -9.0135    1.0000 </r>
       <r>   -8.6203    1.0000 </r>
       <r>   -8.4658    1.0000 </r>
       <r>   -8.3964    1.0000 </r>
       <r>   -8.2399    1.0000 </r>
       <r>   -7.7359    1.0000 </r>
       <r>   -7.5841    1.0000 </r>
       <r>   -7.4877    1.0000 </r>
       <r>   -7.3822    1.0000 </r>
       <r>   -7.2214    1.0000 </r>
       <r>   -7.2018    1.0000 </r>
       <r>   -6.4380    1.0000 </r>
       <r>   -5.0864    1.0000 </r>
       <r>   -4.8826    1.0000 </r>
       <r>   -4.5733    1.0000 </r>
       <r>   -4.5316    1.0000 </r>
       <r>   -4.2930    1.0000 </r>
       <r>   -4.2244    1.0000 </r>
       <r>   -4.1396    1.0000 </r>
       <r>   -4.0389    1.0000 </r>
       <r>   -3.9925    1.0000 </r>
       <r>   -3.8779    1.0000 </r>
       <r>   -3.7270    1.0000 </r>
       <r>   -3.6784    1.0000 </r>
       <r>   -3.5590    1.0000 </r>
       <r>   -3.4295    1.0000 </r>
       <r>   -3.3272    1.0000 </r>
       <r>   -3.1010    1.0000 </r>
       <r>   -3.0373    1.0000 </r>
       <r>   -2.9047    1.0000 </r>
       <r>   -2.7087    1.0000 </r>
       <r>   -2.6639    1.0000 </r>
       <r>   -2.3907    1.0000 </r>
       <r>   -2.3247    1.0000 </r>
       <r>   -2.1920    1.0000 </r>
       <r>   -2.1560    1.0000 </r>
       <r>   -1.7854    1.0000 </r>
       <r>   -1.7568    1.0000 </r>
       <r>   -1.6168    1.0000 </r>
       <r>   -1.4108    1.0000 </r>
       <r>   -1.0112    1.0000 </r>
       <r>   -0.5148    1.0000 </r>
       <r>   -0.2651    0.9809 </r>
       <r>    0.3773    0.0000 </r>
       <r>    0.6969    0.0000 </r>
       <r>    0.9117    0.0000 </r>
       <r>    1.3600    0.0000 </r>
       <r>    1.4420    0.0000 </r>
       <r>    1.5048    0.0000 </r>
       <r>    1.6766    0.0000 </r>
       <r>    1.8707    0.0000 </r>
       <r>    2.0388    0.0000 </r>
       <r>    2.1513    0.0000 </r>
       <r>    2.3774    0.0000 </r>
       <r>    2.4234    0.0000 </r>
       <r>    2.5669    0.0000 </r>
      </set>
      <set comment="kpoint 15">
       <r>  -12.1559    1.0000 </r>
       <r>  -11.6021    1.0000 </r>
       <r>  -11.3274    1.0000 </r>
       <r>  -11.1553    1.0000 </r>
       <r>  -11.1360    1.0000 </r>
       <r>  -11.0035    1.0000 </r>
       <r>  -10.8725    1.0000 </r>
       <r>  -10.8259    1.0000 </r>
       <r>  -10.8138    1.0000 </r>
       <r>  -10.7677    1.0000 </r>
       <r>  -10.7138    1.0000 </r>
       <r>  -10.0598    1.0000 </r>
       <r>   -9.0560    1.0000 </r>
       <r>   -8.8222    1.0000 </r>
       <r>   -8.5011    1.0000 </r>
       <r>   -8.2157    1.0000 </r>
       <r>   -8.0100    1.0000 </r>
       <r>   -7.6829    1.0000 </r>
       <r>   -7.6635    1.0000 </r>
       <r>   -7.5033    1.0000 </r>
       <r>   -7.3458    1.0000 </r>
       <r>   -7.2843    1.0000 </r>
       <r>   -7.2305    1.0000 </r>
       <r>   -6.3510    1.0000 </r>
       <r>   -4.9712    1.0000 </r>
       <r>   -4.8066    1.0000 </r>
       <r>   -4.6464    1.0000 </r>
       <r>   -4.5734    1.0000 </r>
       <r>   -4.4545    1.0000 </r>
       <r>   -4.3604    1.0000 </r>
       <r>   -4.0766    1.0000 </r>
       <r>   -4.0657    1.0000 </r>
       <r>   -3.9610    1.0000 </r>
       <r>   -3.9420    1.0000 </r>
       <r>   -3.7921    1.0000 </r>
       <r>   -3.7069    1.0000 </r>
       <r>   -3.6893    1.0000 </r>
       <r>   -3.4207    1.0000 </r>
       <r>   -3.3391    1.0000 </r>
       <r>   -3.1904    1.0000 </r>
       <r>   -2.9032    1.0000 </r>
       <r>   -2.8634    1.0000 </r>
       <r>   -2.7448    1.0000 </r>
       <r>   -2.4600    1.0000 </r>
       <r>   -2.3828    1.0000 </r>
       <r>   -2.3358    1.0000 </r>
       <r>   -2.2329    1.0000 </r>
       <r>   -2.1562    1.0000 </r>
       <r>   -1.8095    1.0000 </r>
       <r>   -1.6713    1.0000 </r>
       <r>   -1.5795    1.0000 </r>
       <r>   -1.4283    1.0000 </r>
       <r>   -1.0261    1.0000 </r>
       <r>   -0.3942    1.0000 </r>
       <r>   -0.2087    0.8989 </r>
       <r>    0.4071    0.0000 </r>
       <r>    0.6368    0.0000 </r>
       <r>    1.1436    0.0000 </r>
       <r>    1.3125    0.0000 </r>
       <r>    1.5876    0.0000 </r>
       <r>    1.6707    0.0000 </r>
       <r>    1.7089    0.0000 </r>
       <r>    1.8764    0.0000 </r>
       <r>    2.0965    0.0000 </r>
       <r>    2.1979    0.0000 </r>
       <r>    2.3215    0.0000 </r>
       <r>    2.4336    0.0000 </r>
       <r>    2.5353    0.0000 </r>
      </set>
      <set comment="kpoint 16">
       <r>  -12.6262    1.0000 </r>
       <r>  -12.1685    1.0000 </r>
       <r>  -11.5503    1.0000 </r>
       <r>  -11.5128    1.0000 </r>
       <r>  -11.3205    1.0000 </r>
       <r>  -11.2343    1.0000 </r>
       <r>  -11.0479    1.0000 </r>
       <r>  -10.9873    1.0000 </r>
       <r>  -10.6948    1.0000 </r>
       <r>  -10.6897    1.0000 </r>
       <r>  -10.5166    1.0000 </r>
       <r>  -10.0640    1.0000 </r>
       <r>   -8.9311    1.0000 </r>
       <r>   -8.8081    1.0000 </r>
       <r>   -8.5583    1.0000 </r>
       <r>   -7.9729    1.0000 </r>
       <r>   -7.7011    1.0000 </r>
       <r>   -7.5066    1.0000 </r>
       <r>   -7.3958    1.0000 </r>
       <r>   -7.1756    1.0000 </r>
       <r>   -6.8731    1.0000 </r>
       <r>   -6.7328    1.0000 </r>
       <r>   -6.6834    1.0000 </r>
       <r>   -6.0739    1.0000 </r>
       <r>   -5.2788    1.0000 </r>
       <r>   -5.1234    1.0000 </r>
       <r>   -4.9218    1.0000 </r>
       <r>   -4.6773    1.0000 </r>
       <r>   -4.4644    1.0000 </r>
       <r>   -4.3330    1.0000 </r>
       <r>   -4.2615    1.0000 </r>
       <r>   -4.1619    1.0000 </r>
       <r>   -4.1250    1.0000 </r>
       <r>   -3.9305    1.0000 </r>
       <r>   -3.7889    1.0000 </r>
       <r>   -3.6541    1.0000 </r>
       <r>   -3.4702    1.0000 </r>
       <r>   -3.2621    1.0000 </r>
       <r>   -3.2409    1.0000 </r>
       <r>   -3.0470    1.0000 </r>
       <r>   -2.8305    1.0000 </r>
       <r>   -2.6871    1.0000 </r>
       <r>   -2.5570    1.0000 </r>
       <r>   -2.3915    1.0000 </r>
       <r>   -2.3228    1.0000 </r>
       <r>   -2.2300    1.0000 </r>
       <r>   -2.0792    1.0000 </r>
       <r>   -2.0044    1.0000 </r>
       <r>   -1.8741    1.0000 </r>
       <r>   -1.6391    1.0000 </r>
       <r>   -1.4461    1.0000 </r>
       <r>   -1.3869    1.0000 </r>
       <r>   -0.7734    1.0000 </r>
       <r>   -0.4362    1.0000 </r>
       <r>   -0.0970    0.3802 </r>
       <r>    0.4215    0.0000 </r>
       <r>    0.8463    0.0000 </r>
       <r>    1.2772    0.0000 </r>
       <r>    1.3452    0.0000 </r>
       <r>    1.6974    0.0000 </r>
       <r>    1.8346    0.0000 </r>
       <r>    1.8953    0.0000 </r>
       <r>    2.0356    0.0000 </r>
       <r>    2.1968    0.0000 </r>
       <r>    2.2376    0.0000 </r>
       <r>    2.3674    0.0000 </r>
       <r>    2.5096    0.0000 </r>
       <r>    2.5835    0.0000 </r>
      </set>
      <set comment="kpoint 17">
       <r>  -13.1025    1.0000 </r>
       <r>  -12.6626    1.0000 </r>
       <r>  -12.0128    1.0000 </r>
       <r>  -11.9073    1.0000 </r>
       <r>  -11.7216    1.0000 </r>
       <r>  -11.5733    1.0000 </r>
       <r>  -11.3159    1.0000 </r>
       <r>  -11.2494    1.0000 </r>
       <r>  -10.8381    1.0000 </r>
       <r>  -10.7585    1.0000 </r>
       <r>  -10.4870    1.0000 </r>
       <r>  -10.1551    1.0000 </r>
       <r>   -8.6222    1.0000 </r>
       <r>   -8.5101    1.0000 </r>
       <r>   -8.2543    1.0000 </r>
       <r>   -7.8995    1.0000 </r>
       <r>   -7.4022    1.0000 </r>
       <r>   -7.0682    1.0000 </r>
       <r>   -6.9376    1.0000 </r>
       <r>   -6.7123    1.0000 </r>
       <r>   -6.2201    1.0000 </r>
       <r>   -6.1598    1.0000 </r>
       <r>   -6.0403    1.0000 </r>
       <r>   -5.6233    1.0000 </r>
       <r>   -5.2744    1.0000 </r>
       <r>   -5.2143    1.0000 </r>
       <r>   -4.9588    1.0000 </r>
       <r>   -4.7346    1.0000 </r>
       <r>   -4.6764    1.0000 </r>
       <r>   -4.4347    1.0000 </r>
       <r>   -4.3769    1.0000 </r>
       <r>   -4.3120    1.0000 </r>
       <r>   -4.2671    1.0000 </r>
       <r>   -3.7703    1.0000 </r>
       <r>   -3.5333    1.0000 </r>
       <r>   -3.5226    1.0000 </r>
       <r>   -3.2538    1.0000 </r>
       <r>   -3.1461    1.0000 </r>
       <r>   -3.0733    1.0000 </r>
       <r>   -2.9374    1.0000 </r>
       <r>   -2.8002    1.0000 </r>
       <r>   -2.7059    1.0000 </r>
       <r>   -2.4727    1.0000 </r>
       <r>   -2.2388    1.0000 </r>
       <r>   -2.0875    1.0000 </r>
       <r>   -1.9462    1.0000 </r>
       <r>   -1.9313    1.0000 </r>
       <r>   -1.9063    1.0000 </r>
       <r>   -1.7577    1.0000 </r>
       <r>   -1.4632    1.0000 </r>
       <r>   -1.3618    1.0000 </r>
       <r>   -1.1767    1.0000 </r>
       <r>   -0.6392    1.0000 </r>
       <r>   -0.3500    0.9995 </r>
       <r>   -0.1079    0.4402 </r>
       <r>    0.5984    0.0000 </r>
       <r>    1.2893    0.0000 </r>
       <r>    1.4361    0.0000 </r>
       <r>    1.5649    0.0000 </r>
       <r>    1.8209    0.0000 </r>
       <r>    1.9048    0.0000 </r>
       <r>    1.9687    0.0000 </r>
       <r>    2.1909    0.0000 </r>
       <r>    2.3044    0.0000 </r>
       <r>    2.5156    0.0000 </r>
       <r>    2.6445    0.0000 </r>
       <r>    2.6718    0.0000 </r>
       <r>    2.7654    0.0000 </r>
      </set>
      <set comment="kpoint 18">
       <r>  -13.4976    1.0000 </r>
       <r>  -13.0579    1.0000 </r>
       <r>  -12.4173    1.0000 </r>
       <r>  -12.2716    1.0000 </r>
       <r>  -12.0751    1.0000 </r>
       <r>  -11.9159    1.0000 </r>
       <r>  -11.6050    1.0000 </r>
       <r>  -11.4939    1.0000 </r>
       <r>  -11.0946    1.0000 </r>
       <r>  -10.9661    1.0000 </r>
       <r>  -10.6654    1.0000 </r>
       <r>  -10.3008    1.0000 </r>
       <r>   -8.4667    1.0000 </r>
       <r>   -8.2106    1.0000 </r>
       <r>   -7.8503    1.0000 </r>
       <r>   -7.7946    1.0000 </r>
       <r>   -7.0529    1.0000 </r>
       <r>   -6.7598    1.0000 </r>
       <r>   -6.7038    1.0000 </r>
       <r>   -6.4461    1.0000 </r>
       <r>   -5.8096    1.0000 </r>
       <r>   -5.7894    1.0000 </r>
       <r>   -5.4004    1.0000 </r>
       <r>   -5.2214    1.0000 </r>
       <r>   -4.9148    1.0000 </r>
       <r>   -4.8774    1.0000 </r>
       <r>   -4.6655    1.0000 </r>
       <r>   -4.5837    1.0000 </r>
       <r>   -4.4294    1.0000 </r>
       <r>   -4.3427    1.0000 </r>
       <r>   -4.2501    1.0000 </r>
       <r>   -4.1152    1.0000 </r>
       <r>   -3.8453    1.0000 </r>
       <r>   -3.6886    1.0000 </r>
       <r>   -3.5278    1.0000 </r>
       <r>   -3.5056    1.0000 </r>
       <r>   -3.2287    1.0000 </r>
       <r>   -3.0546    1.0000 </r>
       <r>   -2.8643    1.0000 </r>
       <r>   -2.7633    1.0000 </r>
       <r>   -2.7048    1.0000 </r>
       <r>   -2.5780    1.0000 </r>
       <r>   -2.4702    1.0000 </r>
       <r>   -1.9784    1.0000 </r>
       <r>   -1.9181    1.0000 </r>
       <r>   -1.8654    1.0000 </r>
       <r>   -1.8369    1.0000 </r>
       <r>   -1.7094    1.0000 </r>
       <r>   -1.5214    1.0000 </r>
       <r>   -1.2286    1.0000 </r>
       <r>   -1.1810    1.0000 </r>
       <r>   -0.9789    1.0000 </r>
       <r>   -0.6572    1.0000 </r>
       <r>   -0.2270    0.9375 </r>
       <r>    0.1160    0.0005 </r>
       <r>    0.9074    0.0000 </r>
       <r>    1.5510    0.0000 </r>
       <r>    1.7536    0.0000 </r>
       <r>    1.8429    0.0000 </r>
       <r>    1.9382    0.0000 </r>
       <r>    2.0713    0.0000 </r>
       <r>    2.1890    0.0000 </r>
       <r>    2.3233    0.0000 </r>
       <r>    2.6404    0.0000 </r>
       <r>    2.7603    0.0000 </r>
       <r>    2.8535    0.0000 </r>
       <r>    2.9079    0.0000 </r>
       <r>    3.1822    0.0000 </r>
      </set>
      <set comment="kpoint 19">
       <r>  -13.7878    1.0000 </r>
       <r>  -13.3418    1.0000 </r>
       <r>  -12.7326    1.0000 </r>
       <r>  -12.5555    1.0000 </r>
       <r>  -12.3423    1.0000 </r>
       <r>  -12.1797    1.0000 </r>
       <r>  -11.8201    1.0000 </r>
       <r>  -11.6926    1.0000 </r>
       <r>  -11.3272    1.0000 </r>
       <r>  -11.1695    1.0000 </r>
       <r>  -10.8679    1.0000 </r>
       <r>  -10.4433    1.0000 </r>
       <r>   -8.4499    1.0000 </r>
[...]
       <r>    2.6757    0.0000 </r>
      </set>
      <set comment="kpoint 54">
       <r>  -12.1520    1.0000 </r>
       <r>  -11.5573    1.0000 </r>
       <r>  -11.3093    1.0000 </r>
       <r>  -11.2346    1.0000 </r>
       <r>  -11.2061    1.0000 </r>
       <r>  -11.0193    1.0000 </r>
       <r>  -10.9153    1.0000 </r>
       <r>  -10.8202    1.0000 </r>
       <r>  -10.7886    1.0000 </r>
       <r>  -10.6882    1.0000 </r>
       <r>  -10.6734    1.0000 </r>
       <r>  -10.0614    1.0000 </r>
       <r>   -9.0340    1.0000 </r>
       <r>   -8.7307    1.0000 </r>
       <r>   -8.5076    1.0000 </r>
       <r>   -8.2517    1.0000 </r>
       <r>   -8.1833    1.0000 </r>
       <r>   -7.7161    1.0000 </r>
       <r>   -7.6272    1.0000 </r>
       <r>   -7.4984    1.0000 </r>
       <r>   -7.3569    1.0000 </r>
       <r>   -7.2350    1.0000 </r>
       <r>   -7.1686    1.0000 </r>
       <r>   -6.3456    1.0000 </r>
       <r>   -5.0830    1.0000 </r>
       <r>   -5.0111    1.0000 </r>
       <r>   -4.6481    1.0000 </r>
       <r>   -4.5450    1.0000 </r>
       <r>   -4.3821    1.0000 </r>
       <r>   -4.2206    1.0000 </r>
       <r>   -4.1289    1.0000 </r>
       <r>   -4.0124    1.0000 </r>
       <r>   -3.9918    1.0000 </r>
       <r>   -3.8420    1.0000 </r>
       <r>   -3.8060    1.0000 </r>
       <r>   -3.6272    1.0000 </r>
       <r>   -3.5470    1.0000 </r>
       <r>   -3.4227    1.0000 </r>
       <r>   -3.3228    1.0000 </r>
       <r>   -3.1104    1.0000 </r>
       <r>   -3.0660    1.0000 </r>
       <r>   -2.8672    1.0000 </r>
       <r>   -2.7565    1.0000 </r>
       <r>   -2.5508    1.0000 </r>
       <r>   -2.4447    1.0000 </r>
       <r>   -2.3107    1.0000 </r>
       <r>   -2.2339    1.0000 </r>
       <r>   -2.1318    1.0000 </r>
       <r>   -1.7945    1.0000 </r>
       <r>   -1.6331    1.0000 </r>
       <r>   -1.5954    1.0000 </r>
       <r>   -1.3878    1.0000 </r>
       <r>   -1.0039    1.0000 </r>
       <r>   -0.4766    1.0000 </r>
       <r>   -0.2579    0.9756 </r>
       <r>    0.2907    0.0000 </r>
       <r>    0.6149    0.0000 </r>
       <r>    1.1279    0.0000 </r>
       <r>    1.2900    0.0000 </r>
       <r>    1.5301    0.0000 </r>
       <r>    1.5698    0.0000 </r>
       <r>    1.7771    0.0000 </r>
       <r>    1.9507    0.0000 </r>
       <r>    1.9891    0.0000 </r>
       <r>    2.1101    0.0000 </r>
       <r>    2.2841    0.0000 </r>
       <r>    2.3753    0.0000 </r>
       <r>    2.4668    0.0000 </r>
      </set>
     </set>
    </set>
   </array>
  </eigenvalues>
  <separator name="orbital magnetization" >
   <v name="MAGDIPOLOUT">      0.00000000      0.00000000      0.00000000</v>
  </separator>
  <dos>
   <i name="efermi">     -0.11857064 </i>
   <total>
    <array>
     <dimension dim="1">gridpoints</dimension>
     <dimension dim="2">spin</dimension>
     <field>energy</field>
     <field>total</field>
     <field>integrated</field>
     <set>
      <set comment="spin 1">
       <r>   -15.0316     0.0000     0.0000 </r>
       <r>   -14.9673     0.0000     0.0000 </r>
       <r>   -14.9031     0.0000     0.0000 </r>
       <r>   -14.8388     0.0000     0.0000 </r>
       <r>   -14.7745     0.0000     0.0000 </r>
       <r>   -14.7102     0.0000     0.0000 </r>
       <r>   -14.6459     0.0000     0.0000 </r>
       <r>   -14.5816     0.0000     0.0000 </r>
       <r>   -14.5174     0.0000     0.0000 </r>
       <r>   -14.4531     0.0000     0.0000 </r>
       <r>   -14.3888     0.0000     0.0000 </r>
       <r>   -14.3245     0.0000     0.0000 </r>
       <r>   -14.2602     0.0009     0.0001 </r>
       <r>   -14.1959     0.0176     0.0012 </r>
       <r>   -14.1317     0.1610     0.0115 </r>
       <r>   -14.0674     0.7472     0.0596 </r>
       <r>   -14.0031     1.8166     0.1763 </r>
       <r>   -13.9388     2.3781     0.3292 </r>
       <r>   -13.8745     1.9275     0.4531 </r>
       <r>   -13.8103     1.6974     0.5622 </r>
       <r>   -13.7460     1.7677     0.6759 </r>
       <r>   -13.6817     1.2599     0.7568 </r>
       <r>   -13.6174     1.0888     0.8268 </r>
       <r>   -13.5531     2.1444     0.9647 </r>
       <r>   -13.4888     3.4785     1.1883 </r>
       <r>   -13.4246     3.5103     1.4139 </r>
       <r>   -13.3603     2.5934     1.5807 </r>
       <r>   -13.2960     1.9538     1.7063 </r>
       <r>   -13.2317     1.7556     1.8191 </r>
       <r>   -13.1674     2.0444     1.9505 </r>
       <r>   -13.1031     3.0460     2.1463 </r>
       <r>   -13.0389     3.9754     2.4019 </r>
       <r>   -12.9746     3.9174     2.6537 </r>
       <r>   -12.9103     3.4124     2.8731 </r>
       <r>   -12.8460     3.1765     3.0773 </r>
       <r>   -12.7817     3.4107     3.2965 </r>
       <r>   -12.7175     4.2594     3.5703 </r>
       <r>   -12.6532     5.9508     3.9528 </r>
       <r>   -12.5889     7.2243     4.4172 </r>
       <r>   -12.5246     6.7642     4.8521 </r>
       <r>   -12.4603     5.6024     5.2122 </r>
       <r>   -12.3960     5.7049     5.5789 </r>
       <r>   -12.3318     6.5946     6.0028 </r>
       <r>   -12.2675     6.2478     6.4045 </r>
       <r>   -12.2032     5.9320     6.7858 </r>
       <r>   -12.1389     6.8790     7.2280 </r>
       <r>   -12.0746     7.3371     7.6996 </r>
       <r>   -12.0103     6.6493     8.1271 </r>
       <r>   -11.9461     6.1973     8.5254 </r>
       <r>   -11.8818     6.2966     8.9302 </r>
       <r>   -11.8175     6.0383     9.3184 </r>
       <r>   -11.7532     6.2325     9.7190 </r>
       <r>   -11.6889     7.2626    10.1859 </r>
       <r>   -11.6247     8.6572    10.7424 </r>
       <r>   -11.5604     9.9618    11.3827 </r>
       <r>   -11.4961     9.3306    11.9825 </r>
       <r>   -11.4318     7.7034    12.4777 </r>
       <r>   -11.3675     8.8334    13.0455 </r>
       <r>   -11.3032    11.5293    13.7867 </r>
       <r>   -11.2390    11.8185    14.5464 </r>
       <r>   -11.1747    10.9172    15.2482 </r>
       <r>   -11.1104    10.3837    15.9157 </r>
       <r>   -11.0461    10.2356    16.5736 </r>
       <r>   -10.9818    10.4280    17.2440 </r>
       <r>   -10.9175    10.4869    17.9181 </r>
       <r>   -10.8533    10.9159    18.6198 </r>
       <r>   -10.7890    11.4558    19.3562 </r>
       <r>   -10.7247    11.6350    20.1041 </r>
       <r>   -10.6604    11.0025    20.8114 </r>
       <r>   -10.5961     8.7087    21.3712 </r>
       <r>   -10.5318     6.9190    21.8160 </r>
       <r>   -10.4676     6.4381    22.2299 </r>
       <r>   -10.4033     5.0177    22.5524 </r>
       <r>   -10.3390     3.1664    22.7559 </r>
       <r>   -10.2747     2.3438    22.9066 </r>
       <r>   -10.2104     2.4122    23.0617 </r>
       <r>   -10.1462     3.2742    23.2721 </r>
       <r>   -10.0819     4.5010    23.5615 </r>
       <r>   -10.0176     4.1578    23.8288 </r>
       <r>    -9.9533     2.0813    23.9625 </r>
       <r>    -9.8890     0.5177    23.9958 </r>
       <r>    -9.8247     0.0614    23.9998 </r>
       <r>    -9.7605     0.0034    24.0000 </r>
       <r>    -9.6962     0.0001    24.0000 </r>
       <r>    -9.6319     0.0000    24.0000 </r>
       <r>    -9.5676     0.0000    24.0000 </r>
       <r>    -9.5033     0.0000    24.0000 </r>
       <r>    -9.4390     0.0000    24.0000 </r>
       <r>    -9.3748     0.0000    24.0000 </r>
       <r>    -9.3105     0.0005    24.0000 </r>
       <r>    -9.2462     0.0119    24.0008 </r>
       <r>    -9.1819     0.1479    24.0103 </r>
       <r>    -9.1176     0.8918    24.0676 </r>
       <r>    -9.0534     2.7055    24.2415 </r>
       <r>    -8.9891     4.4921    24.5303 </r>
       <r>    -8.9248     5.0581    24.8555 </r>
       <r>    -8.8605     5.6308    25.2174 </r>
       <r>    -8.7962     6.7462    25.6511 </r>
       <r>    -8.7319     6.8961    26.0944 </r>
       <r>    -8.6677     5.8814    26.4724 </r>
       <r>    -8.6034     5.1099    26.8009 </r>
       <r>    -8.5391     5.1682    27.1331 </r>
       <r>    -8.4748     5.4927    27.4862 </r>
       <r>    -8.4105     5.0742    27.8124 </r>
       <r>    -8.3462     4.0318    28.0716 </r>
       <r>    -8.2820     4.0930    28.3347 </r>
       <r>    -8.2177     5.4563    28.6854 </r>
       <r>    -8.1534     5.9405    29.0673 </r>
       <r>    -8.0891     4.6584    29.3668 </r>
       <r>    -8.0248     3.1269    29.5678 </r>
       <r>    -7.9606     2.7680    29.7457 </r>
       <r>    -7.8963     3.5639    29.9748 </r>
       <r>    -7.8320     4.6248    30.2721 </r>
       <r>    -7.7677     5.3465    30.6158 </r>
       <r>    -7.7034     6.1645    31.0120 </r>
       <r>    -7.6391     6.4609    31.4274 </r>
       <r>    -7.5749     6.2217    31.8273 </r>
       <r>    -7.5106     7.2378    32.2926 </r>
       <r>    -7.4463     8.8135    32.8591 </r>
       <r>    -7.3820     8.9375    33.4336 </r>
       <r>    -7.3177     8.2152    33.9617 </r>
       <r>    -7.2534     7.6626    34.4543 </r>
       <r>    -7.1892     6.9475    34.9009 </r>
       <r>    -7.1249     5.9264    35.2819 </r>
       <r>    -7.0606     5.8124    35.6555 </r>
       <r>    -6.9963     6.2684    36.0585 </r>
       <r>    -6.9320     6.3646    36.4676 </r>
       <r>    -6.8678     7.1824    36.9293 </r>
       <r>    -6.8035     9.7403    37.5554 </r>
       <r>    -6.7392    13.2172    38.4051 </r>
       <r>    -6.6749    13.8082    39.2927 </r>
       <r>    -6.6106    10.4777    39.9662 </r>
       <r>    -6.5463     7.1140    40.4235 </r>
       <r>    -6.4821     5.9534    40.8062 </r>
       <r>    -6.4178     6.6261    41.2322 </r>
       <r>    -6.3535     7.3169    41.7025 </r>
       <r>    -6.2892     6.9210    42.1474 </r>
       <r>    -6.2249     5.9577    42.5304 </r>
       <r>    -6.1606     4.5304    42.8216 </r>
       <r>    -6.0964     3.0434    43.0172 </r>
       <r>    -6.0321     2.5031    43.1782 </r>
       <r>    -5.9678     2.7253    43.3533 </r>
       <r>    -5.9035     3.6218    43.5862 </r>
       <r>    -5.8392     5.6896    43.9519 </r>
       <r>    -5.7749     8.0134    44.4670 </r>
       <r>    -5.7107     8.4660    45.0112 </r>
       <r>    -5.6464     6.5139    45.4300 </r>
       <r>    -5.5821     3.9539    45.6841 </r>
       <r>    -5.5178     2.3028    45.8322 </r>
       <r>    -5.4535     2.1627    45.9712 </r>
       <r>    -5.3893     3.1406    46.1731 </r>
       <r>    -5.3250     4.2331    46.4452 </r>
       <r>    -5.2607     5.0209    46.7679 </r>
       <r>    -5.1964     4.8369    47.0789 </r>
       <r>    -5.1321     4.4792    47.3668 </r>
       <r>    -5.0678     5.4777    47.7189 </r>
       <r>    -5.0036     8.0553    48.2367 </r>
       <r>    -4.9393    10.7551    48.9281 </r>
       <r>    -4.8750    11.0428    49.6379 </r>
       <r>    -4.8107     9.9544    50.2778 </r>
       <r>    -4.7464    10.1188    50.9283 </r>
       <r>    -4.6821    11.3342    51.6569 </r>
       <r>    -4.6179    12.2745    52.4459 </r>
       <r>    -4.5536    12.5608    53.2534 </r>
       <r>    -4.4893    12.5157    54.0579 </r>
       <r>    -4.4250    13.0113    54.8943 </r>
       <r>    -4.3607    13.9370    55.7902 </r>
       <r>    -4.2965    13.7253    56.6725 </r>
       <r>    -4.2322    12.6010    57.4825 </r>
       <r>    -4.1679    12.8358    58.3076 </r>
       <r>    -4.1036    14.7204    59.2539 </r>
       <r>    -4.0393    14.6740    60.1972 </r>
       <r>    -3.9750    12.2571    60.9851 </r>
       <r>    -3.9108    11.0063    61.6926 </r>
       <r>    -3.8465    12.1730    62.4751 </r>
       <r>    -3.7822    13.5594    63.3468 </r>
       <r>    -3.7179    13.3816    64.2070 </r>
       <r>    -3.6536    12.1542    64.9883 </r>
       <r>    -3.5893    11.5987    65.7339 </r>
       <r>    -3.5251    11.7817    66.4912 </r>
       <r>    -3.4608    12.2911    67.2813 </r>
       <r>    -3.3965    13.6547    68.1591 </r>
       <r>    -3.3322    15.2959    69.1423 </r>
       <r>    -3.2679    16.3014    70.1902 </r>
       <r>    -3.2037    16.1759    71.2300 </r>
       <r>    -3.1394    15.7183    72.2405 </r>
       <r>    -3.0751    15.8886    73.2618 </r>
       <r>    -3.0108    16.1002    74.2968 </r>
       <r>    -2.9465    16.1089    75.3323 </r>
       <r>    -2.8822    15.8321    76.3500 </r>
       <r>    -2.8180    15.3741    77.3383 </r>
       <r>    -2.7537    15.7743    78.3523 </r>
       <r>    -2.6894    15.4042    79.3425 </r>
       <r>    -2.6251    14.0497    80.2457 </r>
       <r>    -2.5608    14.3239    81.1665 </r>
       <r>    -2.4965    15.7460    82.1786 </r>
       <r>    -2.4323    16.9606    83.2689 </r>
       <r>    -2.3680    17.1351    84.3704 </r>
       <r>    -2.3037    16.3938    85.4242 </r>
       <r>    -2.2394    15.5971    86.4269 </r>
       <r>    -2.1751    14.7268    87.3735 </r>
       <r>    -2.1108    14.3135    88.2936 </r>
       <r>    -2.0466    15.5237    89.2915 </r>
       <r>    -1.9823    16.8575    90.3752 </r>
       <r>    -1.9180    16.8825    91.4604 </r>
       <r>    -1.8537    16.0809    92.4941 </r>
       <r>    -1.7894    15.2658    93.4755 </r>
       <r>    -1.7252    14.8146    94.4278 </r>
       <r>    -1.6609    13.9450    95.3242 </r>
       <r>    -1.5966    12.1731    96.1067 </r>
       <r>    -1.5323    11.3042    96.8334 </r>
       <r>    -1.4680    12.3514    97.6274 </r>
       <r>    -1.4037    13.3144    98.4832 </r>
       <r>    -1.3395    12.4912    99.2862 </r>
       <r>    -1.2752    10.3510    99.9516 </r>
       <r>    -1.2109     9.2658   100.5472 </r>
       <r>    -1.1466    10.0281   101.1918 </r>
       <r>    -1.0823    10.8007   101.8861 </r>
       <r>    -1.0180    10.6564   102.5712 </r>
       <r>    -0.9538     8.9973   103.1495 </r>
       <r>    -0.8895     6.3250   103.5561 </r>
       <r>    -0.8252     5.1594   103.8878 </r>
       <r>    -0.7609     5.6686   104.2522 </r>
       <r>    -0.6966     6.3185   104.6583 </r>
       <r>    -0.6324     6.1055   105.0508 </r>
       <r>    -0.5681     5.0312   105.3742 </r>
       <r>    -0.5038     4.4873   105.6627 </r>
       <r>    -0.4395     4.3471   105.9421 </r>
       <r>    -0.3752     4.4853   106.2305 </r>
       <r>    -0.3109     5.7198   106.5981 </r>
       <r>    -0.2467     7.2185   107.0622 </r>
       <r>    -0.1824     7.6936   107.5567 </r>
       <r>    -0.1181     6.9424   108.0030 </r>
       <r>    -0.0538     5.4718   108.3547 </r>
       <r>     0.0105     3.8106   108.5997 </r>
       <r>     0.0748     2.4016   108.7541 </r>
       <r>     0.1390     1.9800   108.8814 </r>
       <r>     0.2033     2.8568   109.0650 </r>
       <r>     0.2676     4.1488   109.3317 </r>
       <r>     0.3319     4.8710   109.6448 </r>
       <r>     0.3962     4.8601   109.9572 </r>
       <r>     0.4604     4.5163   110.2476 </r>
       <r>     0.5247     4.4161   110.5314 </r>
       <r>     0.5890     4.5024   110.8209 </r>
       <r>     0.6533     4.0080   111.0785 </r>
       <r>     0.7176     3.4051   111.2974 </r>
       <r>     0.7819     3.3081   111.5100 </r>
       <r>     0.8461     3.7606   111.7518 </r>
       <r>     0.9104     4.5033   112.0413 </r>
       <r>     0.9747     4.8891   112.3555 </r>
       <r>     1.0390     5.4326   112.7048 </r>
       <r>     1.1033     6.6961   113.1352 </r>
       <r>     1.1676     7.3138   113.6054 </r>
       <r>     1.2318     6.9866   114.0545 </r>
       <r>     1.2961     7.4359   114.5325 </r>
       <r>     1.3604     8.2751   115.0644 </r>
       <r>     1.4247     8.7145   115.6246 </r>
       <r>     1.4890     9.9332   116.2631 </r>
       <r>     1.5532    11.1910   116.9825 </r>
       <r>     1.6175    11.1522   117.6994 </r>
       <r>     1.6818    11.4799   118.4374 </r>
       <r>     1.7461    12.1781   119.2202 </r>
       <r>     1.8104    11.8794   119.9838 </r>
       <r>     1.8747    11.1521   120.7007 </r>
       <r>     1.9389    10.8391   121.3975 </r>
       <r>     2.0032    11.3123   122.1247 </r>
       <r>     2.0675    12.7423   122.9438 </r>
       <r>     2.1318    15.0320   123.9101 </r>
       <r>     2.1961    16.3680   124.9622 </r>
       <r>     2.2604    15.0401   125.9291 </r>
       <r>     2.3246    12.9480   126.7614 </r>
       <r>     2.3889    12.5657   127.5691 </r>
       <r>     2.4532    12.8279   128.3937 </r>
       <r>     2.5175    13.0484   129.2325 </r>
       <r>     2.5818    14.1984   130.1452 </r>
       <r>     2.6461    14.7439   131.0930 </r>
       <r>     2.7103    13.4067   131.9548 </r>
       <r>     2.7746    11.3336   132.6834 </r>
       <r>     2.8389     9.9585   133.3235 </r>
       <r>     2.9032     9.2480   133.9180 </r>
       <r>     2.9675     8.4253   134.4596 </r>
       <r>     3.0317     7.2531   134.9259 </r>
       <r>     3.0960     5.7636   135.2964 </r>
       <r>     3.1603     4.5318   135.5877 </r>
       <r>     3.2246     3.4812   135.8115 </r>
       <r>     3.2889     2.0286   135.9419 </r>
       <r>     3.3532     0.7367   135.9892 </r>
       <r>     3.4174     0.1507   135.9989 </r>
       <r>     3.4817     0.0161   135.9999 </r>
       <r>     3.5460     0.0009   136.0000 </r>
       <r>     3.6103     0.0000   136.0000 </r>
       <r>     3.6746     0.0000   136.0000 </r>
       <r>     3.7389     0.0000   136.0000 </r>
       <r>     3.8031     0.0000   136.0000 </r>
       <r>     3.8674     0.0000   136.0000 </r>
       <r>     3.9317     0.0000   136.0000 </r>
       <r>     3.9960     0.0000   136.0000 </r>
       <r>     4.0603     0.0000   136.0000 </r>
       <r>     4.1245     0.0000   136.0000 </r>
       <r>     4.1888     0.0000   136.0000 </r>
       <r>     4.2531     0.0000   136.0000 </r>
      </set>
     </set>
    </array>
   </total>
  </dos>
 </calculation>
 <structure name="finalpos" >
  <crystal>
   <varray name="basis" >
    <v>       3.54040000       0.00000000       0.00000000 </v>
    <v>      -1.77020000      10.29434800       0.00000000 </v>
    <v>       0.00000000       0.00000000      27.50142900 </v>
   </varray>
   <i name="volume">   1002.32009712 </i>
   <varray name="rec_basis" >
    <v>       0.28245396       0.04857034       0.00000000 </v>
    <v>       0.00000000       0.09714068       0.00000000 </v>
    <v>       0.00000000       0.00000000       0.03636175 </v>
   </varray>
  </crystal>
  <varray name="positions" >
   <v>       0.11402300       0.22804500       0.23316207 </v>
   <v>       0.91402300       0.32804500       0.51499159 </v>
   <v>       0.45808900       0.91617900       0.20939482 </v>
   <v>       0.25808900       0.01617900       0.49122434 </v>
   <v>       0.31085400       0.62170900       0.08414979 </v>
   <v>       0.31085400       0.62170900       0.36597930 </v>
   <v>       0.99923000       0.99846000       0.08631254 </v>
   <v>       0.99923000       0.99846000       0.36814206 </v>
   <v>       0.65492700       0.30985400       0.06041748 </v>
   <v>       0.65492700       0.30985400       0.34224700 </v>
   <v>       0.76973800       0.53947500       0.20725292 </v>
   <v>       0.56973800       0.63947500       0.48908244 </v>
   <v>       0.93971600       0.87943300       0.15783749 </v>
   <v>       0.73971600       0.97943300       0.43966701 </v>
   <v>       0.20515200       0.41030300       0.18578822 </v>
   <v>       0.00515200       0.51030300       0.46761774 </v>
   <v>       0.20184900       0.40369900       0.09969156 </v>
   <v>       0.20184900       0.40369900       0.38152107 </v>
   <v>       0.56380500       0.12761000       0.10779021 </v>
   <v>       0.56380500       0.12761000       0.38961973 </v>
   <v>       0.56710600       0.13421200       0.19387616 </v>
   <v>       0.36710600       0.23421200       0.47570568 </v>
   <v>       0.82923400       0.65846800       0.13571444 </v>
   <v>       0.62923400       0.75846800       0.41754396 </v>
  </varray>
 </structure>
</modeling>
