<?xml version="1.0" encoding="ISO-8859-1"?>
<modeling>
 <generator>
  <i name="program" type="string">vasp </i>
  <i name="version" type="string">5.4.1  </i>
  <i name="subversion" type="string">24Jun15 (build May 10 2016 14:18:23) complex                          parallel </i>
  <i name="platform" type="string">IFC91_ompi </i>
  <i name="date" type="string">2016 12 09 </i>
  <i name="time" type="string">14:59:17 </i>
 </generator>
 <incar>
  <i type="string" name="PREC">accurate</i>
  <i type="string" name="ALGO"> Fast</i>
  <i type="int" name="ISPIN">     2</i>
  <i type="int" name="IBRION">     2</i>
  <i name="EDIFF">      0.00010000</i>
  <i type="int" name="NSW">     0</i>
  <i type="int" name="ISIF">     3</i>
  <i name="ENCUT">    500.00000000</i>
  <v name="MAGMOM">      6.00000000      0.50000000      0.50000000      6.00000000      0.50000000      0.50000000</v>
  <i type="string" name="LREAL"> Auto</i>
  <i type="int" name="ISMEAR">     1</i>
  <i name="SIGMA">      0.10000000</i>
  <i type="logical" name="LWAVE"> F  </i>
  <i type="logical" name="LCHARG"> F  </i>
  <i type="logical" name="LVTOT"> T  </i>
  <i type="logical" name="LVHAR"> T  </i>
  <i type="logical" name="LAECHG"> F  </i>
  <v type="int" name="KPOINT_BSE">    -1     0     0     0</v>
  <i type="string" name="GGA"> Bo</i>
  <i name="PARAM1">      0.18333333</i>
  <i name="PARAM2">      0.22000000</i>
  <i type="logical" name="LUSE_VDW"> T  </i>
  <i name="AGGAC">      0.00000000</i>
 </incar>
 <kpoints>
  <generation param="Gamma">
   <v type="int" name="divisions">      13       13        1 </v>
   <v name="usershift">      0.00000000       0.00000000       0.00000000 </v>
   <v name="genvec1">      0.07692308       0.00000000       0.00000000 </v>
   <v name="genvec2">      0.00000000       0.07692308       0.00000000 </v>
   <v name="genvec3">      0.00000000       0.00000000       1.00000000 </v>
   <v name="shift">      0.00000000       0.00000000       0.00000000 </v>
  </generation>
  <varray name="kpointlist" >
   <v>       0.00000000       0.00000000       0.00000000 </v>
   <v>       0.07692308      -0.00000000       0.00000000 </v>
   <v>       0.15384615       0.00000000       0.00000000 </v>
   <v>       0.23076923       0.00000000       0.00000000 </v>
   <v>       0.30769231      -0.00000000       0.00000000 </v>
   <v>       0.38461538       0.00000000       0.00000000 </v>
   <v>       0.46153846       0.00000000       0.00000000 </v>
   <v>       0.00000000       0.07692308       0.00000000 </v>
   <v>       0.07692308       0.07692308       0.00000000 </v>
   <v>       0.15384615       0.07692308       0.00000000 </v>
   <v>       0.23076923       0.07692308       0.00000000 </v>
   <v>       0.30769231       0.07692308       0.00000000 </v>
   <v>       0.38461538       0.07692308       0.00000000 </v>
   <v>       0.46153846       0.07692308       0.00000000 </v>
   <v>      -0.46153846       0.07692308       0.00000000 </v>
   <v>      -0.38461538       0.07692308       0.00000000 </v>
   <v>      -0.30769231       0.07692308       0.00000000 </v>
   <v>      -0.23076923       0.07692308       0.00000000 </v>
   <v>      -0.15384615       0.07692308       0.00000000 </v>
   <v>      -0.07692308       0.07692308       0.00000000 </v>
   <v>       0.00000000       0.15384615       0.00000000 </v>
   <v>       0.07692308       0.15384615       0.00000000 </v>
   <v>       0.15384615       0.15384615       0.00000000 </v>
   <v>       0.23076923       0.15384615       0.00000000 </v>
   <v>       0.30769231       0.15384615       0.00000000 </v>
   <v>       0.38461538       0.15384615       0.00000000 </v>
   <v>       0.46153846       0.15384615       0.00000000 </v>
   <v>      -0.46153846       0.15384615       0.00000000 </v>
   <v>      -0.38461538       0.15384615       0.00000000 </v>
   <v>      -0.30769231       0.15384615       0.00000000 </v>
   <v>      -0.23076923       0.15384615       0.00000000 </v>
   <v>      -0.15384615       0.15384615       0.00000000 </v>
   <v>      -0.07692308       0.15384615       0.00000000 </v>
   <v>       0.00000000       0.23076923       0.00000000 </v>
   <v>       0.07692308       0.23076923       0.00000000 </v>
   <v>       0.15384615       0.23076923       0.00000000 </v>
   <v>       0.23076923       0.23076923       0.00000000 </v>
   <v>       0.30769231       0.23076923       0.00000000 </v>
   <v>       0.38461538       0.23076923       0.00000000 </v>
   <v>       0.46153846       0.23076923       0.00000000 </v>
   <v>      -0.46153846       0.23076923       0.00000000 </v>
   <v>      -0.38461538       0.23076923       0.00000000 </v>
   <v>      -0.30769231       0.23076923       0.00000000 </v>
   <v>      -0.23076923       0.23076923       0.00000000 </v>
   <v>      -0.15384615       0.23076923       0.00000000 </v>
   <v>      -0.07692308       0.23076923       0.00000000 </v>
   <v>       0.00000000       0.30769231       0.00000000 </v>
   <v>       0.07692308       0.30769231       0.00000000 </v>
   <v>       0.15384615       0.30769231       0.00000000 </v>
   <v>       0.23076923       0.30769231       0.00000000 </v>
   <v>       0.30769231       0.30769231       0.00000000 </v>
   <v>       0.38461538       0.30769231       0.00000000 </v>
   <v>       0.46153846       0.30769231       0.00000000 </v>
   <v>      -0.46153846       0.30769231       0.00000000 </v>
   <v>      -0.38461538       0.30769231       0.00000000 </v>
   <v>      -0.30769231       0.30769231       0.00000000 </v>
   <v>      -0.23076923       0.30769231       0.00000000 </v>
   <v>      -0.15384615       0.30769231       0.00000000 </v>
   <v>      -0.07692308       0.30769231       0.00000000 </v>
   <v>       0.00000000       0.38461538       0.00000000 </v>
   <v>       0.07692308       0.38461538       0.00000000 </v>
   <v>       0.15384615       0.38461538       0.00000000 </v>
   <v>       0.23076923       0.38461538       0.00000000 </v>
   <v>       0.30769231       0.38461538       0.00000000 </v>
   <v>       0.38461538       0.38461538       0.00000000 </v>
   <v>       0.46153846       0.38461538       0.00000000 </v>
   <v>      -0.46153846       0.38461538       0.00000000 </v>
   <v>      -0.38461538       0.38461538       0.00000000 </v>
   <v>      -0.30769231       0.38461538       0.00000000 </v>
   <v>      -0.23076923       0.38461538       0.00000000 </v>
   <v>      -0.15384615       0.38461538       0.00000000 </v>
   <v>      -0.07692308       0.38461538       0.00000000 </v>
   <v>       0.00000000       0.46153846       0.00000000 </v>
   <v>       0.07692308       0.46153846       0.00000000 </v>
   <v>       0.15384615       0.46153846       0.00000000 </v>
   <v>       0.23076923       0.46153846       0.00000000 </v>
   <v>       0.30769231       0.46153846       0.00000000 </v>
   <v>       0.38461538       0.46153846       0.00000000 </v>
   <v>       0.46153846       0.46153846       0.00000000 </v>
   <v>      -0.46153846       0.46153846       0.00000000 </v>
   <v>      -0.38461538       0.46153846       0.00000000 </v>
   <v>      -0.30769231       0.46153846       0.00000000 </v>
   <v>      -0.23076923       0.46153846       0.00000000 </v>
   <v>      -0.15384615       0.46153846       0.00000000 </v>
   <v>      -0.07692308       0.46153846       0.00000000 </v>
  </varray>
  <varray name="weights" >
   <v>       0.00591716 </v>
   <v>       0.01183432 </v>
   <v>       0.01183432 </v>
   <v>       0.01183432 </v>
   <v>       0.01183432 </v>
   <v>       0.01183432 </v>
   <v>       0.01183432 </v>
   <v>       0.01183432 </v>
   <v>       0.01183432 </v>
   <v>       0.01183432 </v>
   <v>       0.01183432 </v>
   <v>       0.01183432 </v>
   <v>       0.01183432 </v>
   <v>       0.01183432 </v>
   <v>       0.01183432 </v>
   <v>       0.01183432 </v>
   <v>       0.01183432 </v>
   <v>       0.01183432 </v>
   <v>       0.01183432 </v>
   <v>       0.01183432 </v>
   <v>       0.01183432 </v>
   <v>       0.01183432 </v>
   <v>       0.01183432 </v>
   <v>       0.01183432 </v>
   <v>       0.01183432 </v>
   <v>       0.01183432 </v>
   <v>       0.01183432 </v>
   <v>       0.01183432 </v>
   <v>       0.01183432 </v>
   <v>       0.01183432 </v>
   <v>       0.01183432 </v>
   <v>       0.01183432 </v>
   <v>       0.01183432 </v>
   <v>       0.01183432 </v>
   <v>       0.01183432 </v>
   <v>       0.01183432 </v>
   <v>       0.01183432 </v>
   <v>       0.01183432 </v>
   <v>       0.01183432 </v>
   <v>       0.01183432 </v>
   <v>       0.01183432 </v>
   <v>       0.01183432 </v>
   <v>       0.01183432 </v>
   <v>       0.01183432 </v>
   <v>       0.01183432 </v>
   <v>       0.01183432 </v>
   <v>       0.01183432 </v>
   <v>       0.01183432 </v>
   <v>       0.01183432 </v>
   <v>       0.01183432 </v>
   <v>       0.01183432 </v>
   <v>       0.01183432 </v>
   <v>       0.01183432 </v>
   <v>       0.01183432 </v>
   <v>       0.01183432 </v>
   <v>       0.01183432 </v>
   <v>       0.01183432 </v>
   <v>       0.01183432 </v>
   <v>       0.01183432 </v>
   <v>       0.01183432 </v>
   <v>       0.01183432 </v>
   <v>       0.01183432 </v>
   <v>       0.01183432 </v>
   <v>       0.01183432 </v>
   <v>       0.01183432 </v>
   <v>       0.01183432 </v>
   <v>       0.01183432 </v>
   <v>       0.01183432 </v>
   <v>       0.01183432 </v>
   <v>       0.01183432 </v>
   <v>       0.01183432 </v>
   <v>       0.01183432 </v>
   <v>       0.01183432 </v>
   <v>       0.01183432 </v>
   <v>       0.01183432 </v>
   <v>       0.01183432 </v>
   <v>       0.01183432 </v>
   <v>       0.01183432 </v>
   <v>       0.01183432 </v>
   <v>       0.01183432 </v>
   <v>       0.01183432 </v>
   <v>       0.01183432 </v>
   <v>       0.01183432 </v>
   <v>       0.01183432 </v>
   <v>       0.01183432 </v>
  </varray>
 </kpoints>
 <parameters>
  <separator name="general" >
   <i type="string" name="SYSTEM">unknown system</i>
   <i type="logical" name="LCOMPAT"> F  </i>
  </separator>
  <separator name="electronic" >
   <i type="string" name="PREC">accura</i>
   <i name="ENMAX">    500.00000000</i>
   <i name="ENAUG">    392.42700000</i>
   <i name="EDIFF">      0.00010000</i>
   <i type="int" name="IALGO">    68</i>
   <i type="int" name="IWAVPR">    10</i>
   <i type="int" name="NBANDS">    36</i>
   <i name="NELECT">     48.00000000</i>
   <i type="int" name="TURBO">     0</i>
   <i type="int" name="IRESTART">     0</i>
   <i type="int" name="NREBOOT">     0</i>
   <i type="int" name="NMIN">     0</i>
   <i name="EREF">      0.00000000</i>
   <separator name="electronic smearing" >
    <i type="int" name="ISMEAR">     1</i>
    <i name="SIGMA">      0.10000000</i>
    <i name="KSPACING">      0.50000000</i>
    <i type="logical" name="KGAMMA"> T  </i>
   </separator>
   <separator name="electronic projectors" >
    <i type="logical" name="LREAL"> T  </i>
    <v name="ROPT">     -0.00025000     -0.00025000     -0.00025000     -0.00025000</v>
    <i type="int" name="LMAXPAW">  -100</i>
    <i type="int" name="LMAXMIX">     2</i>
    <i type="logical" name="NLSPLINE"> F  </i>
   </separator>
   <separator name="electronic startup" >
    <i type="int" name="ISTART">     0</i>
    <i type="int" name="ICHARG">     2</i>
    <i type="int" name="INIWAV">     1</i>
   </separator>
   <separator name="electronic spin" >
    <i type="int" name="ISPIN">     2</i>
    <i type="logical" name="LNONCOLLINEAR"> F  </i>
    <v name="MAGMOM">      6.00000000      0.50000000      0.50000000      6.00000000      0.50000000      0.50000000</v>
    <i name="NUPDOWN">     -1.00000000</i>
    <i type="logical" name="LSORBIT"> F  </i>
    <v name="SAXIS">      0.00000000      0.00000000      1.00000000</v>
    <i type="logical" name="LSPIRAL"> F  </i>
    <v name="QSPIRAL">      0.00000000      0.00000000      0.00000000</v>
    <i type="logical" name="LZEROZ"> F  </i>
   </separator>
   <separator name="electronic exchange-correlation" >
    <i type="logical" name="LASPH"> F  </i>
    <i type="logical" name="LMETAGGA"> F  </i>
   </separator>
   <separator name="electronic convergence" >
    <i type="int" name="NELM">    60</i>
    <i type="int" name="NELMDL">     0</i>
    <i type="int" name="NELMIN">     2</i>
    <i name="ENINI">    500.00000000</i>
    <separator name="electronic convergence detail" >
     <i type="logical" name="LDIAG"> T  </i>
     <i type="logical" name="LSUBROT"> F  </i>
     <i name="WEIMIN">      0.00000000</i>
     <i name="EBREAK">      0.00000069</i>
     <i name="DEPER">      0.30000000</i>
     <i type="int" name="NRMM">     4</i>
     <i name="TIME">      0.40000000</i>
    </separator>
   </separator>
   <separator name="electronic mixer" >
    <i name="AMIX">      0.40000000</i>
    <i name="BMIX">      1.00000000</i>
    <i name="AMIN">      0.10000000</i>
    <i name="AMIX_MAG">      1.60000000</i>
    <i name="BMIX_MAG">      1.00000000</i>
    <separator name="electronic mixer details" >
     <i type="int" name="IMIX">     4</i>
     <i type="logical" name="MIXFIRST"> F  </i>
     <i type="int" name="MAXMIX">   -45</i>
     <i name="WC">    100.00000000</i>
     <i type="int" name="INIMIX">     1</i>
     <i type="int" name="MIXPRE">     1</i>
     <i type="int" name="MREMOVE">     5</i>
    </separator>
   </separator>
   <separator name="electronic dipolcorrection" >
    <i type="logical" name="LDIPOL"> F  </i>
    <i type="logical" name="LMONO"> F  </i>
    <i type="int" name="IDIPOL">     0</i>
    <i name="EPSILON">      1.00000000</i>
    <v name="DIPOL">   -100.00000000   -100.00000000   -100.00000000</v>
    <i name="EFIELD">      0.00000000</i>
   </separator>
  </separator>
  <separator name="grids" >
   <i type="int" name="NGX">    24</i>
   <i type="int" name="NGY">    24</i>
   <i type="int" name="NGZ">   180</i>
   <i type="int" name="NGXF">    48</i>
   <i type="int" name="NGYF">    48</i>
   <i type="int" name="NGZF">   360</i>
   <i type="logical" name="ADDGRID"> F  </i>
  </separator>
  <separator name="ionic" >
   <i type="int" name="NSW">     0</i>
   <i type="int" name="IBRION">    -1</i>
   <i type="int" name="ISIF">     3</i>
   <i name="PSTRESS">      0.00000000</i>
   <i name="EDIFFG">      0.00100000</i>
   <i type="int" name="NFREE">     1</i>
   <i name="POTIM">      0.50000000</i>
   <i name="SMASS">     -3.00000000</i>
   <i name="SCALEE">      1.00000000</i>
  </separator>
  <separator name="ionic md" >
   <i name="TEBEG">      0.00010000</i>
   <i name="TEEND">      0.00010000</i>
   <i type="int" name="NBLOCK">     1</i>
   <i type="int" name="KBLOCK">     1</i>
   <i type="int" name="NPACO">   256</i>
   <i name="APACO">     16.00000000</i>
  </separator>
  <separator name="symmetry" >
   <i type="int" name="ISYM">     2</i>
   <i name="SYMPREC">      0.00001000</i>
  </separator>
  <separator name="dos" >
   <i type="logical" name="LORBIT"> F  </i>
   <v name="RWIGS">     -1.00000000     -1.00000000     -1.00000000     -1.00000000</v>
   <i type="int" name="NEDOS">   301</i>
   <i name="EMIN">     10.00000000</i>
   <i name="EMAX">    -10.00000000</i>
   <i name="EFERMI">      0.00000000</i>
  </separator>
  <separator name="writing" >
   <i type="int" name="NWRITE">     2</i>
   <i type="logical" name="LWAVE"> F  </i>
   <i type="logical" name="LCHARG"> F  </i>
   <i type="logical" name="LPARD"> F  </i>
   <i type="logical" name="LVTOT"> F  </i>
   <i type="logical" name="LVHAR"> T  </i>
   <i type="logical" name="LELF"> F  </i>
   <i type="logical" name="LOPTICS"> F  </i>
   <v name="STM">      0.00000000      0.00000000      0.00000000      0.00000000      0.00000000      0.00000000      0.00000000</v>
  </separator>
  <separator name="performance" >
   <i type="int" name="NPAR">     4</i>
   <i type="int" name="NSIM">     4</i>
   <i type="int" name="NBLK">    -1</i>
   <i type="logical" name="LPLANE"> T  </i>
   <i type="logical" name="LSCALAPACK"> T  </i>
   <i type="logical" name="LSCAAWARE"> F  </i>
   <i type="logical" name="LSCALU"> F  </i>
   <i type="logical" name="LASYNC"> F  </i>
   <i type="logical" name="LORBITALREAL"> F  </i>
  </separator>
  <separator name="miscellaneous" >
   <i type="int" name="IDIOT">     3</i>
   <i type="logical" name="LMUSIC"> F  </i>
   <v name="POMASS">     95.94000000     32.06600000     95.94000000     32.06600000</v>
   <v name="DARWINR">      0.00000000      0.00000000      0.00000000      0.00000000</v>
   <v name="DARWINV">      1.00000000      1.00000000      1.00000000      1.00000000</v>
   <i type="logical" name="LCORR"> T  </i>
  </separator>
  <i type="logical" name="GGA_COMPAT"> T  </i>
  <i type="logical" name="LBERRY"> F  </i>
  <i type="int" name="ICORELEVEL">     0</i>
  <i type="logical" name="LDAU"> F  </i>
  <i type="int" name="I_CONSTRAINED_M">     0</i>
  <separator name="electronic exchange-correlation" >
   <i type="string" name="GGA">BO</i>
   <i type="int" name="VOSKOWN">     0</i>
   <i type="logical" name="LHFCALC"> F  </i>
   <i type="string" name="PRECFOCK"></i>
   <i type="logical" name="LSYMGRAD"> F  </i>
   <i type="logical" name="LHFONE"> F  </i>
   <i type="logical" name="LRHFCALC"> F  </i>
   <i type="logical" name="LTHOMAS"> F  </i>
   <i type="logical" name="LMODELHF"> F  </i>
   <i name="ENCUT4O">     -1.00000000</i>
   <i type="int" name="EXXOEP">     0</i>
   <i type="int" name="FOURORBIT">     0</i>
   <i name="AEXX">      0.00000000</i>
   <i name="HFALPHA">      0.00000000</i>
   <i name="MCALPHA">      0.00000000</i>
   <i name="ALDAX">      1.00000000</i>
   <i name="AGGAX">      1.00000000</i>
   <i name="ALDAC">      1.00000000</i>
   <i name="AGGAC">      0.00000000</i>
   <i type="int" name="NKREDX">     1</i>
   <i type="int" name="NKREDY">     1</i>
   <i type="int" name="NKREDZ">     1</i>
   <i type="logical" name="SHIFTRED"> F  </i>
   <i type="logical" name="ODDONLY"> F  </i>
   <i type="logical" name="EVENONLY"> F  </i>
   <i type="int" name="LMAXFOCK">     0</i>
   <i type="int" name="NMAXFOCKAE">     0</i>
   <i type="logical" name="LFOCKAEDFT"> F  </i>
   <i name="HFSCREEN">      0.00000000</i>
   <i name="HFSCREENC">      0.00000000</i>
   <i type="int" name="NBANDSGWLOW">     0</i>
  </separator>
  <separator name="vdW DFT" >
   <i type="logical" name="LUSE_VDW"> T  </i>
   <i name="Zab_VDW">     -0.84910000</i>
   <i name="PARAM1">      0.18333333</i>
   <i name="PARAM2">      0.22000000</i>
   <i name="PARAM3">      0.00000000</i>
  </separator>
  <separator name="model GW" >
   <i type="int" name="MODEL_GW">     0</i>
   <i name="MODEL_EPS0">     20.39722663</i>
   <i name="MODEL_ALPHA">      1.00000000</i>
  </separator>
  <separator name="linear response parameters" >
   <i type="logical" name="LEPSILON"> F  </i>
   <i type="logical" name="LRPA"> F  </i>
   <i type="logical" name="LNABLA"> F  </i>
   <i type="logical" name="LVEL"> F  </i>
   <i type="int" name="KINTER">     0</i>
   <i name="CSHIFT">      0.10000000</i>
   <i name="OMEGAMAX">     -1.00000000</i>
   <i name="DEG_THRESHOLD">      0.00200000</i>
  </separator>
  <separator name="orbital magnetization" >
   <i type="logical" name="NUCIND"> F  </i>
   <v name="MAGPOS">      0.00000000      0.00000000      0.00000000</v>
   <i type="logical" name="LNICSALL"> T  </i>
   <i type="logical" name="ORBITALMAG"> F  </i>
   <i type="logical" name="LMAGBLOCH"> F  </i>
   <i type="logical" name="LCHIMAG"> F  </i>
   <i type="logical" name="LGAUGE"> T  </i>
   <i type="int" name="MAGATOM">     0</i>
   <v name="MAGDIPOL">      0.00000000      0.00000000      0.00000000</v>
   <v name="AVECCONST">      0.00000000      0.00000000      0.00000000</v>
  </separator>
  <separator name="response functions" >
   <i type="logical" name="LADDER"> F  </i>
   <i type="logical" name="LFXC"> F  </i>
   <i type="logical" name="LHARTREE"> T  </i>
   <i type="int" name="IBSE">     0</i>
   <v type="int" name="KPOINT">    -1     0     0     0</v>
   <i type="logical" name="LTCTE"> F  </i>
   <i type="logical" name="LTETE"> F  </i>
   <i type="logical" name="LTRIPLET"> F  </i>
   <i type="logical" name="LFXCEPS"> F  </i>
   <i type="logical" name="LFXHEG"> F  </i>
   <i type="int" name="NATURALO">     0</i>
   <i type="logical" name="L2ORDER"> F  </i>
   <i type="logical" name="LUSEW"> F  </i>
   <i name="ENCUTGW">     -2.00000000</i>
   <i name="ENCUTGWSOFT">     -2.00000000</i>
   <i name="ENCUTLF">     -1.00000000</i>
   <i type="int" name="LMAXMP2">    -1</i>
   <i name="SCISSOR">      0.00000000</i>
   <i type="int" name="NOMEGA">     0</i>
   <i type="int" name="NOMEGAR">     0</i>
   <i type="int" name="NBANDSGW">    -1</i>
   <i type="int" name="NBANDSO">    -1</i>
   <i type="int" name="NBANDSV">    -1</i>
   <i type="int" name="NELM">     1</i>
   <i type="int" name="NELMHF">     1</i>
   <i type="int" name="DIM">     3</i>
   <i type="int" name="ANTIRES">     0</i>
   <i name="OMEGAMAX">    -30.00000000</i>
   <i name="OMEGAMIN">    -30.00000000</i>
   <i name="OMEGATL">   -200.00000000</i>
   <i type="int" name="OMEGAGRID">     0</i>
   <i name="CSHIFT">     -0.10000000</i>
   <i type="logical" name="SELFENERGY"> F  </i>
   <i type="logical" name="LSPECTRAL"> F  </i>
   <i type="logical" name="LSPECTRALGW"> F  </i>
   <i type="logical" name="LSINGLES"> F  </i>
   <i type="logical" name="LFERMIGW"> F  </i>
   <i type="logical" name="ODDONLYGW"> F  </i>
   <i type="logical" name="EVENONLYGW"> F  </i>
   <i type="int" name="NKREDLFX">     1</i>
   <i type="int" name="NKREDLFY">     1</i>
   <i type="int" name="NKREDLFZ">     1</i>
   <i type="int" name="MAXMEM">  1800</i>
   <i type="int" name="TELESCOPE">     0</i>
   <i type="int" name="TAUPAR">     1</i>
   <i type="int" name="OMEGAPAR">    -1</i>
   <i name="LAMBDA">      1.00000000</i>
  </separator>
  <separator name="External order field" >
   <i name="OFIELD_KAPPA">      0.00000000</i>
   <v name="OFIELD_K">      0.00000000      0.00000000      0.00000000</v>
   <i name="OFIELD_Q6_NEAR">      0.00000000</i>
   <i name="OFIELD_Q6_FAR">      0.00000000</i>
   <i name="OFIELD_A">      0.00000000</i>
  </separator>
 </parameters>
 <atominfo>
  <atoms>       6 </atoms>
  <types>       4 </types>
  <array name="atoms" >
   <dimension dim="1">ion</dimension>
   <field type="string">element</field>
   <field type="int">atomtype</field>
   <set>
    <rc><c>Mo</c><c>   1</c></rc>
    <rc><c>S </c><c>   2</c></rc>
    <rc><c>S </c><c>   2</c></rc>
    <rc><c>Mo</c><c>   3</c></rc>
    <rc><c>S </c><c>   4</c></rc>
    <rc><c>S </c><c>   4</c></rc>
   </set>
  </array>
  <array name="atomtypes" >
   <dimension dim="1">type</dimension>
   <field type="int">atomspertype</field>
   <field type="string">element</field>
   <field>mass</field>
   <field>valence</field>
   <field type="string">pseudopotential</field>
   <set>
    <rc><c>   1</c><c>Mo</c><c>     95.94000000</c><c>     12.00000000</c><c> PAW_PBE Mo_pv 08Apr2002                </c></rc>
    <rc><c>   2</c><c>S </c><c>     32.06600000</c><c>      6.00000000</c><c>  PAW_PBE S 17Jan2003                   </c></rc>
    <rc><c>   1</c><c>Mo</c><c>     95.94000000</c><c>     12.00000000</c><c> PAW_PBE Mo_pv 08Apr2002                </c></rc>
    <rc><c>   2</c><c>S </c><c>     32.06600000</c><c>      6.00000000</c><c>  PAW_PBE S 17Jan2003                   </c></rc>
   </set>
  </array>
 </atominfo>
 <structure name="initialpos" >
  <crystal>
   <varray name="basis" >
    <v>       3.19031700       0.00000000       0.00000000 </v>
    <v>      -1.59515800       2.76289700       0.00000000 </v>
    <v>       0.00000000       0.00000000      23.14049200 </v>
   </varray>
   <i name="volume">    203.97226633 </i>
   <varray name="rec_basis" >
    <v>       0.31344848       0.18096941       0.00000000 </v>
    <v>       0.00000000       0.36193894       0.00000000 </v>
    <v>       0.00000000       0.00000000       0.04321429 </v>
   </varray>
  </crystal>
  <varray name="positions" >
   <v>       0.66666700       0.33333300       0.06785900 </v>
   <v>       0.33333300       0.66666700       0.00000000 </v>
   <v>       0.33333300       0.66666700       0.13571500 </v>
   <v>       0.95238129       0.19047586       0.35482300 </v>
   <v>       0.61904729       0.52380986       0.28696500 </v>
   <v>       0.61904729       0.52380986       0.42267900 </v>
  </varray>
 </structure>
 <calculation>
  <scstep>
   <time name="dav">   58.36   58.52</time>
   <time name="total">   68.58   68.81</time>
   <energy>
    <i name="alphaZ">    104.15310261 </i>
    <i name="ewald">   7699.04583513 </i>
    <i name="hartreedc"> -11109.09877733 </i>
    <i name="XCdc">    128.46410051 </i>
    <i name="pawpsdc">   2252.92270536 </i>
    <i name="pawaedc">  -2205.68654582 </i>
    <i name="eentropy">      0.00111560 </i>
    <i name="bandstr">   -159.49172086 </i>
    <i name="atom">   3688.31848598 </i>
    <i name="e_fr_energy">    398.62830119 </i>
    <i name="e_wo_entrp">    398.62718559 </i>
    <i name="e_0_energy">    398.62792932 </i>
   </energy>
  </scstep>
  <scstep>
   <time name="dav">   64.74   64.80</time>
   <time name="total">   64.75   64.81</time>
   <energy>
    <i name="e_fr_energy">     -1.66514996 </i>
    <i name="e_wo_entrp">     -1.66406405 </i>
    <i name="e_0_energy">     -1.66478799 </i>
   </energy>
  </scstep>
  <scstep>
   <time name="dav">   66.53   66.59</time>
   <time name="total">   66.54   66.62</time>
   <energy>
    <i name="e_fr_energy">    -32.98137611 </i>
    <i name="e_wo_entrp">    -32.98209642 </i>
    <i name="e_0_energy">    -32.98161621 </i>
   </energy>
  </scstep>
  <scstep>
   <time name="dav">   64.13   64.18</time>
   <time name="total">   64.14   64.20</time>
   <energy>
    <i name="e_fr_energy">    -33.84590269 </i>
    <i name="e_wo_entrp">    -33.84710709 </i>
    <i name="e_0_energy">    -33.84630416 </i>
   </energy>
  </scstep>
  <scstep>
   <time name="dav">   65.74   65.79</time>
   <time name="total">   70.58   70.64</time>
   <energy>
    <i name="e_fr_energy">    -33.87256519 </i>
    <i name="e_wo_entrp">    -33.87379528 </i>
    <i name="e_0_energy">    -33.87297522 </i>
   </energy>
  </scstep>
  <scstep>
   <time name="diag">   11.83   11.84</time>
   <time name="diis">   45.59   45.63</time>
   <time name="orth">    0.41    0.41</time>
   <time name="total">   72.65   72.71</time>
   <energy>
    <i name="e_fr_energy">    -30.04929114 </i>
    <i name="e_wo_entrp">    -30.04899940 </i>
    <i name="e_0_energy">    -30.04919389 </i>
   </energy>
  </scstep>
  <scstep>
   <time name="diag">   11.91   11.92</time>
   <time name="diis">   44.53   44.57</time>
   <time name="orth">    0.41    0.41</time>
   <time name="total">   71.93   72.00</time>
   <energy>
    <i name="e_fr_energy">    -33.13776126 </i>
    <i name="e_wo_entrp">    -33.13833094 </i>
    <i name="e_0_energy">    -33.13795115 </i>
   </energy>
  </scstep>
  <scstep>
   <time name="diag">   11.83   11.84</time>
   <time name="diis">   44.12   44.16</time>
   <time name="orth">    0.41    0.41</time>
   <time name="total">   71.13   71.19</time>
   <energy>
    <i name="e_fr_energy">    -34.45360496 </i>
    <i name="e_wo_entrp">    -34.45377033 </i>
    <i name="e_0_energy">    -34.45366008 </i>
   </energy>
  </scstep>
  <scstep>
   <time name="diag">   11.57   11.58</time>
   <time name="diis">   43.82   43.86</time>
   <time name="orth">    0.40    0.40</time>
   <time name="total">   70.75   70.82</time>
   <energy>
    <i name="e_fr_energy">    -36.84520653 </i>
    <i name="e_wo_entrp">    -36.84537435 </i>
    <i name="e_0_energy">    -36.84526247 </i>
   </energy>
  </scstep>
  <scstep>
   <time name="diag">   11.85   11.86</time>
   <time name="diis">   40.91   40.94</time>
   <time name="orth">    0.40    0.41</time>
   <time name="total">   68.05   68.12</time>
   <energy>
    <i name="e_fr_energy">    -38.91907833 </i>
    <i name="e_wo_entrp">    -38.91924536 </i>
    <i name="e_0_energy">    -38.91913401 </i>
   </energy>
  </scstep>
  <scstep>
   <time name="diag">   11.55   11.56</time>
   <time name="diis">   42.59   42.63</time>
   <time name="orth">    0.40    0.40</time>
   <time name="total">   69.52   69.58</time>
   <energy>
    <i name="e_fr_energy">    -39.36269484 </i>
    <i name="e_wo_entrp">    -39.36301988 </i>
    <i name="e_0_energy">    -39.36280319 </i>
   </energy>
  </scstep>
  <scstep>
   <time name="diag">   11.92   11.93</time>
   <time name="diis">   43.68   43.71</time>
   <time name="orth">    0.40    0.40</time>
   <time name="total">   70.94   71.01</time>
   <energy>
    <i name="e_fr_energy">    -39.39871862 </i>
    <i name="e_wo_entrp">    -39.39905018 </i>
    <i name="e_0_energy">    -39.39882914 </i>
   </energy>
  </scstep>
  <scstep>
   <time name="diag">   12.05   12.06</time>
   <time name="diis">   46.59   46.63</time>
   <time name="orth">    0.40    0.40</time>
   <time name="total">   73.97   74.04</time>
   <energy>
    <i name="e_fr_energy">    -39.41485075 </i>
    <i name="e_wo_entrp">    -39.41518443 </i>
    <i name="e_0_energy">    -39.41496198 </i>
   </energy>
  </scstep>
  <scstep>
   <time name="diag">   11.94   11.95</time>
   <time name="diis">   44.63   44.66</time>
   <time name="orth">    0.40    0.40</time>
   <time name="total">   71.90   71.96</time>
   <energy>
    <i name="e_fr_energy">    -39.42058410 </i>
    <i name="e_wo_entrp">    -39.42091821 </i>
    <i name="e_0_energy">    -39.42069547 </i>
   </energy>
  </scstep>
  <scstep>
   <time name="diag">   11.78   11.79</time>
   <time name="diis">   40.19   40.22</time>
   <time name="orth">    0.40    0.40</time>
   <time name="total">   67.30   67.39</time>
   <energy>
    <i name="e_fr_energy">    -39.42007639 </i>
    <i name="e_wo_entrp">    -39.42041051 </i>
    <i name="e_0_energy">    -39.42018776 </i>
   </energy>
  </scstep>
  <scstep>
   <time name="diag">   11.54   11.55</time>
   <time name="diis">   30.91   30.93</time>
   <time name="orth">    0.39    0.39</time>
   <time name="total">   57.90   57.95</time>
   <energy>
    <i name="e_fr_energy">    -39.42022043 </i>
    <i name="e_wo_entrp">    -39.42055459 </i>
    <i name="e_0_energy">    -39.42033182 </i>
   </energy>
  </scstep>
  <scstep>
   <time name="diag">   11.59   11.60</time>
   <time name="diis">   29.71   29.74</time>
   <time name="orth">    0.39    0.39</time>
   <time name="total">   56.76   56.81</time>
   <energy>
    <i name="e_fr_energy">    -39.42039831 </i>
    <i name="e_wo_entrp">    -39.42073246 </i>
    <i name="e_0_energy">    -39.42050969 </i>
   </energy>
  </scstep>
  <scstep>
   <time name="diag">   11.63   11.64</time>
   <time name="diis">   28.88   28.91</time>
   <time name="orth">    0.39    0.39</time>
   <time name="total">   55.95   56.00</time>
   <energy>
    <i name="e_fr_energy">    -39.42071161 </i>
    <i name="e_wo_entrp">    -39.42104573 </i>
    <i name="e_0_energy">    -39.42082298 </i>
   </energy>
  </scstep>
  <scstep>
   <time name="diag">   11.46   11.47</time>
   <time name="diis">   28.18   28.20</time>
   <time name="orth">    0.39    0.39</time>
   <time name="total">   55.22   55.26</time>
   <energy>
    <i name="e_fr_energy">    -39.42121753 </i>
    <i name="e_wo_entrp">    -39.42155161 </i>
    <i name="e_0_energy">    -39.42132889 </i>
   </energy>
  </scstep>
  <scstep>
   <time name="diag">   11.53   11.54</time>
   <time name="diis">   27.63   27.65</time>
   <time name="orth">    0.39    0.39</time>
   <time name="total">   54.66   54.70</time>
   <energy>
    <i name="e_fr_energy">    -39.42139855 </i>
    <i name="e_wo_entrp">    -39.42173263 </i>
    <i name="e_0_energy">    -39.42150991 </i>
   </energy>
  </scstep>
  <scstep>
   <time name="diag">   11.52   11.52</time>
   <time name="diis">   27.95   27.98</time>
   <time name="orth">    0.39    0.39</time>
   <time name="total">   49.56   49.60</time>
   <energy>
    <i name="alphaZ">    104.15310261 </i>
    <i name="ewald">   7699.04583513 </i>
    <i name="hartreedc"> -11092.71561348 </i>
    <i name="XCdc">    122.66127030 </i>
    <i name="pawpsdc">   2399.32009482 </i>
    <i name="pawaedc">  -2361.50456223 </i>
    <i name="eentropy">      0.00033407 </i>
    <i name="bandstr">   -598.70039233 </i>
    <i name="atom">   3688.31848598 </i>
    <i name="e_fr_energy">    -39.42144514 </i>
    <i name="e_wo_entrp">    -39.42177921 </i>
    <i name="e_0_energy">    -39.42155650 </i>
   </energy>
  </scstep>
  <structure>
   <crystal>
    <varray name="basis" >
     <v>       3.19031700       0.00000000       0.00000000 </v>
     <v>      -1.59515800       2.76289700       0.00000000 </v>
     <v>       0.00000000       0.00000000      23.14049200 </v>
    </varray>
    <i name="volume">    203.97226633 </i>
    <varray name="rec_basis" >
     <v>       0.31344848       0.18096941       0.00000000 </v>
     <v>       0.00000000       0.36193894       0.00000000 </v>
     <v>       0.00000000       0.00000000       0.04321429 </v>
    </varray>
   </crystal>
   <varray name="positions" >
    <v>       0.66666700       0.33333300       0.06785900 </v>
    <v>       0.33333300       0.66666700       0.00000000 </v>
    <v>       0.33333300       0.66666700       0.13571500 </v>
    <v>       0.95238129       0.19047586       0.35482300 </v>
    <v>       0.61904729       0.52380986       0.28696500 </v>
    <v>       0.61904729       0.52380986       0.42267900 </v>
   </varray>
  </structure>
  <varray name="forces" >
   <v>      -0.00460953       0.00307896      -0.00527220 </v>
   <v>       0.00066994      -0.00014025      -0.05389711 </v>
   <v>      -0.02472854       0.01118529       0.10939230 </v>
   <v>       0.00301399      -0.00033702       0.00462414 </v>
   <v>       0.02596876      -0.01192076      -0.11294178 </v>
   <v>      -0.00031462      -0.00186622       0.05809465 </v>
  </varray>
  <varray name="stress" >
   <v>       3.74501113      -0.12459591       0.85718589 </v>
   <v>      -0.12459588       3.27936834      -0.34614796 </v>
   <v>       0.85718587      -0.34614808       0.31411719 </v>
  </varray>
  <energy>
   <i name="e_fr_energy">    -39.42144514 </i>
   <i name="e_wo_entrp">    -39.42155650 </i>
   <i name="e_0_energy">      0.00033407 </i>
  </energy>
  <time name="totalsc"> 1474.82 1476.33</time>
  <eigenvalues>
   <array>
    <dimension dim="1">band</dimension>
    <dimension dim="2">kpoint</dimension>
    <dimension dim="3">spin</dimension>
    <field>eigene</field>
    <field>occ</field>
    <set>
     <set comment="spin 1">
      <set comment="kpoint 1">
       <r>  -34.9959    1.0000 </r>
       <r>  -34.9862    1.0000 </r>
       <r>  -34.8050    1.0000 </r>
       <r>  -34.8048    1.0000 </r>
       <r>  -34.7954    1.0000 </r>
       <r>  -34.7953    1.0000 </r>
       <r>  -13.9755    1.0000 </r>
       <r>  -13.9192    1.0000 </r>
       <r>  -12.7096    1.0000 </r>
       <r>  -12.6159    1.0000 </r>
       <r>   -5.6867    1.0000 </r>
       <r>   -5.3979    1.0000 </r>
       <r>   -2.6253    1.0000 </r>
       <r>   -2.6251    1.0000 </r>
       <r>   -2.6154    1.0000 </r>
       <r>   -2.6152    1.0000 </r>
       <r>   -2.1775    1.0000 </r>
       <r>   -1.5326    1.0000 </r>
       <r>   -1.5316    1.0000 </r>
       <r>   -1.5216    1.0000 </r>
       <r>   -1.5213    1.0000 </r>
       <r>   -1.4736    1.0000 </r>
       <r>   -0.2237    1.0000 </r>
       <r>    0.2145    0.7958 </r>
       <r>    2.6913   -0.0000 </r>
       <r>    2.6971   -0.0000 </r>
       <r>    2.7118   -0.0000 </r>
       <r>    2.7164   -0.0000 </r>
       <r>    2.8721   -0.0000 </r>
       <r>    2.8788   -0.0000 </r>
       <r>    2.8959   -0.0000 </r>
       <r>    2.9041   -0.0000 </r>
       <r>    5.2894    0.0000 </r>
       <r>    5.4063    0.0000 </r>
       <r>    6.3870    0.0000 </r>
       <r>    6.5438    0.0000 </r>
      </set>
      <set comment="kpoint 2">
       <r>  -34.9918    1.0000 </r>
       <r>  -34.9821    1.0000 </r>
       <r>  -34.8261    1.0000 </r>
       <r>  -34.8167    1.0000 </r>
       <r>  -34.8098    1.0000 </r>
       <r>  -34.8002    1.0000 </r>
       <r>  -13.8888    1.0000 </r>
       <r>  -13.8327    1.0000 </r>
       <r>  -12.6729    1.0000 </r>
       <r>  -12.5815    1.0000 </r>
       <r>   -5.5875    1.0000 </r>
       <r>   -5.2992    1.0000 </r>
       <r>   -2.8123    1.0000 </r>
       <r>   -2.8019    1.0000 </r>
       <r>   -2.5344    1.0000 </r>
       <r>   -2.5249    1.0000 </r>
       <r>   -2.4627    1.0000 </r>
       <r>   -2.0727    1.0000 </r>
       <r>   -1.6690    1.0000 </r>
       <r>   -1.6592    1.0000 </r>
       <r>   -1.3607    1.0000 </r>
       <r>   -1.0715    1.0000 </r>
       <r>   -0.2446    1.0000 </r>
       <r>    0.1387    1.0341 </r>
       <r>    2.5840   -0.0000 </r>
       <r>    2.6044   -0.0000 </r>
       <r>    2.6389   -0.0000 </r>
       <r>    2.7061   -0.0000 </r>
       <r>    2.7880   -0.0000 </r>
       <r>    2.8006   -0.0000 </r>
       <r>    2.8472   -0.0000 </r>
       <r>    2.8581   -0.0000 </r>
       <r>    5.4293    0.0000 </r>
       <r>    5.5438    0.0000 </r>
       <r>    6.7463    0.0000 </r>
       <r>    6.9268    0.0000 </r>
      </set>
      <set comment="kpoint 3">
       <r>  -34.9804    1.0000 </r>
       <r>  -34.9707    1.0000 </r>
       <r>  -34.8846    1.0000 </r>
       <r>  -34.8751    1.0000 </r>
       <r>  -34.8232    1.0000 </r>
       <r>  -34.8136    1.0000 </r>
       <r>  -13.6402    1.0000 </r>
       <r>  -13.5850    1.0000 </r>
       <r>  -12.5678    1.0000 </r>
       <r>  -12.4833    1.0000 </r>
       <r>   -5.3271    1.0000 </r>
       <r>   -5.0453    1.0000 </r>
       <r>   -3.2638    1.0000 </r>
       <r>   -3.2487    1.0000 </r>
       <r>   -2.9619    1.0000 </r>
       <r>   -2.6887    1.0000 </r>
       <r>   -2.2787    1.0000 </r>
       <r>   -2.2691    1.0000 </r>
       <r>   -2.0042    1.0000 </r>
       <r>   -1.9942    1.0000 </r>
       <r>   -1.2742    1.0000 </r>
       <r>   -0.9428    1.0000 </r>
       <r>   -0.3745    1.0000 </r>
       <r>   -0.1395    1.0000 </r>
       <r>    2.1729   -0.0000 </r>
       <r>    2.3580   -0.0000 </r>
       <r>    2.4919   -0.0000 </r>
       <r>    2.5584   -0.0000 </r>
       <r>    2.5708   -0.0000 </r>
       <r>    2.6198   -0.0000 </r>
       <r>    3.1947    0.0000 </r>
       <r>    3.2071    0.0000 </r>
       <r>    5.7840    0.0000 </r>
       <r>    5.8925    0.0000 </r>
       <r>    7.4096    0.0000 </r>
       <r>    7.8191    0.0000 </r>
      </set>
      <set comment="kpoint 4">
       <r>  -34.9661    1.0000 </r>
       <r>  -34.9642    1.0000 </r>
       <r>  -34.9567    1.0000 </r>
       <r>  -34.9546    1.0000 </r>
       <r>  -34.8420    1.0000 </r>
       <r>  -34.8324    1.0000 </r>
       <r>  -13.2648    1.0000 </r>
       <r>  -13.2119    1.0000 </r>
       <r>  -12.4099    1.0000 </r>
       <r>  -12.3363    1.0000 </r>
       <r>   -5.0632    1.0000 </r>
       <r>   -4.8288    1.0000 </r>
       <r>   -3.7293    1.0000 </r>
       <r>   -3.6763    1.0000 </r>
       <r>   -3.4915    1.0000 </r>
       <r>   -3.3081    1.0000 </r>
       <r>   -2.3992    1.0000 </r>
       <r>   -2.3892    1.0000 </r>
       <r>   -1.9095    1.0000 </r>
       <r>   -1.8996    1.0000 </r>
       <r>   -1.4450    1.0000 </r>
       <r>   -1.1334    1.0000 </r>
       <r>   -0.6923    1.0000 </r>
       <r>   -0.5883    1.0000 </r>
       <r>    1.9423   -0.0000 </r>
       <r>    2.2339   -0.0000 </r>
       <r>    2.3082   -0.0000 </r>
       <r>    2.3219   -0.0000 </r>
       <r>    2.6899   -0.0000 </r>
       <r>    2.8980   -0.0000 </r>
       <r>    3.5774    0.0000 </r>
       <r>    3.5921    0.0000 </r>
       <r>    6.3011    0.0000 </r>
       <r>    6.4007    0.0000 </r>
       <r>    7.8880    0.0000 </r>
       <r>    8.3681    0.0000 </r>
      </set>
      <set comment="kpoint 5">
       <r>  -35.0514    1.0000 </r>
       <r>  -35.0419    1.0000 </r>
       <r>  -34.9471    1.0000 </r>
       <r>  -34.9375    1.0000 </r>
       <r>  -34.8619    1.0000 </r>
       <r>  -34.8523    1.0000 </r>
       <r>  -12.8240    1.0000 </r>
       <r>  -12.7759    1.0000 </r>
       <r>  -12.2273    1.0000 </r>
       <r>  -12.1674    1.0000 </r>
       <r>   -5.1172    1.0000 </r>
       <r>   -4.9990    1.0000 </r>
       <r>   -4.0619    1.0000 </r>
       <r>   -3.9323    1.0000 </r>
       <r>   -3.8680    1.0000 </r>
       <r>   -3.7469    1.0000 </r>
       <r>   -2.7545    1.0000 </r>
       <r>   -2.7444    1.0000 </r>
       <r>   -1.7168    1.0000 </r>
       <r>   -1.5139    1.0000 </r>
       <r>   -1.5041    1.0000 </r>
       <r>   -1.4311    1.0000 </r>
       <r>   -0.9853    1.0000 </r>
       <r>   -0.9108    1.0000 </r>
       <r>    2.0365   -0.0000 </r>
       <r>    2.1399   -0.0000 </r>
       <r>    2.1519   -0.0000 </r>
       <r>    2.3159   -0.0000 </r>
       <r>    3.0991    0.0000 </r>
       <r>    3.3432    0.0000 </r>
       <r>    3.8810    0.0000 </r>
       <r>    3.8990    0.0000 </r>
       <r>    6.9226    0.0000 </r>
       <r>    7.0094    0.0000 </r>
       <r>    7.8717    0.0000 </r>
       <r>    8.0948    0.0000 </r>
      </set>
      <set comment="kpoint 6">
       <r>  -35.1211    1.0000 </r>
       <r>  -35.1117    1.0000 </r>
       <r>  -34.9329    1.0000 </r>
       <r>  -34.9233    1.0000 </r>
       <r>  -34.8784    1.0000 </r>
       <r>  -34.8687    1.0000 </r>
       <r>  -12.4118    1.0000 </r>
       <r>  -12.3714    1.0000 </r>
       <r>  -12.0609    1.0000 </r>
       <r>  -12.0155    1.0000 </r>
       <r>   -5.4322    1.0000 </r>
       <r>   -5.3726    1.0000 </r>
       <r>   -4.4784    1.0000 </r>
       <r>   -4.3898    1.0000 </r>
       <r>   -3.9573    1.0000 </r>
       <r>   -3.8223    1.0000 </r>
       <r>   -3.0144    1.0000 </r>
       <r>   -3.0042    1.0000 </r>
       <r>   -1.9244    1.0000 </r>
       <r>   -1.6672    1.0000 </r>
       <r>   -1.1960    1.0000 </r>
       <r>   -1.1845    1.0000 </r>
       <r>   -0.9431    1.0000 </r>
       <r>   -0.8454    1.0000 </r>
       <r>    2.0946   -0.0000 </r>
       <r>    2.1053   -0.0000 </r>
       <r>    2.3021   -0.0000 </r>
       <r>    2.4902   -0.0000 </r>
       <r>    3.4952    0.0000 </r>
       <r>    3.7252    0.0000 </r>
       <r>    4.0703    0.0000 </r>
       <r>    4.0913    0.0000 </r>
       <r>    6.8250    0.0000 </r>
       <r>    7.1316    0.0000 </r>
       <r>    7.5668    0.0000 </r>
       <r>    7.8980    0.0000 </r>
      </set>
      <set comment="kpoint 7">
       <r>  -35.1601    1.0000 </r>
       <r>  -35.1507    1.0000 </r>
       <r>  -34.9248    1.0000 </r>
       <r>  -34.9152    1.0000 </r>
       <r>  -34.8876    1.0000 </r>
       <r>  -34.8780    1.0000 </r>
       <r>  -12.1525    1.0000 </r>
       <r>  -12.1200    1.0000 </r>
       <r>  -11.9590    1.0000 </r>
       <r>  -11.9246    1.0000 </r>
       <r>   -5.6704    1.0000 </r>
       <r>   -5.6269    1.0000 </r>
       <r>   -4.7273    1.0000 </r>
       <r>   -4.6584    1.0000 </r>
       <r>   -4.0592    1.0000 </r>
       <r>   -3.9348    1.0000 </r>
       <r>   -3.1503    1.0000 </r>
       <r>   -3.1402    1.0000 </r>
       <r>   -2.0242    1.0000 </r>
       <r>   -1.7843    1.0000 </r>
       <r>   -1.0291    1.0000 </r>
       <r>   -1.0166    1.0000 </r>
       <r>   -0.7229    1.0000 </r>
       <r>   -0.6176    1.0000 </r>
       <r>    2.1204   -0.0000 </r>
       <r>    2.1302   -0.0000 </r>
       <r>    2.5566   -0.0000 </r>
       <r>    2.6372   -0.0000 </r>
       <r>    3.7127    0.0000 </r>
       <r>    3.9177    0.0000 </r>
       <r>    4.1561    0.0000 </r>
       <r>    4.1788    0.0000 </r>
       <r>    6.0599    0.0000 </r>
       <r>    6.4645    0.0000 </r>
       <r>    7.8856    0.0000 </r>
       <r>    7.9645    0.0000 </r>
      </set>
      <set comment="kpoint 8">
       <r>  -34.9918    1.0000 </r>
       <r>  -34.9821    1.0000 </r>
       <r>  -34.8261    1.0000 </r>
       <r>  -34.8166    1.0000 </r>
       <r>  -34.8098    1.0000 </r>
       <r>  -34.8002    1.0000 </r>
       <r>  -13.8889    1.0000 </r>
       <r>  -13.8326    1.0000 </r>
       <r>  -12.6730    1.0000 </r>
       <r>  -12.5814    1.0000 </r>
       <r>   -5.5876    1.0000 </r>
       <r>   -5.2990    1.0000 </r>
       <r>   -2.8123    1.0000 </r>
       <r>   -2.8020    1.0000 </r>
       <r>   -2.5347    1.0000 </r>
       <r>   -2.5246    1.0000 </r>
       <r>   -2.4620    1.0000 </r>
       <r>   -2.0727    1.0000 </r>
       <r>   -1.6699    1.0000 </r>
       <r>   -1.6583    1.0000 </r>
       <r>   -1.3661    1.0000 </r>
       <r>   -1.0672    1.0000 </r>
       <r>   -0.2454    1.0000 </r>
       <r>    0.1423    1.0326 </r>
       <r>    2.5726   -0.0000 </r>
       <r>    2.6063   -0.0000 </r>
       <r>    2.6338   -0.0000 </r>
       <r>    2.7208   -0.0000 </r>
       <r>    2.7753   -0.0000 </r>
       <r>    2.8068   -0.0000 </r>
       <r>    2.8427   -0.0000 </r>
       <r>    2.8662   -0.0000 </r>
       <r>    5.4292    0.0000 </r>
       <r>    5.5439    0.0000 </r>
       <r>    6.7472    0.0000 </r>
       <r>    6.9257    0.0000 </r>
      </set>
      <set comment="kpoint 9">
       <r>  -34.9840    1.0000 </r>
       <r>  -34.9744    1.0000 </r>
       <r>  -34.8650    1.0000 </r>
       <r>  -34.8556    1.0000 </r>
       <r>  -34.8199    1.0000 </r>
       <r>  -34.8102    1.0000 </r>
       <r>  -13.7212    1.0000 </r>
       <r>  -13.6654    1.0000 </r>
       <r>  -12.6022    1.0000 </r>
       <r>  -12.5149    1.0000 </r>
       <r>   -5.4061    1.0000 </r>
       <r>   -5.1200    1.0000 </r>
       <r>   -3.1263    1.0000 </r>
       <r>   -3.1148    1.0000 </r>
       <r>   -2.7994    1.0000 </r>
       <r>   -2.4873    1.0000 </r>
       <r>   -2.3662    1.0000 </r>
       <r>   -2.3565    1.0000 </r>
       <r>   -1.9826    1.0000 </r>
       <r>   -1.9719    1.0000 </r>
       <r>   -1.2096    1.0000 </r>
       <r>   -0.8834    1.0000 </r>
       <r>   -0.3211    1.0000 </r>
       <r>   -0.0303    1.0002 </r>
       <r>    2.2785   -0.0000 </r>
       <r>    2.4160   -0.0000 </r>
       <r>    2.4516   -0.0000 </r>
       <r>    2.5526   -0.0000 </r>
       <r>    2.6229   -0.0000 </r>
       <r>    2.6374   -0.0000 </r>
       <r>    3.1257    0.0000 </r>
       <r>    3.1387    0.0000 </r>
       <r>    5.6733    0.0000 </r>
       <r>    5.7850    0.0000 </r>
       <r>    7.2632    0.0000 </r>
       <r>    7.5885    0.0000 </r>
      </set>
      <set comment="kpoint 10">
       <r>  -34.9703    1.0000 </r>
       <r>  -34.9606    1.0000 </r>
       <r>  -34.9326    1.0000 </r>
       <r>  -34.9232    1.0000 </r>
       <r>  -34.8384    1.0000 </r>
       <r>  -34.8287    1.0000 </r>
       <r>  -13.4088    1.0000 </r>
       <r>  -13.3543    1.0000 </r>
       <r>  -12.4702    1.0000 </r>
       <r>  -12.3915    1.0000 </r>
       <r>   -5.1267    1.0000 </r>
       <r>   -4.8617    1.0000 </r>
       <r>   -3.5713    1.0000 </r>
       <r>   -3.5434    1.0000 </r>
       <r>   -3.2342    1.0000 </r>
       <r>   -3.0081    1.0000 </r>
       <r>   -2.4709    1.0000 </r>
       <r>   -2.4431    1.0000 </r>
       <r>   -2.0819    1.0000 </r>
       <r>   -2.0722    1.0000 </r>
       <r>   -1.1875    1.0000 </r>
       <r>   -0.8908    1.0000 </r>
       <r>   -0.5518    1.0000 </r>
       <r>   -0.4038    1.0000 </r>
       <r>    1.9465   -0.0000 </r>
       <r>    2.1810   -0.0000 </r>
       <r>    2.3915   -0.0000 </r>
       <r>    2.4175   -0.0000 </r>
       <r>    2.4581   -0.0000 </r>
       <r>    2.6293   -0.0000 </r>
       <r>    3.5352    0.0000 </r>
       <r>    3.5503    0.0000 </r>
       <r>    6.1066    0.0000 </r>
       <r>    6.2151    0.0000 </r>
       <r>    7.7972    0.0000 </r>
       <r>    8.2498    0.0000 </r>
      </set>
      <set comment="kpoint 11">
       <r>  -35.0129    1.0000 </r>
       <r>  -35.0035    1.0000 </r>
       <r>  -34.9537    1.0000 </r>
       <r>  -34.9440    1.0000 </r>
       <r>  -34.8608    1.0000 </r>
       <r>  -34.8511    1.0000 </r>
       <r>  -12.9987    1.0000 </r>
       <r>  -12.9475    1.0000 </r>
       <r>  -12.2982    1.0000 </r>
       <r>  -12.2314    1.0000 </r>
       <r>   -5.0022    1.0000 </r>
       <r>   -4.8323    1.0000 </r>
       <r>   -3.8806    1.0000 </r>
       <r>   -3.7723    1.0000 </r>
       <r>   -3.7201    1.0000 </r>
       <r>   -3.5991    1.0000 </r>
       <r>   -2.8663    1.0000 </r>
       <r>   -2.8059    1.0000 </r>
       <r>   -1.7992    1.0000 </r>
       <r>   -1.7890    1.0000 </r>
       <r>   -1.3949    1.0000 </r>
       <r>   -1.1406    1.0000 </r>
       <r>   -0.8542    1.0000 </r>
       <r>   -0.7881    1.0000 </r>
       <r>    1.8426   -0.0000 </r>
       <r>    2.0612   -0.0000 </r>
       <r>    2.2749   -0.0000 </r>
       <r>    2.3683   -0.0000 </r>
       <r>    2.7344   -0.0000 </r>
       <r>    2.9543   -0.0000 </r>
       <r>    3.8846    0.0000 </r>
       <r>    3.9161    0.0000 </r>
       <r>    6.6971    0.0000 </r>
       <r>    6.7899    0.0000 </r>
       <r>    8.1705    0.0000 </r>
       <r>    8.5217    0.0000 </r>
      </set>
      <set comment="kpoint 12">
       <r>  -35.0876    1.0000 </r>
       <r>  -35.0782    1.0000 </r>
       <r>  -34.9380    1.0000 </r>
       <r>  -34.9283    1.0000 </r>
       <r>  -34.8818    1.0000 </r>
       <r>  -34.8721    1.0000 </r>
       <r>  -12.5672    1.0000 </r>
       <r>  -12.5222    1.0000 </r>
       <r>  -12.1200    1.0000 </r>
       <r>  -12.0673    1.0000 </r>
       <r>   -5.2232    1.0000 </r>
       <r>   -5.1428    1.0000 </r>
       <r>   -4.2969    1.0000 </r>
       <r>   -4.2097    1.0000 </r>
       <r>   -3.8799    1.0000 </r>
       <r>   -3.7381    1.0000 </r>
       <r>   -3.0797    1.0000 </r>
       <r>   -3.0201    1.0000 </r>
       <r>   -1.7174    1.0000 </r>
       <r>   -1.6316    1.0000 </r>
       <r>   -1.6121    1.0000 </r>
       <r>   -1.4480    1.0000 </r>
       <r>   -0.8758    1.0000 </r>
       <r>   -0.8274    1.0000 </r>
       <r>    1.9511   -0.0000 </r>
       <r>    2.0929   -0.0000 </r>
       <r>    2.3158   -0.0000 </r>
       <r>    2.4321   -0.0000 </r>
       <r>    3.1570    0.0000 </r>
       <r>    3.3800    0.0000 </r>
       <r>    4.0846    0.0000 </r>
       <r>    4.1315    0.0000 </r>
       <r>    7.2682    0.0000 </r>
       <r>    7.3840    0.0000 </r>
       <r>    7.5600    0.0000 </r>
       <r>    8.0550    0.0000 </r>
      </set>
      <set comment="kpoint 13">
       <r>  -35.1399    1.0000 </r>
       <r>  -35.1305    1.0000 </r>
       <r>  -34.9268    1.0000 </r>
       <r>  -34.9172    1.0000 </r>
       <r>  -34.8966    1.0000 </r>
       <r>  -34.8870    1.0000 </r>
       <r>  -12.2234    1.0000 </r>
       <r>  -12.1869    1.0000 </r>
       <r>  -11.9811    1.0000 </r>
       <r>  -11.9419    1.0000 </r>
       <r>   -5.5025    1.0000 </r>
       <r>   -5.4532    1.0000 </r>
       <r>   -4.6806    1.0000 </r>
       <r>   -4.6184    1.0000 </r>
       <r>   -3.9806    1.0000 </r>
       <r>   -3.8500    1.0000 </r>
       <r>   -3.1654    1.0000 </r>
       <r>   -3.1279    1.0000 </r>
       <r>   -1.9291    1.0000 </r>
       <r>   -1.7084    1.0000 </r>
       <r>   -1.5118    1.0000 </r>
       <r>   -1.4456    1.0000 </r>
       <r>   -0.6620    1.0000 </r>
       <r>   -0.6019    1.0000 </r>
       <r>    2.1015   -0.0000 </r>
       <r>    2.1555   -0.0000 </r>
       <r>    2.4907   -0.0000 </r>
       <r>    2.5894   -0.0000 </r>
       <r>    3.5560    0.0000 </r>
       <r>    3.7425    0.0000 </r>
       <r>    4.0891    0.0000 </r>
       <r>    4.1633    0.0000 </r>
       <r>    6.4658    0.0000 </r>
       <r>    6.8672    0.0000 </r>
       <r>    7.9960    0.0000 </r>
       <r>    8.2830    0.0000 </r>
      </set>
      <set comment="kpoint 14">
       <r>  -35.1587    1.0000 </r>
       <r>  -35.1493    1.0000 </r>
       <r>  -34.9228    1.0000 </r>
       <r>  -34.9132    1.0000 </r>
       <r>  -34.9020    1.0000 </r>
       <r>  -34.8923    1.0000 </r>
       <r>  -12.0885    1.0000 </r>
       <r>  -12.0576    1.0000 </r>
       <r>  -11.9273    1.0000 </r>
       <r>  -11.8953    1.0000 </r>
       <r>   -5.6184    1.0000 </r>
       <r>   -5.5767    1.0000 </r>
       <r>   -4.8216    1.0000 </r>
       <r>   -4.7669    1.0000 </r>
       <r>   -4.0493    1.0000 </r>
       <r>   -3.9252    1.0000 </r>
       <r>   -3.1838    1.0000 </r>
       <r>   -3.1602    1.0000 </r>
       <r>   -2.0123    1.0000 </r>
       <r>   -1.7930    1.0000 </r>
       <r>   -1.4415    1.0000 </r>
       <r>   -1.3873    1.0000 </r>
       <r>   -0.5305    1.0000 </r>
       <r>   -0.4579    1.0000 </r>
       <r>    2.1380   -0.0000 </r>
       <r>    2.1566   -0.0000 </r>
       <r>    2.6439   -0.0000 </r>
       <r>    2.6983   -0.0000 </r>
       <r>    3.8299    0.0000 </r>
       <r>    3.8959    0.0000 </r>
       <r>    3.9811    0.0000 </r>
       <r>    4.0902    0.0000 </r>
       <r>    6.0410    0.0000 </r>
       <r>    6.4705    0.0000 </r>
       <r>    8.3137    0.0000 </r>
       <r>    8.4353    0.0000 </r>
      </set>
      <set comment="kpoint 15">
       <r>  -35.1400    1.0000 </r>
       <r>  -35.1305    1.0000 </r>
       <r>  -34.9268    1.0000 </r>
       <r>  -34.9172    1.0000 </r>
       <r>  -34.8966    1.0000 </r>
       <r>  -34.8870    1.0000 </r>
       <r>  -12.2224    1.0000 </r>
       <r>  -12.1877    1.0000 </r>
       <r>  -11.9803    1.0000 </r>
       <r>  -11.9430    1.0000 </r>
       <r>   -5.5023    1.0000 </r>
       <r>   -5.4536    1.0000 </r>
       <r>   -4.6793    1.0000 </r>
       <r>   -4.6195    1.0000 </r>
       <r>   -3.9803    1.0000 </r>
       <r>   -3.8508    1.0000 </r>
       <r>   -3.1663    1.0000 </r>
       <r>   -3.1260    1.0000 </r>
       <r>   -1.9220    1.0000 </r>
       <r>   -1.7087    1.0000 </r>
       <r>   -1.4981    1.0000 </r>
       <r>   -1.4689    1.0000 </r>
       <r>   -0.6641    1.0000 </r>
       <r>   -0.5995    1.0000 </r>
       <r>    2.0972   -0.0000 </r>
       <r>    2.1614   -0.0000 </r>
       <r>    2.4930   -0.0000 </r>
       <r>    2.5869   -0.0000 </r>
       <r>    3.5815    0.0000 </r>
       <r>    3.7180    0.0000 </r>
       <r>    4.0769    0.0000 </r>
       <r>    4.1721    0.0000 </r>
       <r>    6.4661    0.0000 </r>
       <r>    6.8668    0.0000 </r>
       <r>    8.0486    0.0000 </r>
       <r>    8.2743    0.0000 </r>
      </set>
      <set comment="kpoint 16">
       <r>  -35.0876    1.0000 </r>
       <r>  -35.0781    1.0000 </r>
       <r>  -34.9380    1.0000 </r>
       <r>  -34.9283    1.0000 </r>
       <r>  -34.8817    1.0000 </r>
       <r>  -34.8721    1.0000 </r>
       <r>  -12.5661    1.0000 </r>
       <r>  -12.5231    1.0000 </r>
       <r>  -12.1189    1.0000 </r>
       <r>  -12.0686    1.0000 </r>
       <r>   -5.2231    1.0000 </r>
       <r>   -5.1431    1.0000 </r>
       <r>   -4.2949    1.0000 </r>
       <r>   -4.2111    1.0000 </r>
       <r>   -3.8779    1.0000 </r>
       <r>   -3.7412    1.0000 </r>
       <r>   -3.0785    1.0000 </r>
       <r>   -3.0192    1.0000 </r>
       <r>   -1.6939    1.0000 </r>
       <r>   -1.6353    1.0000 </r>
       <r>   -1.6179    1.0000 </r>
       <r>   -1.4660    1.0000 </r>
       <r>   -0.8758    1.0000 </r>
       <r>   -0.8282    1.0000 </r>
       <r>    1.9536   -0.0000 </r>
       <r>    2.0937   -0.0000 </r>
       <r>    2.3164   -0.0000 </r>
       <r>    2.4296   -0.0000 </r>
       <r>    3.1783    0.0000 </r>
       <r>    3.3564    0.0000 </r>
       <r>    4.0829    0.0000 </r>
       <r>    4.1347    0.0000 </r>
       <r>    7.2682    0.0000 </r>
       <r>    7.3807    0.0000 </r>
       <r>    7.5547    0.0000 </r>
       <r>    8.0532    0.0000 </r>
      </set>
      <set comment="kpoint 17">
       <r>  -35.0130    1.0000 </r>
       <r>  -35.0035    1.0000 </r>
       <r>  -34.9537    1.0000 </r>
       <r>  -34.9440    1.0000 </r>
       <r>  -34.8607    1.0000 </r>
       <r>  -34.8511    1.0000 </r>
       <r>  -12.9978    1.0000 </r>
       <r>  -12.9482    1.0000 </r>
       <r>  -12.2971    1.0000 </r>
       <r>  -12.2326    1.0000 </r>
       <r>   -5.0022    1.0000 </r>
       <r>   -4.8322    1.0000 </r>
       <r>   -3.8759    1.0000 </r>
       <r>   -3.7766    1.0000 </r>
       <r>   -3.7189    1.0000 </r>
       <r>   -3.6014    1.0000 </r>
       <r>   -2.8632    1.0000 </r>
       <r>   -2.8071    1.0000 </r>
       <r>   -1.7999    1.0000 </r>
       <r>   -1.7865    1.0000 </r>
       <r>   -1.3855    1.0000 </r>
       <r>   -1.1521    1.0000 </r>
       <r>   -0.8534    1.0000 </r>
       <r>   -0.7946    1.0000 </r>
       <r>    1.8484   -0.0000 </r>
       <r>    2.0575   -0.0000 </r>
       <r>    2.2757   -0.0000 </r>
       <r>    2.3661   -0.0000 </r>
       <r>    2.7495   -0.0000 </r>
       <r>    2.9399   -0.0000 </r>
       <r>    3.8831    0.0000 </r>
       <r>    3.9202    0.0000 </r>
       <r>    6.6967    0.0000 </r>
       <r>    6.7900    0.0000 </r>
       <r>    8.2509    0.0000 </r>
       <r>    8.5344    0.0000 </r>
      </set>
      <set comment="kpoint 18">
       <r>  -34.9703    1.0000 </r>
       <r>  -34.9606    1.0000 </r>
       <r>  -34.9327    1.0000 </r>
       <r>  -34.9231    1.0000 </r>
       <r>  -34.8383    1.0000 </r>
       <r>  -34.8287    1.0000 </r>
       <r>  -13.4082    1.0000 </r>
       <r>  -13.3547    1.0000 </r>
       <r>  -12.4694    1.0000 </r>
       <r>  -12.3923    1.0000 </r>
       <r>   -5.1258    1.0000 </r>
       <r>   -4.8623    1.0000 </r>
       <r>   -3.5701    1.0000 </r>
       <r>   -3.5443    1.0000 </r>
       <r>   -3.2357    1.0000 </r>
       <r>   -3.0067    1.0000 </r>
       <r>   -2.4681    1.0000 </r>
       <r>   -2.4453    1.0000 </r>
       <r>   -2.0822    1.0000 </r>
       <r>   -2.0719    1.0000 </r>
       <r>   -1.1739    1.0000 </r>
       <r>   -0.9014    1.0000 </r>
       <r>   -0.5476    1.0000 </r>
       <r>   -0.4197    1.0000 </r>
       <r>    1.9538   -0.0000 </r>
       <r>    2.1825   -0.0000 </r>
       <r>    2.3898   -0.0000 </r>
       <r>    2.4123   -0.0000 </r>
       <r>    2.4689   -0.0000 </r>
       <r>    2.6230   -0.0000 </r>
       <r>    3.5288    0.0000 </r>
       <r>    3.5585    0.0000 </r>
       <r>    6.1096    0.0000 </r>
       <r>    6.2150    0.0000 </r>
       <r>    7.8060    0.0000 </r>
       <r>    8.4002    0.0000 </r>
      </set>
      <set comment="kpoint 19">
       <r>  -34.9840    1.0000 </r>
       <r>  -34.9744    1.0000 </r>
       <r>  -34.8652    1.0000 </r>
       <r>  -34.8556    1.0000 </r>
       <r>  -34.8198    1.0000 </r>
       <r>  -34.8103    1.0000 </r>
       <r>  -13.7209    1.0000 </r>
       <r>  -13.6656    1.0000 </r>
       <r>  -12.6017    1.0000 </r>
       <r>  -12.5154    1.0000 </r>
       <r>   -5.4053    1.0000 </r>
       <r>   -5.1207    1.0000 </r>
       <r>   -3.1270    1.0000 </r>
       <r>   -3.1139    1.0000 </r>
       <r>   -2.8013    1.0000 </r>
       <r>   -2.4856    1.0000 </r>
       <r>   -2.3664    1.0000 </r>
       <r>   -2.3564    1.0000 </r>
       <r>   -1.9829    1.0000 </r>
       <r>   -1.9711    1.0000 </r>
       <r>   -1.1959    1.0000 </r>
       <r>   -0.8945    1.0000 </r>
       <r>   -0.3174    1.0000 </r>
       <r>   -0.0464    1.0001 </r>
       <r>    2.3000   -0.0000 </r>
       <r>    2.4179   -0.0000 </r>
       <r>    2.4589   -0.0000 </r>
       <r>    2.5364   -0.0000 </r>
       <r>    2.6159   -0.0000 </r>
       <r>    2.6401   -0.0000 </r>
       <r>    3.1215    0.0000 </r>
       <r>    3.1434    0.0000 </r>
       <r>    5.6752    0.0000 </r>
       <r>    5.7845    0.0000 </r>
       <r>    7.2634    0.0000 </r>
       <r>    7.5993    0.0000 </r>
      </set>
      <set comment="kpoint 20">
       <r>  -34.9918    1.0000 </r>
       <r>  -34.9821    1.0000 </r>
       <r>  -34.8263    1.0000 </r>
       <r>  -34.8166    1.0000 </r>
       <r>  -34.8097    1.0000 </r>
       <r>  -34.8003    1.0000 </r>
       <r>  -13.8888    1.0000 </r>
       <r>  -13.8327    1.0000 </r>
       <r>  -12.6728    1.0000 </r>
       <r>  -12.5816    1.0000 </r>
       <r>   -5.5873    1.0000 </r>
       <r>   -5.2993    1.0000 </r>
       <r>   -2.8124    1.0000 </r>
       <r>   -2.8018    1.0000 </r>
       <r>   -2.5345    1.0000 </r>
       <r>   -2.5246    1.0000 </r>
       <r>   -2.4632    1.0000 </r>
       <r>   -2.0727    1.0000 </r>
       <r>   -1.6694    1.0000 </r>
       <r>   -1.6588    1.0000 </r>
       <r>   -1.3564    1.0000 </r>
       <r>   -1.0750    1.0000 </r>
       <r>   -0.2441    1.0000 </r>
       <r>    0.1359    1.0348 </r>
       <r>    2.5910   -0.0000 </r>
       <r>    2.6052   -0.0000 </r>
       <r>    2.6470   -0.0000 </r>
       <r>    2.6955   -0.0000 </r>
       <r>    2.7805   -0.0000 </r>
       <r>    2.8034   -0.0000 </r>
       <r>    2.8465   -0.0000 </r>
       <r>    2.8604   -0.0000 </r>
       <r>    5.4293    0.0000 </r>
       <r>    5.5437    0.0000 </r>
       <r>    6.7449    0.0000 </r>
       <r>    6.9275    0.0000 </r>
      </set>
      <set comment="kpoint 21">
       <r>  -34.9804    1.0000 </r>
       <r>  -34.9707    1.0000 </r>
       <r>  -34.8846    1.0000 </r>
       <r>  -34.8751    1.0000 </r>
       <r>  -34.8232    1.0000 </r>
       <r>  -34.8136    1.0000 </r>
       <r>  -13.6404    1.0000 </r>
       <r>  -13.5848    1.0000 </r>
       <r>  -12.5682    1.0000 </r>
       <r>  -12.4829    1.0000 </r>
       <r>   -5.3277    1.0000 </r>
       <r>   -5.0448    1.0000 </r>
       <r>   -3.2652    1.0000 </r>
       <r>   -3.2474    1.0000 </r>
       <r>   -2.9614    1.0000 </r>
       <r>   -2.6885    1.0000 </r>
       <r>   -2.2792    1.0000 </r>
       <r>   -2.2686    1.0000 </r>
       <r>   -2.0052    1.0000 </r>
       <r>   -1.9932    1.0000 </r>
       <r>   -1.2882    1.0000 </r>
       <r>   -0.9320    1.0000 </r>
       <r>   -0.3778    1.0000 </r>
       <r>   -0.1260    1.0000 </r>
       <r>    2.1577   -0.0000 </r>
       <r>    2.3597   -0.0000 </r>
       <r>    2.4879   -0.0000 </r>
       <r>    2.5493   -0.0000 </r>
       <r>    2.5796   -0.0000 </r>
       <r>    2.6291   -0.0000 </r>
       <r>    3.1869    0.0000 </r>
       <r>    3.2153    0.0000 </r>
       <r>    5.7851    0.0000 </r>
       <r>    5.8936    0.0000 </r>
       <r>    7.4140    0.0000 </r>
       <r>    7.8326    0.0000 </r>
      </set>
      <set comment="kpoint 22">
       <r>  -34.9703    1.0000 </r>
       <r>  -34.9606    1.0000 </r>
       <r>  -34.9326    1.0000 </r>
       <r>  -34.9232    1.0000 </r>
       <r>  -34.8384    1.0000 </r>
       <r>  -34.8287    1.0000 </r>
       <r>  -13.4090    1.0000 </r>
       <r>  -13.3541    1.0000 </r>
       <r>  -12.4705    1.0000 </r>
       <r>  -12.3911    1.0000 </r>
       <r>   -5.1270    1.0000 </r>
       <r>   -4.8615    1.0000 </r>
       <r>   -3.5740    1.0000 </r>
       <r>   -3.5406    1.0000 </r>
       <r>   -3.2344    1.0000 </r>
       <r>   -3.0074    1.0000 </r>
       <r>   -2.4705    1.0000 </r>
       <r>   -2.4440    1.0000 </r>
       <r>   -2.0824    1.0000 </r>
       <r>   -2.0717    1.0000 </r>
       <r>   -1.1972    1.0000 </r>
       <r>   -0.8838    1.0000 </r>
       <r>   -0.5542    1.0000 </r>
       <r>   -0.3941    1.0000 </r>
       <r>    1.9409   -0.0000 </r>
       <r>    2.1808   -0.0000 </r>
       <r>    2.3932   -0.0000 </r>
       <r>    2.4102   -0.0000 </r>
       <r>    2.4618   -0.0000 </r>
       <r>    2.6312   -0.0000 </r>
       <r>    3.5381    0.0000 </r>
       <r>    3.5483    0.0000 </r>
       <r>    6.1060    0.0000 </r>
       <r>    6.2159    0.0000 </r>
       <r>    7.7986    0.0000 </r>
       <r>    8.2688    0.0000 </r>
      </set>
      <set comment="kpoint 23">
       <r>  -34.9947    1.0000 </r>
       <r>  -34.9853    1.0000 </r>
       <r>  -34.9560    1.0000 </r>
       <r>  -34.9464    1.0000 </r>
       <r>  -34.8647    1.0000 </r>
       <r>  -34.8551    1.0000 </r>
       <r>  -13.0604    1.0000 </r>
       <r>  -13.0078    1.0000 </r>
       <r>  -12.3230    1.0000 </r>
       <r>  -12.2531    1.0000 </r>
       <r>   -4.9537    1.0000 </r>
       <r>   -4.7568    1.0000 </r>
       <r>   -3.8232    1.0000 </r>
       <r>   -3.7292    1.0000 </r>
       <r>   -3.5267    1.0000 </r>
       <r>   -3.4020    1.0000 </r>
       <r>   -3.1021    1.0000 </r>
       <r>   -2.9960    1.0000 </r>
       <r>   -1.9505    1.0000 </r>
       <r>   -1.9409    1.0000 </r>
       <r>   -1.1684    1.0000 </r>
       <r>   -0.9262    1.0000 </r>
       <r>   -0.7879    1.0000 </r>
       <r>   -0.7175    1.0000 </r>
       <r>    1.7510   -0.0000 </r>
       <r>    1.9854   -0.0000 </r>
       <r>    2.3159   -0.0000 </r>
       <r>    2.4001   -0.0000 </r>
       <r>    2.5087   -0.0000 </r>
       <r>    2.7104   -0.0000 </r>
       <r>    3.9235    0.0000 </r>
       <r>    3.9771    0.0000 </r>
       <r>    6.6230    0.0000 </r>
       <r>    6.7219    0.0000 </r>
       <r>    8.3186    0.0000 </r>
       <r>    8.6118    0.0000 </r>
      </set>
      <set comment="kpoint 24">
       <r>  -35.0575    1.0000 </r>
       <r>  -35.0481    1.0000 </r>
       <r>  -34.9408    1.0000 </r>
       <r>  -34.9312    1.0000 </r>
       <r>  -34.8951    1.0000 </r>
       <r>  -34.8854    1.0000 </r>
       <r>  -12.6541    1.0000 </r>
       <r>  -12.6061    1.0000 </r>
       <r>  -12.1509    1.0000 </r>
       <r>  -12.0933    1.0000 </r>
       <r>   -5.0293    1.0000 </r>
       <r>   -4.9251    1.0000 </r>
       <r>   -4.1062    1.0000 </r>
       <r>   -4.0552    1.0000 </r>
       <r>   -3.7989    1.0000 </r>
       <r>   -3.6478    1.0000 </r>
       <r>   -3.3190    1.0000 </r>
       <r>   -3.1673    1.0000 </r>
       <r>   -2.0790    1.0000 </r>
       <r>   -2.0607    1.0000 </r>
       <r>   -1.3727    1.0000 </r>
       <r>   -1.1777    1.0000 </r>
       <r>   -0.8406    1.0000 </r>
       <r>   -0.8191    1.0000 </r>
       <r>    1.7797   -0.0000 </r>
       <r>    2.0385   -0.0000 </r>
       <r>    2.3856   -0.0000 </r>
       <r>    2.4449   -0.0000 </r>
       <r>    2.7640   -0.0000 </r>
       <r>    2.9735   -0.0000 </r>
       <r>    4.1753    0.0000 </r>
       <r>    4.2614    0.0000 </r>
       <r>    7.2629    0.0000 </r>
       <r>    7.3463    0.0000 </r>
       <r>    8.1778    0.0000 </r>
       <r>    8.4823    0.0000 </r>
      </set>
      <set comment="kpoint 25">
       <r>  -35.1082    1.0000 </r>
       <r>  -35.0987    1.0000 </r>
       <r>  -34.9282    1.0000 </r>
       <r>  -34.9210    1.0000 </r>
       <r>  -34.9187    1.0000 </r>
       <r>  -34.9113    1.0000 </r>
       <r>  -12.2790    1.0000 </r>
       <r>  -12.2385    1.0000 </r>
       <r>  -11.9926    1.0000 </r>
       <r>  -11.9483    1.0000 </r>
       <r>   -5.2281    1.0000 </r>
       <r>   -5.1651    1.0000 </r>
       <r>   -4.6458    1.0000 </r>
       <r>   -4.6091    1.0000 </r>
       <r>   -3.8170    1.0000 </r>
       <r>   -3.6754    1.0000 </r>
       <r>   -3.2883    1.0000 </r>
       <r>   -3.1679    1.0000 </r>
       <r>   -2.2330    1.0000 </r>
       <r>   -2.1650    1.0000 </r>
       <r>   -1.6991    1.0000 </r>
       <r>   -1.5244    1.0000 </r>
       <r>   -0.6699    1.0000 </r>
       <r>   -0.6426    1.0000 </r>
       <r>    2.0057   -0.0000 </r>
       <r>    2.2069   -0.0000 </r>
       <r>    2.5042   -0.0000 </r>
       <r>    2.5508   -0.0000 </r>
       <r>    3.1085    0.0000 </r>
       <r>    3.2998    0.0000 </r>
       <r>    4.2480    0.0000 </r>
       <r>    4.3635    0.0000 </r>
       <r>    7.1003    0.0000 </r>
       <r>    7.4521    0.0000 </r>
       <r>    8.0796    0.0000 </r>
       <r>    8.3183    0.0000 </r>
      </set>
      <set comment="kpoint 26">
       <r>  -35.1363    1.0000 </r>
       <r>  -35.1269    1.0000 </r>
       <r>  -34.9359    1.0000 </r>
       <r>  -34.9263    1.0000 </r>
       <r>  -34.9211    1.0000 </r>
       <r>  -34.9114    1.0000 </r>
       <r>  -12.0459    1.0000 </r>
       <r>  -12.0138    1.0000 </r>
       <r>  -11.8944    1.0000 </r>
       <r>  -11.8614    1.0000 </r>
       <r>   -5.3559    1.0000 </r>
       <r>   -5.3120    1.0000 </r>
       <r>   -4.9526    1.0000 </r>
       <r>   -4.9187    1.0000 </r>
       <r>   -3.9526    1.0000 </r>
       <r>   -3.8261    1.0000 </r>
       <r>   -3.1921    1.0000 </r>
       <r>   -3.1206    1.0000 </r>
       <r>   -2.2399    1.0000 </r>
       <r>   -2.1522    1.0000 </r>
       <r>   -1.9536    1.0000 </r>
       <r>   -1.7735    1.0000 </r>
       <r>   -0.4442    1.0000 </r>
       <r>   -0.3996    1.0000 </r>
       <r>    2.0578   -0.0000 </r>
       <r>    2.1048   -0.0000 </r>
       <r>    2.7584   -0.0000 </r>
       <r>    2.8495   -0.0000 </r>
       <r>    3.3749    0.0000 </r>
       <r>    3.5130    0.0000 </r>
       <r>    4.1939    0.0000 </r>
       <r>    4.3516    0.0000 </r>
       <r>    6.3873    0.0000 </r>
       <r>    6.8399    0.0000 </r>
       <r>    8.6923    0.0000 </r>
       <r>    8.7904    0.0000 </r>
      </set>
      <set comment="kpoint 27">
       <r>  -35.1364    1.0000 </r>
       <r>  -35.1269    1.0000 </r>
       <r>  -34.9359    1.0000 </r>
       <r>  -34.9263    1.0000 </r>
       <r>  -34.9211    1.0000 </r>
       <r>  -34.9114    1.0000 </r>
       <r>  -12.0444    1.0000 </r>
       <r>  -12.0147    1.0000 </r>
       <r>  -11.8935    1.0000 </r>
       <r>  -11.8629    1.0000 </r>
       <r>   -5.3556    1.0000 </r>
       <r>   -5.3126    1.0000 </r>
       <r>   -4.9519    1.0000 </r>
       <r>   -4.9192    1.0000 </r>
       <r>   -3.9524    1.0000 </r>
       <r>   -3.8261    1.0000 </r>
       <r>   -3.1931    1.0000 </r>
       <r>   -3.1186    1.0000 </r>
       <r>   -2.2248    1.0000 </r>
       <r>   -2.1605    1.0000 </r>
       <r>   -1.9592    1.0000 </r>
       <r>   -1.7774    1.0000 </r>
       <r>   -0.4441    1.0000 </r>
       <r>   -0.3991    1.0000 </r>
       <r>    2.0552   -0.0000 </r>
       <r>    2.1074   -0.0000 </r>
       <r>    2.7580   -0.0000 </r>
       <r>    2.8504   -0.0000 </r>
       <r>    3.4159    0.0000 </r>
       <r>    3.4695    0.0000 </r>
       <r>    4.1927    0.0000 </r>
       <r>    4.3526    0.0000 </r>
       <r>    6.3887    0.0000 </r>
       <r>    6.8406    0.0000 </r>
       <r>    8.7394    0.0000 </r>
       <r>    8.9073    0.0000 </r>
      </set>
      <set comment="kpoint 28">
       <r>  -35.1082    1.0000 </r>
       <r>  -35.0987    1.0000 </r>
       <r>  -34.9282    1.0000 </r>
       <r>  -34.9210    1.0000 </r>
       <r>  -34.9186    1.0000 </r>
       <r>  -34.9113    1.0000 </r>
       <r>  -12.2764    1.0000 </r>
       <r>  -12.2404    1.0000 </r>
       <r>  -11.9904    1.0000 </r>
       <r>  -11.9512    1.0000 </r>
       <r>   -5.2280    1.0000 </r>
       <r>   -5.1660    1.0000 </r>
       <r>   -4.6440    1.0000 </r>
       <r>   -4.6111    1.0000 </r>
       <r>   -3.8133    1.0000 </r>
       <r>   -3.6779    1.0000 </r>
       <r>   -3.2866    1.0000 </r>
       <r>   -3.1673    1.0000 </r>
       <r>   -2.2130    1.0000 </r>
       <r>   -2.1799    1.0000 </r>
       <r>   -1.7007    1.0000 </r>
       <r>   -1.5355    1.0000 </r>
       <r>   -0.6708    1.0000 </r>
       <r>   -0.6403    1.0000 </r>
       <r>    2.0018   -0.0000 </r>
       <r>    2.2136   -0.0000 </r>
       <r>    2.5072   -0.0000 </r>
       <r>    2.5457   -0.0000 </r>
       <r>    3.1474    0.0000 </r>
       <r>    3.2562    0.0000 </r>
       <r>    4.2482    0.0000 </r>
       <r>    4.3649    0.0000 </r>
       <r>    7.0969    0.0000 </r>
       <r>    7.4555    0.0000 </r>
       <r>    8.0796    0.0000 </r>
       <r>    8.3557    0.0000 </r>
      </set>
      <set comment="kpoint 29">
       <r>  -35.0576    1.0000 </r>
       <r>  -35.0481    1.0000 </r>
       <r>  -34.9408    1.0000 </r>
       <r>  -34.9312    1.0000 </r>
       <r>  -34.8950    1.0000 </r>
       <r>  -34.8854    1.0000 </r>
       <r>  -12.6519    1.0000 </r>
       <r>  -12.6078    1.0000 </r>
       <r>  -12.1485    1.0000 </r>
       <r>  -12.0961    1.0000 </r>
       <r>   -5.0302    1.0000 </r>
       <r>   -4.9248    1.0000 </r>
       <r>   -4.1043    1.0000 </r>
       <r>   -4.0601    1.0000 </r>
       <r>   -3.7840    1.0000 </r>
       <r>   -3.6575    1.0000 </r>
       <r>   -3.3156    1.0000 </r>
       <r>   -3.1697    1.0000 </r>
       <r>   -2.0824    1.0000 </r>
       <r>   -2.0560    1.0000 </r>
       <r>   -1.3591    1.0000 </r>
       <r>   -1.2000    1.0000 </r>
       <r>   -0.8480    1.0000 </r>
       <r>   -0.8130    1.0000 </r>
       <r>    1.7819   -0.0000 </r>
       <r>    2.0386   -0.0000 </r>
       <r>    2.3871   -0.0000 </r>
       <r>    2.4401   -0.0000 </r>
       <r>    2.7841   -0.0000 </r>
       <r>    2.9547   -0.0000 </r>
       <r>    4.1795    0.0000 </r>
       <r>    4.2596    0.0000 </r>
       <r>    7.2628    0.0000 </r>
       <r>    7.3463    0.0000 </r>
       <r>    8.1286    0.0000 </r>
       <r>    8.5759    0.0000 </r>
      </set>
      <set comment="kpoint 30">
       <r>  -34.9948    1.0000 </r>
       <r>  -34.9852    1.0000 </r>
       <r>  -34.9560    1.0000 </r>
       <r>  -34.9464    1.0000 </r>
       <r>  -34.8646    1.0000 </r>
       <r>  -34.8551    1.0000 </r>
       <r>  -13.0588    1.0000 </r>
       <r>  -13.0090    1.0000 </r>
       <r>  -12.3210    1.0000 </r>
       <r>  -12.2553    1.0000 </r>
       <r>   -4.9540    1.0000 </r>
       <r>   -4.7560    1.0000 </r>
       <r>   -3.8116    1.0000 </r>
       <r>   -3.7431    1.0000 </r>
       <r>   -3.5248    1.0000 </r>
       <r>   -3.4013    1.0000 </r>
       <r>   -3.0959    1.0000 </r>
       <r>   -3.0012    1.0000 </r>
       <r>   -1.9542    1.0000 </r>
       <r>   -1.9368    1.0000 </r>
       <r>   -1.1395    1.0000 </r>
       <r>   -0.9481    1.0000 </r>
       <r>   -0.7865    1.0000 </r>
       <r>   -0.7388    1.0000 </r>
       <r>    1.7569   -0.0000 </r>
       <r>    1.9842   -0.0000 </r>
       <r>    2.3180   -0.0000 </r>
       <r>    2.3969   -0.0000 </r>
       <r>    2.5184   -0.0000 </r>
       <r>    2.7057   -0.0000 </r>
       <r>    3.9206    0.0000 </r>
       <r>    3.9814    0.0000 </r>
       <r>    6.6238    0.0000 </r>
       <r>    6.7201    0.0000 </r>
       <r>    8.3164    0.0000 </r>
       <r>    8.6125    0.0000 </r>
      </set>
      <set comment="kpoint 31">
       <r>  -34.9703    1.0000 </r>
       <r>  -34.9606    1.0000 </r>
       <r>  -34.9328    1.0000 </r>
       <r>  -34.9231    1.0000 </r>
       <r>  -34.8382    1.0000 </r>
       <r>  -34.8288    1.0000 </r>
       <r>  -13.4080    1.0000 </r>
       <r>  -13.3549    1.0000 </r>
       <r>  -12.4692    1.0000 </r>
       <r>  -12.3926    1.0000 </r>
       <r>   -5.1256    1.0000 </r>
       <r>   -4.8624    1.0000 </r>
       <r>   -3.5677    1.0000 </r>
       <r>   -3.5468    1.0000 </r>
       <r>   -3.2355    1.0000 </r>
       <r>   -3.0073    1.0000 </r>
       <r>   -2.4693    1.0000 </r>
       <r>   -2.4437    1.0000 </r>
       <r>   -2.0829    1.0000 </r>
       <r>   -2.0712    1.0000 </r>
       <r>   -1.1651    1.0000 </r>
       <r>   -0.9083    1.0000 </r>
       <r>   -0.5452    1.0000 </r>
       <r>   -0.4278    1.0000 </r>
       <r>    1.9583   -0.0000 </r>
       <r>    2.1824   -0.0000 </r>
       <r>    2.3850   -0.0000 </r>
       <r>    2.4204   -0.0000 </r>
       <r>    2.4673   -0.0000 </r>
       <r>    2.6212   -0.0000 </r>
       <r>    3.5225    0.0000 </r>
       <r>    3.5644    0.0000 </r>
       <r>    6.1065    0.0000 </r>
       <r>    6.2142    0.0000 </r>
       <r>    7.8011    0.0000 </r>
       <r>    8.2952    0.0000 </r>
      </set>
      <set comment="kpoint 32">
       <r>  -34.9804    1.0000 </r>
       <r>  -34.9707    1.0000 </r>
       <r>  -34.8847    1.0000 </r>
       <r>  -34.8750    1.0000 </r>
       <r>  -34.8231    1.0000 </r>
       <r>  -34.8137    1.0000 </r>
       <r>  -13.6400    1.0000 </r>
       <r>  -13.5851    1.0000 </r>
       <r>  -12.5675    1.0000 </r>
       <r>  -12.4837    1.0000 </r>
       <r>   -5.3266    1.0000 </r>
       <r>   -5.0457    1.0000 </r>
       <r>   -3.2628    1.0000 </r>
       <r>   -3.2496    1.0000 </r>
       <r>   -2.9623    1.0000 </r>
       <r>   -2.6889    1.0000 </r>
       <r>   -2.2793    1.0000 </r>
       <r>   -2.2686    1.0000 </r>
       <r>   -2.0053    1.0000 </r>
       <r>   -1.9930    1.0000 </r>
       <r>   -1.2624    1.0000 </r>
       <r>   -0.9521    1.0000 </r>
       <r>   -0.3718    1.0000 </r>
       <r>   -0.1500    1.0000 </r>
       <r>    2.1856   -0.0000 </r>
       <r>    2.3564   -0.0000 </r>
       <r>    2.4976   -0.0000 </r>
       <r>    2.5474   -0.0000 </r>
       <r>    2.5811   -0.0000 </r>
       <r>    2.6102   -0.0000 </r>
       <r>    3.1886    0.0000 </r>
       <r>    3.2136    0.0000 </r>
       <r>    5.7826    0.0000 </r>
       <r>    5.8920    0.0000 </r>
       <r>    7.4104    0.0000 </r>
       <r>    7.8187    0.0000 </r>
      </set>
      <set comment="kpoint 33">
       <r>  -34.9840    1.0000 </r>
       <r>  -34.9744    1.0000 </r>
       <r>  -34.8652    1.0000 </r>
       <r>  -34.8555    1.0000 </r>
       <r>  -34.8198    1.0000 </r>
       <r>  -34.8103    1.0000 </r>
       <r>  -13.7211    1.0000 </r>
       <r>  -13.6655    1.0000 </r>
       <r>  -12.6019    1.0000 </r>
       <r>  -12.5151    1.0000 </r>
       <r>   -5.4058    1.0000 </r>
       <r>   -5.1203    1.0000 </r>
       <r>   -3.1266    1.0000 </r>
       <r>   -3.1144    1.0000 </r>
       <r>   -2.8002    1.0000 </r>
       <r>   -2.4866    1.0000 </r>
       <r>   -2.3663    1.0000 </r>
       <r>   -2.3564    1.0000 </r>
       <r>   -1.9827    1.0000 </r>
       <r>   -1.9715    1.0000 </r>
       <r>   -1.2037    1.0000 </r>
       <r>   -0.8881    1.0000 </r>
       <r>   -0.3196    1.0000 </r>
       <r>   -0.0373    1.0002 </r>
       <r>    2.2880   -0.0000 </r>
       <r>    2.4169   -0.0000 </r>
       <r>    2.4542   -0.0000 </r>
       <r>    2.5443   -0.0000 </r>
       <r>    2.6200   -0.0000 </r>
       <r>    2.6399   -0.0000 </r>
       <r>    3.1255    0.0000 </r>
       <r>    3.1393    0.0000 </r>
       <r>    5.6733    0.0000 </r>
       <r>    5.7848    0.0000 </r>
       <r>    7.2601    0.0000 </r>
       <r>    7.5956    0.0000 </r>
      </set>
      <set comment="kpoint 34">
       <r>  -34.9661    1.0000 </r>
       <r>  -34.9643    1.0000 </r>
       <r>  -34.9567    1.0000 </r>
       <r>  -34.9545    1.0000 </r>
       <r>  -34.8420    1.0000 </r>
       <r>  -34.8324    1.0000 </r>
       <r>  -13.2655    1.0000 </r>
       <r>  -13.2113    1.0000 </r>
       <r>  -12.4109    1.0000 </r>
       <r>  -12.3352    1.0000 </r>
       <r>   -5.0636    1.0000 </r>
       <r>   -4.8286    1.0000 </r>
       <r>   -3.7376    1.0000 </r>
       <r>   -3.6681    1.0000 </r>
       <r>   -3.4928    1.0000 </r>
       <r>   -3.3059    1.0000 </r>
       <r>   -2.4005    1.0000 </r>
       <r>   -2.3879    1.0000 </r>
       <r>   -1.9105    1.0000 </r>
       <r>   -1.8984    1.0000 </r>
       <r>   -1.4697    1.0000 </r>
       <r>   -1.1135    1.0000 </r>
       <r>   -0.6986    1.0000 </r>
       <r>   -0.5686    1.0000 </r>
       <r>    1.9319   -0.0000 </r>
       <r>    2.2345   -0.0000 </r>
       <r>    2.2998   -0.0000 </r>
       <r>    2.3301   -0.0000 </r>
       <r>    2.6843   -0.0000 </r>
[...]
       <r>    -2.2069     1.5900    18.4297 </r>
       <r>    -2.0449     3.1826    18.9454 </r>
       <r>    -1.8829     3.9622    19.5875 </r>
       <r>    -1.7208     3.1150    20.0922 </r>
       <r>    -1.5588     2.9757    20.5744 </r>
       <r>    -1.3967     3.3340    21.1147 </r>
       <r>    -1.2347     1.5518    21.3662 </r>
       <r>    -1.0726     2.2887    21.7370 </r>
       <r>    -0.9106     1.7310    22.0175 </r>
       <r>    -0.7486     3.6884    22.6152 </r>
       <r>    -0.5865     2.9235    23.0889 </r>
       <r>    -0.4245     2.1330    23.4345 </r>
       <r>    -0.2624     1.9144    23.7448 </r>
       <r>    -0.1004     1.0231    23.9105 </r>
       <r>     0.0616     0.3092    23.9606 </r>
       <r>     0.2237     0.2278    23.9976 </r>
       <r>     0.3857     0.0160    24.0002 </r>
       <r>     0.5478    -0.0010    24.0000 </r>
       <r>     0.7098    -0.0000    24.0000 </r>
       <r>     0.8719    -0.0000    24.0000 </r>
       <r>     1.0339    -0.0000    24.0000 </r>
       <r>     1.1959    -0.0000    24.0000 </r>
       <r>     1.3580    -0.0000    24.0000 </r>
       <r>     1.5200    -0.0105    23.9983 </r>
       <r>     1.6821     0.2028    24.0312 </r>
       <r>     1.8441     1.2769    24.2381 </r>
       <r>     2.0061     2.8429    24.6987 </r>
       <r>     2.1682     5.3114    25.5594 </r>
       <r>     2.3302     3.5428    26.1335 </r>
       <r>     2.4923     4.9663    26.9382 </r>
       <r>     2.6543     4.8839    27.7296 </r>
       <r>     2.8164     3.3152    28.2668 </r>
       <r>     2.9784     2.9084    28.7381 </r>
       <r>     3.1404     2.6530    29.1680 </r>
       <r>     3.3025     2.4618    29.5669 </r>
       <r>     3.4645     1.5988    29.8260 </r>
       <r>     3.6266     2.1276    30.1708 </r>
       <r>     3.7886     0.9135    30.3188 </r>
       <r>     3.9506     2.0101    30.6445 </r>
       <r>     4.1127     2.1077    30.9860 </r>
       <r>     4.2747     2.9428    31.4629 </r>
       <r>     4.4368     1.5215    31.7094 </r>
       <r>     4.5988     1.0629    31.8817 </r>
       <r>     4.7608     0.6484    31.9868 </r>
       <r>     4.9229     0.0864    32.0008 </r>
       <r>     5.0849    -0.0049    32.0000 </r>
       <r>     5.2470     0.0028    32.0004 </r>
       <r>     5.4090     0.1198    32.0198 </r>
       <r>     5.5711     0.3272    32.0728 </r>
       <r>     5.7331     0.3133    32.1236 </r>
       <r>     5.8951     0.5397    32.2111 </r>
       <r>     6.0572     0.3608    32.2695 </r>
       <r>     6.2192     0.8300    32.4040 </r>
       <r>     6.3813     0.9070    32.5510 </r>
       <r>     6.5433     0.9377    32.7029 </r>
       <r>     6.7053     0.9856    32.8626 </r>
       <r>     6.8674     1.7632    33.1483 </r>
       <r>     7.0294     1.5962    33.4070 </r>
       <r>     7.1915     0.8191    33.5397 </r>
       <r>     7.3535     2.0196    33.8670 </r>
       <r>     7.5156     1.5026    34.1105 </r>
       <r>     7.6776     1.0122    34.2745 </r>
       <r>     7.8396     0.9776    34.4329 </r>
       <r>     8.0017     1.3831    34.6570 </r>
       <r>     8.1637     2.1079    34.9986 </r>
       <r>     8.3258     2.4752    35.3997 </r>
       <r>     8.4878     1.1096    35.5795 </r>
       <r>     8.6498     1.4007    35.8064 </r>
       <r>     8.8119     0.8287    35.9407 </r>
       <r>     8.9739     0.2858    35.9870 </r>
       <r>     9.1360     0.0841    36.0007 </r>
       <r>     9.2980    -0.0040    36.0000 </r>
       <r>     9.4601    -0.0000    36.0000 </r>
       <r>     9.6221    -0.0000    36.0000 </r>
       <r>     9.7841     0.0000    36.0000 </r>
       <r>     9.9462     0.0000    36.0000 </r>
       <r>    10.1082     0.0000    36.0000 </r>
       <r>    10.2703     0.0000    36.0000 </r>
       <r>    10.4323     0.0000    36.0000 </r>
       <r>    10.5943     0.0000    36.0000 </r>
       <r>    10.7564     0.0000    36.0000 </r>
       <r>    10.9184     0.0000    36.0000 </r>
       <r>    11.0805     0.0000    36.0000 </r>
       <r>    11.2425     0.0000    36.0000 </r>
      </set>
      <set comment="spin 2">
       <r>   -37.3700     0.0000     0.0000 </r>
       <r>   -37.2079     0.0000     0.0000 </r>
       <r>   -37.0459     0.0000     0.0000 </r>
       <r>   -36.8838     0.0000     0.0000 </r>
       <r>   -36.7218     0.0000     0.0000 </r>
       <r>   -36.5598     0.0000     0.0000 </r>
       <r>   -36.3977     0.0000     0.0000 </r>
       <r>   -36.2357     0.0000     0.0000 </r>
       <r>   -36.0736    -0.0000    -0.0000 </r>
       <r>   -35.9116    -0.0000    -0.0000 </r>
       <r>   -35.7495    -0.0000    -0.0000 </r>
       <r>   -35.5875    -0.0000    -0.0000 </r>
       <r>   -35.4255    -0.0008    -0.0001 </r>
       <r>   -35.2634    -0.1852    -0.0301 </r>
       <r>   -35.1014     4.0618     0.6280 </r>
       <r>   -34.9393    15.0770     3.0711 </r>
       <r>   -34.7773    18.0517     5.9963 </r>
       <r>   -34.6153     0.0512     6.0046 </r>
       <r>   -34.4532    -0.0282     6.0000 </r>
       <r>   -34.2912    -0.0000     6.0000 </r>
       <r>   -34.1291    -0.0000     6.0000 </r>
       <r>   -33.9671     0.0000     6.0000 </r>
       <r>   -33.8050     0.0000     6.0000 </r>
       <r>   -33.6430     0.0000     6.0000 </r>
       <r>   -33.4810     0.0000     6.0000 </r>
       <r>   -33.3189     0.0000     6.0000 </r>
       <r>   -33.1569     0.0000     6.0000 </r>
       <r>   -32.9948     0.0000     6.0000 </r>
       <r>   -32.8328     0.0000     6.0000 </r>
       <r>   -32.6708     0.0000     6.0000 </r>
       <r>   -32.5087     0.0000     6.0000 </r>
       <r>   -32.3467     0.0000     6.0000 </r>
       <r>   -32.1846     0.0000     6.0000 </r>
       <r>   -32.0226     0.0000     6.0000 </r>
       <r>   -31.8605     0.0000     6.0000 </r>
       <r>   -31.6985     0.0000     6.0000 </r>
       <r>   -31.5365     0.0000     6.0000 </r>
       <r>   -31.3744     0.0000     6.0000 </r>
       <r>   -31.2124     0.0000     6.0000 </r>
       <r>   -31.0503     0.0000     6.0000 </r>
       <r>   -30.8883     0.0000     6.0000 </r>
       <r>   -30.7263     0.0000     6.0000 </r>
       <r>   -30.5642     0.0000     6.0000 </r>
       <r>   -30.4022     0.0000     6.0000 </r>
       <r>   -30.2401     0.0000     6.0000 </r>
       <r>   -30.0781     0.0000     6.0000 </r>
       <r>   -29.9161     0.0000     6.0000 </r>
       <r>   -29.7540     0.0000     6.0000 </r>
       <r>   -29.5920     0.0000     6.0000 </r>
       <r>   -29.4299     0.0000     6.0000 </r>
       <r>   -29.2679     0.0000     6.0000 </r>
       <r>   -29.1058     0.0000     6.0000 </r>
       <r>   -28.9438     0.0000     6.0000 </r>
       <r>   -28.7818     0.0000     6.0000 </r>
       <r>   -28.6197     0.0000     6.0000 </r>
       <r>   -28.4577     0.0000     6.0000 </r>
       <r>   -28.2956     0.0000     6.0000 </r>
       <r>   -28.1336     0.0000     6.0000 </r>
       <r>   -27.9716     0.0000     6.0000 </r>
       <r>   -27.8095     0.0000     6.0000 </r>
       <r>   -27.6475     0.0000     6.0000 </r>
       <r>   -27.4854     0.0000     6.0000 </r>
       <r>   -27.3234     0.0000     6.0000 </r>
       <r>   -27.1613     0.0000     6.0000 </r>
       <r>   -26.9993     0.0000     6.0000 </r>
       <r>   -26.8373     0.0000     6.0000 </r>
       <r>   -26.6752     0.0000     6.0000 </r>
       <r>   -26.5132     0.0000     6.0000 </r>
       <r>   -26.3511     0.0000     6.0000 </r>
       <r>   -26.1891     0.0000     6.0000 </r>
       <r>   -26.0271     0.0000     6.0000 </r>
       <r>   -25.8650     0.0000     6.0000 </r>
       <r>   -25.7030     0.0000     6.0000 </r>
       <r>   -25.5409     0.0000     6.0000 </r>
       <r>   -25.3789     0.0000     6.0000 </r>
       <r>   -25.2168     0.0000     6.0000 </r>
       <r>   -25.0548     0.0000     6.0000 </r>
       <r>   -24.8928     0.0000     6.0000 </r>
       <r>   -24.7307     0.0000     6.0000 </r>
       <r>   -24.5687     0.0000     6.0000 </r>
       <r>   -24.4066     0.0000     6.0000 </r>
       <r>   -24.2446     0.0000     6.0000 </r>
       <r>   -24.0826     0.0000     6.0000 </r>
       <r>   -23.9205     0.0000     6.0000 </r>
       <r>   -23.7585     0.0000     6.0000 </r>
       <r>   -23.5964     0.0000     6.0000 </r>
       <r>   -23.4344     0.0000     6.0000 </r>
       <r>   -23.2723     0.0000     6.0000 </r>
       <r>   -23.1103     0.0000     6.0000 </r>
       <r>   -22.9483     0.0000     6.0000 </r>
       <r>   -22.7862     0.0000     6.0000 </r>
       <r>   -22.6242     0.0000     6.0000 </r>
       <r>   -22.4621     0.0000     6.0000 </r>
       <r>   -22.3001     0.0000     6.0000 </r>
       <r>   -22.1381     0.0000     6.0000 </r>
       <r>   -21.9760     0.0000     6.0000 </r>
       <r>   -21.8140     0.0000     6.0000 </r>
       <r>   -21.6519     0.0000     6.0000 </r>
       <r>   -21.4899     0.0000     6.0000 </r>
       <r>   -21.3278     0.0000     6.0000 </r>
       <r>   -21.1658     0.0000     6.0000 </r>
       <r>   -21.0038     0.0000     6.0000 </r>
       <r>   -20.8417     0.0000     6.0000 </r>
       <r>   -20.6797     0.0000     6.0000 </r>
       <r>   -20.5176     0.0000     6.0000 </r>
       <r>   -20.3556     0.0000     6.0000 </r>
       <r>   -20.1936     0.0000     6.0000 </r>
       <r>   -20.0315     0.0000     6.0000 </r>
       <r>   -19.8695     0.0000     6.0000 </r>
       <r>   -19.7074     0.0000     6.0000 </r>
       <r>   -19.5454     0.0000     6.0000 </r>
       <r>   -19.3833     0.0000     6.0000 </r>
       <r>   -19.2213     0.0000     6.0000 </r>
       <r>   -19.0593     0.0000     6.0000 </r>
       <r>   -18.8972     0.0000     6.0000 </r>
       <r>   -18.7352     0.0000     6.0000 </r>
       <r>   -18.5731     0.0000     6.0000 </r>
       <r>   -18.4111     0.0000     6.0000 </r>
       <r>   -18.2491     0.0000     6.0000 </r>
       <r>   -18.0870     0.0000     6.0000 </r>
       <r>   -17.9250     0.0000     6.0000 </r>
       <r>   -17.7629     0.0000     6.0000 </r>
       <r>   -17.6009     0.0000     6.0000 </r>
       <r>   -17.4388     0.0000     6.0000 </r>
       <r>   -17.2768     0.0000     6.0000 </r>
       <r>   -17.1148     0.0000     6.0000 </r>
       <r>   -16.9527     0.0000     6.0000 </r>
       <r>   -16.7907     0.0000     6.0000 </r>
       <r>   -16.6286     0.0000     6.0000 </r>
       <r>   -16.4666     0.0000     6.0000 </r>
       <r>   -16.3046     0.0000     6.0000 </r>
       <r>   -16.1425     0.0000     6.0000 </r>
       <r>   -15.9805     0.0000     6.0000 </r>
       <r>   -15.8184     0.0000     6.0000 </r>
       <r>   -15.6564     0.0000     6.0000 </r>
       <r>   -15.4943     0.0000     6.0000 </r>
       <r>   -15.3323     0.0000     6.0000 </r>
       <r>   -15.1703     0.0000     6.0000 </r>
       <r>   -15.0082     0.0000     6.0000 </r>
       <r>   -14.8462    -0.0000     6.0000 </r>
       <r>   -14.6841    -0.0000     6.0000 </r>
       <r>   -14.5221    -0.0000     6.0000 </r>
       <r>   -14.3601    -0.0000     6.0000 </r>
       <r>   -14.1980    -0.0002     6.0000 </r>
       <r>   -14.0360    -0.0062     5.9990 </r>
       <r>   -13.8739     0.2436     6.0385 </r>
       <r>   -13.7119     0.4447     6.1105 </r>
       <r>   -13.5498     0.6534     6.2164 </r>
       <r>   -13.3878     0.4402     6.2877 </r>
       <r>   -13.2258     0.7630     6.4113 </r>
       <r>   -13.0637     0.3055     6.4609 </r>
       <r>   -12.9017     1.1217     6.6426 </r>
       <r>   -12.7396     0.4208     6.7108 </r>
       <r>   -12.5776     1.6797     6.9830 </r>
       <r>   -12.4156     2.2613     7.3494 </r>
       <r>   -12.2535     2.7871     7.8010 </r>
       <r>   -12.0915     3.9032     8.4335 </r>
       <r>   -11.9294     5.5677     9.3357 </r>
       <r>   -11.7674     3.9486     9.9756 </r>
       <r>   -11.6054     0.1629    10.0020 </r>
       <r>   -11.4433    -0.0121    10.0000 </r>
       <r>   -11.2813    -0.0000    10.0000 </r>
       <r>   -11.1192    -0.0000    10.0000 </r>
       <r>   -10.9572     0.0000    10.0000 </r>
       <r>   -10.7951     0.0000    10.0000 </r>
       <r>   -10.6331     0.0000    10.0000 </r>
       <r>   -10.4711     0.0000    10.0000 </r>
       <r>   -10.3090     0.0000    10.0000 </r>
       <r>   -10.1470     0.0000    10.0000 </r>
       <r>    -9.9849     0.0000    10.0000 </r>
       <r>    -9.8229     0.0000    10.0000 </r>
       <r>    -9.6609     0.0000    10.0000 </r>
       <r>    -9.4988     0.0000    10.0000 </r>
       <r>    -9.3368     0.0000    10.0000 </r>
       <r>    -9.1747     0.0000    10.0000 </r>
       <r>    -9.0127     0.0000    10.0000 </r>
       <r>    -8.8506     0.0000    10.0000 </r>
       <r>    -8.6886     0.0000    10.0000 </r>
       <r>    -8.5266     0.0000    10.0000 </r>
       <r>    -8.3645     0.0000    10.0000 </r>
       <r>    -8.2025     0.0000    10.0000 </r>
       <r>    -8.0404     0.0000    10.0000 </r>
       <r>    -7.8784     0.0000    10.0000 </r>
       <r>    -7.7164     0.0000    10.0000 </r>
       <r>    -7.5543     0.0000    10.0000 </r>
       <r>    -7.3923     0.0000    10.0000 </r>
       <r>    -7.2302     0.0000    10.0000 </r>
       <r>    -7.0682     0.0000    10.0000 </r>
       <r>    -6.9061     0.0000    10.0000 </r>
       <r>    -6.7441     0.0000    10.0000 </r>
       <r>    -6.5821    -0.0000    10.0000 </r>
       <r>    -6.4200    -0.0000    10.0000 </r>
       <r>    -6.2580    -0.0000    10.0000 </r>
       <r>    -6.0959    -0.0000    10.0000 </r>
       <r>    -5.9339    -0.0002    10.0000 </r>
       <r>    -5.7719    -0.0228     9.9963 </r>
       <r>    -5.6098     0.6175    10.0963 </r>
       <r>    -5.4478     1.2720    10.3024 </r>
       <r>    -5.2857     2.1614    10.6527 </r>
       <r>    -5.1237     2.8565    11.1155 </r>
       <r>    -4.9616     4.7863    11.8911 </r>
       <r>    -4.7996     2.7068    12.3297 </r>
       <r>    -4.6376     2.3835    12.7160 </r>
       <r>    -4.4755     1.4446    12.9500 </r>
       <r>    -4.3135     0.4106    13.0166 </r>
       <r>    -4.1514     0.7484    13.1379 </r>
       <r>    -3.9894     1.7896    13.4278 </r>
       <r>    -3.8274     3.9673    14.0707 </r>
       <r>    -3.6653     4.8372    14.8545 </r>
       <r>    -3.5033     2.7790    15.3048 </r>
       <r>    -3.3412     1.1136    15.4853 </r>
       <r>    -3.1792     3.4833    16.0497 </r>
       <r>    -3.0171     5.3645    16.9190 </r>
       <r>    -2.8551     3.0700    17.4165 </r>
       <r>    -2.6931     1.7227    17.6956 </r>
       <r>    -2.5310     0.9588    17.8510 </r>
       <r>    -2.3690     1.9816    18.1721 </r>
       <r>    -2.2069     1.5903    18.4298 </r>
       <r>    -2.0449     3.1828    18.9455 </r>
       <r>    -1.8829     3.9622    19.5876 </r>
       <r>    -1.7208     3.1154    20.0924 </r>
       <r>    -1.5588     2.9752    20.5745 </r>
       <r>    -1.3967     3.3343    21.1148 </r>
       <r>    -1.2347     1.5515    21.3662 </r>
       <r>    -1.0726     2.2887    21.7371 </r>
       <r>    -0.9106     1.7314    22.0176 </r>
       <r>    -0.7486     3.6877    22.6152 </r>
       <r>    -0.5865     2.9236    23.0889 </r>
       <r>    -0.4245     2.1329    23.4346 </r>
       <r>    -0.2624     1.9145    23.7448 </r>
       <r>    -0.1004     1.0229    23.9105 </r>
       <r>     0.0616     0.3091    23.9606 </r>
       <r>     0.2237     0.2278    23.9976 </r>
       <r>     0.3857     0.0160    24.0002 </r>
       <r>     0.5478    -0.0010    24.0000 </r>
       <r>     0.7098    -0.0000    24.0000 </r>
       <r>     0.8719    -0.0000    24.0000 </r>
       <r>     1.0339    -0.0000    24.0000 </r>
       <r>     1.1959    -0.0000    24.0000 </r>
       <r>     1.3580    -0.0000    24.0000 </r>
       <r>     1.5200    -0.0105    23.9983 </r>
       <r>     1.6821     0.2029    24.0312 </r>
       <r>     1.8441     1.2770    24.2381 </r>
       <r>     2.0061     2.8434    24.6988 </r>
       <r>     2.1682     5.3112    25.5595 </r>
       <r>     2.3302     3.5429    26.1336 </r>
       <r>     2.4923     4.9665    26.9384 </r>
       <r>     2.6543     4.8836    27.7297 </r>
       <r>     2.8164     3.3151    28.2669 </r>
       <r>     2.9784     2.9085    28.7382 </r>
       <r>     3.1404     2.6532    29.1681 </r>
       <r>     3.3025     2.4615    29.5670 </r>
       <r>     3.4645     1.5988    29.8260 </r>
       <r>     3.6266     2.1275    30.1708 </r>
       <r>     3.7886     0.9135    30.3188 </r>
       <r>     3.9506     2.0102    30.6446 </r>
       <r>     4.1127     2.1079    30.9861 </r>
       <r>     4.2747     2.9426    31.4630 </r>
       <r>     4.4368     1.5214    31.7095 </r>
       <r>     4.5988     1.0629    31.8817 </r>
       <r>     4.7608     0.6483    31.9868 </r>
       <r>     4.9229     0.0863    32.0008 </r>
       <r>     5.0849    -0.0048    32.0000 </r>
       <r>     5.2470     0.0010    32.0001 </r>
       <r>     5.4090     0.0932    32.0153 </r>
       <r>     5.5711     0.3343    32.0694 </r>
       <r>     5.7331     0.2965    32.1175 </r>
       <r>     5.8951     0.5513    32.2068 </r>
       <r>     6.0572     0.3580    32.2648 </r>
       <r>     6.2192     0.8017    32.3947 </r>
       <r>     6.3813     0.9401    32.5471 </r>
       <r>     6.5433     0.9435    32.6999 </r>
       <r>     6.7053     0.8453    32.8369 </r>
       <r>     6.8674     1.7679    33.1234 </r>
       <r>     7.0294     1.5422    33.3733 </r>
       <r>     7.1915     0.9044    33.5198 </r>
       <r>     7.3535     2.0686    33.8550 </r>
       <r>     7.5156     1.5567    34.1073 </r>
       <r>     7.6776     0.9809    34.2662 </r>
       <r>     7.8396     0.9931    34.4272 </r>
       <r>     8.0017     1.3804    34.6508 </r>
       <r>     8.1637     1.8208    34.9459 </r>
       <r>     8.3258     2.8704    35.4110 </r>
       <r>     8.4878     1.0584    35.5825 </r>
       <r>     8.6498     0.9320    35.7335 </r>
       <r>     8.8119     0.8491    35.8711 </r>
       <r>     8.9739     0.5406    35.9587 </r>
       <r>     9.1360     0.2649    36.0017 </r>
       <r>     9.2980    -0.0101    36.0000 </r>
       <r>     9.4601    -0.0001    36.0000 </r>
       <r>     9.6221    -0.0000    36.0000 </r>
       <r>     9.7841    -0.0000    36.0000 </r>
       <r>     9.9462     0.0000    36.0000 </r>
       <r>    10.1082     0.0000    36.0000 </r>
       <r>    10.2703     0.0000    36.0000 </r>
       <r>    10.4323     0.0000    36.0000 </r>
       <r>    10.5943     0.0000    36.0000 </r>
       <r>    10.7564     0.0000    36.0000 </r>
       <r>    10.9184     0.0000    36.0000 </r>
       <r>    11.0805     0.0000    36.0000 </r>
       <r>    11.2425     0.0000    36.0000 </r>
      </set>
     </set>
    </array>
   </total>
  </dos>
 </calculation>
 <structure name="finalpos" >
  <crystal>
   <varray name="basis" >
    <v>       3.19031700       0.00000000       0.00000000 </v>
    <v>      -1.59515800       2.76289700       0.00000000 </v>
    <v>       0.00000000       0.00000000      23.14049200 </v>
   </varray>
   <i name="volume">    203.97226633 </i>
   <varray name="rec_basis" >
    <v>       0.31344848       0.18096941       0.00000000 </v>
    <v>       0.00000000       0.36193894       0.00000000 </v>
    <v>       0.00000000       0.00000000       0.04321429 </v>
   </varray>
  </crystal>
  <varray name="positions" >
   <v>       0.66666700       0.33333300       0.06785900 </v>
   <v>       0.33333300       0.66666700       0.00000000 </v>
   <v>       0.33333300       0.66666700       0.13571500 </v>
   <v>       0.95238129       0.19047586       0.35482300 </v>
   <v>       0.61904729       0.52380986       0.28696500 </v>
   <v>       0.61904729       0.52380986       0.42267900 </v>
  </varray>
 </structure>
</modeling>
