  24  24   0   0
  0.4176334E+02  0.3540400E-09  0.1044544E-08  0.2750143E-08  0.5000000E-15
  1.000000000000000E-004
  CAR 
 unknown system                          
      4.17348041    -15.33520441  301     -0.17348077      1.00000000
    -15.335  0.0000E+00  0.0000E+00
    -15.270  0.0000E+00  0.0000E+00
    -15.205  0.0000E+00  0.0000E+00
    -15.140  0.0000E+00  0.0000E+00
    -15.075  0.0000E+00  0.0000E+00
    -15.010  0.0000E+00  0.0000E+00
    -14.945  0.0000E+00  0.0000E+00
    -14.880  0.9095E-14  0.5914E-15
    -14.815  0.8518E-11  0.5545E-12
    -14.750  0.3478E-08  0.2267E-09
    -14.685  0.6258E-06  0.4092E-07
    -14.620  0.5010E-04  0.3299E-05
    -14.555  0.1813E-02  0.1212E-03
    -14.490  0.3040E-01  0.2098E-02
    -14.425  0.2449E+00  0.1802E-01
    -14.360  0.9882E+00  0.8228E-01
    -14.295  0.2066E+01  0.2166E+00
    -14.230  0.2316E+01  0.3673E+00
    -14.165  0.1757E+01  0.4815E+00
    -14.100  0.1716E+01  0.5931E+00
    -14.035  0.1646E+01  0.7002E+00
    -13.970  0.8682E+00  0.7566E+00
    -13.905  0.4306E+00  0.7846E+00
    -13.840  0.9336E+00  0.8453E+00
    -13.775  0.1638E+01  0.9518E+00
    -13.709  0.1350E+01  0.1040E+01
    -13.644  0.6095E+00  0.1079E+01
    -13.579  0.5990E+00  0.1118E+01
    -13.514  0.1423E+01  0.1211E+01
    -13.449  0.2628E+01  0.1382E+01
    -13.384  0.3545E+01  0.1612E+01
    -13.319  0.3398E+01  0.1833E+01
    -13.254  0.2471E+01  0.1994E+01
    -13.189  0.1786E+01  0.2110E+01
    -13.124  0.1500E+01  0.2207E+01
    -13.059  0.1702E+01  0.2318E+01
    -12.994  0.2931E+01  0.2509E+01
    -12.929  0.5023E+01  0.2835E+01
    -12.864  0.6327E+01  0.3247E+01
    -12.799  0.5424E+01  0.3600E+01
    -12.734  0.3865E+01  0.3851E+01
    -12.669  0.3634E+01  0.4087E+01
    -12.604  0.4361E+01  0.4371E+01
    -12.539  0.4881E+01  0.4688E+01
    -12.474  0.5613E+01  0.5053E+01
    -12.409  0.6384E+01  0.5468E+01
    -12.344  0.5921E+01  0.5853E+01
    -12.279  0.4991E+01  0.6178E+01
    -12.214  0.4739E+01  0.6486E+01
    -12.149  0.5169E+01  0.6822E+01
    -12.084  0.6441E+01  0.7241E+01
    -12.019  0.8639E+01  0.7803E+01
    -11.954  0.9132E+01  0.8397E+01
    -11.889  0.7035E+01  0.8854E+01
    -11.824  0.5475E+01  0.9210E+01
    -11.759  0.5734E+01  0.9583E+01
    -11.694  0.6734E+01  0.1002E+02
    -11.629  0.7376E+01  0.1050E+02
    -11.564  0.8010E+01  0.1102E+02
    -11.498  0.8553E+01  0.1158E+02
    -11.433  0.8109E+01  0.1211E+02
    -11.368  0.7356E+01  0.1258E+02
    -11.303  0.8248E+01  0.1312E+02
    -11.238  0.9819E+01  0.1376E+02
    -11.173  0.9904E+01  0.1440E+02
    -11.108  0.1027E+02  0.1507E+02
    -11.043  0.1161E+02  0.1583E+02
    -10.978  0.1176E+02  0.1659E+02
    -10.913  0.1069E+02  0.1729E+02
    -10.848  0.1110E+02  0.1801E+02
    -10.783  0.1184E+02  0.1878E+02
    -10.718  0.9881E+01  0.1942E+02
    -10.653  0.8437E+01  0.1997E+02
    -10.588  0.8871E+01  0.2054E+02
    -10.523  0.8389E+01  0.2109E+02
    -10.458  0.6872E+01  0.2154E+02
    -10.393  0.4565E+01  0.2183E+02
    -10.328  0.1996E+01  0.2196E+02
    -10.263  0.5545E+00  0.2200E+02
    -10.198  0.5378E+00  0.2203E+02
    -10.133  0.2053E+01  0.2217E+02
    -10.068  0.4929E+01  0.2249E+02
    -10.003  0.6709E+01  0.2293E+02
     -9.938  0.5862E+01  0.2331E+02
     -9.873  0.4961E+01  0.2363E+02
     -9.808  0.4946E+01  0.2395E+02
     -9.743  0.3837E+01  0.2420E+02
     -9.678  0.2257E+01  0.2435E+02
     -9.613  0.1824E+01  0.2447E+02
     -9.548  0.1484E+01  0.2456E+02
     -9.483  0.6773E+00  0.2461E+02
     -9.418  0.2684E+00  0.2462E+02
     -9.353  0.6125E+00  0.2466E+02
     -9.288  0.1378E+01  0.2475E+02
     -9.222  0.1540E+01  0.2485E+02
     -9.157  0.8517E+00  0.2491E+02
     -9.092  0.3802E+00  0.2493E+02
     -9.027  0.7216E+00  0.2498E+02
     -8.962  0.1514E+01  0.2508E+02
     -8.897  0.2006E+01  0.2521E+02
     -8.832  0.2539E+01  0.2537E+02
     -8.767  0.3816E+01  0.2562E+02
     -8.702  0.5031E+01  0.2595E+02
     -8.637  0.5271E+01  0.2629E+02
     -8.572  0.5031E+01  0.2662E+02
     -8.507  0.5528E+01  0.2698E+02
     -8.442  0.6753E+01  0.2742E+02
     -8.377  0.6954E+01  0.2787E+02
     -8.312  0.5166E+01  0.2821E+02
     -8.247  0.3120E+01  0.2841E+02
     -8.182  0.2764E+01  0.2859E+02
     -8.117  0.3927E+01  0.2884E+02
     -8.052  0.4973E+01  0.2917E+02
     -7.987  0.5083E+01  0.2950E+02
     -7.922  0.5398E+01  0.2985E+02
     -7.857  0.7444E+01  0.3033E+02
     -7.792  0.9518E+01  0.3095E+02
     -7.727  0.8426E+01  0.3150E+02
     -7.662  0.6055E+01  0.3189E+02
     -7.597  0.5107E+01  0.3223E+02
     -7.532  0.4918E+01  0.3255E+02
     -7.467  0.5423E+01  0.3290E+02
     -7.402  0.7134E+01  0.3336E+02
     -7.337  0.8552E+01  0.3392E+02
     -7.272  0.7881E+01  0.3443E+02
     -7.207  0.5915E+01  0.3482E+02
     -7.142  0.4673E+01  0.3512E+02
     -7.077  0.5021E+01  0.3545E+02
     -7.011  0.6574E+01  0.3587E+02
     -6.946  0.7793E+01  0.3638E+02
     -6.881  0.8165E+01  0.3691E+02
     -6.816  0.9069E+01  0.3750E+02
     -6.751  0.1110E+02  0.3822E+02
     -6.686  0.1299E+02  0.3907E+02
     -6.621  0.1233E+02  0.3987E+02
     -6.556  0.1028E+02  0.4054E+02
     -6.491  0.9158E+01  0.4113E+02
     -6.426  0.7320E+01  0.4161E+02
     -6.361  0.4858E+01  0.4192E+02
     -6.296  0.3907E+01  0.4218E+02
     -6.231  0.4538E+01  0.4247E+02
     -6.166  0.4778E+01  0.4278E+02
     -6.101  0.3369E+01  0.4300E+02
     -6.036  0.2162E+01  0.4314E+02
     -5.971  0.2753E+01  0.4332E+02
     -5.906  0.3660E+01  0.4356E+02
     -5.841  0.3969E+01  0.4382E+02
     -5.776  0.4719E+01  0.4413E+02
     -5.711  0.5937E+01  0.4451E+02
     -5.646  0.6497E+01  0.4493E+02
     -5.581  0.5986E+01  0.4532E+02
     -5.516  0.4328E+01  0.4560E+02
     -5.451  0.2890E+01  0.4579E+02
     -5.386  0.3294E+01  0.4601E+02
     -5.321  0.4058E+01  0.4627E+02
     -5.256  0.4008E+01  0.4653E+02
     -5.191  0.4101E+01  0.4680E+02
     -5.126  0.4812E+01  0.4711E+02
     -5.061  0.6095E+01  0.4751E+02
     -4.996  0.7149E+01  0.4797E+02
     -4.931  0.8174E+01  0.4850E+02
     -4.866  0.9281E+01  0.4911E+02
     -4.801  0.9993E+01  0.4976E+02
     -4.735  0.1110E+02  0.5048E+02
     -4.670  0.1275E+02  0.5131E+02
     -4.605  0.1382E+02  0.5221E+02
     -4.540  0.1320E+02  0.5307E+02
     -4.475  0.1135E+02  0.5380E+02
     -4.410  0.1053E+02  0.5449E+02
     -4.345  0.1155E+02  0.5524E+02
     -4.280  0.1315E+02  0.5609E+02
     -4.215  0.1411E+02  0.5701E+02
     -4.150  0.1424E+02  0.5794E+02
     -4.085  0.1486E+02  0.5890E+02
     -4.020  0.1505E+02  0.5988E+02
     -3.955  0.1295E+02  0.6072E+02
     -3.890  0.1027E+02  0.6139E+02
     -3.825  0.9910E+01  0.6204E+02
     -3.760  0.1182E+02  0.6281E+02
     -3.695  0.1330E+02  0.6367E+02
     -3.630  0.1314E+02  0.6453E+02
     -3.565  0.1288E+02  0.6536E+02
     -3.500  0.1374E+02  0.6626E+02
     -3.435  0.1500E+02  0.6723E+02
     -3.370  0.1523E+02  0.6822E+02
     -3.305  0.1430E+02  0.6915E+02
     -3.240  0.1376E+02  0.7005E+02
     -3.175  0.1490E+02  0.7102E+02
     -3.110  0.1686E+02  0.7211E+02
     -3.045  0.1779E+02  0.7327E+02
     -2.980  0.1714E+02  0.7438E+02
     -2.915  0.1567E+02  0.7540E+02
     -2.850  0.1435E+02  0.7634E+02
     -2.785  0.1378E+02  0.7723E+02
     -2.720  0.1490E+02  0.7820E+02
     -2.655  0.1638E+02  0.7927E+02
     -2.590  0.1606E+02  0.8031E+02
     -2.525  0.1501E+02  0.8129E+02
     -2.459  0.1496E+02  0.8226E+02
     -2.394  0.1530E+02  0.8325E+02
     -2.329  0.1478E+02  0.8422E+02
     -2.264  0.1528E+02  0.8521E+02
     -2.199  0.1639E+02  0.8628E+02
     -2.134  0.1615E+02  0.8733E+02
     -2.069  0.1619E+02  0.8838E+02
     -2.004  0.1775E+02  0.8953E+02
     -1.939  0.1912E+02  0.9078E+02
     -1.874  0.1925E+02  0.9203E+02
     -1.809  0.1868E+02  0.9324E+02
     -1.744  0.1778E+02  0.9440E+02
     -1.679  0.1604E+02  0.9544E+02
     -1.614  0.1359E+02  0.9633E+02
     -1.549  0.1177E+02  0.9709E+02
     -1.484  0.1103E+02  0.9781E+02
     -1.419  0.1052E+02  0.9849E+02
     -1.354  0.9746E+01  0.9913E+02
     -1.289  0.8359E+01  0.9967E+02
     -1.224  0.7336E+01  0.1001E+03
     -1.159  0.7894E+01  0.1007E+03
     -1.094  0.8985E+01  0.1012E+03
     -1.029  0.9033E+01  0.1018E+03
     -0.964  0.9050E+01  0.1024E+03
     -0.899  0.1004E+02  0.1031E+03
     -0.834  0.9353E+01  0.1037E+03
     -0.769  0.6404E+01  0.1041E+03
     -0.704  0.4196E+01  0.1044E+03
     -0.639  0.4392E+01  0.1047E+03
     -0.574  0.6075E+01  0.1051E+03
     -0.509  0.7119E+01  0.1055E+03
     -0.444  0.7206E+01  0.1060E+03
     -0.379  0.7839E+01  0.1065E+03
     -0.314  0.8762E+01  0.1071E+03
     -0.248  0.8110E+01  0.1076E+03
     -0.183  0.5640E+01  0.1080E+03
     -0.118  0.4010E+01  0.1082E+03
     -0.053  0.4025E+01  0.1085E+03
      0.012  0.4186E+01  0.1088E+03
      0.077  0.3689E+01  0.1090E+03
      0.142  0.2463E+01  0.1092E+03
      0.207  0.1633E+01  0.1093E+03
      0.272  0.1800E+01  0.1094E+03
      0.337  0.2312E+01  0.1095E+03
      0.402  0.2691E+01  0.1097E+03
      0.467  0.2926E+01  0.1099E+03
      0.532  0.2815E+01  0.1101E+03
      0.597  0.2694E+01  0.1102E+03
      0.662  0.3458E+01  0.1105E+03
      0.727  0.4469E+01  0.1108E+03
      0.792  0.5085E+01  0.1111E+03
      0.857  0.5312E+01  0.1114E+03
      0.922  0.4924E+01  0.1118E+03
      0.987  0.4448E+01  0.1120E+03
      1.052  0.4295E+01  0.1123E+03
      1.117  0.4289E+01  0.1126E+03
      1.182  0.5132E+01  0.1129E+03
      1.247  0.7355E+01  0.1134E+03
      1.312  0.9837E+01  0.1141E+03
      1.377  0.1052E+02  0.1147E+03
      1.442  0.9282E+01  0.1153E+03
      1.507  0.8531E+01  0.1159E+03
      1.572  0.9532E+01  0.1165E+03
      1.637  0.1038E+02  0.1172E+03
      1.702  0.1080E+02  0.1179E+03
      1.767  0.1282E+02  0.1187E+03
      1.832  0.1486E+02  0.1197E+03
      1.897  0.1462E+02  0.1207E+03
      1.962  0.1337E+02  0.1215E+03
      2.028  0.1294E+02  0.1224E+03
      2.093  0.1392E+02  0.1233E+03
      2.158  0.1555E+02  0.1243E+03
      2.223  0.1711E+02  0.1254E+03
      2.288  0.1721E+02  0.1265E+03
      2.353  0.1547E+02  0.1275E+03
      2.418  0.1409E+02  0.1284E+03
      2.483  0.1386E+02  0.1293E+03
      2.548  0.1399E+02  0.1302E+03
      2.613  0.1426E+02  0.1312E+03
      2.678  0.1401E+02  0.1321E+03
      2.743  0.1235E+02  0.1329E+03
      2.808  0.1050E+02  0.1336E+03
      2.873  0.9491E+01  0.1342E+03
      2.938  0.8499E+01  0.1347E+03
      3.003  0.7047E+01  0.1352E+03
      3.068  0.5578E+01  0.1356E+03
      3.133  0.3896E+01  0.1358E+03
      3.198  0.2039E+01  0.1359E+03
      3.263  0.7023E+00  0.1360E+03
      3.328  0.1428E+00  0.1360E+03
      3.393  0.1562E-01  0.1360E+03
      3.458  0.8592E-03  0.1360E+03
      3.523  0.2267E-04  0.1360E+03
      3.588  0.2776E-06  0.1360E+03
      3.653  0.1542E-08  0.1360E+03
      3.718  0.3828E-11  0.1360E+03
      3.783  0.4137E-14  0.1360E+03
      3.848  0.0000E+00  0.1360E+03
      3.913  0.0000E+00  0.1360E+03
      3.978  0.0000E+00  0.1360E+03
      4.043  0.0000E+00  0.1360E+03
      4.108  0.0000E+00  0.1360E+03
      4.173  0.0000E+00  0.1360E+03
