 running on    8 total cores
 distrk:  each k-point on    8 cores,    1 groups
 distr:  one band on    2 cores,    4 groups
 using from now: INCAR     
 vasp.5.3.5 31Mar14 (build Oct 29 2014 16:16:03) complex                        
  
 POSCAR found type information on POSCAR  P  Si
 POSCAR found :  2 types and      24 ions
 scaLAPACK will be used

 ----------------------------------------------------------------------------- 
|                                                                             |
|  ADVICE TO THIS USER RUNNING 'VASP/VAMP'   (HEAR YOUR MASTER'S VOICE ...):  |
|                                                                             |
|      You have switched on vdW-DFT.                                          |
|      This routine was written and supplied by Jiri Klimes.                  |
|      We recommed that you carefully read and cite the following             |
|      publication                                                            |
|      J. Klimes, D.R. Bowler, A. Michelides                                  |
|        J. Phys.: Cond Matt. 22 022201 (2010)                                |
|      J. Klimes, D.R. Bowler, A. Michelides                                  |
|        Phys. Rev. B. 83, 195131 (2011)                                      |
|      and references therein.                                                |
|                                                                             |
 ----------------------------------------------------------------------------- 


 ----------------------------------------------------------------------------- 
|                                                                             |
|  ADVICE TO THIS USER RUNNING 'VASP/VAMP'   (HEAR YOUR MASTER'S VOICE ...):  |
|                                                                             |
|      You enforced a specific xc-type in the INCAR file,                     |
|      a different type was found on the POTCAR file                          |
|          I HOPE YOU KNOW, WHAT YOU ARE  DOING                               |
|                                                                             |
 ----------------------------------------------------------------------------- 

 LDA part: xc-table for Pade appr. of Perdew


 VERY BAD NEWS! internal error in subroutine IBZKPT:
 Reciprocal lattice and k-lattice belong to different class of lattices. Often results are still useful...      96


 VERY BAD NEWS! internal error in subroutine IBZKPT:
 Reciprocal lattice and k-lattice belong to different class of lattices. Often results are still useful...      96


 VERY BAD NEWS! internal error in subroutine IBZKPT:
 Reciprocal lattice and k-lattice belong to different class of lattices. Often results are still useful...      96
 POSCAR, INCAR and KPOINTS ok, starting setup


 VERY BAD NEWS! internal error in subroutine IBZKPT:
 Reciprocal lattice and k-lattice belong to different class of lattices. Often results are still useful...      96


 VERY BAD NEWS! internal error in subroutine IBZKPT:
 Reciprocal lattice and k-lattice belong to different class of lattices. Often results are still useful...      96


 VERY BAD NEWS! internal error in subroutine IBZKPT:
 Reciprocal lattice and k-lattice belong to different class of lattices. Often results are still useful...      96


 VERY BAD NEWS! internal error in subroutine IBZKPT:
 Reciprocal lattice and k-lattice belong to different class of lattices. Often results are still useful...      96


 VERY BAD NEWS! internal error in subroutine IBZKPT:
 Reciprocal lattice and k-lattice belong to different class of lattices. Often results are still useful...      96
 WARNING: small aliasing (wrap around) errors must be expected
 FFT: planning ...
 WAVECAR not read
 entering main loop
       N       E                     dE             d eps       ncg     rms          rms(c)
Total vdW correction in eV:     15.9367900
DAV:   1     0.498473753968E+03    0.49847E+03   -0.28655E+04  7368   0.790E+02
DAV:   2    -0.600170073839E+02   -0.55849E+03   -0.54360E+03  9736   0.189E+02
DAV:   3    -0.116842165627E+03   -0.56825E+02   -0.56034E+02  8848   0.624E+01
DAV:   4    -0.119517312204E+03   -0.26751E+01   -0.26572E+01 11232   0.145E+01
DAV:   5    -0.119574920214E+03   -0.57608E-01   -0.57537E-01 10024   0.207E+00    0.117E+01
Total vdW correction in eV:     16.3418165
DAV:   6    -0.115667288597E+03    0.39076E+01   -0.12334E+01  8888   0.968E+00    0.607E+00
Total vdW correction in eV:     16.7579065
DAV:   7    -0.115760644789E+03   -0.93356E-01   -0.91807E+00  8560   0.690E+00    0.291E+00
Total vdW correction in eV:     16.9081542
DAV:   8    -0.115694925784E+03    0.65719E-01   -0.13671E+00  9064   0.300E+00    0.155E+00
Total vdW correction in eV:     17.0281088
DAV:   9    -0.115676972486E+03    0.17953E-01   -0.36156E-01  8744   0.168E+00    0.658E-01
Total vdW correction in eV:     17.0892349
DAV:  10    -0.115678268663E+03   -0.12962E-02   -0.95782E-02  8720   0.966E-01    0.251E-01
Total vdW correction in eV:     17.1098324
DAV:  11    -0.115671903283E+03    0.63654E-02   -0.20708E-02  9076   0.414E-01    0.119E-01
Total vdW correction in eV:     17.1179020
DAV:  12    -0.115662671098E+03    0.92322E-02   -0.35806E-03  9016   0.189E-01    0.527E-02
Total vdW correction in eV:     17.1238740
DAV:  13    -0.115657444597E+03    0.52265E-02   -0.70995E-04  9224   0.855E-02    0.236E-02
Total vdW correction in eV:     17.1283112
DAV:  14    -0.115655061567E+03    0.23830E-02   -0.22678E-04  9504   0.393E-02    0.132E-02
Total vdW correction in eV:     17.1312871
DAV:  15    -0.115654686277E+03    0.37529E-03   -0.58783E-05  9032   0.205E-02    0.775E-03
Total vdW correction in eV:     17.1339338
DAV:  16    -0.115654635968E+03    0.50309E-04   -0.57646E-05  8296   0.187E-02    0.490E-03
Total vdW correction in eV:     17.1349492
DAV:  17    -0.115655153858E+03   -0.51789E-03   -0.11643E-04  8184   0.207E-02    0.261E-03
Total vdW correction in eV:     17.1350653
DAV:  18    -0.115655425229E+03   -0.27137E-03   -0.11821E-04  7640   0.167E-02    0.151E-03
Total vdW correction in eV:     17.1348373
DAV:  19    -0.115655456358E+03   -0.31129E-04   -0.14425E-05  6448   0.927E-03    0.985E-04
Total vdW correction in eV:     17.1345772
DAV:  20    -0.115655482191E+03   -0.25833E-04   -0.28164E-05  7152   0.999E-03    0.670E-04
Total vdW correction in eV:     17.1344580
DAV:  21    -0.115655441166E+03    0.41025E-04   -0.14382E-05  6584   0.100E-02    0.432E-04
Total vdW correction in eV:     17.1344029
DAV:  22    -0.115655374541E+03    0.66625E-04   -0.17590E-05  6976   0.942E-03    0.225E-04
Total vdW correction in eV:     17.1343888
DAV:  23    -0.115655342584E+03    0.31956E-04   -0.10888E-05  6480   0.990E-03    0.104E-04
Total vdW correction in eV:     17.1343865
DAV:  24    -0.115655314761E+03    0.27824E-04   -0.63973E-06  6976   0.782E-03    0.571E-05
Total vdW correction in eV:     17.1343885
DAV:  25    -0.115655314986E+03   -0.22490E-06   -0.46341E-06  5944   0.735E-03
Total vdW correction in eV:     17.1343859
Total vdW correction in eV:     17.1343876
   1 F= -.11565531E+03 E0= -.11564471E+03  d E =-.212041E-01
