<?xml version="1.0" encoding="ISO-8859-1"?>
<modeling>
 <generator>
  <i name="program" type="string">vasp </i>
  <i name="version" type="string">5.3.5  </i>
  <i name="subversion" type="string">31Mar14 (build Oct 29 2014 16:16:03) complex                          parallel </i>
  <i name="platform" type="string">Linux-UFHPC </i>
  <i name="date" type="string">2016 02 09 </i>
  <i name="time" type="string">18:23:29 </i>
 </generator>
 <incar>
  <i type="string" name="PREC">accurate</i>
  <i type="int" name="IBRION">     2</i>
  <i name="EDIFF">      0.00000100</i>
  <i type="int" name="NSW">     0</i>
  <i type="int" name="ISIF">     3</i>
  <i name="ENCUT">    300.00000000</i>
  <i type="string" name="LREAL"> Auto</i>
  <i type="int" name="ISMEAR">     0</i>
  <i name="SIGMA">      0.10000000</i>
  <i type="logical" name="LWAVE"> F  </i>
  <i type="logical" name="LCHARG"> F  </i>
  <i type="logical" name="LAECHG"> F  </i>
  <i type="string" name="GGA"> Bo</i>
  <i name="PARAM1">      0.18333333</i>
  <i name="PARAM2">      0.22000000</i>
  <i type="logical" name="LUSE_VDW"> T  </i>
  <i name="AGGAC">      0.00000000</i>
 </incar>
 <kpoints>
  <generation param="Gamma">
   <v type="int" name="divisions">      13        4        2 </v>
   <v name="usershift">      0.00000000       0.00000000       0.00000000 </v>
   <v name="genvec1">      0.07692308      -0.00000000       0.00000000 </v>
   <v name="genvec2">      0.00000000       0.25000000       0.00000000 </v>
   <v name="genvec3">      0.00000000       0.00000000       0.50000000 </v>
   <v name="shift">      0.00000000       0.00000000       0.00000000 </v>
  </generation>
  <varray name="kpointlist" >
   <v>       0.00000000       0.00000000       0.00000000 </v>
   <v>       0.07692308      -0.00000000       0.00000000 </v>
   <v>       0.15384615      -0.00000000       0.00000000 </v>
   <v>       0.23076923      -0.00000000       0.00000000 </v>
   <v>       0.30769231      -0.00000000       0.00000000 </v>
   <v>       0.38461538      -0.00000000       0.00000000 </v>
   <v>       0.46153846      -0.00000000       0.00000000 </v>
   <v>       0.00000000       0.25000000       0.00000000 </v>
   <v>       0.07692308       0.25000000       0.00000000 </v>
   <v>       0.15384615       0.25000000       0.00000000 </v>
   <v>       0.23076923       0.25000000       0.00000000 </v>
   <v>       0.30769231       0.25000000       0.00000000 </v>
   <v>       0.38461538       0.25000000       0.00000000 </v>
   <v>       0.46153846       0.25000000       0.00000000 </v>
   <v>      -0.46153846       0.25000000       0.00000000 </v>
   <v>      -0.38461538       0.25000000       0.00000000 </v>
   <v>      -0.30769231       0.25000000       0.00000000 </v>
   <v>      -0.23076923       0.25000000       0.00000000 </v>
   <v>      -0.15384615       0.25000000       0.00000000 </v>
   <v>      -0.07692308       0.25000000       0.00000000 </v>
   <v>       0.00000000       0.50000000       0.00000000 </v>
   <v>       0.07692308       0.50000000       0.00000000 </v>
   <v>       0.15384615       0.50000000       0.00000000 </v>
   <v>       0.23076923       0.50000000       0.00000000 </v>
   <v>       0.30769231       0.50000000       0.00000000 </v>
   <v>       0.38461538       0.50000000       0.00000000 </v>
   <v>       0.46153846       0.50000000       0.00000000 </v>
   <v>       0.00000000       0.00000000       0.50000000 </v>
   <v>       0.07692308      -0.00000000       0.50000000 </v>
   <v>       0.15384615      -0.00000000       0.50000000 </v>
   <v>       0.23076923      -0.00000000       0.50000000 </v>
   <v>       0.30769231      -0.00000000       0.50000000 </v>
   <v>       0.38461538      -0.00000000       0.50000000 </v>
   <v>       0.46153846      -0.00000000       0.50000000 </v>
   <v>       0.00000000       0.25000000       0.50000000 </v>
   <v>       0.07692308       0.25000000       0.50000000 </v>
   <v>       0.15384615       0.25000000       0.50000000 </v>
   <v>       0.23076923       0.25000000       0.50000000 </v>
   <v>       0.30769231       0.25000000       0.50000000 </v>
   <v>       0.38461538       0.25000000       0.50000000 </v>
   <v>       0.46153846       0.25000000       0.50000000 </v>
   <v>      -0.46153846       0.25000000       0.50000000 </v>
   <v>      -0.38461538       0.25000000       0.50000000 </v>
   <v>      -0.30769231       0.25000000       0.50000000 </v>
   <v>      -0.23076923       0.25000000       0.50000000 </v>
   <v>      -0.15384615       0.25000000       0.50000000 </v>
   <v>      -0.07692308       0.25000000       0.50000000 </v>
   <v>       0.00000000       0.50000000       0.50000000 </v>
   <v>       0.07692308       0.50000000       0.50000000 </v>
   <v>       0.15384615       0.50000000       0.50000000 </v>
   <v>       0.23076923       0.50000000       0.50000000 </v>
   <v>       0.30769231       0.50000000       0.50000000 </v>
   <v>       0.38461538       0.50000000       0.50000000 </v>
   <v>       0.46153846       0.50000000       0.50000000 </v>
  </varray>
  <varray name="weights" >
   <v>       0.00961538 </v>
   <v>       0.01923077 </v>
   <v>       0.01923077 </v>
   <v>       0.01923077 </v>
   <v>       0.01923077 </v>
   <v>       0.01923077 </v>
   <v>       0.01923077 </v>
   <v>       0.01923077 </v>
   <v>       0.01923077 </v>
   <v>       0.01923077 </v>
   <v>       0.01923077 </v>
   <v>       0.01923077 </v>
   <v>       0.01923077 </v>
   <v>       0.01923077 </v>
   <v>       0.01923077 </v>
   <v>       0.01923077 </v>
   <v>       0.01923077 </v>
   <v>       0.01923077 </v>
   <v>       0.01923077 </v>
   <v>       0.01923077 </v>
   <v>       0.00961538 </v>
   <v>       0.01923077 </v>
   <v>       0.01923077 </v>
   <v>       0.01923077 </v>
   <v>       0.01923077 </v>
   <v>       0.01923077 </v>
   <v>       0.01923077 </v>
   <v>       0.00961538 </v>
   <v>       0.01923077 </v>
   <v>       0.01923077 </v>
   <v>       0.01923077 </v>
   <v>       0.01923077 </v>
   <v>       0.01923077 </v>
   <v>       0.01923077 </v>
   <v>       0.01923077 </v>
   <v>       0.01923077 </v>
   <v>       0.01923077 </v>
   <v>       0.01923077 </v>
   <v>       0.01923077 </v>
   <v>       0.01923077 </v>
   <v>       0.01923077 </v>
   <v>       0.01923077 </v>
   <v>       0.01923077 </v>
   <v>       0.01923077 </v>
   <v>       0.01923077 </v>
   <v>       0.01923077 </v>
   <v>       0.01923077 </v>
   <v>       0.00961538 </v>
   <v>       0.01923077 </v>
   <v>       0.01923077 </v>
   <v>       0.01923077 </v>
   <v>       0.01923077 </v>
   <v>       0.01923077 </v>
   <v>       0.01923077 </v>
  </varray>
 </kpoints>
 <parameters>
  <separator name="general" >
   <i type="string" name="SYSTEM">unknown system</i>
   <i type="logical" name="LCOMPAT"> F  </i>
  </separator>
  <separator name="electronic" >
   <i type="string" name="PREC">accura</i>
   <i name="ENMAX">    300.00000000</i>
   <i name="ENAUG">    342.92400000</i>
   <i name="EDIFF">      0.00000100</i>
   <i type="int" name="IALGO">    38</i>
   <i type="int" name="IWAVPR">    10</i>
   <i type="int" name="NBANDS">    68</i>
   <i name="NELECT">    108.00000000</i>
   <i type="int" name="TURBO">     0</i>
   <i type="int" name="IRESTART">     0</i>
   <i type="int" name="NREBOOT">     0</i>
   <i type="int" name="NMIN">     0</i>
   <i name="EREF">      0.00000000</i>
   <separator name="electronic smearing" >
    <i type="int" name="ISMEAR">     0</i>
    <i name="SIGMA">      0.10000000</i>
    <i name="KSPACING">      0.50000000</i>
    <i type="logical" name="KGAMMA"> T  </i>
   </separator>
   <separator name="electronic projectors" >
    <i type="logical" name="LREAL"> T  </i>
    <v name="ROPT">     -0.00025000     -0.00025000</v>
    <i type="int" name="LMAXPAW">  -100</i>
    <i type="int" name="LMAXMIX">     2</i>
    <i type="logical" name="NLSPLINE"> F  </i>
   </separator>
   <separator name="electronic startup" >
    <i type="int" name="ISTART">     0</i>
    <i type="int" name="ICHARG">     2</i>
    <i type="int" name="INIWAV">     1</i>
   </separator>
   <separator name="electronic spin" >
    <i type="int" name="ISPIN">     1</i>
    <i type="logical" name="LNONCOLLINEAR"> F  </i>
    <v name="MAGMOM">      1.00000000      1.00000000      1.00000000      1.00000000      1.00000000      1.00000000      1.00000000      1.00000000      1.00000000      1.00000000      1.00000000      1.00000000      1.00000000      1.00000000      1.00000000      1.00000000      1.00000000      1.00000000      1.00000000      1.00000000
      1.00000000      1.00000000      1.00000000      1.00000000</v>
    <i name="NUPDOWN">     -1.00000000</i>
    <i type="logical" name="LSORBIT"> F  </i>
    <v name="SAXIS">      0.00000000      0.00000000      1.00000000</v>
    <i type="logical" name="LSPIRAL"> F  </i>
    <v name="QSPIRAL">      0.00000000      0.00000000      0.00000000</v>
    <i type="logical" name="LZEROZ"> F  </i>
   </separator>
   <separator name="electronic exchange-correlation" >
    <i type="logical" name="LASPH"> F  </i>
    <i type="logical" name="LMETAGGA"> F  </i>
   </separator>
   <separator name="electronic convergence" >
    <i type="int" name="NELM">    60</i>
    <i type="int" name="NELMDL">    -5</i>
    <i type="int" name="NELMIN">     2</i>
    <i name="ENINI">    300.00000000</i>
    <separator name="electronic convergence detail" >
     <i type="logical" name="LDIAG"> T  </i>
     <i type="logical" name="LSUBROT"> F  </i>
     <i name="WEIMIN">      0.00000000</i>
     <i name="EBREAK">      0.00000000</i>
     <i name="DEPER">      0.30000000</i>
     <i type="int" name="NRMM">     4</i>
     <i name="TIME">      0.40000000</i>
    </separator>
   </separator>
   <separator name="electronic mixer" >
    <i name="AMIX">      0.40000000</i>
    <i name="BMIX">      1.00000000</i>
    <i name="AMIN">      0.10000000</i>
    <i name="AMIX_MAG">      1.60000000</i>
    <i name="BMIX_MAG">      1.00000000</i>
    <separator name="electronic mixer details" >
     <i type="int" name="IMIX">     4</i>
     <i type="int" name="MAXMIX">   -45</i>
     <i name="WC">    100.00000000</i>
     <i type="int" name="INIMIX">     1</i>
     <i type="int" name="MIXPRE">     1</i>
     <i type="int" name="MREMOVE">     5</i>
    </separator>
   </separator>
   <separator name="electronic dipolcorrection" >
    <i type="logical" name="LDIPOL"> F  </i>
    <i type="logical" name="LMONO"> F  </i>
    <i type="int" name="IDIPOL">     0</i>
    <i name="EPSILON">      1.00000000</i>
    <v name="DIPOL">   -100.00000000   -100.00000000   -100.00000000</v>
    <i name="EFIELD">      0.00000000</i>
   </separator>
  </separator>
  <separator name="grids" >
   <i type="int" name="NGX">    20</i>
   <i type="int" name="NGY">    60</i>
   <i type="int" name="NGZ">   160</i>
   <i type="int" name="NGXF">    40</i>
   <i type="int" name="NGYF">   120</i>
   <i type="int" name="NGZF">   320</i>
   <i type="logical" name="ADDGRID"> F  </i>
  </separator>
  <separator name="ionic" >
   <i type="int" name="NSW">     0</i>
   <i type="int" name="IBRION">    -1</i>
   <i type="int" name="ISIF">     3</i>
   <i name="PSTRESS">      0.00000000</i>
   <i name="EDIFFG">      0.00001000</i>
   <i type="int" name="NFREE">     1</i>
   <i name="POTIM">      0.50000000</i>
   <i name="SMASS">     -3.00000000</i>
   <i name="SCALEE">      1.00000000</i>
  </separator>
  <separator name="ionic md" >
   <i name="TEBEG">      0.00010000</i>
   <i name="TEEND">      0.00010000</i>
   <i type="int" name="NBLOCK">     1</i>
   <i type="int" name="KBLOCK">     1</i>
   <i type="int" name="NPACO">   256</i>
   <i name="APACO">     16.00000000</i>
  </separator>
  <separator name="symmetry" >
   <i type="int" name="ISYM">     2</i>
   <i name="SYMPREC">      0.00001000</i>
  </separator>
  <separator name="dos" >
   <i type="logical" name="LORBIT"> F  </i>
   <v name="RWIGS">     -1.00000000     -1.00000000</v>
   <i type="int" name="NEDOS">   301</i>
   <i name="EMIN">     10.00000000</i>
   <i name="EMAX">    -10.00000000</i>
   <i name="EFERMI">      0.00000000</i>
  </separator>
  <separator name="writing" >
   <i type="int" name="NWRITE">     2</i>
   <i type="logical" name="LWAVE"> F  </i>
   <i type="logical" name="LCHARG"> F  </i>
   <i type="logical" name="LPARD"> F  </i>
   <i type="logical" name="LVTOT"> F  </i>
   <i type="logical" name="LVHAR"> F  </i>
   <i type="logical" name="LELF"> F  </i>
   <i type="logical" name="LOPTICS"> F  </i>
   <v name="STM">      0.00000000      0.00000000      0.00000000      0.00000000      0.00000000      0.00000000      0.00000000</v>
  </separator>
  <separator name="performance" >
   <i type="int" name="NPAR">     4</i>
   <i type="int" name="NSIM">     4</i>
   <i type="int" name="NBLK">    -1</i>
   <i type="logical" name="LPLANE"> T  </i>
   <i type="logical" name="LSCALAPACK"> T  </i>
   <i type="logical" name="LSCAAWARE"> F  </i>
   <i type="logical" name="LSCALU"> F  </i>
   <i type="logical" name="LASYNC"> F  </i>
   <i type="logical" name="LORBITALREAL"> F  </i>
  </separator>
  <separator name="miscellaneous" >
   <i type="int" name="IDIOT">     3</i>
   <i type="logical" name="LMUSIC"> F  </i>
   <v name="POMASS">     30.97400000     28.08500000</v>
   <v name="DARWINR">      0.00000000      0.00000000</v>
   <v name="DARWINV">      1.00000000      1.00000000</v>
   <i type="logical" name="LCORR"> T  </i>
  </separator>
  <i type="logical" name="GGA_COMPAT"> T  </i>
  <i type="logical" name="LBERRY"> F  </i>
  <i type="int" name="ICORELEVEL">     0</i>
  <i type="logical" name="LDAU"> F  </i>
  <i type="int" name="I_CONSTRAINED_M">     0</i>
  <separator name="electronic exchange-correlation" >
   <i type="string" name="GGA">BO</i>
   <i type="int" name="VOSKOWN">     0</i>
   <i type="logical" name="LHFCALC"> F  </i>
   <i type="string" name="PRECFOCK"></i>
   <i type="logical" name="LSYMGRAD"> F  </i>
   <i type="logical" name="LHFONE"> F  </i>
   <i type="logical" name="LRHFCALC"> F  </i>
   <i type="logical" name="LTHOMAS"> F  </i>
   <i type="logical" name="LMODELHF"> F  </i>
   <i name="ENCUT4O">     -1.00000000</i>
   <i type="int" name="EXXOEP">     0</i>
   <i type="int" name="FOURORBIT">     0</i>
   <i name="AEXX">      0.00000000</i>
   <i name="HFALPHA">      0.00000000</i>
   <i name="MCALPHA">      0.00000000</i>
   <i name="ALDAX">      1.00000000</i>
   <i name="AGGAX">      1.00000000</i>
   <i name="ALDAC">      1.00000000</i>
   <i name="AGGAC">      0.00000000</i>
   <i type="int" name="NKREDX">     1</i>
   <i type="int" name="NKREDY">     1</i>
   <i type="int" name="NKREDZ">     1</i>
   <i type="logical" name="SHIFTRED"> F  </i>
   <i type="logical" name="ODDONLY"> F  </i>
   <i type="logical" name="EVENONLY"> F  </i>
   <i type="int" name="LMAXFOCK">     0</i>
   <i type="int" name="NMAXFOCKAE">     0</i>
   <i type="logical" name="LFOCKAEDFT"> F  </i>
   <i name="HFSCREEN">      0.00000000</i>
   <i name="HFSCREENC">      0.00000000</i>
   <i type="int" name="NBANDSGWLOW">     0</i>
  </separator>
  <separator name="vdW DFT" >
   <i type="logical" name="LUSE_VDW"> T  </i>
   <i name="Zab_VDW">     -0.84910000</i>
   <i name="PARAM1">      0.18333333</i>
   <i name="PARAM2">      0.22000000</i>
   <i name="PARAM3">      0.00000000</i>
  </separator>
  <separator name="model GW" >
   <i type="int" name="MODEL_GW">     0</i>
   <i name="MODEL_EPS0">     25.05800243</i>
   <i name="MODEL_ALPHA">      1.00000000</i>
  </separator>
  <separator name="linear response parameters" >
   <i type="logical" name="LEPSILON"> F  </i>
   <i type="logical" name="LRPA"> F  </i>
   <i type="logical" name="LNABLA"> F  </i>
   <i type="logical" name="LVEL"> F  </i>
   <i type="int" name="KINTER">     0</i>
   <i name="CSHIFT">      0.10000000</i>
   <i name="OMEGAMAX">     -1.00000000</i>
   <i name="DEG_THRESHOLD">      0.00200000</i>
  </separator>
  <separator name="orbital magnetization" >
   <i type="logical" name="NUCIND"> F  </i>
   <v name="MAGPOS">      0.00000000      0.00000000      0.00000000</v>
   <i type="logical" name="LNICSALL"> T  </i>
   <i type="logical" name="ORBITALMAG"> F  </i>
   <i type="logical" name="LMAGBLOCH"> F  </i>
   <i type="logical" name="LCHIMAG"> F  </i>
   <i type="logical" name="LGAUGE"> T  </i>
   <i type="int" name="MAGATOM">     0</i>
   <v name="MAGDIPOL">      0.00000000      0.00000000      0.00000000</v>
   <v name="AVECCONST">      0.00000000      0.00000000      0.00000000</v>
  </separator>
  <separator name="response functions" >
   <i type="logical" name="LADDER"> F  </i>
   <i type="logical" name="LFXC"> F  </i>
   <i type="logical" name="LHARTREE"> T  </i>
   <i type="int" name="IBSE">     0</i>
   <i type="logical" name="LTCTE"> F  </i>
   <i type="logical" name="LTETE"> F  </i>
   <i type="logical" name="LTRIPLET"> F  </i>
   <i type="logical" name="LFXCEPS"> F  </i>
   <i type="logical" name="LFXHEG"> F  </i>
   <i type="logical" name="L2ORDER"> F  </i>
   <i type="logical" name="LUSEW"> F  </i>
   <i name="ENCUTGW">     -2.00000000</i>
   <i name="ENCUTGWSOFT">     -2.00000000</i>
   <i name="ENCUTLF">     -1.00000000</i>
   <i type="int" name="LMAXMP2">    -1</i>
   <i name="SCISSOR">      0.00000000</i>
   <i type="int" name="NOMEGA">     0</i>
   <i type="int" name="NOMEGAR">     0</i>
   <i type="int" name="NBANDSGW">    -1</i>
   <i type="int" name="NBANDSO">    -1</i>
   <i type="int" name="NBANDSV">    -1</i>
   <i type="int" name="NELM">     1</i>
   <i type="int" name="DIM">     3</i>
   <i type="int" name="ANTIRES">     0</i>
   <i name="OMEGAMAX">    -30.00000000</i>
   <i name="OMEGAMIN">    -30.00000000</i>
   <i name="OMEGATL">   -200.00000000</i>
   <i type="int" name="OMEGAGRID">     0</i>
   <i name="CSHIFT">     -0.10000000</i>
   <i type="logical" name="SELFENERGY"> F  </i>
   <i type="logical" name="LSPECTRAL"> F  </i>
   <i type="logical" name="ODDONLYGW"> F  </i>
   <i type="logical" name="EVENONLYGW"> F  </i>
   <i type="int" name="NKREDLFX">     1</i>
   <i type="int" name="NKREDLFY">     1</i>
   <i type="int" name="NKREDLFZ">     1</i>
   <i type="int" name="MAXMEM">  1800</i>
   <i type="int" name="TELESCOPE">     0</i>
   <i type="int" name="TAUPAR">     1</i>
  </separator>
  <separator name="External order field" >
   <i name="OFIELD_KAPPA">      0.00000000</i>
   <v name="OFIELD_K">      0.00000000      0.00000000      0.00000000</v>
   <i name="OFIELD_Q6_NEAR">      0.00000000</i>
   <i name="OFIELD_Q6_FAR">      0.00000000</i>
   <i name="OFIELD_A">      0.00000000</i>
  </separator>
 </parameters>
 <atominfo>
  <atoms>      24 </atoms>
  <types>       2 </types>
  <array name="atoms" >
   <dimension dim="1">ion</dimension>
   <field type="string">element</field>
   <field type="int">atomtype</field>
   <set>
    <rc><c>P </c><c>   1</c></rc>
    <rc><c>P </c><c>   1</c></rc>
    <rc><c>P </c><c>   1</c></rc>
    <rc><c>P </c><c>   1</c></rc>
    <rc><c>P </c><c>   1</c></rc>
    <rc><c>P </c><c>   1</c></rc>
    <rc><c>P </c><c>   1</c></rc>
    <rc><c>P </c><c>   1</c></rc>
    <rc><c>P </c><c>   1</c></rc>
    <rc><c>P </c><c>   1</c></rc>
    <rc><c>P </c><c>   1</c></rc>
    <rc><c>P </c><c>   1</c></rc>
    <rc><c>Si</c><c>   2</c></rc>
    <rc><c>Si</c><c>   2</c></rc>
    <rc><c>Si</c><c>   2</c></rc>
    <rc><c>Si</c><c>   2</c></rc>
    <rc><c>Si</c><c>   2</c></rc>
    <rc><c>Si</c><c>   2</c></rc>
    <rc><c>Si</c><c>   2</c></rc>
    <rc><c>Si</c><c>   2</c></rc>
    <rc><c>Si</c><c>   2</c></rc>
    <rc><c>Si</c><c>   2</c></rc>
    <rc><c>Si</c><c>   2</c></rc>
    <rc><c>Si</c><c>   2</c></rc>
   </set>
  </array>
  <array name="atomtypes" >
   <dimension dim="1">type</dimension>
   <field type="int">atomspertype</field>
   <field type="string">element</field>
   <field>mass</field>
   <field>valence</field>
   <field type="string">pseudopotential</field>
   <set>
    <rc><c>  12</c><c>P </c><c>     30.97400000</c><c>      5.00000000</c><c>  PAW_PBE P 17Jan2003                   </c></rc>
    <rc><c>  12</c><c>Si</c><c>     28.08500000</c><c>      4.00000000</c><c> PAW_PBE Si 05Jan2001                   </c></rc>
   </set>
  </array>
 </atominfo>
 <structure name="initialpos" >
  <crystal>
   <varray name="basis" >
    <v>       3.54040000       0.00000000       0.00000000 </v>
    <v>      -1.77020000      10.29434800       0.00000000 </v>
    <v>       0.00000000       0.00000000      27.50142900 </v>
   </varray>
   <i name="volume">   1002.32009712 </i>
   <varray name="rec_basis" >
    <v>       0.28245396       0.04857034       0.00000000 </v>
    <v>       0.00000000       0.09714068       0.00000000 </v>
    <v>       0.00000000       0.00000000       0.03636175 </v>
   </varray>
  </crystal>
  <varray name="positions" >
   <v>       0.11402300       0.22804500       0.23316207 </v>
   <v>       0.81402300       0.42804500       0.51499159 </v>
   <v>       0.45808900       0.91617900       0.20939482 </v>
   <v>       0.15808900       0.11617900       0.49122434 </v>
   <v>       0.31085400       0.62170900       0.08414979 </v>
   <v>       0.31085400       0.62170900       0.36597930 </v>
   <v>       0.99923000       0.99846000       0.08631254 </v>
   <v>       0.99923000       0.99846000       0.36814206 </v>
   <v>       0.65492700       0.30985400       0.06041748 </v>
   <v>       0.65492700       0.30985400       0.34224700 </v>
   <v>       0.76973800       0.53947500       0.20725292 </v>
   <v>       0.46973800       0.73947500       0.48908244 </v>
   <v>       0.93971600       0.87943300       0.15783749 </v>
   <v>       0.63971600       0.07943300       0.43966701 </v>
   <v>       0.20515200       0.41030300       0.18578822 </v>
   <v>       0.90515200       0.61030300       0.46761774 </v>
   <v>       0.20184900       0.40369900       0.09969156 </v>
   <v>       0.20184900       0.40369900       0.38152107 </v>
   <v>       0.56380500       0.12761000       0.10779021 </v>
   <v>       0.56380500       0.12761000       0.38961973 </v>
   <v>       0.56710600       0.13421200       0.19387616 </v>
   <v>       0.26710600       0.33421200       0.47570568 </v>
   <v>       0.82923400       0.65846800       0.13571444 </v>
   <v>       0.52923400       0.85846800       0.41754396 </v>
  </varray>
 </structure>
 <calculation>
  <scstep>
   <time name="dav">   55.97   55.99</time>
   <time name="total">   72.14   72.18</time>
   <energy>
    <i name="alphaZ">     36.80884744 </i>
    <i name="ewald">  11933.72377187 </i>
    <i name="hartreedc"> -14972.94721708 </i>
    <i name="XCdc">    -88.12508830 </i>
    <i name="pawpsdc">   1056.43050070 </i>
    <i name="pawaedc">   -732.41190547 </i>
    <i name="eentropy">     -0.04073352 </i>
    <i name="bandstr">    -89.00568213 </i>
    <i name="atom">   3354.04126044 </i>
    <i name="e_fr_energy">    498.47375397 </i>
    <i name="e_wo_entrp">    498.51448749 </i>
    <i name="e_0_energy">    498.49412073 </i>
   </energy>
  </scstep>
  <scstep>
   <time name="dav">   69.66   69.69</time>
   <time name="total">   69.67   69.70</time>
   <energy>
    <i name="e_fr_energy">    -60.01700738 </i>
    <i name="e_wo_entrp">    -59.99397848 </i>
    <i name="e_0_energy">    -60.00549293 </i>
   </energy>
  </scstep>
  <scstep>
   <time name="dav">   64.42   64.45</time>
   <time name="total">   64.43   64.46</time>
   <energy>
    <i name="e_fr_energy">   -116.84216563 </i>
    <i name="e_wo_entrp">   -116.80509270 </i>
    <i name="e_0_energy">   -116.82362916 </i>
   </energy>
  </scstep>
  <scstep>
   <time name="dav">   78.40   78.45</time>
   <time name="total">   78.42   78.46</time>
   <energy>
    <i name="e_fr_energy">   -119.51731220 </i>
    <i name="e_wo_entrp">   -119.47589605 </i>
    <i name="e_0_energy">   -119.49660413 </i>
   </energy>
  </scstep>
  <scstep>
   <time name="dav">   71.49   71.52</time>
   <time name="total">   75.38   75.42</time>
   <energy>
    <i name="e_fr_energy">   -119.57492021 </i>
    <i name="e_wo_entrp">   -119.53345638 </i>
    <i name="e_0_energy">   -119.55418830 </i>
   </energy>
  </scstep>
  <scstep>
   <time name="dav">   65.39   65.42</time>
   <time name="total">   83.95   83.99</time>
   <energy>
    <i name="e_fr_energy">   -115.66728860 </i>
    <i name="e_wo_entrp">   -115.64440793 </i>
    <i name="e_0_energy">   -115.65584826 </i>
   </energy>
  </scstep>
  <scstep>
   <time name="dav">   63.49   63.53</time>
   <time name="total">   82.03   82.07</time>
   <energy>
    <i name="e_fr_energy">   -115.76064479 </i>
    <i name="e_wo_entrp">   -115.73210283 </i>
    <i name="e_0_energy">   -115.74637381 </i>
   </energy>
  </scstep>
  <scstep>
   <time name="dav">   66.44   66.47</time>
   <time name="total">   84.98   85.03</time>
   <energy>
    <i name="e_fr_energy">   -115.69492578 </i>
    <i name="e_wo_entrp">   -115.67346645 </i>
    <i name="e_0_energy">   -115.68419612 </i>
   </energy>
  </scstep>
  <scstep>
   <time name="dav">   64.67   64.70</time>
   <time name="total">   83.22   83.26</time>
   <energy>
    <i name="e_fr_energy">   -115.67697249 </i>
    <i name="e_wo_entrp">   -115.65641259 </i>
    <i name="e_0_energy">   -115.66669254 </i>
   </energy>
  </scstep>
  <scstep>
   <time name="dav">   64.39   64.44</time>
   <time name="total">   82.92   82.98</time>
   <energy>
    <i name="e_fr_energy">   -115.67826866 </i>
    <i name="e_wo_entrp">   -115.65586570 </i>
    <i name="e_0_energy">   -115.66706718 </i>
   </energy>
  </scstep>
  <scstep>
   <time name="dav">   66.71   66.74</time>
   <time name="total">   85.30   85.35</time>
   <energy>
    <i name="e_fr_energy">   -115.67190328 </i>
    <i name="e_wo_entrp">   -115.65062258 </i>
    <i name="e_0_energy">   -115.66126293 </i>
   </energy>
  </scstep>
  <scstep>
   <time name="dav">   66.42   66.46</time>
   <time name="total">   85.04   85.08</time>
   <energy>
    <i name="e_fr_energy">   -115.66267110 </i>
    <i name="e_wo_entrp">   -115.64149399 </i>
    <i name="e_0_energy">   -115.65208254 </i>
   </energy>
  </scstep>
  <scstep>
   <time name="dav">   67.55   67.58</time>
   <time name="total">   86.11   86.15</time>
   <energy>
    <i name="e_fr_energy">   -115.65744460 </i>
    <i name="e_wo_entrp">   -115.63616982 </i>
    <i name="e_0_energy">   -115.64680721 </i>
   </energy>
  </scstep>
  <scstep>
   <time name="dav">   69.25   69.29</time>
   <time name="total">   87.88   87.93</time>
   <energy>
    <i name="e_fr_energy">   -115.65506157 </i>
    <i name="e_wo_entrp">   -115.63385498 </i>
    <i name="e_0_energy">   -115.64445827 </i>
   </energy>
  </scstep>
  <scstep>
   <time name="dav">   66.32   66.35</time>
   <time name="total">   84.92   84.96</time>
   <energy>
    <i name="e_fr_energy">   -115.65468628 </i>
    <i name="e_wo_entrp">   -115.63349086 </i>
    <i name="e_0_energy">   -115.64408857 </i>
   </energy>
  </scstep>
  <scstep>
   <time name="dav">   61.92   61.95</time>
   <time name="total">   80.51   80.56</time>
   <energy>
    <i name="e_fr_energy">   -115.65463597 </i>
    <i name="e_wo_entrp">   -115.63342952 </i>
    <i name="e_0_energy">   -115.64403274 </i>
   </energy>
  </scstep>
  <scstep>
   <time name="dav">   61.27   61.31</time>
   <time name="total">   79.84   79.88</time>
   <energy>
    <i name="e_fr_energy">   -115.65515386 </i>
    <i name="e_wo_entrp">   -115.63395534 </i>
    <i name="e_0_energy">   -115.64455460 </i>
   </energy>
  </scstep>
  <scstep>
   <time name="dav">   58.33   58.36</time>
   <time name="total">   76.90   76.94</time>
   <energy>
    <i name="e_fr_energy">   -115.65542523 </i>
    <i name="e_wo_entrp">   -115.63422236 </i>
    <i name="e_0_energy">   -115.64482379 </i>
   </energy>
  </scstep>
  <scstep>
   <time name="dav">   51.36   51.39</time>
   <time name="total">   69.92   69.96</time>
   <energy>
    <i name="e_fr_energy">   -115.65545636 </i>
    <i name="e_wo_entrp">   -115.63425296 </i>
    <i name="e_0_energy">   -115.64485466 </i>
   </energy>
  </scstep>
  <scstep>
   <time name="dav">   55.33   55.36</time>
   <time name="total">   73.90   73.95</time>
   <energy>
    <i name="e_fr_energy">   -115.65548219 </i>
    <i name="e_wo_entrp">   -115.63427868 </i>
    <i name="e_0_energy">   -115.64488043 </i>
   </energy>
  </scstep>
  <scstep>
   <time name="dav">   52.14   52.16</time>
   <time name="total">   70.76   70.79</time>
   <energy>
    <i name="e_fr_energy">   -115.65544117 </i>
    <i name="e_wo_entrp">   -115.63423647 </i>
    <i name="e_0_energy">   -115.64483882 </i>
   </energy>
  </scstep>
  <scstep>
   <time name="dav">   54.49   54.52</time>
   <time name="total">   73.09   73.13</time>
   <energy>
    <i name="e_fr_energy">   -115.65537454 </i>
    <i name="e_wo_entrp">   -115.63417058 </i>
    <i name="e_0_energy">   -115.64477256 </i>
   </energy>
  </scstep>
  <scstep>
   <time name="dav">   51.60   51.63</time>
   <time name="total">   70.21   70.25</time>
   <energy>
    <i name="e_fr_energy">   -115.65534258 </i>
    <i name="e_wo_entrp">   -115.63413831 </i>
    <i name="e_0_energy">   -115.64474045 </i>
   </energy>
  </scstep>
  <scstep>
   <time name="dav">   54.69   54.72</time>
   <time name="total">   73.30   73.34</time>
   <energy>
    <i name="e_fr_energy">   -115.65531476 </i>
    <i name="e_wo_entrp">   -115.63411074 </i>
    <i name="e_0_energy">   -115.64471275 </i>
   </energy>
  </scstep>
  <scstep>
   <time name="dav">   48.55   48.58</time>
   <time name="total">   63.28   63.32</time>
   <energy>
    <i name="alphaZ">     36.80884744 </i>
    <i name="ewald">  11933.72377187 </i>
    <i name="hartreedc"> -15066.87052103 </i>
    <i name="XCdc">    -80.42751637 </i>
    <i name="pawpsdc">   1175.37213761 </i>
    <i name="pawaedc">   -854.89506422 </i>
    <i name="eentropy">     -0.02120408 </i>
    <i name="bandstr">   -613.38702665 </i>
    <i name="atom">   3354.04126044 </i>
    <i name="e_fr_energy">   -115.65531499 </i>
    <i name="e_wo_entrp">   -115.63411090 </i>
    <i name="e_0_energy">   -115.64471294 </i>
   </energy>
  </scstep>
  <structure>
   <crystal>
    <varray name="basis" >
     <v>       3.54040000       0.00000000       0.00000000 </v>
     <v>      -1.77020000      10.29434800       0.00000000 </v>
     <v>       0.00000000       0.00000000      27.50142900 </v>
    </varray>
    <i name="volume">   1002.32009712 </i>
    <varray name="rec_basis" >
     <v>       0.28245396       0.04857034       0.00000000 </v>
     <v>       0.00000000       0.09714068       0.00000000 </v>
     <v>       0.00000000       0.00000000       0.03636175 </v>
    </varray>
   </crystal>
   <varray name="positions" >
    <v>       0.11402300       0.22804500       0.23316207 </v>
    <v>       0.81402300       0.42804500       0.51499159 </v>
    <v>       0.45808900       0.91617900       0.20939482 </v>
    <v>       0.15808900       0.11617900       0.49122434 </v>
    <v>       0.31085400       0.62170900       0.08414979 </v>
    <v>       0.31085400       0.62170900       0.36597930 </v>
    <v>       0.99923000       0.99846000       0.08631254 </v>
    <v>       0.99923000       0.99846000       0.36814206 </v>
    <v>       0.65492700       0.30985400       0.06041748 </v>
    <v>       0.65492700       0.30985400       0.34224700 </v>
    <v>       0.76973800       0.53947500       0.20725292 </v>
    <v>       0.46973800       0.73947500       0.48908244 </v>
    <v>       0.93971600       0.87943300       0.15783749 </v>
    <v>       0.63971600       0.07943300       0.43966701 </v>
    <v>       0.20515200       0.41030300       0.18578822 </v>
    <v>       0.90515200       0.61030300       0.46761774 </v>
    <v>       0.20184900       0.40369900       0.09969156 </v>
    <v>       0.20184900       0.40369900       0.38152107 </v>
    <v>       0.56380500       0.12761000       0.10779021 </v>
    <v>       0.56380500       0.12761000       0.38961973 </v>
    <v>       0.56710600       0.13421200       0.19387616 </v>
    <v>       0.26710600       0.33421200       0.47570568 </v>
    <v>       0.82923400       0.65846800       0.13571444 </v>
    <v>       0.52923400       0.85846800       0.41754396 </v>
   </varray>
  </structure>
  <varray name="forces" >
   <v>       0.01401068      -0.05722399      -0.00677738 </v>
   <v>       0.05082028       0.32669704      -0.21588872 </v>
   <v>       0.00021819      -0.01450430       0.08484139 </v>
   <v>      -0.52145907       0.39811755       0.87328607 </v>
   <v>      -0.00014949      -0.00556326       0.00630741 </v>
   <v>      -0.80070477      -0.33356954       0.58030939 </v>
   <v>       0.00130381       0.00243969      -0.00074544 </v>
   <v>       0.43179501      -1.32221510      -1.42128761 </v>
   <v>       0.00078961       0.00046459       0.01925439 </v>
   <v>       0.06825976       0.00770830      -0.25137010 </v>
   <v>      -0.00085919       0.00760880       0.09166962 </v>
   <v>       0.59073345       0.23864098       0.57291348 </v>
   <v>       0.00280886       0.00049673       0.00935202 </v>
   <v>      10.25863321     -13.84425785      41.34506268 </v>
   <v>      -0.00152371       0.01784695       0.06946226 </v>
   <v>       0.27680863       0.30739908      -0.76812506 </v>
   <v>      -0.00154842       0.00177690      -0.03074424 </v>
   <v>       0.46500539       0.16809712       1.21898775 </v>
   <v>      -0.00069876      -0.01548349      -0.02258423 </v>
   <v>     -10.17576727      14.72587703     -40.52192947 </v>
   <v>      -0.00268262      -0.02420634       0.01548141 </v>
   <v>      -0.44785309      -0.03133246      -1.06461809 </v>
   <v>       0.00146544       0.00840219      -0.00054373 </v>
   <v>      -0.20940594      -0.56321665      -0.58231378 </v>
  </varray>
  <varray name="stress" >
   <v>       6.28999052     -11.08127731      22.10680854 </v>
   <v>     -11.08127735       7.46648486     -23.48401073 </v>
   <v>      22.10680854     -23.48401089      86.10574524 </v>
  </varray>
  <energy>
   <i name="e_fr_energy">   -115.65531499 </i>
   <i name="e_wo_entrp">   -115.64471294 </i>
   <i name="e_0_energy">     -0.02120408 </i>
  </energy>
  <time name="totalsc"> 2043.88 2044.98</time>
  <eigenvalues>
   <array>
    <dimension dim="1">band</dimension>
    <dimension dim="2">kpoint</dimension>
    <dimension dim="3">spin</dimension>
    <field>eigene</field>
    <field>occ</field>
    <set>
     <set comment="spin 1">
      <set comment="kpoint 1">
       <r>  -14.3352    1.0000 </r>
       <r>  -13.5596    1.0000 </r>
       <r>  -12.8332    1.0000 </r>
       <r>  -12.8191    1.0000 </r>
       <r>  -12.5103    1.0000 </r>
       <r>  -12.2173    1.0000 </r>
       <r>  -12.1008    1.0000 </r>
       <r>  -12.0768    1.0000 </r>
       <r>  -11.4516    1.0000 </r>
       <r>  -11.1685    1.0000 </r>
       <r>  -11.0093    1.0000 </r>
       <r>  -10.1389    1.0000 </r>
       <r>   -8.3851    1.0000 </r>
       <r>   -8.0512    1.0000 </r>
       <r>   -7.8487    1.0000 </r>
       <r>   -7.5677    1.0000 </r>
       <r>   -6.9662    1.0000 </r>
       <r>   -6.8550    1.0000 </r>
       <r>   -6.5475    1.0000 </r>
       <r>   -6.5107    1.0000 </r>
       <r>   -5.8453    1.0000 </r>
       <r>   -5.7082    1.0000 </r>
       <r>   -4.7799    1.0000 </r>
       <r>   -4.5018    1.0000 </r>
       <r>   -4.1111    1.0000 </r>
       <r>   -4.0315    1.0000 </r>
       <r>   -3.7149    1.0000 </r>
       <r>   -3.7053    1.0000 </r>
       <r>   -3.4875    1.0000 </r>
       <r>   -3.1588    1.0000 </r>
       <r>   -3.0752    1.0000 </r>
       <r>   -2.8620    1.0000 </r>
       <r>   -2.8583    1.0000 </r>
       <r>   -2.7038    1.0000 </r>
       <r>   -2.4788    1.0000 </r>
       <r>   -2.4275    1.0000 </r>
       <r>   -2.4142    1.0000 </r>
       <r>   -2.2382    1.0000 </r>
       <r>   -2.1917    1.0000 </r>
       <r>   -2.0164    1.0000 </r>
       <r>   -1.9564    1.0000 </r>
       <r>   -1.8772    1.0000 </r>
       <r>   -1.7464    1.0000 </r>
       <r>   -1.6861    1.0000 </r>
       <r>   -1.6610    1.0000 </r>
       <r>   -1.5917    1.0000 </r>
       <r>   -1.4505    1.0000 </r>
       <r>   -1.4172    1.0000 </r>
       <r>   -1.1833    1.0000 </r>
       <r>   -1.1314    1.0000 </r>
       <r>   -0.9633    1.0000 </r>
       <r>   -0.5844    1.0000 </r>
       <r>   -0.2969    0.9595 </r>
       <r>   -0.0875    0.1120 </r>
       <r>    0.8126    0.0000 </r>
       <r>    0.9682    0.0000 </r>
       <r>    1.1672    0.0000 </r>
       <r>    1.2540    0.0000 </r>
       <r>    1.3178    0.0000 </r>
       <r>    1.6576    0.0000 </r>
       <r>    1.7656    0.0000 </r>
       <r>    1.8242    0.0000 </r>
       <r>    1.9611    0.0000 </r>
       <r>    2.0300    0.0000 </r>
       <r>    2.0771    0.0000 </r>
       <r>    2.1545    0.0000 </r>
       <r>    2.4134    0.0000 </r>
       <r>    2.5293    0.0000 </r>
      </set>
      <set comment="kpoint 2">
       <r>  -14.2745    1.0000 </r>
       <r>  -13.4982    1.0000 </r>
       <r>  -12.7776    1.0000 </r>
       <r>  -12.7669    1.0000 </r>
       <r>  -12.4547    1.0000 </r>
       <r>  -12.1616    1.0000 </r>
       <r>  -12.0418    1.0000 </r>
       <r>  -12.0169    1.0000 </r>
       <r>  -11.4027    1.0000 </r>
       <r>  -11.1221    1.0000 </r>
       <r>  -10.9609    1.0000 </r>
       <r>  -10.1058    1.0000 </r>
       <r>   -8.3551    1.0000 </r>
       <r>   -8.0881    1.0000 </r>
       <r>   -7.8116    1.0000 </r>
       <r>   -7.6352    1.0000 </r>
       <r>   -6.9339    1.0000 </r>
       <r>   -6.8213    1.0000 </r>
       <r>   -6.5333    1.0000 </r>
       <r>   -6.5051    1.0000 </r>
       <r>   -5.8116    1.0000 </r>
       <r>   -5.6939    1.0000 </r>
       <r>   -4.7867    1.0000 </r>
       <r>   -4.6545    1.0000 </r>
       <r>   -4.2683    1.0000 </r>
       <r>   -4.0228    1.0000 </r>
       <r>   -3.7496    1.0000 </r>
       <r>   -3.6907    1.0000 </r>
       <r>   -3.5845    1.0000 </r>
       <r>   -3.4326    1.0000 </r>
       <r>   -3.2958    1.0000 </r>
       <r>   -3.2407    1.0000 </r>
       <r>   -3.0641    1.0000 </r>
       <r>   -2.9359    1.0000 </r>
       <r>   -2.7596    1.0000 </r>
       <r>   -2.5719    1.0000 </r>
       <r>   -2.4967    1.0000 </r>
       <r>   -2.4781    1.0000 </r>
       <r>   -2.2595    1.0000 </r>
       <r>   -2.2119    1.0000 </r>
       <r>   -2.1665    1.0000 </r>
       <r>   -2.0184    1.0000 </r>
       <r>   -1.9832    1.0000 </r>
       <r>   -1.8763    1.0000 </r>
       <r>   -1.8068    1.0000 </r>
       <r>   -1.7455    1.0000 </r>
       <r>   -1.5290    1.0000 </r>
       <r>   -1.3519    1.0000 </r>
       <r>   -1.2476    1.0000 </r>
       <r>   -1.1091    1.0000 </r>
       <r>   -0.9206    1.0000 </r>
       <r>   -0.4161    0.9997 </r>
       <r>   -0.2817    0.9370 </r>
       <r>   -0.0800    0.0931 </r>
       <r>    0.6334    0.0000 </r>
       <r>    1.0513    0.0000 </r>
       <r>    1.2985    0.0000 </r>
       <r>    1.5468    0.0000 </r>
       <r>    1.7444    0.0000 </r>
       <r>    1.7743    0.0000 </r>
       <r>    1.9665    0.0000 </r>
       <r>    2.0996    0.0000 </r>
       <r>    2.1743    0.0000 </r>
       <r>    2.2339    0.0000 </r>
       <r>    2.3052    0.0000 </r>
       <r>    2.5080    0.0000 </r>
       <r>    2.5945    0.0000 </r>
       <r>    2.7495    0.0000 </r>
      </set>
      <set comment="kpoint 3">
       <r>  -14.0933    1.0000 </r>
       <r>  -13.3152    1.0000 </r>
       <r>  -12.6135    1.0000 </r>
       <r>  -12.6097    1.0000 </r>
       <r>  -12.2897    1.0000 </r>
       <r>  -11.9979    1.0000 </r>
       <r>  -11.8691    1.0000 </r>
       <r>  -11.8395    1.0000 </r>
       <r>  -11.2607    1.0000 </r>
       <r>  -10.9887    1.0000 </r>
       <r>  -10.8221    1.0000 </r>
       <r>  -10.0153    1.0000 </r>
       <r>   -8.3168    1.0000 </r>
       <r>   -8.1845    1.0000 </r>
       <r>   -7.8394    1.0000 </r>
       <r>   -7.7691    1.0000 </r>
       <r>   -6.8918    1.0000 </r>
       <r>   -6.7444    1.0000 </r>
       <r>   -6.5179    1.0000 </r>
       <r>   -6.4993    1.0000 </r>
       <r>   -5.7412    1.0000 </r>
       <r>   -5.7011    1.0000 </r>
       <r>   -5.1470    1.0000 </r>
       <r>   -4.8863    1.0000 </r>
       <r>   -4.3692    1.0000 </r>
       <r>   -4.2309    1.0000 </r>
       <r>   -4.1064    1.0000 </r>
       <r>   -4.0868    1.0000 </r>
       <r>   -3.9809    1.0000 </r>
       <r>   -3.7969    1.0000 </r>
       <r>   -3.7376    1.0000 </r>
       <r>   -3.6158    1.0000 </r>
       <r>   -3.5112    1.0000 </r>
       <r>   -3.3487    1.0000 </r>
       <r>   -3.2021    1.0000 </r>
       <r>   -3.0859    1.0000 </r>
       <r>   -2.9853    1.0000 </r>
       <r>   -2.9508    1.0000 </r>
       <r>   -2.7562    1.0000 </r>
       <r>   -2.5792    1.0000 </r>
       <r>   -2.3954    1.0000 </r>
       <r>   -2.1978    1.0000 </r>
       <r>   -2.1332    1.0000 </r>
       <r>   -2.0337    1.0000 </r>
       <r>   -1.8933    1.0000 </r>
       <r>   -1.7803    1.0000 </r>
       <r>   -1.6670    1.0000 </r>
       <r>   -1.4532    1.0000 </r>
       <r>   -1.2944    1.0000 </r>
       <r>   -1.1407    1.0000 </r>
       <r>   -0.9011    1.0000 </r>
       <r>   -0.5449    1.0000 </r>
       <r>   -0.2267    0.7742 </r>
       <r>   -0.0956    0.1354 </r>
       <r>    0.2498    0.0000 </r>
       <r>    1.0183    0.0000 </r>
       <r>    1.4450    0.0000 </r>
       <r>    1.7091    0.0000 </r>
       <r>    1.9231    0.0000 </r>
       <r>    2.1528    0.0000 </r>
       <r>    2.2383    0.0000 </r>
       <r>    2.4058    0.0000 </r>
       <r>    2.5757    0.0000 </r>
       <r>    2.6473    0.0000 </r>
       <r>    2.7361    0.0000 </r>
       <r>    2.9152    0.0000 </r>
       <r>    2.9985    0.0000 </r>
       <r>    3.0555    0.0000 </r>
      </set>
      <set comment="kpoint 4">
       <r>  -13.7954    1.0000 </r>
       <r>  -13.0142    1.0000 </r>
       <r>  -12.3555    1.0000 </r>
       <r>  -12.3418    1.0000 </r>
       <r>  -12.0226    1.0000 </r>
       <r>  -11.7375    1.0000 </r>
       <r>  -11.5947    1.0000 </r>
       <r>  -11.5558    1.0000 </r>
       <r>  -11.0439    1.0000 </r>
       <r>  -10.7903    1.0000 </r>
       <r>  -10.6191    1.0000 </r>
       <r>   -9.8995    1.0000 </r>
       <r>   -8.6322    1.0000 </r>
       <r>   -8.3778    1.0000 </r>
       <r>   -7.8861    1.0000 </r>
       <r>   -7.8423    1.0000 </r>
       <r>   -7.0012    1.0000 </r>
       <r>   -6.7149    1.0000 </r>
       <r>   -6.6521    1.0000 </r>
       <r>   -6.4913    1.0000 </r>
       <r>   -5.9565    1.0000 </r>
       <r>   -5.7548    1.0000 </r>
       <r>   -5.3837    1.0000 </r>
       <r>   -5.3562    1.0000 </r>
       <r>   -4.8355    1.0000 </r>
       <r>   -4.7441    1.0000 </r>
       <r>   -4.6282    1.0000 </r>
       <r>   -4.5532    1.0000 </r>
       <r>   -4.5174    1.0000 </r>
       <r>   -4.2293    1.0000 </r>
       <r>   -4.2061    1.0000 </r>
       <r>   -3.9749    1.0000 </r>
       <r>   -3.7897    1.0000 </r>
       <r>   -3.6193    1.0000 </r>
       <r>   -3.4849    1.0000 </r>
       <r>   -3.4468    1.0000 </r>
       <r>   -3.2192    1.0000 </r>
       <r>   -3.0151    1.0000 </r>
       <r>   -2.8663    1.0000 </r>
       <r>   -2.7337    1.0000 </r>
       <r>   -2.5932    1.0000 </r>
       <r>   -2.4597    1.0000 </r>
       <r>   -2.2706    1.0000 </r>
       <r>   -2.0187    1.0000 </r>
       <r>   -1.9320    1.0000 </r>
       <r>   -1.8477    1.0000 </r>
       <r>   -1.7776    1.0000 </r>
       <r>   -1.6775    1.0000 </r>
       <r>   -1.4887    1.0000 </r>
       <r>   -1.2472    1.0000 </r>
       <r>   -1.1474    1.0000 </r>
       <r>   -0.8909    1.0000 </r>
       <r>   -0.5029    1.0000 </r>
       <r>   -0.3702    0.9973 </r>
       <r>    0.0939    0.0001 </r>
       <r>    0.8595    0.0000 </r>
       <r>    1.5399    0.0000 </r>
       <r>    1.8000    0.0000 </r>
       <r>    1.8976    0.0000 </r>
       <r>    2.0101    0.0000 </r>
       <r>    2.1981    0.0000 </r>
       <r>    2.2406    0.0000 </r>
       <r>    2.3779    0.0000 </r>
       <r>    2.4578    0.0000 </r>
       <r>    2.6645    0.0000 </r>
       <r>    2.8609    0.0000 </r>
       <r>    2.9161    0.0000 </r>
       <r>    2.9637    0.0000 </r>
      </set>
      <set comment="kpoint 5">
       <r>  -13.3896    1.0000 </r>
       <r>  -12.6023    1.0000 </r>
       <r>  -12.0070    1.0000 </r>
       <r>  -11.9809    1.0000 </r>
       <r>  -11.6702    1.0000 </r>
       <r>  -11.4084    1.0000 </r>
       <r>  -11.2419    1.0000 </r>
       <r>  -11.1986    1.0000 </r>
       <r>  -10.7995    1.0000 </r>
       <r>  -10.5898    1.0000 </r>
       <r>  -10.4332    1.0000 </r>
       <r>   -9.8516    1.0000 </r>
       <r>   -9.2484    1.0000 </r>
       <r>   -8.6728    1.0000 </r>
       <r>   -8.1036    1.0000 </r>
       <r>   -7.7360    1.0000 </r>
       <r>   -7.3266    1.0000 </r>
       <r>   -7.0155    1.0000 </r>
       <r>   -6.9182    1.0000 </r>
       <r>   -6.6603    1.0000 </r>
       <r>   -6.5047    1.0000 </r>
       <r>   -6.1800    1.0000 </r>
       <r>   -5.9823    1.0000 </r>
       <r>   -5.5797    1.0000 </r>
       <r>   -5.2307    1.0000 </r>
       <r>   -5.0414    1.0000 </r>
       <r>   -4.9110    1.0000 </r>
       <r>   -4.8164    1.0000 </r>
       <r>   -4.7190    1.0000 </r>
       <r>   -4.4536    1.0000 </r>
       <r>   -4.3232    1.0000 </r>
       <r>   -4.2327    1.0000 </r>
       <r>   -4.1577    1.0000 </r>
       <r>   -3.4873    1.0000 </r>
       <r>   -3.4266    1.0000 </r>
       <r>   -3.3868    1.0000 </r>
       <r>   -3.1476    1.0000 </r>
       <r>   -3.0917    1.0000 </r>
       <r>   -2.9977    1.0000 </r>
       <r>   -2.9059    1.0000 </r>
       <r>   -2.7300    1.0000 </r>
       <r>   -2.6216    1.0000 </r>
       <r>   -2.4129    1.0000 </r>
       <r>   -2.2482    1.0000 </r>
       <r>   -2.0795    1.0000 </r>
       <r>   -1.9335    1.0000 </r>
       <r>   -1.8950    1.0000 </r>
       <r>   -1.8156    1.0000 </r>
       <r>   -1.7291    1.0000 </r>
       <r>   -1.6509    1.0000 </r>
       <r>   -1.3715    1.0000 </r>
       <r>   -1.1974    1.0000 </r>
       <r>   -0.7874    1.0000 </r>
       <r>   -0.5372    1.0000 </r>
       <r>   -0.1245    0.2441 </r>
       <r>    0.7074    0.0000 </r>
       <r>    1.2389    0.0000 </r>
       <r>    1.5605    0.0000 </r>
       <r>    1.7008    0.0000 </r>
       <r>    1.8176    0.0000 </r>
       <r>    2.0102    0.0000 </r>
       <r>    2.1062    0.0000 </r>
       <r>    2.2610    0.0000 </r>
       <r>    2.3515    0.0000 </r>
       <r>    2.4016    0.0000 </r>
       <r>    2.6480    0.0000 </r>
       <r>    2.7583    0.0000 </r>
       <r>    2.8542    0.0000 </r>
      </set>
      <set comment="kpoint 6">
       <r>  -12.8994    1.0000 </r>
       <r>  -12.0939    1.0000 </r>
       <r>  -11.5878    1.0000 </r>
       <r>  -11.5590    1.0000 </r>
       <r>  -11.2714    1.0000 </r>
       <r>  -11.1037    1.0000 </r>
       <r>  -10.8767    1.0000 </r>
       <r>  -10.8386    1.0000 </r>
       <r>  -10.6448    1.0000 </r>
       <r>  -10.5915    1.0000 </r>
       <r>  -10.4734    1.0000 </r>
       <r>  -10.0412    1.0000 </r>
       <r>   -9.5934    1.0000 </r>
       <r>   -8.8491    1.0000 </r>
       <r>   -8.3960    1.0000 </r>
       <r>   -7.8530    1.0000 </r>
       <r>   -7.4922    1.0000 </r>
       <r>   -7.4733    1.0000 </r>
       <r>   -7.4313    1.0000 </r>
       <r>   -7.1311    1.0000 </r>
       <r>   -6.8783    1.0000 </r>
       <r>   -6.7770    1.0000 </r>
       <r>   -6.6778    1.0000 </r>
       <r>   -6.1959    1.0000 </r>
       <r>   -5.2310    1.0000 </r>
       <r>   -4.8978    1.0000 </r>
       <r>   -4.7810    1.0000 </r>
       <r>   -4.6804    1.0000 </r>
       <r>   -4.5444    1.0000 </r>
       <r>   -4.3940    1.0000 </r>
       <r>   -4.2384    1.0000 </r>
       <r>   -4.0950    1.0000 </r>
       <r>   -3.9851    1.0000 </r>
       <r>   -3.7319    1.0000 </r>
       <r>   -3.6733    1.0000 </r>
       <r>   -3.4354    1.0000 </r>
       <r>   -3.2868    1.0000 </r>
       <r>   -3.1874    1.0000 </r>
       <r>   -3.1543    1.0000 </r>
       <r>   -2.9957    1.0000 </r>
       <r>   -2.8118    1.0000 </r>
       <r>   -2.6156    1.0000 </r>
       <r>   -2.5361    1.0000 </r>
       <r>   -2.4023    1.0000 </r>
       <r>   -2.2753    1.0000 </r>
       <r>   -2.1409    1.0000 </r>
       <r>   -2.0722    1.0000 </r>
       <r>   -2.0373    1.0000 </r>
       <r>   -1.8744    1.0000 </r>
       <r>   -1.7755    1.0000 </r>
       <r>   -1.6149    1.0000 </r>
       <r>   -1.4141    1.0000 </r>
       <r>   -0.8853    1.0000 </r>
       <r>   -0.6336    1.0000 </r>
       <r>   -0.3135    0.9762 </r>
       <r>    0.5006    0.0000 </r>
       <r>    0.8707    0.0000 </r>
       <r>    1.3808    0.0000 </r>
       <r>    1.5506    0.0000 </r>
       <r>    1.6742    0.0000 </r>
       <r>    1.8005    0.0000 </r>
       <r>    1.9174    0.0000 </r>
       <r>    2.0747    0.0000 </r>
       <r>    2.2480    0.0000 </r>
       <r>    2.3126    0.0000 </r>
       <r>    2.3874    0.0000 </r>
       <r>    2.6170    0.0000 </r>
       <r>    2.8062    0.0000 </r>
      </set>
      <set comment="kpoint 7">
       <r>  -12.4246    1.0000 </r>
       <r>  -11.5203    1.0000 </r>
       <r>  -11.2673    1.0000 </r>
       <r>  -11.1651    1.0000 </r>
       <r>  -11.0875    1.0000 </r>
       <r>  -10.9661    1.0000 </r>
       <r>  -10.8618    1.0000 </r>
       <r>  -10.8124    1.0000 </r>
       <r>  -10.7475    1.0000 </r>
       <r>  -10.6535    1.0000 </r>
       <r>  -10.4972    1.0000 </r>
       <r>  -10.0704    1.0000 </r>
       <r>   -9.7886    1.0000 </r>
       <r>   -8.7064    1.0000 </r>
       <r>   -8.4589    1.0000 </r>
       <r>   -8.0983    1.0000 </r>
       <r>   -7.9811    1.0000 </r>
       <r>   -7.7740    1.0000 </r>
       <r>   -7.5897    1.0000 </r>
       <r>   -7.3084    1.0000 </r>
       <r>   -7.2687    1.0000 </r>
       <r>   -7.1955    1.0000 </r>
       <r>   -7.0552    1.0000 </r>
       <r>   -6.5792    1.0000 </r>
       <r>   -4.9362    1.0000 </r>
       <r>   -4.7280    1.0000 </r>
       <r>   -4.6149    1.0000 </r>
       <r>   -4.5213    1.0000 </r>
       <r>   -4.3236    1.0000 </r>
       <r>   -4.1911    1.0000 </r>
       <r>   -4.0727    1.0000 </r>
       <r>   -3.9953    1.0000 </r>
       <r>   -3.9362    1.0000 </r>
       <r>   -3.8492    1.0000 </r>
       <r>   -3.6804    1.0000 </r>
       <r>   -3.5877    1.0000 </r>
       <r>   -3.5496    1.0000 </r>
       <r>   -3.3698    1.0000 </r>
       <r>   -3.2700    1.0000 </r>
       <r>   -3.1312    1.0000 </r>
       <r>   -3.0182    1.0000 </r>
       <r>   -2.8922    1.0000 </r>
       <r>   -2.7013    1.0000 </r>
       <r>   -2.3824    1.0000 </r>
       <r>   -2.3716    1.0000 </r>
       <r>   -2.2686    1.0000 </r>
       <r>   -2.1755    1.0000 </r>
       <r>   -2.0693    1.0000 </r>
       <r>   -1.8939    1.0000 </r>
       <r>   -1.7085    1.0000 </r>
       <r>   -1.6054    1.0000 </r>
       <r>   -1.5330    1.0000 </r>
       <r>   -0.9238    1.0000 </r>
       <r>   -0.7774    1.0000 </r>
       <r>   -0.3934    0.9991 </r>
       <r>    0.3290    0.0000 </r>
       <r>    0.6598    0.0000 </r>
       <r>    1.3290    0.0000 </r>
       <r>    1.4238    0.0000 </r>
       <r>    1.5357    0.0000 </r>
       <r>    1.6900    0.0000 </r>
       <r>    1.7774    0.0000 </r>
       <r>    1.8877    0.0000 </r>
       <r>    2.0742    0.0000 </r>
       <r>    2.3854    0.0000 </r>
       <r>    2.4149    0.0000 </r>
       <r>    2.4984    0.0000 </r>
       <r>    2.6978    0.0000 </r>
      </set>
      <set comment="kpoint 8">
       <r>  -14.3296    1.0000 </r>
       <r>  -13.5042    1.0000 </r>
       <r>  -12.9931    1.0000 </r>
       <r>  -12.8883    1.0000 </r>
       <r>  -12.5091    1.0000 </r>
       <r>  -12.2156    1.0000 </r>
       <r>  -11.9919    1.0000 </r>
       <r>  -11.8850    1.0000 </r>
       <r>  -11.4968    1.0000 </r>
       <r>  -11.2039    1.0000 </r>
       <r>  -11.0182    1.0000 </r>
       <r>  -10.0888    1.0000 </r>
       <r>   -8.5392    1.0000 </r>
       <r>   -8.4932    1.0000 </r>
       <r>   -7.7743    1.0000 </r>
       <r>   -7.4069    1.0000 </r>
       <r>   -6.7858    1.0000 </r>
       <r>   -6.6885    1.0000 </r>
       <r>   -6.6131    1.0000 </r>
       <r>   -6.4192    1.0000 </r>
       <r>   -5.7675    1.0000 </r>
       <r>   -5.6150    1.0000 </r>
       <r>   -4.6795    1.0000 </r>
       <r>   -4.4647    1.0000 </r>
       <r>   -4.0784    1.0000 </r>
       <r>   -4.0267    1.0000 </r>
       <r>   -3.9232    1.0000 </r>
       <r>   -3.7536    1.0000 </r>
       <r>   -3.5110    1.0000 </r>
       <r>   -3.3571    1.0000 </r>
       <r>   -3.1468    1.0000 </r>
       <r>   -3.0289    1.0000 </r>
       <r>   -2.7275    1.0000 </r>
       <r>   -2.7033    1.0000 </r>
       <r>   -2.5212    1.0000 </r>
       <r>   -2.4152    1.0000 </r>
       <r>   -2.3977    1.0000 </r>
       <r>   -2.3089    1.0000 </r>
       <r>   -2.1717    1.0000 </r>
       <r>   -2.1457    1.0000 </r>
       <r>   -2.0115    1.0000 </r>
       <r>   -1.9674    1.0000 </r>
       <r>   -1.8985    1.0000 </r>
       <r>   -1.6581    1.0000 </r>
       <r>   -1.6461    1.0000 </r>
       <r>   -1.5366    1.0000 </r>
       <r>   -1.3809    1.0000 </r>
       <r>   -1.3597    1.0000 </r>
       <r>   -1.1689    1.0000 </r>
       <r>   -1.0693    1.0000 </r>
       <r>   -0.9416    1.0000 </r>
       <r>   -0.5599    1.0000 </r>
       <r>   -0.2591    0.8870 </r>
       <r>    0.0798    0.0002 </r>
       <r>    0.8419    0.0000 </r>
       <r>    1.0257    0.0000 </r>
       <r>    1.1883    0.0000 </r>
       <r>    1.3271    0.0000 </r>
       <r>    1.4030    0.0000 </r>
       <r>    1.6719    0.0000 </r>
       <r>    1.7345    0.0000 </r>
       <r>    1.8072    0.0000 </r>
       <r>    1.8834    0.0000 </r>
       <r>    2.0691    0.0000 </r>
       <r>    2.1691    0.0000 </r>
       <r>    2.2395    0.0000 </r>
       <r>    2.5154    0.0000 </r>
       <r>    2.6364    0.0000 </r>
      </set>
      <set comment="kpoint 9">
       <r>  -14.2676    1.0000 </r>
       <r>  -13.4274    1.0000 </r>
       <r>  -12.9740    1.0000 </r>
       <r>  -12.8432    1.0000 </r>
       <r>  -12.4520    1.0000 </r>
       <r>  -12.1598    1.0000 </r>
       <r>  -11.9167    1.0000 </r>
       <r>  -11.7857    1.0000 </r>
       <r>  -11.4555    1.0000 </r>
       <r>  -11.1644    1.0000 </r>
       <r>  -10.9739    1.0000 </r>
       <r>  -10.0476    1.0000 </r>
       <r>   -8.5945    1.0000 </r>
       <r>   -8.4687    1.0000 </r>
       <r>   -7.8743    1.0000 </r>
       <r>   -7.3584    1.0000 </r>
       <r>   -6.7769    1.0000 </r>
       <r>   -6.6973    1.0000 </r>
       <r>   -6.5450    1.0000 </r>
       <r>   -6.3123    1.0000 </r>
       <r>   -5.7196    1.0000 </r>
       <r>   -5.5912    1.0000 </r>
       <r>   -4.7517    1.0000 </r>
       <r>   -4.6700    1.0000 </r>
       <r>   -4.2627    1.0000 </r>
       <r>   -4.0973    1.0000 </r>
       <r>   -3.8637    1.0000 </r>
       <r>   -3.7546    1.0000 </r>
       <r>   -3.6289    1.0000 </r>
       <r>   -3.4458    1.0000 </r>
       <r>   -3.3984    1.0000 </r>
       <r>   -3.1132    1.0000 </r>
       <r>   -3.0647    1.0000 </r>
       <r>   -3.0246    1.0000 </r>
       <r>   -2.7319    1.0000 </r>
       <r>   -2.6912    1.0000 </r>
       <r>   -2.5322    1.0000 </r>
       <r>   -2.5049    1.0000 </r>
       <r>   -2.3394    1.0000 </r>
       <r>   -2.2968    1.0000 </r>
       <r>   -2.2593    1.0000 </r>
       <r>   -2.1577    1.0000 </r>
       <r>   -2.0271    1.0000 </r>
       <r>   -1.8652    1.0000 </r>
       <r>   -1.7756    1.0000 </r>
       <r>   -1.7457    1.0000 </r>
       <r>   -1.4929    1.0000 </r>
       <r>   -1.3206    1.0000 </r>
       <r>   -1.1097    1.0000 </r>
       <r>   -1.0388    1.0000 </r>
       <r>   -0.8976    1.0000 </r>
       <r>   -0.4267    0.9998 </r>
       <r>   -0.2676    0.9085 </r>
       <r>    0.0006    0.0069 </r>
       <r>    0.7880    0.0000 </r>
       <r>    1.1042    0.0000 </r>
       <r>    1.3323    0.0000 </r>
       <r>    1.5698    0.0000 </r>
       <r>    1.7587    0.0000 </r>
       <r>    1.7859    0.0000 </r>
       <r>    1.9271    0.0000 </r>
       <r>    2.0933    0.0000 </r>
       <r>    2.1861    0.0000 </r>
       <r>    2.2420    0.0000 </r>
       <r>    2.5021    0.0000 </r>
       <r>    2.5785    0.0000 </r>
       <r>    2.6373    0.0000 </r>
       <r>    2.8934    0.0000 </r>
      </set>
      <set comment="kpoint 10">
       <r>  -14.0856    1.0000 </r>
       <r>  -13.2309    1.0000 </r>
       <r>  -12.8374    1.0000 </r>
       <r>  -12.6837    1.0000 </r>
       <r>  -12.2855    1.0000 </r>
       <r>  -11.9968    1.0000 </r>
       <r>  -11.7369    1.0000 </r>
       <r>  -11.5880    1.0000 </r>
       <r>  -11.3161    1.0000 </r>
       <r>  -11.0341    1.0000 </r>
       <r>  -10.8327    1.0000 </r>
       <r>   -9.9578    1.0000 </r>
       <r>   -8.6594    1.0000 </r>
       <r>   -8.3709    1.0000 </r>
       <r>   -8.0953    1.0000 </r>
       <r>   -7.3271    1.0000 </r>
       <r>   -6.7982    1.0000 </r>
       <r>   -6.6758    1.0000 </r>
       <r>   -6.5163    1.0000 </r>
       <r>   -6.2434    1.0000 </r>
       <r>   -5.7001    1.0000 </r>
       <r>   -5.6497    1.0000 </r>
       <r>   -5.0687    1.0000 </r>
       <r>   -4.8590    1.0000 </r>
       <r>   -4.4817    1.0000 </r>
       <r>   -4.3974    1.0000 </r>
       <r>   -4.3088    1.0000 </r>
       <r>   -4.0876    1.0000 </r>
       <r>   -4.0045    1.0000 </r>
       <r>   -3.8248    1.0000 </r>
       <r>   -3.6605    1.0000 </r>
       <r>   -3.5231    1.0000 </r>
       <r>   -3.4367    1.0000 </r>
       <r>   -3.2401    1.0000 </r>
       <r>   -3.1593    1.0000 </r>
       <r>   -3.0621    1.0000 </r>
       <r>   -2.9836    1.0000 </r>
       <r>   -2.8664    1.0000 </r>
       <r>   -2.8133    1.0000 </r>
       <r>   -2.6932    1.0000 </r>
       <r>   -2.6184    1.0000 </r>
       <r>   -2.4223    1.0000 </r>
       <r>   -2.3192    1.0000 </r>
       <r>   -2.0059    1.0000 </r>
       <r>   -1.9159    1.0000 </r>
       <r>   -1.8028    1.0000 </r>
       <r>   -1.5422    1.0000 </r>
       <r>   -1.4325    1.0000 </r>
       <r>   -1.1681    1.0000 </r>
       <r>   -1.0541    1.0000 </r>
       <r>   -0.8789    1.0000 </r>
       <r>   -0.6154    1.0000 </r>
       <r>   -0.2789    0.9320 </r>
       <r>   -0.0916    0.1236 </r>
       <r>    0.4496    0.0000 </r>
       <r>    0.9929    0.0000 </r>
       <r>    1.4311    0.0000 </r>
       <r>    1.6299    0.0000 </r>
       <r>    1.7816    0.0000 </r>
       <r>    2.0884    0.0000 </r>
       <r>    2.2168    0.0000 </r>
       <r>    2.3365    0.0000 </r>
       <r>    2.6364    0.0000 </r>
       <r>    2.7413    0.0000 </r>
       <r>    2.8403    0.0000 </r>
       <r>    2.9839    0.0000 </r>
       <r>    3.0527    0.0000 </r>
       <r>    3.0808    0.0000 </r>
      </set>
      <set comment="kpoint 11">
       <r>  -13.7874    1.0000 </r>
       <r>  -12.9195    1.0000 </r>
       <r>  -12.5859    1.0000 </r>
       <r>  -12.4152    1.0000 </r>
       <r>  -12.0176    1.0000 </r>
       <r>  -11.7362    1.0000 </r>
       <r>  -11.4634    1.0000 </r>
       <r>  -11.3114    1.0000 </r>
       <r>  -11.0943    1.0000 </r>
       <r>  -10.8348    1.0000 </r>
       <r>  -10.6154    1.0000 </r>
       <r>   -9.8520    1.0000 </r>
       <r>   -8.7906    1.0000 </r>
       <r>   -8.6633    1.0000 </r>
       <r>   -8.0776    1.0000 </r>
       <r>   -7.4134    1.0000 </r>
       <r>   -6.9685    1.0000 </r>
       <r>   -6.7154    1.0000 </r>
       <r>   -6.6628    1.0000 </r>
       <r>   -6.3427    1.0000 </r>
       <r>   -5.9769    1.0000 </r>
       <r>   -5.8365    1.0000 </r>
       <r>   -5.2304    1.0000 </r>
       <r>   -5.1951    1.0000 </r>
       <r>   -5.0482    1.0000 </r>
       <r>   -4.8135    1.0000 </r>
       <r>   -4.6859    1.0000 </r>
       <r>   -4.5756    1.0000 </r>
       <r>   -4.5426    1.0000 </r>
       <r>   -4.2429    1.0000 </r>
       <r>   -4.1239    1.0000 </r>
       <r>   -4.0248    1.0000 </r>
       <r>   -3.7556    1.0000 </r>
       <r>   -3.5795    1.0000 </r>
       <r>   -3.3238    1.0000 </r>
       <r>   -3.2248    1.0000 </r>
       <r>   -3.1258    1.0000 </r>
       <r>   -3.1076    1.0000 </r>
       <r>   -2.9366    1.0000 </r>
       <r>   -2.7532    1.0000 </r>
       <r>   -2.6673    1.0000 </r>
       <r>   -2.5477    1.0000 </r>
       <r>   -2.4151    1.0000 </r>
       <r>   -2.0186    1.0000 </r>
       <r>   -1.9691    1.0000 </r>
       <r>   -1.8676    1.0000 </r>
       <r>   -1.7894    1.0000 </r>
       <r>   -1.6101    1.0000 </r>
       <r>   -1.4128    1.0000 </r>
       <r>   -1.3471    1.0000 </r>
       <r>   -1.1294    1.0000 </r>
       <r>   -0.8402    1.0000 </r>
       <r>   -0.5120    1.0000 </r>
       <r>   -0.3846    0.9986 </r>
       <r>   -0.0282    0.0200 </r>
       <r>    0.9053    0.0000 </r>
       <r>    1.3283    0.0000 </r>
       <r>    1.4299    0.0000 </r>
       <r>    1.5803    0.0000 </r>
       <r>    1.9932    0.0000 </r>
       <r>    2.1367    0.0000 </r>
       <r>    2.2204    0.0000 </r>
       <r>    2.3864    0.0000 </r>
       <r>    2.5572    0.0000 </r>
       <r>    2.6983    0.0000 </r>
       <r>    2.8674    0.0000 </r>
       <r>    3.0174    0.0000 </r>
       <r>    3.1248    0.0000 </r>
      </set>
      <set comment="kpoint 12">
       <r>  -13.3819    1.0000 </r>
       <r>  -12.5028    1.0000 </r>
       <r>  -12.2268    1.0000 </r>
       <r>  -12.0504    1.0000 </r>
       <r>  -11.6656    1.0000 </r>
       <r>  -11.4015    1.0000 </r>
       <r>  -11.1230    1.0000 </r>
       <r>  -10.9978    1.0000 </r>
       <r>  -10.8306    1.0000 </r>
       <r>  -10.6291    1.0000 </r>
       <r>  -10.4098    1.0000 </r>
       <r>   -9.8194    1.0000 </r>
       <r>   -9.2719    1.0000 </r>
       <r>   -8.9896    1.0000 </r>
       <r>   -7.8275    1.0000 </r>
       <r>   -7.7265    1.0000 </r>
       <r>   -7.3549    1.0000 </r>
       <r>   -7.1310    1.0000 </r>
       <r>   -6.9813    1.0000 </r>
       <r>   -6.6584    1.0000 </r>
       <r>   -6.4395    1.0000 </r>
       <r>   -6.2078    1.0000 </r>
       <r>   -5.9369    1.0000 </r>
       <r>   -5.5893    1.0000 </r>
       <r>   -5.3992    1.0000 </r>
       <r>   -5.0786    1.0000 </r>
       <r>   -4.9583    1.0000 </r>
       <r>   -4.6657    1.0000 </r>
       <r>   -4.5661    1.0000 </r>
       <r>   -4.4274    1.0000 </r>
       <r>   -4.3317    1.0000 </r>
       <r>   -4.2232    1.0000 </r>
       <r>   -4.0280    1.0000 </r>
       <r>   -3.6410    1.0000 </r>
       <r>   -3.3600    1.0000 </r>
       <r>   -3.2876    1.0000 </r>
       <r>   -3.1316    1.0000 </r>
       <r>   -3.0189    1.0000 </r>
       <r>   -2.9277    1.0000 </r>
       <r>   -2.8768    1.0000 </r>
       <r>   -2.6783    1.0000 </r>
       <r>   -2.5276    1.0000 </r>
       <r>   -2.4278    1.0000 </r>
       <r>   -2.3018    1.0000 </r>
       <r>   -2.2025    1.0000 </r>
       <r>   -1.9760    1.0000 </r>
       <r>   -1.9076    1.0000 </r>
       <r>   -1.7753    1.0000 </r>
       <r>   -1.7664    1.0000 </r>
       <r>   -1.7228    1.0000 </r>
       <r>   -1.3778    1.0000 </r>
       <r>   -1.1712    1.0000 </r>
       <r>   -0.8757    1.0000 </r>
       <r>   -0.5613    1.0000 </r>
       <r>   -0.3321    0.9876 </r>
       <r>    0.7121    0.0000 </r>
       <r>    0.9862    0.0000 </r>
       <r>    1.2158    0.0000 </r>
       <r>    1.2806    0.0000 </r>
       <r>    1.8232    0.0000 </r>
       <r>    2.0262    0.0000 </r>
       <r>    2.1335    0.0000 </r>
       <r>    2.2793    0.0000 </r>
       <r>    2.3240    0.0000 </r>
       <r>    2.4758    0.0000 </r>
       <r>    2.6187    0.0000 </r>
       <r>    2.7896    0.0000 </r>
       <r>    2.9169    0.0000 </r>
      </set>
      <set comment="kpoint 13">
       <r>  -12.8929    1.0000 </r>
       <r>  -11.9993    1.0000 </r>
       <r>  -11.7766    1.0000 </r>
       <r>  -11.6193    1.0000 </r>
       <r>  -11.2696    1.0000 </r>
       <r>  -11.0665    1.0000 </r>
       <r>  -10.8200    1.0000 </r>
       <r>  -10.7419    1.0000 </r>
       <r>  -10.6203    1.0000 </r>
       <r>  -10.5894    1.0000 </r>
       <r>  -10.4861    1.0000 </r>
       <r>  -10.0196    1.0000 </r>
       <r>   -9.6057    1.0000 </r>
       <r>   -8.9796    1.0000 </r>
       <r>   -8.1310    1.0000 </r>
       <r>   -7.8369    1.0000 </r>
       <r>   -7.7967    1.0000 </r>
       <r>   -7.6319    1.0000 </r>
       <r>   -7.3773    1.0000 </r>
       <r>   -7.0145    1.0000 </r>
       <r>   -6.8904    1.0000 </r>
       <r>   -6.7128    1.0000 </r>
       <r>   -6.6762    1.0000 </r>
       <r>   -6.2432    1.0000 </r>
       <r>   -5.3623    1.0000 </r>
       <r>   -4.9686    1.0000 </r>
       <r>   -4.8053    1.0000 </r>
       <r>   -4.5957    1.0000 </r>
       <r>   -4.5264    1.0000 </r>
       <r>   -4.3749    1.0000 </r>
       <r>   -4.1384    1.0000 </r>
       <r>   -4.0533    1.0000 </r>
       <r>   -3.8794    1.0000 </r>
       <r>   -3.7625    1.0000 </r>
       <r>   -3.3719    1.0000 </r>
       <r>   -3.3405    1.0000 </r>
       <r>   -3.2956    1.0000 </r>
       <r>   -3.1962    1.0000 </r>
       <r>   -3.1435    1.0000 </r>
       <r>   -2.9714    1.0000 </r>
       <r>   -2.9342    1.0000 </r>
       <r>   -2.7016    1.0000 </r>
       <r>   -2.5690    1.0000 </r>
       <r>   -2.3870    1.0000 </r>
       <r>   -2.2828    1.0000 </r>
       <r>   -2.0999    1.0000 </r>
       <r>   -2.0797    1.0000 </r>
       <r>   -1.9984    1.0000 </r>
       <r>   -1.8753    1.0000 </r>
       <r>   -1.7739    1.0000 </r>
       <r>   -1.6266    1.0000 </r>
       <r>   -1.4829    1.0000 </r>
       <r>   -1.0666    1.0000 </r>
       <r>   -0.6239    1.0000 </r>
       <r>   -0.4249    0.9998 </r>
       <r>    0.4860    0.0000 </r>
       <r>    0.7104    0.0000 </r>
       <r>    1.1811    0.0000 </r>
       <r>    1.3069    0.0000 </r>
       <r>    1.6047    0.0000 </r>
       <r>    1.7911    0.0000 </r>
       <r>    1.8778    0.0000 </r>
       <r>    1.9997    0.0000 </r>
       <r>    2.1911    0.0000 </r>
       <r>    2.2880    0.0000 </r>
       <r>    2.5405    0.0000 </r>
       <r>    2.6062    0.0000 </r>
       <r>    2.6704    0.0000 </r>
      </set>
      <set comment="kpoint 14">
       <r>  -12.4215    1.0000 </r>
       <r>  -11.4499    1.0000 </r>
       <r>  -11.2879    1.0000 </r>
       <r>  -11.2813    1.0000 </r>
       <r>  -11.0874    1.0000 </r>
       <r>  -10.9785    1.0000 </r>
       <r>  -10.8831    1.0000 </r>
       <r>  -10.8124    1.0000 </r>
       <r>  -10.7179    1.0000 </r>
       <r>  -10.5991    1.0000 </r>
       <r>  -10.4812    1.0000 </r>
       <r>  -10.0402    1.0000 </r>
       <r>   -9.8040    1.0000 </r>
       <r>   -8.5730    1.0000 </r>
       <r>   -8.4182    1.0000 </r>
       <r>   -8.3474    1.0000 </r>
       <r>   -7.9883    1.0000 </r>
       <r>   -7.8376    1.0000 </r>
       <r>   -7.5355    1.0000 </r>
       <r>   -7.3355    1.0000 </r>
       <r>   -7.2197    1.0000 </r>
       <r>   -7.1550    1.0000 </r>
       <r>   -7.0376    1.0000 </r>
       <r>   -6.5904    1.0000 </r>
       <r>   -5.0380    1.0000 </r>
       <r>   -4.6676    1.0000 </r>
       <r>   -4.5982    1.0000 </r>
       <r>   -4.4889    1.0000 </r>
       <r>   -4.3680    1.0000 </r>
       <r>   -4.2314    1.0000 </r>
       <r>   -4.1638    1.0000 </r>
       <r>   -3.9805    1.0000 </r>
       <r>   -3.9345    1.0000 </r>
       <r>   -3.6932    1.0000 </r>
       <r>   -3.6716    1.0000 </r>
       <r>   -3.5191    1.0000 </r>
       <r>   -3.4938    1.0000 </r>
       <r>   -3.3918    1.0000 </r>
       <r>   -3.2769    1.0000 </r>
       <r>   -3.0939    1.0000 </r>
       <r>   -3.0104    1.0000 </r>
       <r>   -2.9057    1.0000 </r>
       <r>   -2.6529    1.0000 </r>
       <r>   -2.6147    1.0000 </r>
       <r>   -2.2569    1.0000 </r>
       <r>   -2.2249    1.0000 </r>
       <r>   -2.1391    1.0000 </r>
       <r>   -2.0279    1.0000 </r>
       <r>   -1.9336    1.0000 </r>
       <r>   -1.7323    1.0000 </r>
       <r>   -1.6730    1.0000 </r>
       <r>   -1.5624    1.0000 </r>
       <r>   -0.9719    1.0000 </r>
       <r>   -0.7440    1.0000 </r>
       <r>   -0.4215    0.9998 </r>
       <r>    0.3267    0.0000 </r>
       <r>    0.7054    0.0000 </r>
       <r>    1.3413    0.0000 </r>
       <r>    1.4123    0.0000 </r>
       <r>    1.5234    0.0000 </r>
       <r>    1.5823    0.0000 </r>
       <r>    1.7308    0.0000 </r>
       <r>    1.8226    0.0000 </r>
       <r>    2.0801    0.0000 </r>
       <r>    2.2388    0.0000 </r>
       <r>    2.4128    0.0000 </r>
       <r>    2.4721    0.0000 </r>
       <r>    2.6043    0.0000 </r>
      </set>
      <set comment="kpoint 15">
       <r>  -12.4276    1.0000 </r>
       <r>  -11.5539    1.0000 </r>
       <r>  -11.2553    1.0000 </r>
       <r>  -11.0886    1.0000 </r>
       <r>  -11.0700    1.0000 </r>
       <r>  -10.9522    1.0000 </r>
       <r>  -10.8262    1.0000 </r>
       <r>  -10.8221    1.0000 </r>
       <r>  -10.7757    1.0000 </r>
       <r>  -10.7218    1.0000 </r>
       <r>  -10.5238    1.0000 </r>
       <r>  -10.0667    1.0000 </r>
       <r>   -9.7888    1.0000 </r>
       <r>   -8.7750    1.0000 </r>
       <r>   -8.4528    1.0000 </r>
       <r>   -8.0047    1.0000 </r>
       <r>   -7.9615    1.0000 </r>
       <r>   -7.7320    1.0000 </r>
       <r>   -7.6228    1.0000 </r>
       <r>   -7.3805    1.0000 </r>
       <r>   -7.2975    1.0000 </r>
       <r>   -7.2357    1.0000 </r>
       <r>   -6.9683    1.0000 </r>
       <r>   -6.5165    1.0000 </r>
       <r>   -4.7602    1.0000 </r>
       <r>   -4.7447    1.0000 </r>
       <r>   -4.5994    1.0000 </r>
       <r>   -4.5729    1.0000 </r>
       <r>   -4.3912    1.0000 </r>
       <r>   -4.2268    1.0000 </r>
       <r>   -4.0795    1.0000 </r>
       <r>   -4.0251    1.0000 </r>
       <r>   -3.9571    1.0000 </r>
       <r>   -3.8998    1.0000 </r>
       <r>   -3.8346    1.0000 </r>
       <r>   -3.6791    1.0000 </r>
       <r>   -3.5751    1.0000 </r>
       <r>   -3.4174    1.0000 </r>
       <r>   -3.3535    1.0000 </r>
       <r>   -3.0060    1.0000 </r>
       <r>   -2.8372    1.0000 </r>
       <r>   -2.8093    1.0000 </r>
       <r>   -2.6963    1.0000 </r>
       <r>   -2.4089    1.0000 </r>
       <r>   -2.3377    1.0000 </r>
       <r>   -2.2710    1.0000 </r>
       <r>   -2.1789    1.0000 </r>
       <r>   -2.0980    1.0000 </r>
       <r>   -1.9303    1.0000 </r>
       <r>   -1.7013    1.0000 </r>
       <r>   -1.5722    1.0000 </r>
       <r>   -1.5111    1.0000 </r>
       <r>   -0.9140    1.0000 </r>
       <r>   -0.7210    1.0000 </r>
       <r>   -0.3812    0.9983 </r>
       <r>    0.3581    0.0000 </r>
       <r>    0.8275    0.0000 </r>
       <r>    1.3191    0.0000 </r>
       <r>    1.4314    0.0000 </r>
       <r>    1.6276    0.0000 </r>
       <r>    1.7286    0.0000 </r>
       <r>    1.7897    0.0000 </r>
       <r>    1.9533    0.0000 </r>
       <r>    2.1923    0.0000 </r>
       <r>    2.2882    0.0000 </r>
       <r>    2.3611    0.0000 </r>
       <r>    2.4881    0.0000 </r>
       <r>    2.5741    0.0000 </r>
      </set>
      <set comment="kpoint 16">
       <r>  -12.9027    1.0000 </r>
       <r>  -12.1204    1.0000 </r>
       <r>  -11.5221    1.0000 </r>
       <r>  -11.5027    1.0000 </r>
       <r>  -11.2686    1.0000 </r>
       <r>  -11.0875    1.0000 </r>
       <r>  -10.9741    1.0000 </r>
       <r>  -10.9339    1.0000 </r>
       <r>  -10.6475    1.0000 </r>
       <r>  -10.5275    1.0000 </r>
       <r>  -10.4688    1.0000 </r>
       <r>  -10.0275    1.0000 </r>
       <r>   -9.6263    1.0000 </r>
       <r>   -8.7606    1.0000 </r>
       <r>   -8.5101    1.0000 </r>
       <r>   -7.8441    1.0000 </r>
       <r>   -7.5116    1.0000 </r>
       <r>   -7.4537    1.0000 </r>
       <r>   -7.3479    1.0000 </r>
       <r>   -7.1030    1.0000 </r>
       <r>   -6.8448    1.0000 </r>
       <r>   -6.8256    1.0000 </r>
       <r>   -6.6825    1.0000 </r>
       <r>   -6.1659    1.0000 </r>
       <r>   -5.0757    1.0000 </r>
       <r>   -4.9692    1.0000 </r>
       <r>   -4.8695    1.0000 </r>
       <r>   -4.7586    1.0000 </r>
       <r>   -4.4348    1.0000 </r>
       <r>   -4.3432    1.0000 </r>
       <r>   -4.2479    1.0000 </r>
       <r>   -4.1191    1.0000 </r>
       <r>   -4.0664    1.0000 </r>
       <r>   -3.8033    1.0000 </r>
       <r>   -3.7398    1.0000 </r>
       <r>   -3.4384    1.0000 </r>
       <r>   -3.3873    1.0000 </r>
       <r>   -3.3497    1.0000 </r>
       <r>   -3.1856    1.0000 </r>
       <r>   -2.8604    1.0000 </r>
       <r>   -2.7656    1.0000 </r>
       <r>   -2.6133    1.0000 </r>
       <r>   -2.5359    1.0000 </r>
       <r>   -2.4315    1.0000 </r>
       <r>   -2.2516    1.0000 </r>
       <r>   -2.1437    1.0000 </r>
       <r>   -2.0892    1.0000 </r>
       <r>   -1.9633    1.0000 </r>
       <r>   -1.8876    1.0000 </r>
       <r>   -1.7926    1.0000 </r>
       <r>   -1.4278    1.0000 </r>
       <r>   -1.3330    1.0000 </r>
       <r>   -0.9322    1.0000 </r>
       <r>   -0.6003    1.0000 </r>
       <r>   -0.2896    0.9498 </r>
       <r>    0.5129    0.0000 </r>
       <r>    1.0435    0.0000 </r>
       <r>    1.3466    0.0000 </r>
       <r>    1.5861    0.0000 </r>
       <r>    1.7944    0.0000 </r>
       <r>    1.8829    0.0000 </r>
       <r>    2.0361    0.0000 </r>
       <r>    2.1170    0.0000 </r>
       <r>    2.2517    0.0000 </r>
       <r>    2.3380    0.0000 </r>
       <r>    2.4151    0.0000 </r>
       <r>    2.5543    0.0000 </r>
       <r>    2.6333    0.0000 </r>
      </set>
      <set comment="kpoint 17">
       <r>  -13.3912    1.0000 </r>
       <r>  -12.6146    1.0000 </r>
       <r>  -11.9667    1.0000 </r>
       <r>  -11.9627    1.0000 </r>
       <r>  -11.6695    1.0000 </r>
       <r>  -11.3915    1.0000 </r>
       <r>  -11.2936    1.0000 </r>
       <r>  -11.2456    1.0000 </r>
       <r>  -10.7912    1.0000 </r>
       <r>  -10.5708    1.0000 </r>
       <r>  -10.4393    1.0000 </r>
       <r>   -9.8372    1.0000 </r>
       <r>   -9.2818    1.0000 </r>
       <r>   -8.5738    1.0000 </r>
       <r>   -8.2063    1.0000 </r>
       <r>   -7.6549    1.0000 </r>
       <r>   -7.3794    1.0000 </r>
       <r>   -7.0208    1.0000 </r>
       <r>   -6.8888    1.0000 </r>
       <r>   -6.7043    1.0000 </r>
       <r>   -6.4522    1.0000 </r>
       <r>   -6.1729    1.0000 </r>
       <r>   -5.9914    1.0000 </r>
       <r>   -5.5348    1.0000 </r>
       <r>   -5.1738    1.0000 </r>
       <r>   -5.1089    1.0000 </r>
       <r>   -4.9111    1.0000 </r>
       <r>   -4.8817    1.0000 </r>
       <r>   -4.6664    1.0000 </r>
       <r>   -4.4367    1.0000 </r>
       <r>   -4.3266    1.0000 </r>
       <r>   -4.2576    1.0000 </r>
       <r>   -4.1773    1.0000 </r>
       <r>   -3.5804    1.0000 </r>
       <r>   -3.4928    1.0000 </r>
       <r>   -3.4254    1.0000 </r>
       <r>   -3.1152    1.0000 </r>
       <r>   -3.0686    1.0000 </r>
       <r>   -3.0366    1.0000 </r>
       <r>   -2.8583    1.0000 </r>
       <r>   -2.7202    1.0000 </r>
       <r>   -2.6208    1.0000 </r>
       <r>   -2.4331    1.0000 </r>
       <r>   -2.2349    1.0000 </r>
       <r>   -2.0435    1.0000 </r>
       <r>   -1.9468    1.0000 </r>
       <r>   -1.8836    1.0000 </r>
       <r>   -1.8540    1.0000 </r>
       <r>   -1.7175    1.0000 </r>
       <r>   -1.6258    1.0000 </r>
       <r>   -1.3247    1.0000 </r>
       <r>   -1.0638    1.0000 </r>
       <r>   -0.7874    1.0000 </r>
       <r>   -0.5412    1.0000 </r>
       <r>   -0.1507    0.3738 </r>
       <r>    0.6837    0.0000 </r>
       <r>    1.3503    0.0000 </r>
       <r>    1.5865    0.0000 </r>
       <r>    1.7898    0.0000 </r>
       <r>    1.9112    0.0000 </r>
       <r>    1.9573    0.0000 </r>
       <r>    2.0718    0.0000 </r>
       <r>    2.2348    0.0000 </r>
       <r>    2.3566    0.0000 </r>
       <r>    2.4674    0.0000 </r>
       <r>    2.6096    0.0000 </r>
       <r>    2.7003    0.0000 </r>
       <r>    2.7656    0.0000 </r>
      </set>
      <set comment="kpoint 18">
       <r>  -13.7950    1.0000 </r>
       <r>  -13.0099    1.0000 </r>
       <r>  -12.3700    1.0000 </r>
       <r>  -12.3454    1.0000 </r>
       <r>  -12.0227    1.0000 </r>
       <r>  -11.7341    1.0000 </r>
       <r>  -11.5915    1.0000 </r>
       <r>  -11.5418    1.0000 </r>
       <r>  -11.0476    1.0000 </r>
       <r>  -10.7886    1.0000 </r>
       <r>  -10.6177    1.0000 </r>
       <r>   -9.8936    1.0000 </r>
       <r>   -8.6709    1.0000 </r>
       <r>   -8.4178    1.0000 </r>
       <r>   -7.8235    1.0000 </r>
       <r>   -7.7991    1.0000 </r>
       <r>   -7.0386    1.0000 </r>
       <r>   -6.7198    1.0000 </r>
       <r>   -6.6556    1.0000 </r>
       <r>   -6.5485    1.0000 </r>
       <r>   -5.9001    1.0000 </r>
       <r>   -5.7564    1.0000 </r>
       <r>   -5.3530    1.0000 </r>
       <r>   -5.2843    1.0000 </r>
       <r>   -4.8565    1.0000 </r>
       <r>   -4.7337    1.0000 </r>
       <r>   -4.6268    1.0000 </r>
       <r>   -4.5902    1.0000 </r>
       <r>   -4.5289    1.0000 </r>
       <r>   -4.2577    1.0000 </r>
       <r>   -4.2036    1.0000 </r>
       <r>   -4.0453    1.0000 </r>
       <r>   -3.7975    1.0000 </r>
       <r>   -3.5909    1.0000 </r>
       <r>   -3.4662    1.0000 </r>
       <r>   -3.4579    1.0000 </r>
       <r>   -3.2198    1.0000 </r>
       <r>   -3.0134    1.0000 </r>
       <r>   -2.8319    1.0000 </r>
       <r>   -2.6767    1.0000 </r>
       <r>   -2.6157    1.0000 </r>
       <r>   -2.4764    1.0000 </r>
       <r>   -2.3933    1.0000 </r>
       <r>   -1.9571    1.0000 </r>
       <r>   -1.9078    1.0000 </r>
       <r>   -1.8630    1.0000 </r>
       <r>   -1.7933    1.0000 </r>
       <r>   -1.7027    1.0000 </r>
       <r>   -1.4810    1.0000 </r>
       <r>   -1.1781    1.0000 </r>
       <r>   -1.0843    1.0000 </r>
       <r>   -0.8751    1.0000 </r>
       <r>   -0.5101    1.0000 </r>
       <r>   -0.3275    0.9853 </r>
       <r>    0.0402    0.0013 </r>
       <r>    0.7927    0.0000 </r>
       <r>    1.4837    0.0000 </r>
       <r>    1.8001    0.0000 </r>
       <r>    1.8648    0.0000 </r>
       <r>    1.9787    0.0000 </r>
       <r>    2.1379    0.0000 </r>
       <r>    2.2449    0.0000 </r>
       <r>    2.3673    0.0000 </r>
       <r>    2.5499    0.0000 </r>
       <r>    2.6993    0.0000 </r>
       <r>    2.8779    0.0000 </r>
       <r>    2.8939    0.0000 </r>
       <r>    2.9666    0.0000 </r>
      </set>
      <set comment="kpoint 19">
       <r>  -14.0910    1.0000 </r>
       <r>  -13.2937    1.0000 </r>
       <r>  -12.6851    1.0000 </r>
       <r>  -12.6349    1.0000 </r>
       <r>  -12.2899    1.0000 </r>
       <r>  -11.9980    1.0000 </r>
       <r>  -11.8225    1.0000 </r>
       <r>  -11.7603    1.0000 </r>
       <r>  -11.2801    1.0000 </r>
       <r>  -11.0014    1.0000 </r>
       <r>  -10.8202    1.0000 </r>
       <r>   -9.9967    1.0000 </r>
       <r>   -8.4059    1.0000 </r>
[...]
       <r>    2.6592    0.0000 </r>
      </set>
      <set comment="kpoint 54">
       <r>  -12.4245    1.0000 </r>
       <r>  -11.5089    1.0000 </r>
       <r>  -11.2759    1.0000 </r>
       <r>  -11.1870    1.0000 </r>
       <r>  -11.0715    1.0000 </r>
       <r>  -10.9690    1.0000 </r>
       <r>  -10.8682    1.0000 </r>
       <r>  -10.8213    1.0000 </r>
       <r>  -10.7406    1.0000 </r>
       <r>  -10.6400    1.0000 </r>
       <r>  -10.5065    1.0000 </r>
       <r>  -10.0367    1.0000 </r>
       <r>   -9.8045    1.0000 </r>
       <r>   -8.6834    1.0000 </r>
       <r>   -8.4595    1.0000 </r>
       <r>   -8.1384    1.0000 </r>
       <r>   -8.0011    1.0000 </r>
       <r>   -7.8165    1.0000 </r>
       <r>   -7.5793    1.0000 </r>
       <r>   -7.3340    1.0000 </r>
       <r>   -7.3029    1.0000 </r>
       <r>   -7.1876    1.0000 </r>
       <r>   -6.9301    1.0000 </r>
       <r>   -6.5323    1.0000 </r>
       <r>   -4.9650    1.0000 </r>
       <r>   -4.6668    1.0000 </r>
       <r>   -4.6115    1.0000 </r>
       <r>   -4.4976    1.0000 </r>
       <r>   -4.3782    1.0000 </r>
       <r>   -4.2956    1.0000 </r>
       <r>   -4.1123    1.0000 </r>
       <r>   -4.0001    1.0000 </r>
       <r>   -3.9197    1.0000 </r>
       <r>   -3.8579    1.0000 </r>
       <r>   -3.7846    1.0000 </r>
       <r>   -3.5924    1.0000 </r>
       <r>   -3.5237    1.0000 </r>
       <r>   -3.3409    1.0000 </r>
       <r>   -3.2744    1.0000 </r>
       <r>   -3.1318    1.0000 </r>
       <r>   -3.0298    1.0000 </r>
       <r>   -2.8002    1.0000 </r>
       <r>   -2.7061    1.0000 </r>
       <r>   -2.3960    1.0000 </r>
       <r>   -2.2619    1.0000 </r>
       <r>   -2.2343    1.0000 </r>
       <r>   -2.1538    1.0000 </r>
       <r>   -2.0308    1.0000 </r>
       <r>   -1.9477    1.0000 </r>
       <r>   -1.7316    1.0000 </r>
       <r>   -1.6696    1.0000 </r>
       <r>   -1.5400    1.0000 </r>
       <r>   -0.9503    1.0000 </r>
       <r>   -0.6526    1.0000 </r>
       <r>   -0.4179    0.9997 </r>
       <r>    0.3639    0.0000 </r>
       <r>    0.7683    0.0000 </r>
       <r>    1.3080    0.0000 </r>
       <r>    1.3963    0.0000 </r>
       <r>    1.5758    0.0000 </r>
       <r>    1.6648    0.0000 </r>
       <r>    1.8475    0.0000 </r>
       <r>    1.9522    0.0000 </r>
       <r>    2.0484    0.0000 </r>
       <r>    2.2542    0.0000 </r>
       <r>    2.2952    0.0000 </r>
       <r>    2.4182    0.0000 </r>
       <r>    2.5361    0.0000 </r>
      </set>
     </set>
    </set>
   </array>
  </eigenvalues>
  <separator name="orbital magnetization" >
   <v name="MAGDIPOLOUT">      0.00000000      0.00000000      0.00000000</v>
  </separator>
  <dos>
   <i name="efermi">     -0.17348077 </i>
   <total>
    <array>
     <dimension dim="1">gridpoints</dimension>
     <dimension dim="2">spin</dimension>
     <field>energy</field>
     <field>total</field>
     <field>integrated</field>
     <set>
      <set comment="spin 1">
       <r>   -15.3352     0.0000     0.0000 </r>
       <r>   -15.2702     0.0000     0.0000 </r>
       <r>   -15.2051     0.0000     0.0000 </r>
       <r>   -15.1401     0.0000     0.0000 </r>
       <r>   -15.0751     0.0000     0.0000 </r>
       <r>   -15.0101     0.0000     0.0000 </r>
       <r>   -14.9450     0.0000     0.0000 </r>
       <r>   -14.8800     0.0000     0.0000 </r>
       <r>   -14.8150     0.0000     0.0000 </r>
       <r>   -14.7499     0.0000     0.0000 </r>
       <r>   -14.6849     0.0000     0.0000 </r>
       <r>   -14.6199     0.0001     0.0000 </r>
       <r>   -14.5549     0.0018     0.0001 </r>
       <r>   -14.4898     0.0304     0.0021 </r>
       <r>   -14.4248     0.2449     0.0180 </r>
       <r>   -14.3598     0.9882     0.0823 </r>
       <r>   -14.2947     2.0660     0.2166 </r>
       <r>   -14.2297     2.3165     0.3673 </r>
       <r>   -14.1647     1.7570     0.4815 </r>
       <r>   -14.0997     1.7157     0.5931 </r>
       <r>   -14.0346     1.6463     0.7002 </r>
       <r>   -13.9696     0.8682     0.7566 </r>
       <r>   -13.9046     0.4306     0.7846 </r>
       <r>   -13.8395     0.9336     0.8453 </r>
       <r>   -13.7745     1.6376     0.9518 </r>
       <r>   -13.7095     1.3502     1.0396 </r>
       <r>   -13.6445     0.6095     1.0793 </r>
       <r>   -13.5794     0.5990     1.1182 </r>
       <r>   -13.5144     1.4225     1.2107 </r>
       <r>   -13.4494     2.6279     1.3816 </r>
       <r>   -13.3843     3.5450     1.6121 </r>
       <r>   -13.3193     3.3978     1.8331 </r>
       <r>   -13.2543     2.4713     1.9938 </r>
       <r>   -13.1892     1.7863     2.1100 </r>
       <r>   -13.1242     1.4996     2.2075 </r>
       <r>   -13.0592     1.7023     2.3182 </r>
       <r>   -12.9942     2.9312     2.5088 </r>
       <r>   -12.9291     5.0231     2.8354 </r>
       <r>   -12.8641     6.3270     3.2469 </r>
       <r>   -12.7991     5.4237     3.5996 </r>
       <r>   -12.7340     3.8653     3.8509 </r>
       <r>   -12.6690     3.6342     4.0872 </r>
       <r>   -12.6040     4.3605     4.3708 </r>
       <r>   -12.5390     4.8813     4.6882 </r>
       <r>   -12.4739     5.6132     5.0533 </r>
       <r>   -12.4089     6.3840     5.4684 </r>
       <r>   -12.3439     5.9209     5.8534 </r>
       <r>   -12.2788     4.9911     6.1780 </r>
       <r>   -12.2138     4.7393     6.4862 </r>
       <r>   -12.1488     5.1688     6.8223 </r>
       <r>   -12.0838     6.4405     7.2411 </r>
       <r>   -12.0187     8.6388     7.8029 </r>
       <r>   -11.9537     9.1323     8.3968 </r>
       <r>   -11.8887     7.0351     8.8543 </r>
       <r>   -11.8236     5.4755     9.2103 </r>
       <r>   -11.7586     5.7336     9.5832 </r>
       <r>   -11.6936     6.7337    10.0211 </r>
       <r>   -11.6286     7.3757    10.5007 </r>
       <r>   -11.5635     8.0098    11.0216 </r>
       <r>   -11.4985     8.5525    11.5777 </r>
       <r>   -11.4335     8.1094    12.1051 </r>
       <r>   -11.3684     7.3561    12.5834 </r>
       <r>   -11.3034     8.2476    13.1198 </r>
       <r>   -11.2384     9.8188    13.7583 </r>
       <r>   -11.1734     9.9040    14.4023 </r>
       <r>   -11.1083    10.2722    15.0703 </r>
       <r>   -11.0433    11.6078    15.8251 </r>
       <r>   -10.9783    11.7644    16.5902 </r>
       <r>   -10.9132    10.6851    17.2850 </r>
       <r>   -10.8482    11.1000    18.0068 </r>
       <r>   -10.7832    11.8367    18.7766 </r>
       <r>   -10.7181     9.8808    19.4191 </r>
       <r>   -10.6531     8.4370    19.9677 </r>
       <r>   -10.5881     8.8708    20.5446 </r>
       <r>   -10.5231     8.3893    21.0902 </r>
       <r>   -10.4580     6.8721    21.5370 </r>
       <r>   -10.3930     4.5654    21.8339 </r>
       <r>   -10.3280     1.9960    21.9637 </r>
       <r>   -10.2629     0.5545    21.9998 </r>
       <r>   -10.1979     0.5378    22.0347 </r>
       <r>   -10.1329     2.0527    22.1682 </r>
       <r>   -10.0679     4.9294    22.4888 </r>
       <r>   -10.0028     6.7094    22.9251 </r>
       <r>    -9.9378     5.8617    23.3063 </r>
       <r>    -9.8728     4.9605    23.6288 </r>
       <r>    -9.8077     4.9465    23.9505 </r>
       <r>    -9.7427     3.8370    24.2000 </r>
       <r>    -9.6777     2.2573    24.3468 </r>
       <r>    -9.6127     1.8236    24.4654 </r>
       <r>    -9.5476     1.4839    24.5619 </r>
       <r>    -9.4826     0.6773    24.6059 </r>
       <r>    -9.4176     0.2684    24.6234 </r>
       <r>    -9.3525     0.6125    24.6632 </r>
       <r>    -9.2875     1.3782    24.7528 </r>
       <r>    -9.2225     1.5399    24.8530 </r>
       <r>    -9.1575     0.8517    24.9084 </r>
       <r>    -9.0924     0.3802    24.9331 </r>
       <r>    -9.0274     0.7216    24.9800 </r>
       <r>    -8.9624     1.5139    25.0785 </r>
       <r>    -8.8973     2.0065    25.2089 </r>
       <r>    -8.8323     2.5389    25.3740 </r>
       <r>    -8.7673     3.8161    25.6222 </r>
       <r>    -8.7023     5.0305    25.9493 </r>
       <r>    -8.6372     5.2706    26.2921 </r>
       <r>    -8.5722     5.0311    26.6192 </r>
       <r>    -8.5072     5.5279    26.9787 </r>
       <r>    -8.4421     6.7530    27.4179 </r>
       <r>    -8.3771     6.9540    27.8701 </r>
       <r>    -8.3121     5.1657    28.2060 </r>
       <r>    -8.2470     3.1204    28.4089 </r>
       <r>    -8.1820     2.7644    28.5887 </r>
       <r>    -8.1170     3.9266    28.8440 </r>
       <r>    -8.0520     4.9728    29.1674 </r>
       <r>    -7.9869     5.0834    29.4980 </r>
       <r>    -7.9219     5.3982    29.8490 </r>
       <r>    -7.8569     7.4441    30.3331 </r>
       <r>    -7.7918     9.5184    30.9520 </r>
       <r>    -7.7268     8.4262    31.5000 </r>
       <r>    -7.6618     6.0546    31.8937 </r>
       <r>    -7.5968     5.1065    32.2258 </r>
       <r>    -7.5317     4.9181    32.5456 </r>
       <r>    -7.4667     5.4234    32.8983 </r>
       <r>    -7.4017     7.1337    33.3622 </r>
       <r>    -7.3366     8.5517    33.9183 </r>
       <r>    -7.2716     7.8811    34.4308 </r>
       <r>    -7.2066     5.9154    34.8155 </r>
       <r>    -7.1416     4.6726    35.1193 </r>
       <r>    -7.0765     5.0207    35.4458 </r>
       <r>    -7.0115     6.5740    35.8733 </r>
       <r>    -6.9465     7.7925    36.3801 </r>
       <r>    -6.8814     8.1646    36.9110 </r>
       <r>    -6.8164     9.0690    37.5007 </r>
       <r>    -6.7514    11.0978    38.2224 </r>
       <r>    -6.6864    12.9854    39.0669 </r>
       <r>    -6.6213    12.3273    39.8685 </r>
       <r>    -6.5563    10.2757    40.5367 </r>
       <r>    -6.4913     9.1580    41.1322 </r>
       <r>    -6.4262     7.3196    41.6082 </r>
       <r>    -6.3612     4.8577    41.9241 </r>
       <r>    -6.2962     3.9074    42.1782 </r>
       <r>    -6.2312     4.5383    42.4733 </r>
       <r>    -6.1661     4.7775    42.7840 </r>
       <r>    -6.1011     3.3693    43.0031 </r>
       <r>    -6.0361     2.1616    43.1437 </r>
       <r>    -5.9710     2.7530    43.3227 </r>
       <r>    -5.9060     3.6596    43.5607 </r>
       <r>    -5.8410     3.9687    43.8188 </r>
       <r>    -5.7759     4.7193    44.1257 </r>
       <r>    -5.7109     5.9368    44.5117 </r>
       <r>    -5.6459     6.4972    44.9342 </r>
       <r>    -5.5809     5.9858    45.3235 </r>
       <r>    -5.5158     4.3283    45.6050 </r>
       <r>    -5.4508     2.8902    45.7929 </r>
       <r>    -5.3858     3.2941    46.0071 </r>
       <r>    -5.3207     4.0576    46.2710 </r>
       <r>    -5.2557     4.0076    46.5316 </r>
       <r>    -5.1907     4.1014    46.7983 </r>
       <r>    -5.1257     4.8120    47.1112 </r>
       <r>    -5.0606     6.0949    47.5076 </r>
       <r>    -4.9956     7.1492    47.9725 </r>
       <r>    -4.9306     8.1740    48.5040 </r>
       <r>    -4.8655     9.2807    49.1075 </r>
       <r>    -4.8005     9.9929    49.7574 </r>
       <r>    -4.7355    11.1024    50.4793 </r>
       <r>    -4.6705    12.7527    51.3086 </r>
       <r>    -4.6054    13.8216    52.2074 </r>
       <r>    -4.5404    13.1987    53.0657 </r>
       <r>    -4.4754    11.3492    53.8038 </r>
       <r>    -4.4103    10.5271    54.4883 </r>
       <r>    -4.3453    11.5466    55.2392 </r>
       <r>    -4.2803    13.1458    56.0940 </r>
       <r>    -4.2153    14.1130    57.0118 </r>
       <r>    -4.1502    14.2383    57.9377 </r>
       <r>    -4.0852    14.8588    58.9040 </r>
       <r>    -4.0202    15.0512    59.8827 </r>
       <r>    -3.9551    12.9505    60.7249 </r>
       <r>    -3.8901    10.2748    61.3930 </r>
       <r>    -3.8251     9.9101    62.0375 </r>
       <r>    -3.7601    11.8232    62.8063 </r>
       <r>    -3.6950    13.2975    63.6710 </r>
       <r>    -3.6300    13.1411    64.5256 </r>
       <r>    -3.5650    12.8792    65.3631 </r>
       <r>    -3.4999    13.7391    66.2566 </r>
       <r>    -3.4349    14.9960    67.2317 </r>
       <r>    -3.3699    15.2321    68.2223 </r>
       <r>    -3.3048    14.2997    69.1521 </r>
       <r>    -3.2398    13.7553    70.0466 </r>
       <r>    -3.1748    14.8972    71.0154 </r>
       <r>    -3.1098    16.8605    72.1118 </r>
       <r>    -3.0447    17.7936    73.2689 </r>
       <r>    -2.9797    17.1440    74.3838 </r>
       <r>    -2.9147    15.6698    75.4028 </r>
       <r>    -2.8496    14.3473    76.3357 </r>
       <r>    -2.7846    13.7755    77.2316 </r>
       <r>    -2.7196    14.9002    78.2005 </r>
       <r>    -2.6546    16.3822    79.2658 </r>
       <r>    -2.5895    16.0638    80.3104 </r>
       <r>    -2.5245    15.0108    81.2866 </r>
       <r>    -2.4595    14.9560    82.2591 </r>
       <r>    -2.3944    15.3001    83.2541 </r>
       <r>    -2.3294    14.7816    84.2153 </r>
       <r>    -2.2644    15.2849    85.2093 </r>
       <r>    -2.1994    16.3902    86.2751 </r>
       <r>    -2.1343    16.1459    87.3251 </r>
       <r>    -2.0693    16.1881    88.3778 </r>
       <r>    -2.0043    17.7547    89.5323 </r>
       <r>    -1.9392    19.1207    90.7757 </r>
       <r>    -1.8742    19.2534    92.0277 </r>
       <r>    -1.8092    18.6793    93.2424 </r>
       <r>    -1.7442    17.7820    94.3988 </r>
       <r>    -1.6791    16.0362    95.4416 </r>
       <r>    -1.6141    13.5907    96.3254 </r>
       <r>    -1.5491    11.7671    97.0906 </r>
       <r>    -1.4840    11.0331    97.8081 </r>
       <r>    -1.4190    10.5208    98.4922 </r>
       <r>    -1.3540     9.7458    99.1260 </r>
       <r>    -1.2890     8.3586    99.6695 </r>
       <r>    -1.2239     7.3364   100.1466 </r>
       <r>    -1.1589     7.8937   100.6599 </r>
       <r>    -1.0939     8.9851   101.2442 </r>
       <r>    -1.0288     9.0328   101.8316 </r>
       <r>    -0.9638     9.0503   102.4201 </r>
       <r>    -0.8988    10.0410   103.0731 </r>
       <r>    -0.8337     9.3529   103.6813 </r>
       <r>    -0.7687     6.4041   104.0978 </r>
       <r>    -0.7037     4.1964   104.3706 </r>
       <r>    -0.6387     4.3919   104.6562 </r>
       <r>    -0.5736     6.0746   105.0513 </r>
       <r>    -0.5086     7.1195   105.5142 </r>
       <r>    -0.4436     7.2058   105.9828 </r>
       <r>    -0.3785     7.8394   106.4926 </r>
       <r>    -0.3135     8.7624   107.0624 </r>
       <r>    -0.2485     8.1097   107.5898 </r>
       <r>    -0.1835     5.6403   107.9566 </r>
       <r>    -0.1184     4.0104   108.2174 </r>
       <r>    -0.0534     4.0250   108.4791 </r>
       <r>     0.0116     4.1864   108.7514 </r>
       <r>     0.0767     3.6891   108.9913 </r>
       <r>     0.1417     2.4634   109.1514 </r>
       <r>     0.2067     1.6334   109.2577 </r>
       <r>     0.2717     1.7999   109.3747 </r>
       <r>     0.3368     2.3122   109.5251 </r>
       <r>     0.4018     2.6914   109.7001 </r>
       <r>     0.4668     2.9260   109.8904 </r>
       <r>     0.5319     2.8146   110.0734 </r>
       <r>     0.5969     2.6942   110.2486 </r>
       <r>     0.6619     3.4582   110.4735 </r>
       <r>     0.7269     4.4692   110.7641 </r>
       <r>     0.7920     5.0853   111.0948 </r>
       <r>     0.8570     5.3120   111.4402 </r>
       <r>     0.9220     4.9239   111.7604 </r>
       <r>     0.9871     4.4483   112.0497 </r>
       <r>     1.0521     4.2948   112.3290 </r>
       <r>     1.1171     4.2888   112.6079 </r>
       <r>     1.1821     5.1321   112.9416 </r>
       <r>     1.2472     7.3554   113.4199 </r>
       <r>     1.3122     9.8374   114.0597 </r>
       <r>     1.3772    10.5240   114.7440 </r>
       <r>     1.4423     9.2819   115.3476 </r>
       <r>     1.5073     8.5305   115.9023 </r>
       <r>     1.5723     9.5322   116.5222 </r>
       <r>     1.6374    10.3826   117.1974 </r>
       <r>     1.7024    10.7998   117.8997 </r>
       <r>     1.7674    12.8231   118.7336 </r>
       <r>     1.8324    14.8601   119.6999 </r>
       <r>     1.8975    14.6188   120.6505 </r>
       <r>     1.9625    13.3701   121.5200 </r>
       <r>     2.0275    12.9394   122.3614 </r>
       <r>     2.0926    13.9248   123.2669 </r>
       <r>     2.1576    15.5479   124.2780 </r>
       <r>     2.2226    17.1143   125.3909 </r>
       <r>     2.2876    17.2085   126.5100 </r>
       <r>     2.3527    15.4674   127.5158 </r>
       <r>     2.4177    14.0948   128.4324 </r>
       <r>     2.4827    13.8558   129.3334 </r>
       <r>     2.5478    13.9925   130.2433 </r>
       <r>     2.6128    14.2610   131.1707 </r>
       <r>     2.6778    14.0069   132.0816 </r>
       <r>     2.7428    12.3458   132.8844 </r>
       <r>     2.8079    10.5000   133.5672 </r>
       <r>     2.8729     9.4914   134.1844 </r>
       <r>     2.9379     8.4986   134.7371 </r>
       <r>     3.0030     7.0469   135.1953 </r>
       <r>     3.0680     5.5785   135.5581 </r>
       <r>     3.1330     3.8956   135.8114 </r>
       <r>     3.1980     2.0386   135.9440 </r>
       <r>     3.2631     0.7023   135.9896 </r>
       <r>     3.3281     0.1428   135.9989 </r>
       <r>     3.3931     0.0156   135.9999 </r>
       <r>     3.4582     0.0009   136.0000 </r>
       <r>     3.5232     0.0000   136.0000 </r>
       <r>     3.5882     0.0000   136.0000 </r>
       <r>     3.6532     0.0000   136.0000 </r>
       <r>     3.7183     0.0000   136.0000 </r>
       <r>     3.7833     0.0000   136.0000 </r>
       <r>     3.8483     0.0000   136.0000 </r>
       <r>     3.9134     0.0000   136.0000 </r>
       <r>     3.9784     0.0000   136.0000 </r>
       <r>     4.0434     0.0000   136.0000 </r>
       <r>     4.1085     0.0000   136.0000 </r>
       <r>     4.1735     0.0000   136.0000 </r>
      </set>
     </set>
    </array>
   </total>
  </dos>
 </calculation>
 <structure name="finalpos" >
  <crystal>
   <varray name="basis" >
    <v>       3.54040000       0.00000000       0.00000000 </v>
    <v>      -1.77020000      10.29434800       0.00000000 </v>
    <v>       0.00000000       0.00000000      27.50142900 </v>
   </varray>
   <i name="volume">   1002.32009712 </i>
   <varray name="rec_basis" >
    <v>       0.28245396       0.04857034       0.00000000 </v>
    <v>       0.00000000       0.09714068       0.00000000 </v>
    <v>       0.00000000       0.00000000       0.03636175 </v>
   </varray>
  </crystal>
  <varray name="positions" >
   <v>       0.11402300       0.22804500       0.23316207 </v>
   <v>       0.81402300       0.42804500       0.51499159 </v>
   <v>       0.45808900       0.91617900       0.20939482 </v>
   <v>       0.15808900       0.11617900       0.49122434 </v>
   <v>       0.31085400       0.62170900       0.08414979 </v>
   <v>       0.31085400       0.62170900       0.36597930 </v>
   <v>       0.99923000       0.99846000       0.08631254 </v>
   <v>       0.99923000       0.99846000       0.36814206 </v>
   <v>       0.65492700       0.30985400       0.06041748 </v>
   <v>       0.65492700       0.30985400       0.34224700 </v>
   <v>       0.76973800       0.53947500       0.20725292 </v>
   <v>       0.46973800       0.73947500       0.48908244 </v>
   <v>       0.93971600       0.87943300       0.15783749 </v>
   <v>       0.63971600       0.07943300       0.43966701 </v>
   <v>       0.20515200       0.41030300       0.18578822 </v>
   <v>       0.90515200       0.61030300       0.46761774 </v>
   <v>       0.20184900       0.40369900       0.09969156 </v>
   <v>       0.20184900       0.40369900       0.38152107 </v>
   <v>       0.56380500       0.12761000       0.10779021 </v>
   <v>       0.56380500       0.12761000       0.38961973 </v>
   <v>       0.56710600       0.13421200       0.19387616 </v>
   <v>       0.26710600       0.33421200       0.47570568 </v>
   <v>       0.82923400       0.65846800       0.13571444 </v>
   <v>       0.52923400       0.85846800       0.41754396 </v>
  </varray>
 </structure>
</modeling>
