<?xml version="1.0" encoding="ISO-8859-1"?>
<modeling>
 <generator>
  <i name="program" type="string">vasp </i>
  <i name="version" type="string">5.4.1  </i>
  <i name="subversion" type="string">24Jun15 (build May 10 2016 14:18:23) complex                          parallel </i>
  <i name="platform" type="string">IFC91_ompi </i>
  <i name="date" type="string">2016 12 09 </i>
  <i name="time" type="string">15:00:41 </i>
 </generator>
 <incar>
  <i type="string" name="PREC">accurate</i>
  <i type="string" name="ALGO"> Fast</i>
  <i type="int" name="ISPIN">     2</i>
  <i type="int" name="IBRION">     2</i>
  <i name="EDIFF">      0.00010000</i>
  <i type="int" name="NSW">     0</i>
  <i type="int" name="ISIF">     3</i>
  <i name="ENCUT">    500.00000000</i>
  <v name="MAGMOM">      6.00000000      0.50000000      0.50000000      6.00000000      0.50000000      0.50000000</v>
  <i type="string" name="LREAL"> Auto</i>
  <i type="int" name="ISMEAR">     1</i>
  <i name="SIGMA">      0.10000000</i>
  <i type="logical" name="LWAVE"> F  </i>
  <i type="logical" name="LCHARG"> F  </i>
  <i type="logical" name="LVTOT"> T  </i>
  <i type="logical" name="LVHAR"> T  </i>
  <i type="logical" name="LAECHG"> F  </i>
  <v type="int" name="KPOINT_BSE">    -1     0     0     0</v>
  <i type="string" name="GGA"> Bo</i>
  <i name="PARAM1">      0.18333333</i>
  <i name="PARAM2">      0.22000000</i>
  <i type="logical" name="LUSE_VDW"> T  </i>
  <i name="AGGAC">      0.00000000</i>
 </incar>
 <kpoints>
  <generation param="Gamma">
   <v type="int" name="divisions">      13       13        1 </v>
   <v name="usershift">      0.00000000       0.00000000       0.00000000 </v>
   <v name="genvec1">      0.07692308       0.00000000       0.00000000 </v>
   <v name="genvec2">      0.00000000       0.07692308       0.00000000 </v>
   <v name="genvec3">      0.00000000       0.00000000       1.00000000 </v>
   <v name="shift">      0.00000000       0.00000000       0.00000000 </v>
  </generation>
  <varray name="kpointlist" >
   <v>       0.00000000       0.00000000       0.00000000 </v>
   <v>       0.07692308      -0.00000000       0.00000000 </v>
   <v>       0.15384615       0.00000000       0.00000000 </v>
   <v>       0.23076923       0.00000000       0.00000000 </v>
   <v>       0.30769231      -0.00000000       0.00000000 </v>
   <v>       0.38461538       0.00000000       0.00000000 </v>
   <v>       0.46153846       0.00000000       0.00000000 </v>
   <v>       0.00000000       0.07692308       0.00000000 </v>
   <v>       0.07692308       0.07692308       0.00000000 </v>
   <v>       0.15384615       0.07692308       0.00000000 </v>
   <v>       0.23076923       0.07692308       0.00000000 </v>
   <v>       0.30769231       0.07692308       0.00000000 </v>
   <v>       0.38461538       0.07692308       0.00000000 </v>
   <v>       0.46153846       0.07692308       0.00000000 </v>
   <v>      -0.46153846       0.07692308       0.00000000 </v>
   <v>      -0.38461538       0.07692308       0.00000000 </v>
   <v>      -0.30769231       0.07692308       0.00000000 </v>
   <v>      -0.23076923       0.07692308       0.00000000 </v>
   <v>      -0.15384615       0.07692308       0.00000000 </v>
   <v>      -0.07692308       0.07692308       0.00000000 </v>
   <v>       0.00000000       0.15384615       0.00000000 </v>
   <v>       0.07692308       0.15384615       0.00000000 </v>
   <v>       0.15384615       0.15384615       0.00000000 </v>
   <v>       0.23076923       0.15384615       0.00000000 </v>
   <v>       0.30769231       0.15384615       0.00000000 </v>
   <v>       0.38461538       0.15384615       0.00000000 </v>
   <v>       0.46153846       0.15384615       0.00000000 </v>
   <v>      -0.46153846       0.15384615       0.00000000 </v>
   <v>      -0.38461538       0.15384615       0.00000000 </v>
   <v>      -0.30769231       0.15384615       0.00000000 </v>
   <v>      -0.23076923       0.15384615       0.00000000 </v>
   <v>      -0.15384615       0.15384615       0.00000000 </v>
   <v>      -0.07692308       0.15384615       0.00000000 </v>
   <v>       0.00000000       0.23076923       0.00000000 </v>
   <v>       0.07692308       0.23076923       0.00000000 </v>
   <v>       0.15384615       0.23076923       0.00000000 </v>
   <v>       0.23076923       0.23076923       0.00000000 </v>
   <v>       0.30769231       0.23076923       0.00000000 </v>
   <v>       0.38461538       0.23076923       0.00000000 </v>
   <v>       0.46153846       0.23076923       0.00000000 </v>
   <v>      -0.46153846       0.23076923       0.00000000 </v>
   <v>      -0.38461538       0.23076923       0.00000000 </v>
   <v>      -0.30769231       0.23076923       0.00000000 </v>
   <v>      -0.23076923       0.23076923       0.00000000 </v>
   <v>      -0.15384615       0.23076923       0.00000000 </v>
   <v>      -0.07692308       0.23076923       0.00000000 </v>
   <v>       0.00000000       0.30769231       0.00000000 </v>
   <v>       0.07692308       0.30769231       0.00000000 </v>
   <v>       0.15384615       0.30769231       0.00000000 </v>
   <v>       0.23076923       0.30769231       0.00000000 </v>
   <v>       0.30769231       0.30769231       0.00000000 </v>
   <v>       0.38461538       0.30769231       0.00000000 </v>
   <v>       0.46153846       0.30769231       0.00000000 </v>
   <v>      -0.46153846       0.30769231       0.00000000 </v>
   <v>      -0.38461538       0.30769231       0.00000000 </v>
   <v>      -0.30769231       0.30769231       0.00000000 </v>
   <v>      -0.23076923       0.30769231       0.00000000 </v>
   <v>      -0.15384615       0.30769231       0.00000000 </v>
   <v>      -0.07692308       0.30769231       0.00000000 </v>
   <v>       0.00000000       0.38461538       0.00000000 </v>
   <v>       0.07692308       0.38461538       0.00000000 </v>
   <v>       0.15384615       0.38461538       0.00000000 </v>
   <v>       0.23076923       0.38461538       0.00000000 </v>
   <v>       0.30769231       0.38461538       0.00000000 </v>
   <v>       0.38461538       0.38461538       0.00000000 </v>
   <v>       0.46153846       0.38461538       0.00000000 </v>
   <v>      -0.46153846       0.38461538       0.00000000 </v>
   <v>      -0.38461538       0.38461538       0.00000000 </v>
   <v>      -0.30769231       0.38461538       0.00000000 </v>
   <v>      -0.23076923       0.38461538       0.00000000 </v>
   <v>      -0.15384615       0.38461538       0.00000000 </v>
   <v>      -0.07692308       0.38461538       0.00000000 </v>
   <v>       0.00000000       0.46153846       0.00000000 </v>
   <v>       0.07692308       0.46153846       0.00000000 </v>
   <v>       0.15384615       0.46153846       0.00000000 </v>
   <v>       0.23076923       0.46153846       0.00000000 </v>
   <v>       0.30769231       0.46153846       0.00000000 </v>
   <v>       0.38461538       0.46153846       0.00000000 </v>
   <v>       0.46153846       0.46153846       0.00000000 </v>
   <v>      -0.46153846       0.46153846       0.00000000 </v>
   <v>      -0.38461538       0.46153846       0.00000000 </v>
   <v>      -0.30769231       0.46153846       0.00000000 </v>
   <v>      -0.23076923       0.46153846       0.00000000 </v>
   <v>      -0.15384615       0.46153846       0.00000000 </v>
   <v>      -0.07692308       0.46153846       0.00000000 </v>
  </varray>
  <varray name="weights" >
   <v>       0.00591716 </v>
   <v>       0.01183432 </v>
   <v>       0.01183432 </v>
   <v>       0.01183432 </v>
   <v>       0.01183432 </v>
   <v>       0.01183432 </v>
   <v>       0.01183432 </v>
   <v>       0.01183432 </v>
   <v>       0.01183432 </v>
   <v>       0.01183432 </v>
   <v>       0.01183432 </v>
   <v>       0.01183432 </v>
   <v>       0.01183432 </v>
   <v>       0.01183432 </v>
   <v>       0.01183432 </v>
   <v>       0.01183432 </v>
   <v>       0.01183432 </v>
   <v>       0.01183432 </v>
   <v>       0.01183432 </v>
   <v>       0.01183432 </v>
   <v>       0.01183432 </v>
   <v>       0.01183432 </v>
   <v>       0.01183432 </v>
   <v>       0.01183432 </v>
   <v>       0.01183432 </v>
   <v>       0.01183432 </v>
   <v>       0.01183432 </v>
   <v>       0.01183432 </v>
   <v>       0.01183432 </v>
   <v>       0.01183432 </v>
   <v>       0.01183432 </v>
   <v>       0.01183432 </v>
   <v>       0.01183432 </v>
   <v>       0.01183432 </v>
   <v>       0.01183432 </v>
   <v>       0.01183432 </v>
   <v>       0.01183432 </v>
   <v>       0.01183432 </v>
   <v>       0.01183432 </v>
   <v>       0.01183432 </v>
   <v>       0.01183432 </v>
   <v>       0.01183432 </v>
   <v>       0.01183432 </v>
   <v>       0.01183432 </v>
   <v>       0.01183432 </v>
   <v>       0.01183432 </v>
   <v>       0.01183432 </v>
   <v>       0.01183432 </v>
   <v>       0.01183432 </v>
   <v>       0.01183432 </v>
   <v>       0.01183432 </v>
   <v>       0.01183432 </v>
   <v>       0.01183432 </v>
   <v>       0.01183432 </v>
   <v>       0.01183432 </v>
   <v>       0.01183432 </v>
   <v>       0.01183432 </v>
   <v>       0.01183432 </v>
   <v>       0.01183432 </v>
   <v>       0.01183432 </v>
   <v>       0.01183432 </v>
   <v>       0.01183432 </v>
   <v>       0.01183432 </v>
   <v>       0.01183432 </v>
   <v>       0.01183432 </v>
   <v>       0.01183432 </v>
   <v>       0.01183432 </v>
   <v>       0.01183432 </v>
   <v>       0.01183432 </v>
   <v>       0.01183432 </v>
   <v>       0.01183432 </v>
   <v>       0.01183432 </v>
   <v>       0.01183432 </v>
   <v>       0.01183432 </v>
   <v>       0.01183432 </v>
   <v>       0.01183432 </v>
   <v>       0.01183432 </v>
   <v>       0.01183432 </v>
   <v>       0.01183432 </v>
   <v>       0.01183432 </v>
   <v>       0.01183432 </v>
   <v>       0.01183432 </v>
   <v>       0.01183432 </v>
   <v>       0.01183432 </v>
   <v>       0.01183432 </v>
  </varray>
 </kpoints>
 <parameters>
  <separator name="general" >
   <i type="string" name="SYSTEM">unknown system</i>
   <i type="logical" name="LCOMPAT"> F  </i>
  </separator>
  <separator name="electronic" >
   <i type="string" name="PREC">accura</i>
   <i name="ENMAX">    500.00000000</i>
   <i name="ENAUG">    392.42700000</i>
   <i name="EDIFF">      0.00010000</i>
   <i type="int" name="IALGO">    68</i>
   <i type="int" name="IWAVPR">    10</i>
   <i type="int" name="NBANDS">    36</i>
   <i name="NELECT">     48.00000000</i>
   <i type="int" name="TURBO">     0</i>
   <i type="int" name="IRESTART">     0</i>
   <i type="int" name="NREBOOT">     0</i>
   <i type="int" name="NMIN">     0</i>
   <i name="EREF">      0.00000000</i>
   <separator name="electronic smearing" >
    <i type="int" name="ISMEAR">     1</i>
    <i name="SIGMA">      0.10000000</i>
    <i name="KSPACING">      0.50000000</i>
    <i type="logical" name="KGAMMA"> T  </i>
   </separator>
   <separator name="electronic projectors" >
    <i type="logical" name="LREAL"> T  </i>
    <v name="ROPT">     -0.00025000     -0.00025000     -0.00025000     -0.00025000</v>
    <i type="int" name="LMAXPAW">  -100</i>
    <i type="int" name="LMAXMIX">     2</i>
    <i type="logical" name="NLSPLINE"> F  </i>
   </separator>
   <separator name="electronic startup" >
    <i type="int" name="ISTART">     0</i>
    <i type="int" name="ICHARG">     2</i>
    <i type="int" name="INIWAV">     1</i>
   </separator>
   <separator name="electronic spin" >
    <i type="int" name="ISPIN">     2</i>
    <i type="logical" name="LNONCOLLINEAR"> F  </i>
    <v name="MAGMOM">      6.00000000      0.50000000      0.50000000      6.00000000      0.50000000      0.50000000</v>
    <i name="NUPDOWN">     -1.00000000</i>
    <i type="logical" name="LSORBIT"> F  </i>
    <v name="SAXIS">      0.00000000      0.00000000      1.00000000</v>
    <i type="logical" name="LSPIRAL"> F  </i>
    <v name="QSPIRAL">      0.00000000      0.00000000      0.00000000</v>
    <i type="logical" name="LZEROZ"> F  </i>
   </separator>
   <separator name="electronic exchange-correlation" >
    <i type="logical" name="LASPH"> F  </i>
    <i type="logical" name="LMETAGGA"> F  </i>
   </separator>
   <separator name="electronic convergence" >
    <i type="int" name="NELM">    60</i>
    <i type="int" name="NELMDL">     0</i>
    <i type="int" name="NELMIN">     2</i>
    <i name="ENINI">    500.00000000</i>
    <separator name="electronic convergence detail" >
     <i type="logical" name="LDIAG"> T  </i>
     <i type="logical" name="LSUBROT"> F  </i>
     <i name="WEIMIN">      0.00000000</i>
     <i name="EBREAK">      0.00000069</i>
     <i name="DEPER">      0.30000000</i>
     <i type="int" name="NRMM">     4</i>
     <i name="TIME">      0.40000000</i>
    </separator>
   </separator>
   <separator name="electronic mixer" >
    <i name="AMIX">      0.40000000</i>
    <i name="BMIX">      1.00000000</i>
    <i name="AMIN">      0.10000000</i>
    <i name="AMIX_MAG">      1.60000000</i>
    <i name="BMIX_MAG">      1.00000000</i>
    <separator name="electronic mixer details" >
     <i type="int" name="IMIX">     4</i>
     <i type="logical" name="MIXFIRST"> F  </i>
     <i type="int" name="MAXMIX">   -45</i>
     <i name="WC">    100.00000000</i>
     <i type="int" name="INIMIX">     1</i>
     <i type="int" name="MIXPRE">     1</i>
     <i type="int" name="MREMOVE">     5</i>
    </separator>
   </separator>
   <separator name="electronic dipolcorrection" >
    <i type="logical" name="LDIPOL"> F  </i>
    <i type="logical" name="LMONO"> F  </i>
    <i type="int" name="IDIPOL">     0</i>
    <i name="EPSILON">      1.00000000</i>
    <v name="DIPOL">   -100.00000000   -100.00000000   -100.00000000</v>
    <i name="EFIELD">      0.00000000</i>
   </separator>
  </separator>
  <separator name="grids" >
   <i type="int" name="NGX">    24</i>
   <i type="int" name="NGY">    24</i>
   <i type="int" name="NGZ">   180</i>
   <i type="int" name="NGXF">    48</i>
   <i type="int" name="NGYF">    48</i>
   <i type="int" name="NGZF">   360</i>
   <i type="logical" name="ADDGRID"> F  </i>
  </separator>
  <separator name="ionic" >
   <i type="int" name="NSW">     0</i>
   <i type="int" name="IBRION">    -1</i>
   <i type="int" name="ISIF">     3</i>
   <i name="PSTRESS">      0.00000000</i>
   <i name="EDIFFG">      0.00100000</i>
   <i type="int" name="NFREE">     1</i>
   <i name="POTIM">      0.50000000</i>
   <i name="SMASS">     -3.00000000</i>
   <i name="SCALEE">      1.00000000</i>
  </separator>
  <separator name="ionic md" >
   <i name="TEBEG">      0.00010000</i>
   <i name="TEEND">      0.00010000</i>
   <i type="int" name="NBLOCK">     1</i>
   <i type="int" name="KBLOCK">     1</i>
   <i type="int" name="NPACO">   256</i>
   <i name="APACO">     16.00000000</i>
  </separator>
  <separator name="symmetry" >
   <i type="int" name="ISYM">     2</i>
   <i name="SYMPREC">      0.00001000</i>
  </separator>
  <separator name="dos" >
   <i type="logical" name="LORBIT"> F  </i>
   <v name="RWIGS">     -1.00000000     -1.00000000     -1.00000000     -1.00000000</v>
   <i type="int" name="NEDOS">   301</i>
   <i name="EMIN">     10.00000000</i>
   <i name="EMAX">    -10.00000000</i>
   <i name="EFERMI">      0.00000000</i>
  </separator>
  <separator name="writing" >
   <i type="int" name="NWRITE">     2</i>
   <i type="logical" name="LWAVE"> F  </i>
   <i type="logical" name="LCHARG"> F  </i>
   <i type="logical" name="LPARD"> F  </i>
   <i type="logical" name="LVTOT"> F  </i>
   <i type="logical" name="LVHAR"> T  </i>
   <i type="logical" name="LELF"> F  </i>
   <i type="logical" name="LOPTICS"> F  </i>
   <v name="STM">      0.00000000      0.00000000      0.00000000      0.00000000      0.00000000      0.00000000      0.00000000</v>
  </separator>
  <separator name="performance" >
   <i type="int" name="NPAR">     4</i>
   <i type="int" name="NSIM">     4</i>
   <i type="int" name="NBLK">    -1</i>
   <i type="logical" name="LPLANE"> T  </i>
   <i type="logical" name="LSCALAPACK"> T  </i>
   <i type="logical" name="LSCAAWARE"> F  </i>
   <i type="logical" name="LSCALU"> F  </i>
   <i type="logical" name="LASYNC"> F  </i>
   <i type="logical" name="LORBITALREAL"> F  </i>
  </separator>
  <separator name="miscellaneous" >
   <i type="int" name="IDIOT">     3</i>
   <i type="logical" name="LMUSIC"> F  </i>
   <v name="POMASS">     95.94000000     32.06600000     95.94000000     32.06600000</v>
   <v name="DARWINR">      0.00000000      0.00000000      0.00000000      0.00000000</v>
   <v name="DARWINV">      1.00000000      1.00000000      1.00000000      1.00000000</v>
   <i type="logical" name="LCORR"> T  </i>
  </separator>
  <i type="logical" name="GGA_COMPAT"> T  </i>
  <i type="logical" name="LBERRY"> F  </i>
  <i type="int" name="ICORELEVEL">     0</i>
  <i type="logical" name="LDAU"> F  </i>
  <i type="int" name="I_CONSTRAINED_M">     0</i>
  <separator name="electronic exchange-correlation" >
   <i type="string" name="GGA">BO</i>
   <i type="int" name="VOSKOWN">     0</i>
   <i type="logical" name="LHFCALC"> F  </i>
   <i type="string" name="PRECFOCK"></i>
   <i type="logical" name="LSYMGRAD"> F  </i>
   <i type="logical" name="LHFONE"> F  </i>
   <i type="logical" name="LRHFCALC"> F  </i>
   <i type="logical" name="LTHOMAS"> F  </i>
   <i type="logical" name="LMODELHF"> F  </i>
   <i name="ENCUT4O">     -1.00000000</i>
   <i type="int" name="EXXOEP">     0</i>
   <i type="int" name="FOURORBIT">     0</i>
   <i name="AEXX">      0.00000000</i>
   <i name="HFALPHA">      0.00000000</i>
   <i name="MCALPHA">      0.00000000</i>
   <i name="ALDAX">      1.00000000</i>
   <i name="AGGAX">      1.00000000</i>
   <i name="ALDAC">      1.00000000</i>
   <i name="AGGAC">      0.00000000</i>
   <i type="int" name="NKREDX">     1</i>
   <i type="int" name="NKREDY">     1</i>
   <i type="int" name="NKREDZ">     1</i>
   <i type="logical" name="SHIFTRED"> F  </i>
   <i type="logical" name="ODDONLY"> F  </i>
   <i type="logical" name="EVENONLY"> F  </i>
   <i type="int" name="LMAXFOCK">     0</i>
   <i type="int" name="NMAXFOCKAE">     0</i>
   <i type="logical" name="LFOCKAEDFT"> F  </i>
   <i name="HFSCREEN">      0.00000000</i>
   <i name="HFSCREENC">      0.00000000</i>
   <i type="int" name="NBANDSGWLOW">     0</i>
  </separator>
  <separator name="vdW DFT" >
   <i type="logical" name="LUSE_VDW"> T  </i>
   <i name="Zab_VDW">     -0.84910000</i>
   <i name="PARAM1">      0.18333333</i>
   <i name="PARAM2">      0.22000000</i>
   <i name="PARAM3">      0.00000000</i>
  </separator>
  <separator name="model GW" >
   <i type="int" name="MODEL_GW">     0</i>
   <i name="MODEL_EPS0">     20.39722663</i>
   <i name="MODEL_ALPHA">      1.00000000</i>
  </separator>
  <separator name="linear response parameters" >
   <i type="logical" name="LEPSILON"> F  </i>
   <i type="logical" name="LRPA"> F  </i>
   <i type="logical" name="LNABLA"> F  </i>
   <i type="logical" name="LVEL"> F  </i>
   <i type="int" name="KINTER">     0</i>
   <i name="CSHIFT">      0.10000000</i>
   <i name="OMEGAMAX">     -1.00000000</i>
   <i name="DEG_THRESHOLD">      0.00200000</i>
  </separator>
  <separator name="orbital magnetization" >
   <i type="logical" name="NUCIND"> F  </i>
   <v name="MAGPOS">      0.00000000      0.00000000      0.00000000</v>
   <i type="logical" name="LNICSALL"> T  </i>
   <i type="logical" name="ORBITALMAG"> F  </i>
   <i type="logical" name="LMAGBLOCH"> F  </i>
   <i type="logical" name="LCHIMAG"> F  </i>
   <i type="logical" name="LGAUGE"> T  </i>
   <i type="int" name="MAGATOM">     0</i>
   <v name="MAGDIPOL">      0.00000000      0.00000000      0.00000000</v>
   <v name="AVECCONST">      0.00000000      0.00000000      0.00000000</v>
  </separator>
  <separator name="response functions" >
   <i type="logical" name="LADDER"> F  </i>
   <i type="logical" name="LFXC"> F  </i>
   <i type="logical" name="LHARTREE"> T  </i>
   <i type="int" name="IBSE">     0</i>
   <v type="int" name="KPOINT">    -1     0     0     0</v>
   <i type="logical" name="LTCTE"> F  </i>
   <i type="logical" name="LTETE"> F  </i>
   <i type="logical" name="LTRIPLET"> F  </i>
   <i type="logical" name="LFXCEPS"> F  </i>
   <i type="logical" name="LFXHEG"> F  </i>
   <i type="int" name="NATURALO">     0</i>
   <i type="logical" name="L2ORDER"> F  </i>
   <i type="logical" name="LUSEW"> F  </i>
   <i name="ENCUTGW">     -2.00000000</i>
   <i name="ENCUTGWSOFT">     -2.00000000</i>
   <i name="ENCUTLF">     -1.00000000</i>
   <i type="int" name="LMAXMP2">    -1</i>
   <i name="SCISSOR">      0.00000000</i>
   <i type="int" name="NOMEGA">     0</i>
   <i type="int" name="NOMEGAR">     0</i>
   <i type="int" name="NBANDSGW">    -1</i>
   <i type="int" name="NBANDSO">    -1</i>
   <i type="int" name="NBANDSV">    -1</i>
   <i type="int" name="NELM">     1</i>
   <i type="int" name="NELMHF">     1</i>
   <i type="int" name="DIM">     3</i>
   <i type="int" name="ANTIRES">     0</i>
   <i name="OMEGAMAX">    -30.00000000</i>
   <i name="OMEGAMIN">    -30.00000000</i>
   <i name="OMEGATL">   -200.00000000</i>
   <i type="int" name="OMEGAGRID">     0</i>
   <i name="CSHIFT">     -0.10000000</i>
   <i type="logical" name="SELFENERGY"> F  </i>
   <i type="logical" name="LSPECTRAL"> F  </i>
   <i type="logical" name="LSPECTRALGW"> F  </i>
   <i type="logical" name="LSINGLES"> F  </i>
   <i type="logical" name="LFERMIGW"> F  </i>
   <i type="logical" name="ODDONLYGW"> F  </i>
   <i type="logical" name="EVENONLYGW"> F  </i>
   <i type="int" name="NKREDLFX">     1</i>
   <i type="int" name="NKREDLFY">     1</i>
   <i type="int" name="NKREDLFZ">     1</i>
   <i type="int" name="MAXMEM">  1800</i>
   <i type="int" name="TELESCOPE">     0</i>
   <i type="int" name="TAUPAR">     1</i>
   <i type="int" name="OMEGAPAR">    -1</i>
   <i name="LAMBDA">      1.00000000</i>
  </separator>
  <separator name="External order field" >
   <i name="OFIELD_KAPPA">      0.00000000</i>
   <v name="OFIELD_K">      0.00000000      0.00000000      0.00000000</v>
   <i name="OFIELD_Q6_NEAR">      0.00000000</i>
   <i name="OFIELD_Q6_FAR">      0.00000000</i>
   <i name="OFIELD_A">      0.00000000</i>
  </separator>
 </parameters>
 <atominfo>
  <atoms>       6 </atoms>
  <types>       4 </types>
  <array name="atoms" >
   <dimension dim="1">ion</dimension>
   <field type="string">element</field>
   <field type="int">atomtype</field>
   <set>
    <rc><c>Mo</c><c>   1</c></rc>
    <rc><c>S </c><c>   2</c></rc>
    <rc><c>S </c><c>   2</c></rc>
    <rc><c>Mo</c><c>   3</c></rc>
    <rc><c>S </c><c>   4</c></rc>
    <rc><c>S </c><c>   4</c></rc>
   </set>
  </array>
  <array name="atomtypes" >
   <dimension dim="1">type</dimension>
   <field type="int">atomspertype</field>
   <field type="string">element</field>
   <field>mass</field>
   <field>valence</field>
   <field type="string">pseudopotential</field>
   <set>
    <rc><c>   1</c><c>Mo</c><c>     95.94000000</c><c>     12.00000000</c><c> PAW_PBE Mo_pv 08Apr2002                </c></rc>
    <rc><c>   2</c><c>S </c><c>     32.06600000</c><c>      6.00000000</c><c>  PAW_PBE S 17Jan2003                   </c></rc>
    <rc><c>   1</c><c>Mo</c><c>     95.94000000</c><c>     12.00000000</c><c> PAW_PBE Mo_pv 08Apr2002                </c></rc>
    <rc><c>   2</c><c>S </c><c>     32.06600000</c><c>      6.00000000</c><c>  PAW_PBE S 17Jan2003                   </c></rc>
   </set>
  </array>
 </atominfo>
 <structure name="initialpos" >
  <crystal>
   <varray name="basis" >
    <v>       3.19031700       0.00000000       0.00000000 </v>
    <v>      -1.59515800       2.76289700       0.00000000 </v>
    <v>       0.00000000       0.00000000      23.14049200 </v>
   </varray>
   <i name="volume">    203.97226633 </i>
   <varray name="rec_basis" >
    <v>       0.31344848       0.18096941       0.00000000 </v>
    <v>       0.00000000       0.36193894       0.00000000 </v>
    <v>       0.00000000       0.00000000       0.04321429 </v>
   </varray>
  </crystal>
  <varray name="positions" >
   <v>       0.66666700       0.33333300       0.06785900 </v>
   <v>       0.33333300       0.66666700       0.00000000 </v>
   <v>       0.33333300       0.66666700       0.13571500 </v>
   <v>       0.23809557       0.90476157       0.35482300 </v>
   <v>       0.90476157       0.23809557       0.28696500 </v>
   <v>       0.90476157       0.23809557       0.42267900 </v>
  </varray>
 </structure>
 <calculation>
  <scstep>
   <time name="dav">  107.21  107.29</time>
   <time name="total">  126.75  126.90</time>
   <energy>
    <i name="alphaZ">    104.15310261 </i>
    <i name="ewald">   7699.01324743 </i>
    <i name="hartreedc"> -11109.06843965 </i>
    <i name="XCdc">    128.46334710 </i>
    <i name="pawpsdc">   2252.92270536 </i>
    <i name="pawaedc">  -2205.68654582 </i>
    <i name="eentropy">     -0.00037250 </i>
    <i name="bandstr">   -159.39340943 </i>
    <i name="atom">   3688.31848598 </i>
    <i name="e_fr_energy">    398.72212107 </i>
    <i name="e_wo_entrp">    398.72249357 </i>
    <i name="e_0_energy">    398.72224524 </i>
   </energy>
  </scstep>
  <scstep>
   <time name="dav">  116.33  116.42</time>
   <time name="total">  116.35  116.63</time>
   <energy>
    <i name="e_fr_energy">     -1.65795886 </i>
    <i name="e_wo_entrp">     -1.65496156 </i>
    <i name="e_0_energy">     -1.65695976 </i>
   </energy>
  </scstep>
  <scstep>
   <time name="dav">  119.00  119.09</time>
   <time name="total">  119.02  119.11</time>
   <energy>
    <i name="e_fr_energy">    -32.96649770 </i>
    <i name="e_wo_entrp">    -32.96747776 </i>
    <i name="e_0_energy">    -32.96682439 </i>
   </energy>
  </scstep>
  <scstep>
   <time name="dav">  115.27  115.41</time>
   <time name="total">  115.29  115.50</time>
   <energy>
    <i name="e_fr_energy">    -33.84731676 </i>
    <i name="e_wo_entrp">    -33.84863723 </i>
    <i name="e_0_energy">    -33.84775692 </i>
   </energy>
  </scstep>
  <scstep>
   <time name="dav">  121.57  121.66</time>
   <time name="total">  131.32  131.54</time>
   <energy>
    <i name="e_fr_energy">    -33.87462325 </i>
    <i name="e_wo_entrp">    -33.87595677 </i>
    <i name="e_0_energy">    -33.87506775 </i>
   </energy>
  </scstep>
  <scstep>
   <time name="diag">   22.37   22.39</time>
   <time name="diis">   80.68   80.74</time>
   <time name="orth">    0.69    0.69</time>
   <time name="total">  132.36  132.46</time>
   <energy>
    <i name="e_fr_energy">    -30.09161494 </i>
    <i name="e_wo_entrp">    -30.09114018 </i>
    <i name="e_0_energy">    -30.09145668 </i>
   </energy>
  </scstep>
  <scstep>
   <time name="diag">   22.35   22.36</time>
   <time name="diis">   80.15   80.21</time>
   <time name="orth">    0.70    0.70</time>
   <time name="total">  131.49  131.59</time>
   <energy>
    <i name="e_fr_energy">    -32.86410207 </i>
    <i name="e_wo_entrp">    -32.86427723 </i>
    <i name="e_0_energy">    -32.86416045 </i>
   </energy>
  </scstep>
  <scstep>
   <time name="diag">   22.37   22.39</time>
   <time name="diis">   84.21   84.28</time>
   <time name="orth">    0.70    0.70</time>
   <time name="total">  135.72  135.99</time>
   <energy>
    <i name="e_fr_energy">    -34.37271185 </i>
    <i name="e_wo_entrp">    -34.37287763 </i>
    <i name="e_0_energy">    -34.37276711 </i>
   </energy>
  </scstep>
  <scstep>
   <time name="diag">   22.35   22.37</time>
   <time name="diis">   78.61   78.67</time>
   <time name="orth">    0.68    0.68</time>
   <time name="total">  130.06  130.16</time>
   <energy>
    <i name="e_fr_energy">    -37.08604296 </i>
    <i name="e_wo_entrp">    -37.08621038 </i>
    <i name="e_0_energy">    -37.08609877 </i>
   </energy>
  </scstep>
  <scstep>
   <time name="diag">   22.45   22.47</time>
   <time name="diis">   73.54   73.60</time>
   <time name="orth">    0.71    0.72</time>
   <time name="total">  125.39  125.49</time>
   <energy>
    <i name="e_fr_energy">    -39.08288007 </i>
    <i name="e_wo_entrp">    -39.08304754 </i>
    <i name="e_0_energy">    -39.08293589 </i>
   </energy>
  </scstep>
  <scstep>
   <time name="diag">   22.41   22.43</time>
   <time name="diis">   79.00   79.06</time>
   <time name="orth">    0.74    0.74</time>
   <time name="total">  130.81  131.14</time>
   <energy>
    <i name="e_fr_energy">    -39.39254698 </i>
    <i name="e_wo_entrp">    -39.39288033 </i>
    <i name="e_0_energy">    -39.39265810 </i>
   </energy>
  </scstep>
  <scstep>
   <time name="diag">   22.40   22.41</time>
   <time name="diis">   75.52   75.58</time>
   <time name="orth">    0.68    0.68</time>
   <time name="total">  127.31  127.41</time>
   <energy>
    <i name="e_fr_energy">    -39.41371151 </i>
    <i name="e_wo_entrp">    -39.41404383 </i>
    <i name="e_0_energy">    -39.41382228 </i>
   </energy>
  </scstep>
  <scstep>
   <time name="diag">   22.43   22.45</time>
   <time name="diis">   80.06   80.13</time>
   <time name="orth">    0.71    0.71</time>
   <time name="total">  132.00  132.11</time>
   <energy>
    <i name="e_fr_energy">    -39.41964969 </i>
    <i name="e_wo_entrp">    -39.41998297 </i>
    <i name="e_0_energy">    -39.41976078 </i>
   </energy>
  </scstep>
  <scstep>
   <time name="diag">   22.36   22.38</time>
   <time name="diis">   83.89   84.24</time>
   <time name="orth">    0.72    0.72</time>
   <time name="total">  135.74  136.21</time>
   <energy>
    <i name="e_fr_energy">    -39.42356779 </i>
    <i name="e_wo_entrp">    -39.42390207 </i>
    <i name="e_0_energy">    -39.42367922 </i>
   </energy>
  </scstep>
  <scstep>
   <time name="diag">   22.28   22.29</time>
   <time name="diis">   68.85   68.90</time>
   <time name="orth">    0.73    0.73</time>
   <time name="total">  120.48  120.57</time>
   <energy>
    <i name="e_fr_energy">    -39.42322242 </i>
    <i name="e_wo_entrp">    -39.42355668 </i>
    <i name="e_0_energy">    -39.42333384 </i>
   </energy>
  </scstep>
  <scstep>
   <time name="diag">   22.35   22.37</time>
   <time name="diis">   59.10   59.15</time>
   <time name="orth">    0.67    0.67</time>
   <time name="total">  100.80  100.88</time>
   <energy>
    <i name="alphaZ">    104.15310261 </i>
    <i name="ewald">   7699.01324743 </i>
    <i name="hartreedc"> -11093.39415732 </i>
    <i name="XCdc">    122.66412894 </i>
    <i name="pawpsdc">   2398.83133914 </i>
    <i name="pawaedc">  -2361.00474516 </i>
    <i name="eentropy">      0.00033431 </i>
    <i name="bandstr">   -598.00504585 </i>
    <i name="atom">   3688.31848598 </i>
    <i name="e_fr_energy">    -39.42330993 </i>
    <i name="e_wo_entrp">    -39.42364424 </i>
    <i name="e_0_energy">    -39.42342136 </i>
   </energy>
  </scstep>
  <structure>
   <crystal>
    <varray name="basis" >
     <v>       3.19031700       0.00000000       0.00000000 </v>
     <v>      -1.59515800       2.76289700       0.00000000 </v>
     <v>       0.00000000       0.00000000      23.14049200 </v>
    </varray>
    <i name="volume">    203.97226633 </i>
    <varray name="rec_basis" >
     <v>       0.31344848       0.18096941       0.00000000 </v>
     <v>       0.00000000       0.36193894       0.00000000 </v>
     <v>       0.00000000       0.00000000       0.04321429 </v>
    </varray>
   </crystal>
   <varray name="positions" >
    <v>       0.66666700       0.33333300       0.06785900 </v>
    <v>       0.33333300       0.66666700       0.00000000 </v>
    <v>       0.33333300       0.66666700       0.13571500 </v>
    <v>       0.23809557       0.90476157       0.35482300 </v>
    <v>       0.90476157       0.23809557       0.28696500 </v>
    <v>       0.90476157       0.23809557       0.42267900 </v>
   </varray>
  </structure>
  <varray name="forces" >
   <v>       0.00233953       0.00260715      -0.00111868 </v>
   <v>      -0.00074618       0.00117532      -0.05938681 </v>
   <v>       0.00814670       0.01344246       0.11876086 </v>
   <v>      -0.00005247      -0.00078850       0.00198438 </v>
   <v>      -0.00810332      -0.01589375      -0.12390045 </v>
   <v>      -0.00158425      -0.00054268       0.06366071 </v>
  </varray>
  <varray name="stress" >
   <v>       3.24897006       0.29194256      -0.26694983 </v>
   <v>       0.29194249       3.59174379      -0.46533283 </v>
   <v>      -0.26694973      -0.46533275      -0.29611329 </v>
  </varray>
  <energy>
   <i name="e_fr_energy">    -39.42330993 </i>
   <i name="e_wo_entrp">    -39.42342136 </i>
   <i name="e_0_energy">      0.00033431 </i>
  </energy>
  <time name="totalsc"> 2207.31 2210.27</time>
  <eigenvalues>
   <array>
    <dimension dim="1">band</dimension>
    <dimension dim="2">kpoint</dimension>
    <dimension dim="3">spin</dimension>
    <field>eigene</field>
    <field>occ</field>
    <set>
     <set comment="spin 1">
      <set comment="kpoint 1">
       <r>  -34.9763    1.0000 </r>
       <r>  -34.9752    1.0000 </r>
       <r>  -34.7857    1.0000 </r>
       <r>  -34.7856    1.0000 </r>
       <r>  -34.7846    1.0000 </r>
       <r>  -34.7845    1.0000 </r>
       <r>  -13.9603    1.0000 </r>
       <r>  -13.9053    1.0000 </r>
       <r>  -12.6942    1.0000 </r>
       <r>  -12.6018    1.0000 </r>
       <r>   -5.6711    1.0000 </r>
       <r>   -5.3844    1.0000 </r>
       <r>   -2.6081    1.0000 </r>
       <r>   -2.6068    1.0000 </r>
       <r>   -2.6047    1.0000 </r>
       <r>   -2.6032    1.0000 </r>
       <r>   -2.1606    1.0000 </r>
       <r>   -1.5166    1.0000 </r>
       <r>   -1.5139    1.0000 </r>
       <r>   -1.5100    1.0000 </r>
       <r>   -1.5075    1.0000 </r>
       <r>   -1.4614    1.0000 </r>
       <r>   -0.2073    1.0000 </r>
       <r>    0.2267    0.7955 </r>
       <r>    2.7005   -0.0000 </r>
       <r>    2.7123   -0.0000 </r>
       <r>    2.7262   -0.0000 </r>
       <r>    2.7348   -0.0000 </r>
       <r>    2.8815   -0.0000 </r>
       <r>    2.8932   -0.0000 </r>
       <r>    2.9114   -0.0000 </r>
       <r>    2.9264   -0.0000 </r>
       <r>    5.3659    0.0000 </r>
       <r>    5.6889    0.0000 </r>
       <r>    6.2581    0.0000 </r>
       <r>    6.5859    0.0000 </r>
      </set>
      <set comment="kpoint 2">
       <r>  -34.9722    1.0000 </r>
       <r>  -34.9711    1.0000 </r>
       <r>  -34.8069    1.0000 </r>
       <r>  -34.8059    1.0000 </r>
       <r>  -34.7905    1.0000 </r>
       <r>  -34.7894    1.0000 </r>
       <r>  -13.8736    1.0000 </r>
       <r>  -13.8188    1.0000 </r>
       <r>  -12.6574    1.0000 </r>
       <r>  -12.5675    1.0000 </r>
       <r>   -5.5716    1.0000 </r>
       <r>   -5.2858    1.0000 </r>
       <r>   -2.7948    1.0000 </r>
       <r>   -2.7903    1.0000 </r>
       <r>   -2.5155    1.0000 </r>
       <r>   -2.5145    1.0000 </r>
       <r>   -2.4472    1.0000 </r>
       <r>   -2.0589    1.0000 </r>
       <r>   -1.6502    1.0000 </r>
       <r>   -1.6487    1.0000 </r>
       <r>   -1.3400    1.0000 </r>
       <r>   -1.0621    1.0000 </r>
       <r>   -0.2277    1.0000 </r>
       <r>    0.1477    1.0349 </r>
       <r>    2.6093   -0.0000 </r>
       <r>    2.6157   -0.0000 </r>
       <r>    2.6625   -0.0000 </r>
       <r>    2.7074   -0.0000 </r>
       <r>    2.8070   -0.0000 </r>
       <r>    2.8124   -0.0000 </r>
       <r>    2.8662   -0.0000 </r>
       <r>    2.8691   -0.0000 </r>
       <r>    5.4985    0.0000 </r>
       <r>    5.8342    0.0000 </r>
       <r>    6.5755    0.0000 </r>
       <r>    6.9598    0.0000 </r>
      </set>
      <set comment="kpoint 3">
       <r>  -34.9608    1.0000 </r>
       <r>  -34.9597    1.0000 </r>
       <r>  -34.8654    1.0000 </r>
       <r>  -34.8643    1.0000 </r>
       <r>  -34.8039    1.0000 </r>
       <r>  -34.8028    1.0000 </r>
       <r>  -13.6248    1.0000 </r>
       <r>  -13.5713    1.0000 </r>
       <r>  -12.5521    1.0000 </r>
       <r>  -12.4696    1.0000 </r>
       <r>   -5.3108    1.0000 </r>
       <r>   -5.0323    1.0000 </r>
       <r>   -3.2449    1.0000 </r>
       <r>   -3.2382    1.0000 </r>
       <r>   -2.9470    1.0000 </r>
       <r>   -2.6750    1.0000 </r>
       <r>   -2.2601    1.0000 </r>
       <r>   -2.2586    1.0000 </r>
       <r>   -1.9856    1.0000 </r>
       <r>   -1.9834    1.0000 </r>
       <r>   -1.2445    1.0000 </r>
       <r>   -0.9401    1.0000 </r>
       <r>   -0.3553    1.0000 </r>
       <r>   -0.1390    1.0000 </r>
       <r>    2.2018   -0.0000 </r>
       <r>    2.3722   -0.0000 </r>
       <r>    2.5128   -0.0000 </r>
       <r>    2.5748   -0.0000 </r>
       <r>    2.5838   -0.0000 </r>
       <r>    2.6252   -0.0000 </r>
       <r>    3.2129    0.0000 </r>
       <r>    3.2187    0.0000 </r>
       <r>    5.8505    0.0000 </r>
       <r>    6.1842    0.0000 </r>
       <r>    6.9664    0.0000 </r>
       <r>    7.8078    0.0000 </r>
      </set>
      <set comment="kpoint 4">
       <r>  -34.9469    1.0000 </r>
       <r>  -34.9458    1.0000 </r>
       <r>  -34.9446    1.0000 </r>
       <r>  -34.9436    1.0000 </r>
       <r>  -34.8227    1.0000 </r>
       <r>  -34.8216    1.0000 </r>
       <r>  -13.2489    1.0000 </r>
       <r>  -13.1985    1.0000 </r>
       <r>  -12.3937    1.0000 </r>
       <r>  -12.3233    1.0000 </r>
       <r>   -5.0472    1.0000 </r>
       <r>   -4.8153    1.0000 </r>
       <r>   -3.7029    1.0000 </r>
       <r>   -3.6729    1.0000 </r>
       <r>   -3.4757    1.0000 </r>
       <r>   -3.2959    1.0000 </r>
       <r>   -2.3808    1.0000 </r>
       <r>   -2.3782    1.0000 </r>
       <r>   -1.8911    1.0000 </r>
       <r>   -1.8888    1.0000 </r>
       <r>   -1.4031    1.0000 </r>
       <r>   -1.1418    1.0000 </r>
       <r>   -0.6682    1.0000 </r>
       <r>   -0.5950    1.0000 </r>
       <r>    1.9668   -0.0000 </r>
       <r>    2.2487   -0.0000 </r>
       <r>    2.3254   -0.0000 </r>
       <r>    2.3341   -0.0000 </r>
       <r>    2.7115   -0.0000 </r>
       <r>    2.9073   -0.0000 </r>
       <r>    3.5948    0.0000 </r>
       <r>    3.6044    0.0000 </r>
       <r>    6.3883    0.0000 </r>
       <r>    6.6734    0.0000 </r>
       <r>    7.3802    0.0000 </r>
       <r>    8.1975    0.0000 </r>
      </set>
      <set comment="kpoint 5">
       <r>  -35.0321    1.0000 </r>
       <r>  -35.0311    1.0000 </r>
       <r>  -34.9275    1.0000 </r>
       <r>  -34.9265    1.0000 </r>
       <r>  -34.8426    1.0000 </r>
       <r>  -34.8415    1.0000 </r>
       <r>  -12.8071    1.0000 </r>
       <r>  -12.7633    1.0000 </r>
       <r>  -12.2100    1.0000 </r>
       <r>  -12.1556    1.0000 </r>
       <r>   -5.1018    1.0000 </r>
       <r>   -4.9860    1.0000 </r>
       <r>   -4.0387    1.0000 </r>
       <r>   -3.9247    1.0000 </r>
       <r>   -3.8336    1.0000 </r>
       <r>   -3.7528    1.0000 </r>
       <r>   -2.7362    1.0000 </r>
       <r>   -2.7333    1.0000 </r>
       <r>   -1.6625    1.0000 </r>
       <r>   -1.4986    1.0000 </r>
       <r>   -1.4915    1.0000 </r>
       <r>   -1.4526    1.0000 </r>
       <r>   -0.9603    1.0000 </r>
       <r>   -0.9162    1.0000 </r>
       <r>    2.0575   -0.0000 </r>
       <r>    2.1568   -0.0000 </r>
       <r>    2.1646   -0.0000 </r>
       <r>    2.3310   -0.0000 </r>
       <r>    3.1252    0.0000 </r>
       <r>    3.3482    0.0000 </r>
       <r>    3.8979    0.0000 </r>
       <r>    3.9119    0.0000 </r>
       <r>    7.0516    0.0000 </r>
       <r>    7.2283    0.0000 </r>
       <r>    7.8836    0.0000 </r>
       <r>    7.9743    0.0000 </r>
      </set>
      <set comment="kpoint 6">
       <r>  -35.1019    1.0000 </r>
       <r>  -35.1009    1.0000 </r>
       <r>  -34.9133    1.0000 </r>
       <r>  -34.9123    1.0000 </r>
       <r>  -34.8591    1.0000 </r>
       <r>  -34.8579    1.0000 </r>
       <r>  -12.3928    1.0000 </r>
       <r>  -12.3606    1.0000 </r>
       <r>  -12.0417    1.0000 </r>
       <r>  -12.0062    1.0000 </r>
       <r>   -5.4128    1.0000 </r>
       <r>   -5.3640    1.0000 </r>
       <r>   -4.4522    1.0000 </r>
       <r>   -4.3870    1.0000 </r>
       <r>   -3.9071    1.0000 </r>
       <r>   -3.8411    1.0000 </r>
       <r>   -2.9962    1.0000 </r>
       <r>   -2.9930    1.0000 </r>
       <r>   -1.8558    1.0000 </r>
       <r>   -1.7057    1.0000 </r>
       <r>   -1.1788    1.0000 </r>
       <r>   -1.1725    1.0000 </r>
       <r>   -0.9194    1.0000 </r>
       <r>   -0.8494    1.0000 </r>
       <r>    2.1123   -0.0000 </r>
       <r>    2.1173   -0.0000 </r>
       <r>    2.3214   -0.0000 </r>
       <r>    2.5048   -0.0000 </r>
       <r>    3.5368    0.0000 </r>
       <r>    3.7135    0.0000 </r>
       <r>    4.0868    0.0000 </r>
       <r>    4.1045    0.0000 </r>
       <r>    6.9296    0.0000 </r>
       <r>    7.1089    0.0000 </r>
       <r>    7.7047    0.0000 </r>
       <r>    7.9184    0.0000 </r>
      </set>
      <set comment="kpoint 7">
       <r>  -35.1409    1.0000 </r>
       <r>  -35.1399    1.0000 </r>
       <r>  -34.9052    1.0000 </r>
       <r>  -34.9042    1.0000 </r>
       <r>  -34.8684    1.0000 </r>
       <r>  -34.8672    1.0000 </r>
       <r>  -12.1290    1.0000 </r>
       <r>  -12.1126    1.0000 </r>
       <r>  -11.9366    1.0000 </r>
       <r>  -11.9197    1.0000 </r>
       <r>   -5.6445    1.0000 </r>
       <r>   -5.6248    1.0000 </r>
       <r>   -4.6935    1.0000 </r>
       <r>   -4.6632    1.0000 </r>
       <r>   -4.0057    1.0000 </r>
       <r>   -3.9566    1.0000 </r>
       <r>   -3.1322    1.0000 </r>
       <r>   -3.1289    1.0000 </r>
       <r>   -1.9411    1.0000 </r>
       <r>   -1.8372    1.0000 </r>
       <r>   -1.0121    1.0000 </r>
       <r>   -1.0042    1.0000 </r>
       <r>   -0.6896    1.0000 </r>
       <r>   -0.6329    1.0000 </r>
       <r>    2.1388   -0.0000 </r>
       <r>    2.1414   -0.0000 </r>
       <r>    2.5795   -0.0000 </r>
       <r>    2.6456   -0.0000 </r>
       <r>    3.7850    0.0000 </r>
       <r>    3.8774    0.0000 </r>
       <r>    4.1723    0.0000 </r>
       <r>    4.1923    0.0000 </r>
       <r>    6.1974    0.0000 </r>
       <r>    6.3669    0.0000 </r>
       <r>    7.9399    0.0000 </r>
       <r>    8.0785    0.0000 </r>
      </set>
      <set comment="kpoint 8">
       <r>  -34.9722    1.0000 </r>
       <r>  -34.9711    1.0000 </r>
       <r>  -34.8069    1.0000 </r>
       <r>  -34.8058    1.0000 </r>
       <r>  -34.7904    1.0000 </r>
       <r>  -34.7894    1.0000 </r>
       <r>  -13.8736    1.0000 </r>
       <r>  -13.8188    1.0000 </r>
       <r>  -12.6574    1.0000 </r>
       <r>  -12.5675    1.0000 </r>
       <r>   -5.5716    1.0000 </r>
       <r>   -5.2858    1.0000 </r>
       <r>   -2.7948    1.0000 </r>
       <r>   -2.7903    1.0000 </r>
       <r>   -2.5156    1.0000 </r>
       <r>   -2.5144    1.0000 </r>
       <r>   -2.4472    1.0000 </r>
       <r>   -2.0589    1.0000 </r>
       <r>   -1.6501    1.0000 </r>
       <r>   -1.6487    1.0000 </r>
       <r>   -1.3400    1.0000 </r>
       <r>   -1.0621    1.0000 </r>
       <r>   -0.2277    1.0000 </r>
       <r>    0.1477    1.0349 </r>
       <r>    2.6093   -0.0000 </r>
       <r>    2.6157   -0.0000 </r>
       <r>    2.6625   -0.0000 </r>
       <r>    2.7074   -0.0000 </r>
       <r>    2.8071   -0.0000 </r>
       <r>    2.8123   -0.0000 </r>
       <r>    2.8661   -0.0000 </r>
       <r>    2.8692   -0.0000 </r>
       <r>    5.4985    0.0000 </r>
       <r>    5.8342    0.0000 </r>
       <r>    6.5746    0.0000 </r>
       <r>    6.9598    0.0000 </r>
      </set>
      <set comment="kpoint 9">
       <r>  -34.9644    1.0000 </r>
       <r>  -34.9634    1.0000 </r>
       <r>  -34.8459    1.0000 </r>
       <r>  -34.8448    1.0000 </r>
       <r>  -34.8005    1.0000 </r>
       <r>  -34.7994    1.0000 </r>
       <r>  -13.7056    1.0000 </r>
       <r>  -13.6518    1.0000 </r>
       <r>  -12.5861    1.0000 </r>
       <r>  -12.5016    1.0000 </r>
       <r>   -5.3892    1.0000 </r>
       <r>   -5.1075    1.0000 </r>
       <r>   -3.1103    1.0000 </r>
       <r>   -3.1013    1.0000 </r>
       <r>   -2.7864    1.0000 </r>
       <r>   -2.4712    1.0000 </r>
       <r>   -2.3478    1.0000 </r>
       <r>   -2.3459    1.0000 </r>
       <r>   -1.9643    1.0000 </r>
       <r>   -1.9602    1.0000 </r>
       <r>   -1.1724    1.0000 </r>
       <r>   -0.8870    1.0000 </r>
       <r>   -0.2995    1.0000 </r>
       <r>   -0.0416    1.0001 </r>
       <r>    2.3250   -0.0000 </r>
       <r>    2.4345   -0.0000 </r>
       <r>    2.4791   -0.0000 </r>
       <r>    2.5419   -0.0000 </r>
       <r>    2.6339   -0.0000 </r>
       <r>    2.6506   -0.0000 </r>
       <r>    3.1367    0.0000 </r>
       <r>    3.1580    0.0000 </r>
       <r>    5.7262    0.0000 </r>
       <r>    6.0781    0.0000 </r>
       <r>    6.8276    0.0000 </r>
       <r>    7.5400    0.0000 </r>
      </set>
      <set comment="kpoint 10">
       <r>  -34.9507    1.0000 </r>
       <r>  -34.9496    1.0000 </r>
       <r>  -34.9134    1.0000 </r>
       <r>  -34.9124    1.0000 </r>
       <r>  -34.8190    1.0000 </r>
       <r>  -34.8179    1.0000 </r>
       <r>  -13.3925    1.0000 </r>
       <r>  -13.3412    1.0000 </r>
       <r>  -12.4534    1.0000 </r>
       <r>  -12.3790    1.0000 </r>
       <r>   -5.1095    1.0000 </r>
       <r>   -4.8491    1.0000 </r>
       <r>   -3.5484    1.0000 </r>
       <r>   -3.5366    1.0000 </r>
       <r>   -3.2209    1.0000 </r>
       <r>   -2.9928    1.0000 </r>
       <r>   -2.4500    1.0000 </r>
       <r>   -2.4333    1.0000 </r>
       <r>   -2.0642    1.0000 </r>
       <r>   -2.0608    1.0000 </r>
       <r>   -1.1392    1.0000 </r>
       <r>   -0.9024    1.0000 </r>
       <r>   -0.5258    1.0000 </r>
       <r>   -0.4246    1.0000 </r>
       <r>    1.9776   -0.0000 </r>
       <r>    2.1976   -0.0000 </r>
       <r>    2.4057   -0.0000 </r>
       <r>    2.4286   -0.0000 </r>
       <r>    2.4871   -0.0000 </r>
       <r>    2.6327   -0.0000 </r>
       <r>    3.5432    0.0000 </r>
       <r>    3.5742    0.0000 </r>
       <r>    6.1839    0.0000 </r>
       <r>    6.5004    0.0000 </r>
       <r>    7.2165    0.0000 </r>
       <r>    8.1974    0.0000 </r>
      </set>
      <set comment="kpoint 11">
       <r>  -34.9938    1.0000 </r>
       <r>  -34.9927    1.0000 </r>
       <r>  -34.9341    1.0000 </r>
       <r>  -34.9330    1.0000 </r>
       <r>  -34.8414    1.0000 </r>
       <r>  -34.8403    1.0000 </r>
       <r>  -12.9815    1.0000 </r>
       <r>  -12.9352    1.0000 </r>
       <r>  -12.2804    1.0000 </r>
       <r>  -12.2202    1.0000 </r>
       <r>   -4.9872    1.0000 </r>
       <r>   -4.8181    1.0000 </r>
       <r>   -3.8465    1.0000 </r>
       <r>   -3.7755    1.0000 </r>
       <r>   -3.7017    1.0000 </r>
       <r>   -3.5902    1.0000 </r>
       <r>   -2.8463    1.0000 </r>
       <r>   -2.7942    1.0000 </r>
       <r>   -1.7834    1.0000 </r>
       <r>   -1.7737    1.0000 </r>
       <r>   -1.3373    1.0000 </r>
       <r>   -1.1683    1.0000 </r>
       <r>   -0.8285    1.0000 </r>
       <r>   -0.8011    1.0000 </r>
       <r>    1.8672   -0.0000 </r>
       <r>    2.0726   -0.0000 </r>
       <r>    2.2924   -0.0000 </r>
       <r>    2.3816   -0.0000 </r>
       <r>    2.7688   -0.0000 </r>
       <r>    2.9523   -0.0000 </r>
       <r>    3.8995    0.0000 </r>
       <r>    3.9333    0.0000 </r>
       <r>    6.8040    0.0000 </r>
       <r>    7.0461    0.0000 </r>
       <r>    7.7682    0.0000 </r>
       <r>    8.3631    0.0000 </r>
      </set>
      <set comment="kpoint 12">
       <r>  -35.0684    1.0000 </r>
       <r>  -35.0674    1.0000 </r>
       <r>  -34.9184    1.0000 </r>
       <r>  -34.9173    1.0000 </r>
       <r>  -34.8624    1.0000 </r>
       <r>  -34.8613    1.0000 </r>
       <r>  -12.5482    1.0000 </r>
       <r>  -12.5114    1.0000 </r>
       <r>  -12.1007    1.0000 </r>
       <r>  -12.0581    1.0000 </r>
       <r>   -5.2067    1.0000 </r>
       <r>   -5.1314    1.0000 </r>
       <r>   -4.2724    1.0000 </r>
       <r>   -4.2057    1.0000 </r>
       <r>   -3.8298    1.0000 </r>
       <r>   -3.7559    1.0000 </r>
       <r>   -3.0627    1.0000 </r>
       <r>   -3.0062    1.0000 </r>
       <r>   -1.6394    1.0000 </r>
       <r>   -1.6171    1.0000 </r>
       <r>   -1.5984    1.0000 </r>
       <r>   -1.5014    1.0000 </r>
       <r>   -0.8525    1.0000 </r>
       <r>   -0.8283    1.0000 </r>
       <r>    1.9679   -0.0000 </r>
       <r>    2.1091   -0.0000 </r>
       <r>    2.3352   -0.0000 </r>
       <r>    2.4440   -0.0000 </r>
       <r>    3.1995    0.0000 </r>
       <r>    3.3687    0.0000 </r>
       <r>    4.1050    0.0000 </r>
       <r>    4.1393    0.0000 </r>
       <r>    7.3976    0.0000 </r>
       <r>    7.5157    0.0000 </r>
       <r>    7.6609    0.0000 </r>
       <r>    8.0811    0.0000 </r>
      </set>
      <set comment="kpoint 13">
       <r>  -35.1207    1.0000 </r>
       <r>  -35.1197    1.0000 </r>
       <r>  -34.9072    1.0000 </r>
       <r>  -34.9062    1.0000 </r>
       <r>  -34.8773    1.0000 </r>
       <r>  -34.8762    1.0000 </r>
       <r>  -12.2011    1.0000 </r>
       <r>  -12.1786    1.0000 </r>
       <r>  -11.9595    1.0000 </r>
       <r>  -11.9360    1.0000 </r>
       <r>   -5.4803    1.0000 </r>
       <r>   -5.4477    1.0000 </r>
       <r>   -4.6509    1.0000 </r>
       <r>   -4.6195    1.0000 </r>
       <r>   -3.9254    1.0000 </r>
       <r>   -3.8721    1.0000 </r>
       <r>   -3.1501    1.0000 </r>
       <r>   -3.1139    1.0000 </r>
       <r>   -1.8464    1.0000 </r>
       <r>   -1.7532    1.0000 </r>
       <r>   -1.4842    1.0000 </r>
       <r>   -1.4575    1.0000 </r>
       <r>   -0.6396    1.0000 </r>
       <r>   -0.6011    1.0000 </r>
       <r>    2.1112   -0.0000 </r>
       <r>    2.1756   -0.0000 </r>
       <r>    2.5129   -0.0000 </r>
       <r>    2.5987   -0.0000 </r>
       <r>    3.6078    0.0000 </r>
       <r>    3.7304    0.0000 </r>
       <r>    4.0988    0.0000 </r>
       <r>    4.1721    0.0000 </r>
       <r>    6.5903    0.0000 </r>
       <r>    6.7933    0.0000 </r>
       <r>    8.1058    0.0000 </r>
       <r>    8.2858    0.0000 </r>
      </set>
      <set comment="kpoint 14">
       <r>  -35.1395    1.0000 </r>
       <r>  -35.1385    1.0000 </r>
       <r>  -34.9032    1.0000 </r>
       <r>  -34.9021    1.0000 </r>
       <r>  -34.8827    1.0000 </r>
       <r>  -34.8815    1.0000 </r>
       <r>  -12.0636    1.0000 </r>
       <r>  -12.0513    1.0000 </r>
       <r>  -11.9042    1.0000 </r>
       <r>  -11.8914    1.0000 </r>
       <r>   -5.5910    1.0000 </r>
       <r>   -5.5762    1.0000 </r>
       <r>   -4.7901    1.0000 </r>
       <r>   -4.7699    1.0000 </r>
       <r>   -3.9946    1.0000 </r>
       <r>   -3.9464    1.0000 </r>
       <r>   -3.1636    1.0000 </r>
       <r>   -3.1523    1.0000 </r>
       <r>   -1.9352    1.0000 </r>
       <r>   -1.8398    1.0000 </r>
       <r>   -1.4282    1.0000 </r>
       <r>   -1.3735    1.0000 </r>
       <r>   -0.4997    1.0000 </r>
       <r>   -0.4668    1.0000 </r>
       <r>    2.1570   -0.0000 </r>
       <r>    2.1666   -0.0000 </r>
       <r>    2.6758   -0.0000 </r>
       <r>    2.6946   -0.0000 </r>
       <r>    3.8701    0.0000 </r>
       <r>    3.9050    0.0000 </r>
       <r>    4.0138    0.0000 </r>
       <r>    4.0714    0.0000 </r>
       <r>    6.1948    0.0000 </r>
       <r>    6.3552    0.0000 </r>
       <r>    8.3444    0.0000 </r>
       <r>    8.4063    0.0000 </r>
      </set>
      <set comment="kpoint 15">
       <r>  -35.1207    1.0000 </r>
       <r>  -35.1197    1.0000 </r>
       <r>  -34.9072    1.0000 </r>
       <r>  -34.9062    1.0000 </r>
       <r>  -34.8773    1.0000 </r>
       <r>  -34.8762    1.0000 </r>
       <r>  -12.2029    1.0000 </r>
       <r>  -12.1771    1.0000 </r>
       <r>  -11.9611    1.0000 </r>
       <r>  -11.9340    1.0000 </r>
       <r>   -5.4806    1.0000 </r>
       <r>   -5.4471    1.0000 </r>
       <r>   -4.6538    1.0000 </r>
       <r>   -4.6168    1.0000 </r>
       <r>   -3.9267    1.0000 </r>
       <r>   -3.8702    1.0000 </r>
       <r>   -3.1486    1.0000 </r>
       <r>   -3.1166    1.0000 </r>
       <r>   -1.8628    1.0000 </r>
       <r>   -1.7451    1.0000 </r>
       <r>   -1.4988    1.0000 </r>
       <r>   -1.4310    1.0000 </r>
       <r>   -0.6347    1.0000 </r>
       <r>   -0.6064    1.0000 </r>
       <r>    2.1166   -0.0000 </r>
       <r>    2.1685   -0.0000 </r>
       <r>    2.5097   -0.0000 </r>
       <r>    2.6020   -0.0000 </r>
       <r>    3.5753    0.0000 </r>
       <r>    3.7621    0.0000 </r>
       <r>    4.1154    0.0000 </r>
       <r>    4.1592    0.0000 </r>
       <r>    6.5919    0.0000 </r>
       <r>    6.7920    0.0000 </r>
       <r>    8.0760    0.0000 </r>
       <r>    8.2165    0.0000 </r>
      </set>
      <set comment="kpoint 16">
       <r>  -35.0684    1.0000 </r>
       <r>  -35.0674    1.0000 </r>
       <r>  -34.9184    1.0000 </r>
       <r>  -34.9173    1.0000 </r>
       <r>  -34.8625    1.0000 </r>
       <r>  -34.8613    1.0000 </r>
       <r>  -12.5498    1.0000 </r>
       <r>  -12.5101    1.0000 </r>
       <r>  -12.1023    1.0000 </r>
       <r>  -12.0562    1.0000 </r>
       <r>   -5.2067    1.0000 </r>
       <r>   -5.1311    1.0000 </r>
       <r>   -4.2755    1.0000 </r>
       <r>   -4.2033    1.0000 </r>
       <r>   -3.8347    1.0000 </r>
       <r>   -3.7495    1.0000 </r>
       <r>   -3.0641    1.0000 </r>
       <r>   -3.0073    1.0000 </r>
       <r>   -1.6810    1.0000 </r>
       <r>   -1.6129    1.0000 </r>
       <r>   -1.5890    1.0000 </r>
       <r>   -1.4683    1.0000 </r>
       <r>   -0.8539    1.0000 </r>
       <r>   -0.8262    1.0000 </r>
       <r>    1.9648   -0.0000 </r>
       <r>    2.1084   -0.0000 </r>
       <r>    2.3338   -0.0000 </r>
       <r>    2.4475   -0.0000 </r>
       <r>    3.1728    0.0000 </r>
       <r>    3.3981    0.0000 </r>
       <r>    4.1030    0.0000 </r>
       <r>    4.1394    0.0000 </r>
       <r>    7.3957    0.0000 </r>
       <r>    7.5241    0.0000 </r>
       <r>    7.6575    0.0000 </r>
       <r>    8.0960    0.0000 </r>
      </set>
      <set comment="kpoint 17">
       <r>  -34.9937    1.0000 </r>
       <r>  -34.9927    1.0000 </r>
       <r>  -34.9341    1.0000 </r>
       <r>  -34.9330    1.0000 </r>
       <r>  -34.8415    1.0000 </r>
       <r>  -34.8403    1.0000 </r>
       <r>  -12.9826    1.0000 </r>
       <r>  -12.9343    1.0000 </r>
       <r>  -12.2817    1.0000 </r>
       <r>  -12.2187    1.0000 </r>
       <r>   -4.9872    1.0000 </r>
       <r>   -4.8183    1.0000 </r>
       <r>   -3.8542    1.0000 </r>
       <r>   -3.7686    1.0000 </r>
       <r>   -3.7029    1.0000 </r>
       <r>   -3.5873    1.0000 </r>
       <r>   -2.8501    1.0000 </r>
       <r>   -2.7925    1.0000 </r>
       <r>   -1.7826    1.0000 </r>
       <r>   -1.7765    1.0000 </r>
       <r>   -1.3547    1.0000 </r>
       <r>   -1.1481    1.0000 </r>
       <r>   -0.8327    1.0000 </r>
       <r>   -0.7902    1.0000 </r>
       <r>    1.8600   -0.0000 </r>
       <r>    2.0774   -0.0000 </r>
       <r>    2.2907   -0.0000 </r>
       <r>    2.3851   -0.0000 </r>
       <r>    2.7500   -0.0000 </r>
       <r>    2.9701   -0.0000 </r>
       <r>    3.8987    0.0000 </r>
       <r>    3.9308    0.0000 </r>
       <r>    6.8018    0.0000 </r>
       <r>    7.0459    0.0000 </r>
       <r>    7.7818    0.0000 </r>
       <r>    8.5064    0.0000 </r>
      </set>
      <set comment="kpoint 18">
       <r>  -34.9507    1.0000 </r>
       <r>  -34.9496    1.0000 </r>
       <r>  -34.9134    1.0000 </r>
       <r>  -34.9124    1.0000 </r>
       <r>  -34.8191    1.0000 </r>
       <r>  -34.8179    1.0000 </r>
       <r>  -13.3932    1.0000 </r>
       <r>  -13.3406    1.0000 </r>
       <r>  -12.4544    1.0000 </r>
       <r>  -12.3779    1.0000 </r>
       <r>   -5.1106    1.0000 </r>
       <r>   -4.8484    1.0000 </r>
       <r>   -3.5512    1.0000 </r>
       <r>   -3.5341    1.0000 </r>
       <r>   -3.2190    1.0000 </r>
       <r>   -2.9945    1.0000 </r>
       <r>   -2.4542    1.0000 </r>
       <r>   -2.4300    1.0000 </r>
       <r>   -2.0634    1.0000 </r>
       <r>   -2.0616    1.0000 </r>
       <r>   -1.1590    1.0000 </r>
       <r>   -0.8864    1.0000 </r>
       <r>   -0.5328    1.0000 </r>
       <r>   -0.4028    1.0000 </r>
       <r>    1.9684   -0.0000 </r>
       <r>    2.1955   -0.0000 </r>
       <r>    2.4061   -0.0000 </r>
       <r>    2.4377   -0.0000 </r>
       <r>    2.4724   -0.0000 </r>
       <r>    2.6408   -0.0000 </r>
       <r>    3.5500    0.0000 </r>
       <r>    3.5654    0.0000 </r>
       <r>    6.1834    0.0000 </r>
       <r>    6.5010    0.0000 </r>
       <r>    7.2186    0.0000 </r>
       <r>    8.3387    0.0000 </r>
      </set>
      <set comment="kpoint 19">
       <r>  -34.9644    1.0000 </r>
       <r>  -34.9634    1.0000 </r>
       <r>  -34.8458    1.0000 </r>
       <r>  -34.8448    1.0000 </r>
       <r>  -34.8006    1.0000 </r>
       <r>  -34.7994    1.0000 </r>
       <r>  -13.7060    1.0000 </r>
       <r>  -13.6515    1.0000 </r>
       <r>  -12.5867    1.0000 </r>
       <r>  -12.5009    1.0000 </r>
       <r>   -5.3903    1.0000 </r>
       <r>   -5.1066    1.0000 </r>
       <r>   -3.1085    1.0000 </r>
       <r>   -3.1035    1.0000 </r>
       <r>   -2.7840    1.0000 </r>
       <r>   -2.4732    1.0000 </r>
       <r>   -2.3485    1.0000 </r>
       <r>   -2.3452    1.0000 </r>
       <r>   -1.9637    1.0000 </r>
       <r>   -1.9613    1.0000 </r>
       <r>   -1.1905    1.0000 </r>
       <r>   -0.8723    1.0000 </r>
       <r>   -0.3044    1.0000 </r>
       <r>   -0.0210    1.0002 </r>
       <r>    2.2983   -0.0000 </r>
       <r>    2.4326   -0.0000 </r>
       <r>    2.4679   -0.0000 </r>
       <r>    2.5602   -0.0000 </r>
       <r>    2.6442   -0.0000 </r>
       <r>    2.6487   -0.0000 </r>
       <r>    3.1412    0.0000 </r>
       <r>    3.1536    0.0000 </r>
       <r>    5.7380    0.0000 </r>
       <r>    6.0786    0.0000 </r>
       <r>    6.8381    0.0000 </r>
       <r>    7.6045    0.0000 </r>
      </set>
      <set comment="kpoint 20">
       <r>  -34.9722    1.0000 </r>
       <r>  -34.9711    1.0000 </r>
       <r>  -34.8069    1.0000 </r>
       <r>  -34.8058    1.0000 </r>
       <r>  -34.7905    1.0000 </r>
       <r>  -34.7894    1.0000 </r>
       <r>  -13.8737    1.0000 </r>
       <r>  -13.8187    1.0000 </r>
       <r>  -12.6576    1.0000 </r>
       <r>  -12.5673    1.0000 </r>
       <r>   -5.5720    1.0000 </r>
       <r>   -5.2855    1.0000 </r>
       <r>   -2.7947    1.0000 </r>
       <r>   -2.7906    1.0000 </r>
       <r>   -2.5178    1.0000 </r>
       <r>   -2.5123    1.0000 </r>
       <r>   -2.4459    1.0000 </r>
       <r>   -2.0590    1.0000 </r>
       <r>   -1.6543    1.0000 </r>
       <r>   -1.6444    1.0000 </r>
       <r>   -1.3524    1.0000 </r>
       <r>   -1.0522    1.0000 </r>
       <r>   -0.2293    1.0000 </r>
       <r>    0.1559    1.0319 </r>
       <r>    2.5839   -0.0000 </r>
       <r>    2.6216   -0.0000 </r>
       <r>    2.6484   -0.0000 </r>
       <r>    2.7407   -0.0000 </r>
       <r>    2.7786   -0.0000 </r>
       <r>    2.8254   -0.0000 </r>
       <r>    2.8553   -0.0000 </r>
       <r>    2.8898   -0.0000 </r>
       <r>    5.4984    0.0000 </r>
       <r>    5.8345    0.0000 </r>
       <r>    6.5889    0.0000 </r>
       <r>    6.9584    0.0000 </r>
      </set>
      <set comment="kpoint 21">
       <r>  -34.9608    1.0000 </r>
       <r>  -34.9597    1.0000 </r>
       <r>  -34.8654    1.0000 </r>
       <r>  -34.8643    1.0000 </r>
       <r>  -34.8038    1.0000 </r>
       <r>  -34.8028    1.0000 </r>
       <r>  -13.6248    1.0000 </r>
       <r>  -13.5713    1.0000 </r>
       <r>  -12.5521    1.0000 </r>
       <r>  -12.4696    1.0000 </r>
       <r>   -5.3108    1.0000 </r>
       <r>   -5.0323    1.0000 </r>
       <r>   -3.2449    1.0000 </r>
       <r>   -3.2382    1.0000 </r>
       <r>   -2.9470    1.0000 </r>
       <r>   -2.6750    1.0000 </r>
       <r>   -2.2601    1.0000 </r>
       <r>   -2.2586    1.0000 </r>
       <r>   -1.9856    1.0000 </r>
       <r>   -1.9835    1.0000 </r>
       <r>   -1.2445    1.0000 </r>
       <r>   -0.9401    1.0000 </r>
       <r>   -0.3553    1.0000 </r>
       <r>   -0.1390    1.0000 </r>
       <r>    2.2018   -0.0000 </r>
       <r>    2.3722   -0.0000 </r>
       <r>    2.5128   -0.0000 </r>
       <r>    2.5748   -0.0000 </r>
       <r>    2.5838   -0.0000 </r>
       <r>    2.6252   -0.0000 </r>
       <r>    3.2129    0.0000 </r>
       <r>    3.2187    0.0000 </r>
       <r>    5.8505    0.0000 </r>
       <r>    6.1842    0.0000 </r>
       <r>    6.9486    0.0000 </r>
       <r>    7.8206    0.0000 </r>
      </set>
      <set comment="kpoint 22">
       <r>  -34.9507    1.0000 </r>
       <r>  -34.9496    1.0000 </r>
       <r>  -34.9135    1.0000 </r>
       <r>  -34.9123    1.0000 </r>
       <r>  -34.8190    1.0000 </r>
       <r>  -34.8179    1.0000 </r>
       <r>  -13.3925    1.0000 </r>
       <r>  -13.3412    1.0000 </r>
       <r>  -12.4534    1.0000 </r>
       <r>  -12.3790    1.0000 </r>
       <r>   -5.1095    1.0000 </r>
       <r>   -4.8491    1.0000 </r>
       <r>   -3.5485    1.0000 </r>
       <r>   -3.5366    1.0000 </r>
       <r>   -3.2209    1.0000 </r>
       <r>   -2.9928    1.0000 </r>
       <r>   -2.4500    1.0000 </r>
       <r>   -2.4333    1.0000 </r>
       <r>   -2.0642    1.0000 </r>
       <r>   -2.0608    1.0000 </r>
       <r>   -1.1392    1.0000 </r>
       <r>   -0.9024    1.0000 </r>
       <r>   -0.5258    1.0000 </r>
       <r>   -0.4246    1.0000 </r>
       <r>    1.9776   -0.0000 </r>
       <r>    2.1976   -0.0000 </r>
       <r>    2.4058   -0.0000 </r>
       <r>    2.4286   -0.0000 </r>
       <r>    2.4871   -0.0000 </r>
       <r>    2.6327   -0.0000 </r>
       <r>    3.5432    0.0000 </r>
       <r>    3.5742    0.0000 </r>
       <r>    6.1837    0.0000 </r>
       <r>    6.5004    0.0000 </r>
       <r>    7.2169    0.0000 </r>
       <r>    8.1960    0.0000 </r>
      </set>
      <set comment="kpoint 23">
       <r>  -34.9756    1.0000 </r>
       <r>  -34.9745    1.0000 </r>
       <r>  -34.9364    1.0000 </r>
       <r>  -34.9354    1.0000 </r>
       <r>  -34.8454    1.0000 </r>
       <r>  -34.8443    1.0000 </r>
       <r>  -13.0428    1.0000 </r>
       <r>  -12.9958    1.0000 </r>
       <r>  -12.3047    1.0000 </r>
       <r>  -12.2424    1.0000 </r>
       <r>   -4.9386    1.0000 </r>
       <r>   -4.7417    1.0000 </r>
       <r>   -3.7857    1.0000 </r>
       <r>   -3.7404    1.0000 </r>
       <r>   -3.5091    1.0000 </r>
       <r>   -3.3867    1.0000 </r>
       <r>   -3.0767    1.0000 </r>
       <r>   -2.9910    1.0000 </r>
       <r>   -1.9376    1.0000 </r>
       <r>   -1.9240    1.0000 </r>
       <r>   -1.1004    1.0000 </r>
       <r>   -0.9536    1.0000 </r>
       <r>   -0.7652    1.0000 </r>
       <r>   -0.7413    1.0000 </r>
       <r>    1.7759   -0.0000 </r>
       <r>    1.9975   -0.0000 </r>
       <r>    2.3362   -0.0000 </r>
       <r>    2.4093   -0.0000 </r>
       <r>    2.5381   -0.0000 </r>
       <r>    2.7180   -0.0000 </r>
       <r>    3.9441    0.0000 </r>
       <r>    3.9888    0.0000 </r>
       <r>    6.7210    0.0000 </r>
       <r>    6.9911    0.0000 </r>
       <r>    7.7303    0.0000 </r>
       <r>    8.6729    0.0000 </r>
      </set>
      <set comment="kpoint 24">
       <r>  -35.0384    1.0000 </r>
       <r>  -35.0373    1.0000 </r>
       <r>  -34.9212    1.0000 </r>
       <r>  -34.9202    1.0000 </r>
       <r>  -34.8757    1.0000 </r>
       <r>  -34.8746    1.0000 </r>
       <r>  -12.6347    1.0000 </r>
       <r>  -12.5955    1.0000 </r>
       <r>  -12.1311    1.0000 </r>
       <r>  -12.0846    1.0000 </r>
       <r>   -5.0155    1.0000 </r>
       <r>   -4.9108    1.0000 </r>
       <r>   -4.0866    1.0000 </r>
       <r>   -4.0523    1.0000 </r>
       <r>   -3.7397    1.0000 </r>
       <r>   -3.6636    1.0000 </r>
       <r>   -3.2998    1.0000 </r>
       <r>   -3.1598    1.0000 </r>
       <r>   -2.0668    1.0000 </r>
       <r>   -2.0420    1.0000 </r>
       <r>   -1.3074    1.0000 </r>
       <r>   -1.2252    1.0000 </r>
       <r>   -0.8322    1.0000 </r>
       <r>   -0.8025    1.0000 </r>
       <r>    1.7972   -0.0000 </r>
       <r>    2.0526   -0.0000 </r>
       <r>    2.4062   -0.0000 </r>
       <r>    2.4526   -0.0000 </r>
       <r>    2.8018   -0.0000 </r>
       <r>    2.9683   -0.0000 </r>
       <r>    4.2120    0.0000 </r>
       <r>    4.2570    0.0000 </r>
       <r>    7.3951    0.0000 </r>
       <r>    7.5776    0.0000 </r>
       <r>    8.1716    0.0000 </r>
       <r>    8.4159    0.0000 </r>
      </set>
      <set comment="kpoint 25">
       <r>  -35.0890    1.0000 </r>
       <r>  -35.0879    1.0000 </r>
       <r>  -34.9086    1.0000 </r>
       <r>  -34.9076    1.0000 </r>
       <r>  -34.9017    1.0000 </r>
       <r>  -34.9005    1.0000 </r>
       <r>  -12.2569    1.0000 </r>
       <r>  -12.2299    1.0000 </r>
       <r>  -11.9710    1.0000 </r>
       <r>  -11.9423    1.0000 </r>
       <r>   -5.2107    1.0000 </r>
       <r>   -5.1550    1.0000 </r>
       <r>   -4.6212    1.0000 </r>
       <r>   -4.6063    1.0000 </r>
       <r>   -3.7561    1.0000 </r>
       <r>   -3.6974    1.0000 </r>
       <r>   -3.2702    1.0000 </r>
       <r>   -3.1587    1.0000 </r>
       <r>   -2.1967    1.0000 </r>
       <r>   -2.1666    1.0000 </r>
       <r>   -1.6466    1.0000 </r>
       <r>   -1.5641    1.0000 </r>
       <r>   -0.6506    1.0000 </r>
       <r>   -0.6330    1.0000 </r>
       <r>    2.0156   -0.0000 </r>
       <r>    2.2270   -0.0000 </r>
       <r>    2.5275   -0.0000 </r>
       <r>    2.5564   -0.0000 </r>
       <r>    3.1638    0.0000 </r>
       <r>    3.2696    0.0000 </r>
       <r>    4.2940    0.0000 </r>
       <r>    4.3487    0.0000 </r>
       <r>    7.2108    0.0000 </r>
       <r>    7.4280    0.0000 </r>
       <r>    8.2421    0.0000 </r>
       <r>    8.5838    0.0000 </r>
      </set>
      <set comment="kpoint 26">
       <r>  -35.1171    1.0000 </r>
       <r>  -35.1161    1.0000 </r>
       <r>  -34.9166    1.0000 </r>
       <r>  -34.9155    1.0000 </r>
       <r>  -34.9015    1.0000 </r>
       <r>  -34.9004    1.0000 </r>
       <r>  -12.0207    1.0000 </r>
       <r>  -12.0074    1.0000 </r>
       <r>  -11.8714    1.0000 </r>
       <r>  -11.8579    1.0000 </r>
       <r>   -5.3313    1.0000 </r>
       <r>   -5.3087    1.0000 </r>
       <r>   -4.9281    1.0000 </r>
       <r>   -4.9151    1.0000 </r>
       <r>   -3.8958    1.0000 </r>
       <r>   -3.8463    1.0000 </r>
       <r>   -3.1693    1.0000 </r>
       <r>   -3.1162    1.0000 </r>
       <r>   -2.2089    1.0000 </r>
       <r>   -2.1466    1.0000 </r>
       <r>   -1.9045    1.0000 </r>
       <r>   -1.8061    1.0000 </r>
       <r>   -0.4176    1.0000 </r>
       <r>   -0.3990    1.0000 </r>
       <r>    2.0723   -0.0000 </r>
       <r>    2.1193   -0.0000 </r>
       <r>    2.7849   -0.0000 </r>
       <r>    2.8491   -0.0000 </r>
       <r>    3.4320    0.0000 </r>
       <r>    3.4785    0.0000 </r>
       <r>    4.2570    0.0000 </r>
       <r>    4.3220    0.0000 </r>
       <r>    6.5455    0.0000 </r>
       <r>    6.7357    0.0000 </r>
       <r>    8.8443    0.0000 </r>
       <r>    8.9116    0.0000 </r>
      </set>
      <set comment="kpoint 27">
       <r>  -35.1171    1.0000 </r>
       <r>  -35.1161    1.0000 </r>
       <r>  -34.9166    1.0000 </r>
       <r>  -34.9155    1.0000 </r>
       <r>  -34.9015    1.0000 </r>
       <r>  -34.9004    1.0000 </r>
       <r>  -12.0240    1.0000 </r>
       <r>  -12.0048    1.0000 </r>
       <r>  -11.8740    1.0000 </r>
       <r>  -11.8546    1.0000 </r>
       <r>   -5.3319    1.0000 </r>
       <r>   -5.3077    1.0000 </r>
       <r>   -4.9299    1.0000 </r>
       <r>   -4.9135    1.0000 </r>
       <r>   -3.8962    1.0000 </r>
       <r>   -3.8461    1.0000 </r>
       <r>   -3.1673    1.0000 </r>
       <r>   -3.1194    1.0000 </r>
       <r>   -2.2268    1.0000 </r>
       <r>   -2.1370    1.0000 </r>
       <r>   -1.8982    1.0000 </r>
       <r>   -1.8006    1.0000 </r>
       <r>   -0.4175    1.0000 </r>
       <r>   -0.3998    1.0000 </r>
       <r>    2.0762   -0.0000 </r>
       <r>    2.1155   -0.0000 </r>
       <r>    2.7860   -0.0000 </r>
       <r>    2.8474   -0.0000 </r>
       <r>    3.3837    0.0000 </r>
       <r>    3.5301    0.0000 </r>
       <r>    4.2587    0.0000 </r>
       <r>    4.3204    0.0000 </r>
       <r>    6.5461    0.0000 </r>
       <r>    6.7326    0.0000 </r>
       <r>    8.7772    0.0000 </r>
       <r>    8.9801    0.0000 </r>
      </set>
      <set comment="kpoint 28">
       <r>  -35.0889    1.0000 </r>
       <r>  -35.0879    1.0000 </r>
       <r>  -34.9086    1.0000 </r>
       <r>  -34.9076    1.0000 </r>
       <r>  -34.9017    1.0000 </r>
       <r>  -34.9005    1.0000 </r>
       <r>  -12.2609    1.0000 </r>
       <r>  -12.2268    1.0000 </r>
       <r>  -11.9747    1.0000 </r>
       <r>  -11.9378    1.0000 </r>
       <r>   -5.2107    1.0000 </r>
       <r>   -5.1540    1.0000 </r>
       <r>   -4.6258    1.0000 </r>
       <r>   -4.6017    1.0000 </r>
       <r>   -3.7648    1.0000 </r>
       <r>   -3.6901    1.0000 </r>
       <r>   -3.2727    1.0000 </r>
       <r>   -3.1592    1.0000 </r>
       <r>   -2.2208    1.0000 </r>
       <r>   -2.1487    1.0000 </r>
       <r>   -1.6514    1.0000 </r>
       <r>   -1.5435    1.0000 </r>
       <r>   -0.6495    1.0000 </r>
       <r>   -0.6361    1.0000 </r>
       <r>    2.0206   -0.0000 </r>
       <r>    2.2187   -0.0000 </r>
       <r>    2.5227   -0.0000 </r>
       <r>    2.5636   -0.0000 </r>
       <r>    3.1180    0.0000 </r>
       <r>    3.3214    0.0000 </r>
       <r>    4.2887    0.0000 </r>
       <r>    4.3517    0.0000 </r>
       <r>    7.2269    0.0000 </r>
       <r>    7.4093    0.0000 </r>
       <r>    8.2446    0.0000 </r>
       <r>    8.5383    0.0000 </r>
      </set>
      <set comment="kpoint 29">
       <r>  -35.0383    1.0000 </r>
       <r>  -35.0373    1.0000 </r>
       <r>  -34.9212    1.0000 </r>
       <r>  -34.9202    1.0000 </r>
       <r>  -34.8758    1.0000 </r>
       <r>  -34.8746    1.0000 </r>
       <r>  -12.6378    1.0000 </r>
       <r>  -12.5931    1.0000 </r>
       <r>  -12.1344    1.0000 </r>
       <r>  -12.0807    1.0000 </r>
       <r>   -5.0144    1.0000 </r>
       <r>   -4.9111    1.0000 </r>
       <r>   -4.0901    1.0000 </r>
       <r>   -4.0454    1.0000 </r>
       <r>   -3.7644    1.0000 </r>
       <r>   -3.6448    1.0000 </r>
       <r>   -3.3045    1.0000 </r>
       <r>   -3.1563    1.0000 </r>
       <r>   -2.0632    1.0000 </r>
       <r>   -2.0472    1.0000 </r>
       <r>   -1.3377    1.0000 </r>
       <r>   -1.1834    1.0000 </r>
       <r>   -0.8235    1.0000 </r>
       <r>   -0.8102    1.0000 </r>
       <r>    1.7947   -0.0000 </r>
       <r>    2.0525   -0.0000 </r>
       <r>    2.4030   -0.0000 </r>
       <r>    2.4597   -0.0000 </r>
       <r>    2.7773   -0.0000 </r>
       <r>    2.9913   -0.0000 </r>
       <r>    4.1987    0.0000 </r>
       <r>    4.2674    0.0000 </r>
       <r>    7.3958    0.0000 </r>
       <r>    7.5776    0.0000 </r>
       <r>    8.2486    0.0000 </r>
       <r>    8.4219    0.0000 </r>
      </set>
      <set comment="kpoint 30">
       <r>  -34.9755    1.0000 </r>
       <r>  -34.9745    1.0000 </r>
       <r>  -34.9364    1.0000 </r>
       <r>  -34.9354    1.0000 </r>
       <r>  -34.8454    1.0000 </r>
       <r>  -34.8443    1.0000 </r>
       <r>  -13.0448    1.0000 </r>
       <r>  -12.9941    1.0000 </r>
       <r>  -12.3073    1.0000 </r>
       <r>  -12.2395    1.0000 </r>
       <r>   -4.9383    1.0000 </r>
       <r>   -4.7427    1.0000 </r>
       <r>   -3.8043    1.0000 </r>
       <r>   -3.7188    1.0000 </r>
       <r>   -3.5114    1.0000 </r>
       <r>   -3.3877    1.0000 </r>
       <r>   -3.0852    1.0000 </r>
       <r>   -2.9836    1.0000 </r>
       <r>   -1.9336    1.0000 </r>
       <r>   -1.9284    1.0000 </r>
       <r>   -1.1444    1.0000 </r>
       <r>   -0.9174    1.0000 </r>
       <r>   -0.7716    1.0000 </r>
       <r>   -0.7110    1.0000 </r>
       <r>    1.7685   -0.0000 </r>
       <r>    1.9988   -0.0000 </r>
       <r>    2.3325   -0.0000 </r>
       <r>    2.4140   -0.0000 </r>
       <r>    2.5263   -0.0000 </r>
       <r>    2.7239   -0.0000 </r>
       <r>    3.9424    0.0000 </r>
       <r>    3.9891    0.0000 </r>
       <r>    6.7202    0.0000 </r>
       <r>    6.9942    0.0000 </r>
       <r>    7.7361    0.0000 </r>
       <r>    8.7928    0.0000 </r>
      </set>
      <set comment="kpoint 31">
       <r>  -34.9507    1.0000 </r>
       <r>  -34.9496    1.0000 </r>
       <r>  -34.9134    1.0000 </r>
       <r>  -34.9123    1.0000 </r>
       <r>  -34.8191    1.0000 </r>
       <r>  -34.8180    1.0000 </r>
       <r>  -13.3938    1.0000 </r>
       <r>  -13.3402    1.0000 </r>
       <r>  -12.4552    1.0000 </r>
       <r>  -12.3771    1.0000 </r>
       <r>   -5.1113    1.0000 </r>
       <r>   -4.8479    1.0000 </r>
       <r>   -3.5587    1.0000 </r>
       <r>   -3.5264    1.0000 </r>
       <r>   -3.2196    1.0000 </r>
       <r>   -2.9929    1.0000 </r>
       <r>   -2.4532    1.0000 </r>
       <r>   -2.4321    1.0000 </r>
       <r>   -2.0658    1.0000 </r>
       <r>   -2.0590    1.0000 </r>
       <r>   -1.1817    1.0000 </r>
       <r>   -0.8698    1.0000 </r>
       <r>   -0.5388    1.0000 </r>
       <r>   -0.3805    1.0000 </r>
       <r>    1.9560   -0.0000 </r>
       <r>    2.1951   -0.0000 </r>
       <r>    2.4105   -0.0000 </r>
       <r>    2.4205   -0.0000 </r>
       <r>    2.4808   -0.0000 </r>
       <r>    2.6452   -0.0000 </r>
       <r>    3.5565    0.0000 </r>
       <r>    3.5609    0.0000 </r>
       <r>    6.1831    0.0000 </r>
       <r>    6.5034    0.0000 </r>
       <r>    7.2146    0.0000 </r>
       <r>    8.2005    0.0000 </r>
      </set>
      <set comment="kpoint 32">
       <r>  -34.9608    1.0000 </r>
       <r>  -34.9597    1.0000 </r>
       <r>  -34.8654    1.0000 </r>
       <r>  -34.8643    1.0000 </r>
       <r>  -34.8039    1.0000 </r>
       <r>  -34.8028    1.0000 </r>
       <r>  -13.6253    1.0000 </r>
       <r>  -13.5708    1.0000 </r>
       <r>  -12.5530    1.0000 </r>
       <r>  -12.4687    1.0000 </r>
       <r>   -5.3122    1.0000 </r>
       <r>   -5.0311    1.0000 </r>
       <r>   -3.2496    1.0000 </r>
       <r>   -3.2338    1.0000 </r>
       <r>   -2.9457    1.0000 </r>
       <r>   -2.6744    1.0000 </r>
       <r>   -2.2630    1.0000 </r>
       <r>   -2.2557    1.0000 </r>
       <r>   -1.9898    1.0000 </r>
       <r>   -1.9790    1.0000 </r>
       <r>   -1.2770    1.0000 </r>
       <r>   -0.9148    1.0000 </r>
       <r>   -0.3631    1.0000 </r>
       <r>   -0.1083    1.0000 </r>
       <r>    2.1676   -0.0000 </r>
       <r>    2.3763   -0.0000 </r>
       <r>    2.5032   -0.0000 </r>
       <r>    2.5561   -0.0000 </r>
       <r>    2.6015   -0.0000 </r>
       <r>    2.6463   -0.0000 </r>
       <r>    3.1956    0.0000 </r>
       <r>    3.2370    0.0000 </r>
       <r>    5.8498    0.0000 </r>
       <r>    6.1861    0.0000 </r>
       <r>    6.9770    0.0000 </r>
       <r>    7.8576    0.0000 </r>
      </set>
      <set comment="kpoint 33">
       <r>  -34.9644    1.0000 </r>
       <r>  -34.9634    1.0000 </r>
       <r>  -34.8459    1.0000 </r>
       <r>  -34.8447    1.0000 </r>
       <r>  -34.8005    1.0000 </r>
       <r>  -34.7995    1.0000 </r>
       <r>  -13.7060    1.0000 </r>
       <r>  -13.6515    1.0000 </r>
       <r>  -12.5867    1.0000 </r>
       <r>  -12.5009    1.0000 </r>
       <r>   -5.3903    1.0000 </r>
       <r>   -5.1066    1.0000 </r>
       <r>   -3.1085    1.0000 </r>
       <r>   -3.1035    1.0000 </r>
       <r>   -2.7840    1.0000 </r>
       <r>   -2.4732    1.0000 </r>
       <r>   -2.3485    1.0000 </r>
       <r>   -2.3451    1.0000 </r>
       <r>   -1.9636    1.0000 </r>
       <r>   -1.9614    1.0000 </r>
       <r>   -1.1905    1.0000 </r>
       <r>   -0.8723    1.0000 </r>
       <r>   -0.3044    1.0000 </r>
       <r>   -0.0210    1.0002 </r>
       <r>    2.2983   -0.0000 </r>
       <r>    2.4327   -0.0000 </r>
       <r>    2.4679   -0.0000 </r>
       <r>    2.5602   -0.0000 </r>
       <r>    2.6441   -0.0000 </r>
       <r>    2.6487   -0.0000 </r>
       <r>    3.1411    0.0000 </r>
       <r>    3.1536    0.0000 </r>
       <r>    5.7380    0.0000 </r>
       <r>    6.0786    0.0000 </r>
       <r>    6.8704    0.0000 </r>
       <r>    7.5864    0.0000 </r>
      </set>
      <set comment="kpoint 34">
       <r>  -34.9469    1.0000 </r>
       <r>  -34.9459    1.0000 </r>
       <r>  -34.9447    1.0000 </r>
       <r>  -34.9435    1.0000 </r>
       <r>  -34.8227    1.0000 </r>
       <r>  -34.8216    1.0000 </r>
       <r>  -13.2489    1.0000 </r>
       <r>  -13.1985    1.0000 </r>
       <r>  -12.3937    1.0000 </r>
       <r>  -12.3233    1.0000 </r>
       <r>   -5.0472    1.0000 </r>
       <r>   -4.8153    1.0000 </r>
       <r>   -3.7029    1.0000 </r>
       <r>   -3.6729    1.0000 </r>
       <r>   -3.4757    1.0000 </r>
       <r>   -3.2959    1.0000 </r>
       <r>   -2.3808    1.0000 </r>
       <r>   -2.3782    1.0000 </r>
       <r>   -1.8912    1.0000 </r>
       <r>   -1.8888    1.0000 </r>
       <r>   -1.4030    1.0000 </r>
       <r>   -1.1418    1.0000 </r>
       <r>   -0.6682    1.0000 </r>
       <r>   -0.5950    1.0000 </r>
       <r>    1.9668   -0.0000 </r>
       <r>    2.2487   -0.0000 </r>
       <r>    2.3254   -0.0000 </r>
       <r>    2.3341   -0.0000 </r>
       <r>    2.7114   -0.0000 </r>
       <r>    2.9073   -0.0000 </r>
       <r>    3.5948    0.0000 </r>
       <r>    3.6044    0.0000 </r>
       <r>    6.3885    0.0000 </r>
       <r>    6.6734    0.0000 </r>
       <r>    7.3759    0.0000 </r>
       <r>    8.1471    0.0000 </r>
      </set>
      <set comment="kpoint 35">
       <r>  -34.9938    1.0000 </r>
       <r>  -34.9927    1.0000 </r>
       <r>  -34.9341    1.0000 </r>
       <r>  -34.9330    1.0000 </r>
       <r>  -34.8414    1.0000 </r>
       <r>  -34.8403    1.0000 </r>
       <r>  -12.9815    1.0000 </r>
       <r>  -12.9352    1.0000 </r>
       <r>  -12.2804    1.0000 </r>
       <r>  -12.2202    1.0000 </r>
       <r>   -4.9872    1.0000 </r>
       <r>   -4.8181    1.0000 </r>
       <r>   -3.8465    1.0000 </r>
       <r>   -3.7753    1.0000 </r>
       <r>   -3.7018    1.0000 </r>
       <r>   -3.5902    1.0000 </r>
       <r>   -2.8463    1.0000 </r>
       <r>   -2.7943    1.0000 </r>
       <r>   -1.7834    1.0000 </r>
       <r>   -1.7737    1.0000 </r>
       <r>   -1.3373    1.0000 </r>
       <r>   -1.1683    1.0000 </r>
       <r>   -0.8284    1.0000 </r>
       <r>   -0.8012    1.0000 </r>
       <r>    1.8672   -0.0000 </r>
       <r>    2.0726   -0.0000 </r>
       <r>    2.2924   -0.0000 </r>
       <r>    2.3816   -0.0000 </r>
       <r>    2.7688   -0.0000 </r>
       <r>    2.9523   -0.0000 </r>
       <r>    3.8995    0.0000 </r>
       <r>    3.9333    0.0000 </r>
       <r>    6.8042    0.0000 </r>
       <r>    7.0462    0.0000 </r>
       <r>    7.7985    0.0000 </r>
       <r>    8.3943    0.0000 </r>
      </set>
      <set comment="kpoint 36">
       <r>  -35.0384    1.0000 </r>
       <r>  -35.0373    1.0000 </r>
       <r>  -34.9212    1.0000 </r>
       <r>  -34.9202    1.0000 </r>
       <r>  -34.8757    1.0000 </r>
       <r>  -34.8746    1.0000 </r>
[...]
       <r>    -2.1025     2.4240    18.6744 </r>
       <r>    -1.9400     3.8493    19.2998 </r>
       <r>    -1.7775     3.4823    19.8655 </r>
       <r>    -1.6151     3.2190    20.3885 </r>
       <r>    -1.4526     3.0153    20.8784 </r>
       <r>    -1.2902     2.4555    21.2773 </r>
       <r>    -1.1277     2.0609    21.6122 </r>
       <r>    -0.9652     1.4473    21.8473 </r>
       <r>    -0.8028     3.4525    22.4082 </r>
       <r>    -0.6403     2.9572    22.8886 </r>
       <r>    -0.4778     2.2705    23.2575 </r>
       <r>    -0.3154     2.5742    23.6757 </r>
       <r>    -0.1529     1.0540    23.8470 </r>
       <r>     0.0096     0.6559    23.9535 </r>
       <r>     0.1720     0.1848    23.9836 </r>
       <r>     0.3345     0.1052    24.0006 </r>
       <r>     0.4969    -0.0040    24.0000 </r>
       <r>     0.6594    -0.0000    24.0000 </r>
       <r>     0.8219    -0.0000    24.0000 </r>
       <r>     0.9843    -0.0000    24.0000 </r>
       <r>     1.1468    -0.0000    24.0000 </r>
       <r>     1.3093    -0.0000    24.0000 </r>
       <r>     1.4717    -0.0015    23.9998 </r>
       <r>     1.6342     0.0113    24.0016 </r>
       <r>     1.7967     0.8483    24.1394 </r>
       <r>     1.9591     1.9422    24.4549 </r>
       <r>     2.1216     4.7920    25.2335 </r>
       <r>     2.2840     4.1630    25.9098 </r>
       <r>     2.4465     4.3565    26.6176 </r>
       <r>     2.6090     5.2229    27.4661 </r>
       <r>     2.7714     3.7274    28.0717 </r>
       <r>     2.9339     3.1091    28.5768 </r>
       <r>     3.0964     2.4848    28.9805 </r>
       <r>     3.2588     3.0026    29.4683 </r>
       <r>     3.4213     1.6586    29.7378 </r>
       <r>     3.5838     1.9897    30.0610 </r>
       <r>     3.7462     1.2546    30.2648 </r>
       <r>     3.9087     1.4846    30.5060 </r>
       <r>     4.0711     1.9613    30.8247 </r>
       <r>     4.2336     3.0939    31.3273 </r>
       <r>     4.3961     1.9258    31.6402 </r>
       <r>     4.5585     1.1737    31.8309 </r>
       <r>     4.7210     0.8413    31.9675 </r>
       <r>     4.8835     0.2089    32.0015 </r>
       <r>     5.0459    -0.0090    32.0000 </r>
       <r>     5.2084    -0.0010    31.9999 </r>
       <r>     5.3709     0.0130    32.0020 </r>
       <r>     5.5333     0.1919    32.0331 </r>
       <r>     5.6958     0.1045    32.0501 </r>
       <r>     5.8582     0.4860    32.1291 </r>
       <r>     6.0207     0.3013    32.1780 </r>
       <r>     6.1832     0.6553    32.2845 </r>
       <r>     6.3456     0.8852    32.4283 </r>
       <r>     6.5081     0.8438    32.5654 </r>
       <r>     6.6706     1.2323    32.7656 </r>
       <r>     6.8330     1.4753    33.0053 </r>
       <r>     6.9955     1.5996    33.2651 </r>
       <r>     7.1579     1.5981    33.5248 </r>
       <r>     7.3204     1.5520    33.7769 </r>
       <r>     7.4829     1.5556    34.0296 </r>
       <r>     7.6453     1.6884    34.3040 </r>
       <r>     7.8078     1.2223    34.5025 </r>
       <r>     7.9703     1.1248    34.6853 </r>
       <r>     8.1327     1.3519    34.9049 </r>
       <r>     8.2952     2.4513    35.3032 </r>
       <r>     8.4577     1.7117    35.5813 </r>
       <r>     8.6201     0.9918    35.7424 </r>
       <r>     8.7826     0.8281    35.8769 </r>
       <r>     8.9450     0.5551    35.9671 </r>
       <r>     9.1075     0.2123    36.0016 </r>
       <r>     9.2700    -0.0098    36.0000 </r>
       <r>     9.4324    -0.0000    36.0000 </r>
       <r>     9.5949    -0.0000    36.0000 </r>
       <r>     9.7574     0.0000    36.0000 </r>
       <r>     9.9198     0.0000    36.0000 </r>
       <r>    10.0823     0.0000    36.0000 </r>
       <r>    10.2448     0.0000    36.0000 </r>
       <r>    10.4072     0.0000    36.0000 </r>
       <r>    10.5697     0.0000    36.0000 </r>
       <r>    10.7321     0.0000    36.0000 </r>
       <r>    10.8946     0.0000    36.0000 </r>
       <r>    11.0571     0.0000    36.0000 </r>
       <r>    11.2195     0.0000    36.0000 </r>
       <r>    11.3820     0.0000    36.0000 </r>
      </set>
      <set comment="spin 2">
       <r>   -37.3571     0.0000     0.0000 </r>
       <r>   -37.1946     0.0000     0.0000 </r>
       <r>   -37.0321     0.0000     0.0000 </r>
       <r>   -36.8697     0.0000     0.0000 </r>
       <r>   -36.7072     0.0000     0.0000 </r>
       <r>   -36.5448     0.0000     0.0000 </r>
       <r>   -36.3823     0.0000     0.0000 </r>
       <r>   -36.2198     0.0000     0.0000 </r>
       <r>   -36.0574    -0.0000    -0.0000 </r>
       <r>   -35.8949    -0.0000    -0.0000 </r>
       <r>   -35.7324    -0.0000    -0.0000 </r>
       <r>   -35.5700    -0.0000    -0.0000 </r>
       <r>   -35.4075    -0.0009    -0.0001 </r>
       <r>   -35.2450    -0.1931    -0.0315 </r>
       <r>   -35.0826     4.3086     0.6685 </r>
       <r>   -34.9201    15.5593     3.1963 </r>
       <r>   -34.7577    17.3426     6.0138 </r>
       <r>   -34.5952    -0.0626     6.0037 </r>
       <r>   -34.4327    -0.0226     6.0000 </r>
       <r>   -34.2703    -0.0000     6.0000 </r>
       <r>   -34.1078    -0.0000     6.0000 </r>
       <r>   -33.9453     0.0000     6.0000 </r>
       <r>   -33.7829     0.0000     6.0000 </r>
       <r>   -33.6204     0.0000     6.0000 </r>
       <r>   -33.4579     0.0000     6.0000 </r>
       <r>   -33.2955     0.0000     6.0000 </r>
       <r>   -33.1330     0.0000     6.0000 </r>
       <r>   -32.9706     0.0000     6.0000 </r>
       <r>   -32.8081     0.0000     6.0000 </r>
       <r>   -32.6456     0.0000     6.0000 </r>
       <r>   -32.4832     0.0000     6.0000 </r>
       <r>   -32.3207     0.0000     6.0000 </r>
       <r>   -32.1582     0.0000     6.0000 </r>
       <r>   -31.9958     0.0000     6.0000 </r>
       <r>   -31.8333     0.0000     6.0000 </r>
       <r>   -31.6708     0.0000     6.0000 </r>
       <r>   -31.5084     0.0000     6.0000 </r>
       <r>   -31.3459     0.0000     6.0000 </r>
       <r>   -31.1835     0.0000     6.0000 </r>
       <r>   -31.0210     0.0000     6.0000 </r>
       <r>   -30.8585     0.0000     6.0000 </r>
       <r>   -30.6961     0.0000     6.0000 </r>
       <r>   -30.5336     0.0000     6.0000 </r>
       <r>   -30.3711     0.0000     6.0000 </r>
       <r>   -30.2087     0.0000     6.0000 </r>
       <r>   -30.0462     0.0000     6.0000 </r>
       <r>   -29.8837     0.0000     6.0000 </r>
       <r>   -29.7213     0.0000     6.0000 </r>
       <r>   -29.5588     0.0000     6.0000 </r>
       <r>   -29.3964     0.0000     6.0000 </r>
       <r>   -29.2339     0.0000     6.0000 </r>
       <r>   -29.0714     0.0000     6.0000 </r>
       <r>   -28.9090     0.0000     6.0000 </r>
       <r>   -28.7465     0.0000     6.0000 </r>
       <r>   -28.5840     0.0000     6.0000 </r>
       <r>   -28.4216     0.0000     6.0000 </r>
       <r>   -28.2591     0.0000     6.0000 </r>
       <r>   -28.0966     0.0000     6.0000 </r>
       <r>   -27.9342     0.0000     6.0000 </r>
       <r>   -27.7717     0.0000     6.0000 </r>
       <r>   -27.6093     0.0000     6.0000 </r>
       <r>   -27.4468     0.0000     6.0000 </r>
       <r>   -27.2843     0.0000     6.0000 </r>
       <r>   -27.1219     0.0000     6.0000 </r>
       <r>   -26.9594     0.0000     6.0000 </r>
       <r>   -26.7969     0.0000     6.0000 </r>
       <r>   -26.6345     0.0000     6.0000 </r>
       <r>   -26.4720     0.0000     6.0000 </r>
       <r>   -26.3095     0.0000     6.0000 </r>
       <r>   -26.1471     0.0000     6.0000 </r>
       <r>   -25.9846     0.0000     6.0000 </r>
       <r>   -25.8222     0.0000     6.0000 </r>
       <r>   -25.6597     0.0000     6.0000 </r>
       <r>   -25.4972     0.0000     6.0000 </r>
       <r>   -25.3348     0.0000     6.0000 </r>
       <r>   -25.1723     0.0000     6.0000 </r>
       <r>   -25.0098     0.0000     6.0000 </r>
       <r>   -24.8474     0.0000     6.0000 </r>
       <r>   -24.6849     0.0000     6.0000 </r>
       <r>   -24.5224     0.0000     6.0000 </r>
       <r>   -24.3600     0.0000     6.0000 </r>
       <r>   -24.1975     0.0000     6.0000 </r>
       <r>   -24.0351     0.0000     6.0000 </r>
       <r>   -23.8726     0.0000     6.0000 </r>
       <r>   -23.7101     0.0000     6.0000 </r>
       <r>   -23.5477     0.0000     6.0000 </r>
       <r>   -23.3852     0.0000     6.0000 </r>
       <r>   -23.2227     0.0000     6.0000 </r>
       <r>   -23.0603     0.0000     6.0000 </r>
       <r>   -22.8978     0.0000     6.0000 </r>
       <r>   -22.7353     0.0000     6.0000 </r>
       <r>   -22.5729     0.0000     6.0000 </r>
       <r>   -22.4104     0.0000     6.0000 </r>
       <r>   -22.2480     0.0000     6.0000 </r>
       <r>   -22.0855     0.0000     6.0000 </r>
       <r>   -21.9230     0.0000     6.0000 </r>
       <r>   -21.7606     0.0000     6.0000 </r>
       <r>   -21.5981     0.0000     6.0000 </r>
       <r>   -21.4356     0.0000     6.0000 </r>
       <r>   -21.2732     0.0000     6.0000 </r>
       <r>   -21.1107     0.0000     6.0000 </r>
       <r>   -20.9482     0.0000     6.0000 </r>
       <r>   -20.7858     0.0000     6.0000 </r>
       <r>   -20.6233     0.0000     6.0000 </r>
       <r>   -20.4609     0.0000     6.0000 </r>
       <r>   -20.2984     0.0000     6.0000 </r>
       <r>   -20.1359     0.0000     6.0000 </r>
       <r>   -19.9735     0.0000     6.0000 </r>
       <r>   -19.8110     0.0000     6.0000 </r>
       <r>   -19.6485     0.0000     6.0000 </r>
       <r>   -19.4861     0.0000     6.0000 </r>
       <r>   -19.3236     0.0000     6.0000 </r>
       <r>   -19.1612     0.0000     6.0000 </r>
       <r>   -18.9987     0.0000     6.0000 </r>
       <r>   -18.8362     0.0000     6.0000 </r>
       <r>   -18.6738     0.0000     6.0000 </r>
       <r>   -18.5113     0.0000     6.0000 </r>
       <r>   -18.3488     0.0000     6.0000 </r>
       <r>   -18.1864     0.0000     6.0000 </r>
       <r>   -18.0239     0.0000     6.0000 </r>
       <r>   -17.8614     0.0000     6.0000 </r>
       <r>   -17.6990     0.0000     6.0000 </r>
       <r>   -17.5365     0.0000     6.0000 </r>
       <r>   -17.3741     0.0000     6.0000 </r>
       <r>   -17.2116     0.0000     6.0000 </r>
       <r>   -17.0491     0.0000     6.0000 </r>
       <r>   -16.8867     0.0000     6.0000 </r>
       <r>   -16.7242     0.0000     6.0000 </r>
       <r>   -16.5617     0.0000     6.0000 </r>
       <r>   -16.3993     0.0000     6.0000 </r>
       <r>   -16.2368     0.0000     6.0000 </r>
       <r>   -16.0743     0.0000     6.0000 </r>
       <r>   -15.9119     0.0000     6.0000 </r>
       <r>   -15.7494     0.0000     6.0000 </r>
       <r>   -15.5870     0.0000     6.0000 </r>
       <r>   -15.4245     0.0000     6.0000 </r>
       <r>   -15.2620     0.0000     6.0000 </r>
       <r>   -15.0996     0.0000     6.0000 </r>
       <r>   -14.9371     0.0000     6.0000 </r>
       <r>   -14.7746    -0.0000     6.0000 </r>
       <r>   -14.6122    -0.0000     6.0000 </r>
       <r>   -14.4497    -0.0000     6.0000 </r>
       <r>   -14.2872    -0.0000     6.0000 </r>
       <r>   -14.1248    -0.0012     5.9998 </r>
       <r>   -13.9623     0.0136     6.0020 </r>
       <r>   -13.7999     0.4052     6.0678 </r>
       <r>   -13.6374     0.5392     6.1555 </r>
       <r>   -13.4749     0.4290     6.2252 </r>
       <r>   -13.3125     0.7594     6.3485 </r>
       <r>   -13.1500     0.5075     6.4310 </r>
       <r>   -12.9875     0.6131     6.5306 </r>
       <r>   -12.8251     0.8518     6.6690 </r>
       <r>   -12.6626     0.5751     6.7624 </r>
       <r>   -12.5001     2.3935     7.1513 </r>
       <r>   -12.3377     2.0017     7.4765 </r>
       <r>   -12.1752     3.6036     8.0619 </r>
       <r>   -12.0128     4.2512     8.7526 </r>
       <r>   -11.8503     5.7427     9.6856 </r>
       <r>   -11.6878     2.0003    10.0105 </r>
       <r>   -11.5254    -0.0639    10.0002 </r>
       <r>   -11.3629    -0.0009    10.0000 </r>
       <r>   -11.2004    -0.0000    10.0000 </r>
       <r>   -11.0380    -0.0000    10.0000 </r>
       <r>   -10.8755     0.0000    10.0000 </r>
       <r>   -10.7130     0.0000    10.0000 </r>
       <r>   -10.5506     0.0000    10.0000 </r>
       <r>   -10.3881     0.0000    10.0000 </r>
       <r>   -10.2257     0.0000    10.0000 </r>
       <r>   -10.0632     0.0000    10.0000 </r>
       <r>    -9.9007     0.0000    10.0000 </r>
       <r>    -9.7383     0.0000    10.0000 </r>
       <r>    -9.5758     0.0000    10.0000 </r>
       <r>    -9.4133     0.0000    10.0000 </r>
       <r>    -9.2509     0.0000    10.0000 </r>
       <r>    -9.0884     0.0000    10.0000 </r>
       <r>    -8.9259     0.0000    10.0000 </r>
       <r>    -8.7635     0.0000    10.0000 </r>
       <r>    -8.6010     0.0000    10.0000 </r>
       <r>    -8.4386     0.0000    10.0000 </r>
       <r>    -8.2761     0.0000    10.0000 </r>
       <r>    -8.1136     0.0000    10.0000 </r>
       <r>    -7.9512     0.0000    10.0000 </r>
       <r>    -7.7887     0.0000    10.0000 </r>
       <r>    -7.6262     0.0000    10.0000 </r>
       <r>    -7.4638     0.0000    10.0000 </r>
       <r>    -7.3013     0.0000    10.0000 </r>
       <r>    -7.1388     0.0000    10.0000 </r>
       <r>    -6.9764     0.0000    10.0000 </r>
       <r>    -6.8139     0.0000    10.0000 </r>
       <r>    -6.6515     0.0000    10.0000 </r>
       <r>    -6.4890    -0.0000    10.0000 </r>
       <r>    -6.3265    -0.0000    10.0000 </r>
       <r>    -6.1641    -0.0000    10.0000 </r>
       <r>    -6.0016    -0.0000    10.0000 </r>
       <r>    -5.8391    -0.0049     9.9992 </r>
       <r>    -5.6767     0.0921    10.0142 </r>
       <r>    -5.5142     1.1099    10.1945 </r>
       <r>    -5.3517     1.6094    10.4560 </r>
       <r>    -5.1893     2.5165    10.8648 </r>
       <r>    -5.0268     3.7708    11.4774 </r>
       <r>    -4.8644     4.2786    12.1725 </r>
       <r>    -4.7019     1.8864    12.4790 </r>
       <r>    -4.5394     2.6877    12.9157 </r>
       <r>    -4.3770     0.3645    12.9749 </r>
       <r>    -4.2145     0.6580    13.0818 </r>
       <r>    -4.0520     1.0783    13.2570 </r>
       <r>    -3.8896     2.6481    13.6872 </r>
       <r>    -3.7271     5.2063    14.5330 </r>
       <r>    -3.5646     3.6376    15.1240 </r>
       <r>    -3.4022     1.7183    15.4031 </r>
       <r>    -3.2397     1.7902    15.6940 </r>
       <r>    -3.0773     5.4117    16.5732 </r>
       <r>    -2.9148     4.1043    17.2400 </r>
       <r>    -2.7523     2.2525    17.6059 </r>
       <r>    -2.5899     0.9566    17.7614 </r>
       <r>    -2.4274     1.6851    18.0351 </r>
       <r>    -2.2649     1.5142    18.2811 </r>
       <r>    -2.1025     2.4297    18.6759 </r>
       <r>    -1.9400     3.8487    19.3011 </r>
       <r>    -1.7775     3.4821    19.8669 </r>
       <r>    -1.6151     3.2197    20.3899 </r>
       <r>    -1.4526     3.0159    20.8799 </r>
       <r>    -1.2902     2.4481    21.2776 </r>
       <r>    -1.1277     2.0663    21.6133 </r>
       <r>    -0.9652     1.4469    21.8484 </r>
       <r>    -0.8028     3.4537    22.4095 </r>
       <r>    -0.6403     2.9564    22.8898 </r>
       <r>    -0.4778     2.2673    23.2581 </r>
       <r>    -0.3154     2.5734    23.6762 </r>
       <r>    -0.1529     1.0529    23.8473 </r>
       <r>     0.0096     0.6538    23.9535 </r>
       <r>     0.1720     0.1850    23.9836 </r>
       <r>     0.3345     0.1051    24.0006 </r>
       <r>     0.4969    -0.0040    24.0000 </r>
       <r>     0.6594    -0.0000    24.0000 </r>
       <r>     0.8219    -0.0000    24.0000 </r>
       <r>     0.9843    -0.0000    24.0000 </r>
       <r>     1.1468    -0.0000    24.0000 </r>
       <r>     1.3093    -0.0000    24.0000 </r>
       <r>     1.4717    -0.0015    23.9998 </r>
       <r>     1.6342     0.0118    24.0017 </r>
       <r>     1.7967     0.8488    24.1396 </r>
       <r>     1.9591     1.9443    24.4555 </r>
       <r>     2.1216     4.8027    25.2357 </r>
       <r>     2.2840     4.1564    25.9110 </r>
       <r>     2.4465     4.3640    26.6200 </r>
       <r>     2.6090     5.2165    27.4675 </r>
       <r>     2.7714     3.7243    28.0725 </r>
       <r>     2.9339     3.1089    28.5776 </r>
       <r>     3.0964     2.4847    28.9813 </r>
       <r>     3.2588     3.0016    29.4689 </r>
       <r>     3.4213     1.6574    29.7382 </r>
       <r>     3.5838     1.9896    30.0615 </r>
       <r>     3.7462     1.2536    30.2651 </r>
       <r>     3.9087     1.4859    30.5065 </r>
       <r>     4.0711     1.9613    30.8252 </r>
       <r>     4.2336     3.0939    31.3278 </r>
       <r>     4.3961     1.9246    31.6405 </r>
       <r>     4.5585     1.1730    31.8311 </r>
       <r>     4.7210     0.8406    31.9676 </r>
       <r>     4.8835     0.2083    32.0015 </r>
       <r>     5.0459    -0.0090    32.0000 </r>
       <r>     5.2084    -0.0007    31.9999 </r>
       <r>     5.3709     0.0085    32.0013 </r>
       <r>     5.5333     0.1746    32.0297 </r>
       <r>     5.6958     0.0970    32.0454 </r>
       <r>     5.8582     0.3660    32.1049 </r>
       <r>     6.0207     0.4342    32.1754 </r>
       <r>     6.1832     0.4541    32.2492 </r>
       <r>     6.3456     1.0984    32.4276 </r>
       <r>     6.5081     0.8307    32.5626 </r>
       <r>     6.6706     1.1544    32.7501 </r>
       <r>     6.8330     1.7408    33.0330 </r>
       <r>     6.9955     1.2585    33.2374 </r>
       <r>     7.1579     1.8223    33.5335 </r>
       <r>     7.3204     1.4944    33.7763 </r>
       <r>     7.4829     1.4264    34.0080 </r>
       <r>     7.6453     1.7514    34.2925 </r>
       <r>     7.8078     1.5993    34.5524 </r>
       <r>     7.9703     0.8096    34.6839 </r>
       <r>     8.1327     1.4376    34.9175 </r>
       <r>     8.2952     2.4361    35.3133 </r>
       <r>     8.4577     2.0272    35.6426 </r>
       <r>     8.6201     0.7511    35.7646 </r>
       <r>     8.7826     0.6121    35.8641 </r>
       <r>     8.9450     0.5507    35.9535 </r>
       <r>     9.1075     0.1869    35.9839 </r>
       <r>     9.2700     0.1029    36.0006 </r>
       <r>     9.4324    -0.0038    36.0000 </r>
       <r>     9.5949    -0.0000    36.0000 </r>
       <r>     9.7574    -0.0000    36.0000 </r>
       <r>     9.9198    -0.0000    36.0000 </r>
       <r>    10.0823     0.0000    36.0000 </r>
       <r>    10.2448     0.0000    36.0000 </r>
       <r>    10.4072     0.0000    36.0000 </r>
       <r>    10.5697     0.0000    36.0000 </r>
       <r>    10.7321     0.0000    36.0000 </r>
       <r>    10.8946     0.0000    36.0000 </r>
       <r>    11.0571     0.0000    36.0000 </r>
       <r>    11.2195     0.0000    36.0000 </r>
       <r>    11.3820     0.0000    36.0000 </r>
      </set>
     </set>
    </array>
   </total>
  </dos>
 </calculation>
 <structure name="finalpos" >
  <crystal>
   <varray name="basis" >
    <v>       3.19031700       0.00000000       0.00000000 </v>
    <v>      -1.59515800       2.76289700       0.00000000 </v>
    <v>       0.00000000       0.00000000      23.14049200 </v>
   </varray>
   <i name="volume">    203.97226633 </i>
   <varray name="rec_basis" >
    <v>       0.31344848       0.18096941       0.00000000 </v>
    <v>       0.00000000       0.36193894       0.00000000 </v>
    <v>       0.00000000       0.00000000       0.04321429 </v>
   </varray>
  </crystal>
  <varray name="positions" >
   <v>       0.66666700       0.33333300       0.06785900 </v>
   <v>       0.33333300       0.66666700       0.00000000 </v>
   <v>       0.33333300       0.66666700       0.13571500 </v>
   <v>       0.23809557       0.90476157       0.35482300 </v>
   <v>       0.90476157       0.23809557       0.28696500 </v>
   <v>       0.90476157       0.23809557       0.42267900 </v>
  </varray>
 </structure>
</modeling>
