<?xml version="1.0" encoding="ISO-8859-1"?>
<modeling>
 <generator>
  <i name="program" type="string">vasp </i>
  <i name="version" type="string">5.4.1  </i>
  <i name="subversion" type="string">24Jun15 (build May 10 2016 14:18:23) complex                          parallel </i>
  <i name="platform" type="string">IFC91_ompi </i>
  <i name="date" type="string">2016 12 09 </i>
  <i name="time" type="string">14:22:25 </i>
 </generator>
 <incar>
  <i type="string" name="PREC">accurate</i>
  <i type="string" name="ALGO"> Fast</i>
  <i type="int" name="ISPIN">     2</i>
  <i type="int" name="IBRION">     2</i>
  <i name="EDIFF">      0.00010000</i>
  <i type="int" name="NSW">     0</i>
  <i type="int" name="ISIF">     3</i>
  <i name="ENCUT">    500.00000000</i>
  <v name="MAGMOM">      6.00000000      0.50000000      0.50000000      6.00000000      0.50000000      0.50000000</v>
  <i type="string" name="LREAL"> Auto</i>
  <i type="int" name="ISMEAR">     1</i>
  <i name="SIGMA">      0.10000000</i>
  <i type="logical" name="LWAVE"> F  </i>
  <i type="logical" name="LCHARG"> F  </i>
  <i type="logical" name="LVTOT"> T  </i>
  <i type="logical" name="LVHAR"> T  </i>
  <i type="logical" name="LAECHG"> F  </i>
  <v type="int" name="KPOINT_BSE">    -1     0     0     0</v>
  <i type="string" name="GGA"> Bo</i>
  <i name="PARAM1">      0.18333333</i>
  <i name="PARAM2">      0.22000000</i>
  <i type="logical" name="LUSE_VDW"> T  </i>
  <i name="AGGAC">      0.00000000</i>
 </incar>
 <kpoints>
  <generation param="Gamma">
   <v type="int" name="divisions">      13       13        1 </v>
   <v name="usershift">      0.00000000       0.00000000       0.00000000 </v>
   <v name="genvec1">      0.07692308       0.00000000       0.00000000 </v>
   <v name="genvec2">      0.00000000       0.07692308       0.00000000 </v>
   <v name="genvec3">      0.00000000       0.00000000       1.00000000 </v>
   <v name="shift">      0.00000000       0.00000000       0.00000000 </v>
  </generation>
  <varray name="kpointlist" >
   <v>       0.00000000       0.00000000       0.00000000 </v>
   <v>       0.07692308      -0.00000000       0.00000000 </v>
   <v>       0.15384615       0.00000000       0.00000000 </v>
   <v>       0.23076923       0.00000000       0.00000000 </v>
   <v>       0.30769231      -0.00000000       0.00000000 </v>
   <v>       0.38461538       0.00000000       0.00000000 </v>
   <v>       0.46153846       0.00000000       0.00000000 </v>
   <v>       0.00000000       0.07692308       0.00000000 </v>
   <v>       0.07692308       0.07692308       0.00000000 </v>
   <v>       0.15384615       0.07692308       0.00000000 </v>
   <v>       0.23076923       0.07692308       0.00000000 </v>
   <v>       0.30769231       0.07692308       0.00000000 </v>
   <v>       0.38461538       0.07692308       0.00000000 </v>
   <v>       0.46153846       0.07692308       0.00000000 </v>
   <v>      -0.46153846       0.07692308       0.00000000 </v>
   <v>      -0.38461538       0.07692308       0.00000000 </v>
   <v>      -0.30769231       0.07692308       0.00000000 </v>
   <v>      -0.23076923       0.07692308       0.00000000 </v>
   <v>      -0.15384615       0.07692308       0.00000000 </v>
   <v>      -0.07692308       0.07692308       0.00000000 </v>
   <v>       0.00000000       0.15384615       0.00000000 </v>
   <v>       0.07692308       0.15384615       0.00000000 </v>
   <v>       0.15384615       0.15384615       0.00000000 </v>
   <v>       0.23076923       0.15384615       0.00000000 </v>
   <v>       0.30769231       0.15384615       0.00000000 </v>
   <v>       0.38461538       0.15384615       0.00000000 </v>
   <v>       0.46153846       0.15384615       0.00000000 </v>
   <v>      -0.46153846       0.15384615       0.00000000 </v>
   <v>      -0.38461538       0.15384615       0.00000000 </v>
   <v>      -0.30769231       0.15384615       0.00000000 </v>
   <v>      -0.23076923       0.15384615       0.00000000 </v>
   <v>      -0.15384615       0.15384615       0.00000000 </v>
   <v>      -0.07692308       0.15384615       0.00000000 </v>
   <v>       0.00000000       0.23076923       0.00000000 </v>
   <v>       0.07692308       0.23076923       0.00000000 </v>
   <v>       0.15384615       0.23076923       0.00000000 </v>
   <v>       0.23076923       0.23076923       0.00000000 </v>
   <v>       0.30769231       0.23076923       0.00000000 </v>
   <v>       0.38461538       0.23076923       0.00000000 </v>
   <v>       0.46153846       0.23076923       0.00000000 </v>
   <v>      -0.46153846       0.23076923       0.00000000 </v>
   <v>      -0.38461538       0.23076923       0.00000000 </v>
   <v>      -0.30769231       0.23076923       0.00000000 </v>
   <v>      -0.23076923       0.23076923       0.00000000 </v>
   <v>      -0.15384615       0.23076923       0.00000000 </v>
   <v>      -0.07692308       0.23076923       0.00000000 </v>
   <v>       0.00000000       0.30769231       0.00000000 </v>
   <v>       0.07692308       0.30769231       0.00000000 </v>
   <v>       0.15384615       0.30769231       0.00000000 </v>
   <v>       0.23076923       0.30769231       0.00000000 </v>
   <v>       0.30769231       0.30769231       0.00000000 </v>
   <v>       0.38461538       0.30769231       0.00000000 </v>
   <v>       0.46153846       0.30769231       0.00000000 </v>
   <v>      -0.46153846       0.30769231       0.00000000 </v>
   <v>      -0.38461538       0.30769231       0.00000000 </v>
   <v>      -0.30769231       0.30769231       0.00000000 </v>
   <v>      -0.23076923       0.30769231       0.00000000 </v>
   <v>      -0.15384615       0.30769231       0.00000000 </v>
   <v>      -0.07692308       0.30769231       0.00000000 </v>
   <v>       0.00000000       0.38461538       0.00000000 </v>
   <v>       0.07692308       0.38461538       0.00000000 </v>
   <v>       0.15384615       0.38461538       0.00000000 </v>
   <v>       0.23076923       0.38461538       0.00000000 </v>
   <v>       0.30769231       0.38461538       0.00000000 </v>
   <v>       0.38461538       0.38461538       0.00000000 </v>
   <v>       0.46153846       0.38461538       0.00000000 </v>
   <v>      -0.46153846       0.38461538       0.00000000 </v>
   <v>      -0.38461538       0.38461538       0.00000000 </v>
   <v>      -0.30769231       0.38461538       0.00000000 </v>
   <v>      -0.23076923       0.38461538       0.00000000 </v>
   <v>      -0.15384615       0.38461538       0.00000000 </v>
   <v>      -0.07692308       0.38461538       0.00000000 </v>
   <v>       0.00000000       0.46153846       0.00000000 </v>
   <v>       0.07692308       0.46153846       0.00000000 </v>
   <v>       0.15384615       0.46153846       0.00000000 </v>
   <v>       0.23076923       0.46153846       0.00000000 </v>
   <v>       0.30769231       0.46153846       0.00000000 </v>
   <v>       0.38461538       0.46153846       0.00000000 </v>
   <v>       0.46153846       0.46153846       0.00000000 </v>
   <v>      -0.46153846       0.46153846       0.00000000 </v>
   <v>      -0.38461538       0.46153846       0.00000000 </v>
   <v>      -0.30769231       0.46153846       0.00000000 </v>
   <v>      -0.23076923       0.46153846       0.00000000 </v>
   <v>      -0.15384615       0.46153846       0.00000000 </v>
   <v>      -0.07692308       0.46153846       0.00000000 </v>
  </varray>
  <varray name="weights" >
   <v>       0.00591716 </v>
   <v>       0.01183432 </v>
   <v>       0.01183432 </v>
   <v>       0.01183432 </v>
   <v>       0.01183432 </v>
   <v>       0.01183432 </v>
   <v>       0.01183432 </v>
   <v>       0.01183432 </v>
   <v>       0.01183432 </v>
   <v>       0.01183432 </v>
   <v>       0.01183432 </v>
   <v>       0.01183432 </v>
   <v>       0.01183432 </v>
   <v>       0.01183432 </v>
   <v>       0.01183432 </v>
   <v>       0.01183432 </v>
   <v>       0.01183432 </v>
   <v>       0.01183432 </v>
   <v>       0.01183432 </v>
   <v>       0.01183432 </v>
   <v>       0.01183432 </v>
   <v>       0.01183432 </v>
   <v>       0.01183432 </v>
   <v>       0.01183432 </v>
   <v>       0.01183432 </v>
   <v>       0.01183432 </v>
   <v>       0.01183432 </v>
   <v>       0.01183432 </v>
   <v>       0.01183432 </v>
   <v>       0.01183432 </v>
   <v>       0.01183432 </v>
   <v>       0.01183432 </v>
   <v>       0.01183432 </v>
   <v>       0.01183432 </v>
   <v>       0.01183432 </v>
   <v>       0.01183432 </v>
   <v>       0.01183432 </v>
   <v>       0.01183432 </v>
   <v>       0.01183432 </v>
   <v>       0.01183432 </v>
   <v>       0.01183432 </v>
   <v>       0.01183432 </v>
   <v>       0.01183432 </v>
   <v>       0.01183432 </v>
   <v>       0.01183432 </v>
   <v>       0.01183432 </v>
   <v>       0.01183432 </v>
   <v>       0.01183432 </v>
   <v>       0.01183432 </v>
   <v>       0.01183432 </v>
   <v>       0.01183432 </v>
   <v>       0.01183432 </v>
   <v>       0.01183432 </v>
   <v>       0.01183432 </v>
   <v>       0.01183432 </v>
   <v>       0.01183432 </v>
   <v>       0.01183432 </v>
   <v>       0.01183432 </v>
   <v>       0.01183432 </v>
   <v>       0.01183432 </v>
   <v>       0.01183432 </v>
   <v>       0.01183432 </v>
   <v>       0.01183432 </v>
   <v>       0.01183432 </v>
   <v>       0.01183432 </v>
   <v>       0.01183432 </v>
   <v>       0.01183432 </v>
   <v>       0.01183432 </v>
   <v>       0.01183432 </v>
   <v>       0.01183432 </v>
   <v>       0.01183432 </v>
   <v>       0.01183432 </v>
   <v>       0.01183432 </v>
   <v>       0.01183432 </v>
   <v>       0.01183432 </v>
   <v>       0.01183432 </v>
   <v>       0.01183432 </v>
   <v>       0.01183432 </v>
   <v>       0.01183432 </v>
   <v>       0.01183432 </v>
   <v>       0.01183432 </v>
   <v>       0.01183432 </v>
   <v>       0.01183432 </v>
   <v>       0.01183432 </v>
   <v>       0.01183432 </v>
  </varray>
 </kpoints>
 <parameters>
  <separator name="general" >
   <i type="string" name="SYSTEM">unknown system</i>
   <i type="logical" name="LCOMPAT"> F  </i>
  </separator>
  <separator name="electronic" >
   <i type="string" name="PREC">accura</i>
   <i name="ENMAX">    500.00000000</i>
   <i name="ENAUG">    392.42700000</i>
   <i name="EDIFF">      0.00010000</i>
   <i type="int" name="IALGO">    68</i>
   <i type="int" name="IWAVPR">    10</i>
   <i type="int" name="NBANDS">    36</i>
   <i name="NELECT">     48.00000000</i>
   <i type="int" name="TURBO">     0</i>
   <i type="int" name="IRESTART">     0</i>
   <i type="int" name="NREBOOT">     0</i>
   <i type="int" name="NMIN">     0</i>
   <i name="EREF">      0.00000000</i>
   <separator name="electronic smearing" >
    <i type="int" name="ISMEAR">     1</i>
    <i name="SIGMA">      0.10000000</i>
    <i name="KSPACING">      0.50000000</i>
    <i type="logical" name="KGAMMA"> T  </i>
   </separator>
   <separator name="electronic projectors" >
    <i type="logical" name="LREAL"> T  </i>
    <v name="ROPT">     -0.00025000     -0.00025000     -0.00025000     -0.00025000</v>
    <i type="int" name="LMAXPAW">  -100</i>
    <i type="int" name="LMAXMIX">     2</i>
    <i type="logical" name="NLSPLINE"> F  </i>
   </separator>
   <separator name="electronic startup" >
    <i type="int" name="ISTART">     0</i>
    <i type="int" name="ICHARG">     2</i>
    <i type="int" name="INIWAV">     1</i>
   </separator>
   <separator name="electronic spin" >
    <i type="int" name="ISPIN">     2</i>
    <i type="logical" name="LNONCOLLINEAR"> F  </i>
    <v name="MAGMOM">      6.00000000      0.50000000      0.50000000      6.00000000      0.50000000      0.50000000</v>
    <i name="NUPDOWN">     -1.00000000</i>
    <i type="logical" name="LSORBIT"> F  </i>
    <v name="SAXIS">      0.00000000      0.00000000      1.00000000</v>
    <i type="logical" name="LSPIRAL"> F  </i>
    <v name="QSPIRAL">      0.00000000      0.00000000      0.00000000</v>
    <i type="logical" name="LZEROZ"> F  </i>
   </separator>
   <separator name="electronic exchange-correlation" >
    <i type="logical" name="LASPH"> F  </i>
    <i type="logical" name="LMETAGGA"> F  </i>
   </separator>
   <separator name="electronic convergence" >
    <i type="int" name="NELM">    60</i>
    <i type="int" name="NELMDL">     0</i>
    <i type="int" name="NELMIN">     2</i>
    <i name="ENINI">    500.00000000</i>
    <separator name="electronic convergence detail" >
     <i type="logical" name="LDIAG"> T  </i>
     <i type="logical" name="LSUBROT"> F  </i>
     <i name="WEIMIN">      0.00000000</i>
     <i name="EBREAK">      0.00000069</i>
     <i name="DEPER">      0.30000000</i>
     <i type="int" name="NRMM">     4</i>
     <i name="TIME">      0.40000000</i>
    </separator>
   </separator>
   <separator name="electronic mixer" >
    <i name="AMIX">      0.40000000</i>
    <i name="BMIX">      1.00000000</i>
    <i name="AMIN">      0.10000000</i>
    <i name="AMIX_MAG">      1.60000000</i>
    <i name="BMIX_MAG">      1.00000000</i>
    <separator name="electronic mixer details" >
     <i type="int" name="IMIX">     4</i>
     <i type="logical" name="MIXFIRST"> F  </i>
     <i type="int" name="MAXMIX">   -45</i>
     <i name="WC">    100.00000000</i>
     <i type="int" name="INIMIX">     1</i>
     <i type="int" name="MIXPRE">     1</i>
     <i type="int" name="MREMOVE">     5</i>
    </separator>
   </separator>
   <separator name="electronic dipolcorrection" >
    <i type="logical" name="LDIPOL"> F  </i>
    <i type="logical" name="LMONO"> F  </i>
    <i type="int" name="IDIPOL">     0</i>
    <i name="EPSILON">      1.00000000</i>
    <v name="DIPOL">   -100.00000000   -100.00000000   -100.00000000</v>
    <i name="EFIELD">      0.00000000</i>
   </separator>
  </separator>
  <separator name="grids" >
   <i type="int" name="NGX">    24</i>
   <i type="int" name="NGY">    24</i>
   <i type="int" name="NGZ">   180</i>
   <i type="int" name="NGXF">    48</i>
   <i type="int" name="NGYF">    48</i>
   <i type="int" name="NGZF">   360</i>
   <i type="logical" name="ADDGRID"> F  </i>
  </separator>
  <separator name="ionic" >
   <i type="int" name="NSW">     0</i>
   <i type="int" name="IBRION">    -1</i>
   <i type="int" name="ISIF">     3</i>
   <i name="PSTRESS">      0.00000000</i>
   <i name="EDIFFG">      0.00100000</i>
   <i type="int" name="NFREE">     1</i>
   <i name="POTIM">      0.50000000</i>
   <i name="SMASS">     -3.00000000</i>
   <i name="SCALEE">      1.00000000</i>
  </separator>
  <separator name="ionic md" >
   <i name="TEBEG">      0.00010000</i>
   <i name="TEEND">      0.00010000</i>
   <i type="int" name="NBLOCK">     1</i>
   <i type="int" name="KBLOCK">     1</i>
   <i type="int" name="NPACO">   256</i>
   <i name="APACO">     16.00000000</i>
  </separator>
  <separator name="symmetry" >
   <i type="int" name="ISYM">     2</i>
   <i name="SYMPREC">      0.00001000</i>
  </separator>
  <separator name="dos" >
   <i type="logical" name="LORBIT"> F  </i>
   <v name="RWIGS">     -1.00000000     -1.00000000     -1.00000000     -1.00000000</v>
   <i type="int" name="NEDOS">   301</i>
   <i name="EMIN">     10.00000000</i>
   <i name="EMAX">    -10.00000000</i>
   <i name="EFERMI">      0.00000000</i>
  </separator>
  <separator name="writing" >
   <i type="int" name="NWRITE">     2</i>
   <i type="logical" name="LWAVE"> F  </i>
   <i type="logical" name="LCHARG"> F  </i>
   <i type="logical" name="LPARD"> F  </i>
   <i type="logical" name="LVTOT"> F  </i>
   <i type="logical" name="LVHAR"> T  </i>
   <i type="logical" name="LELF"> F  </i>
   <i type="logical" name="LOPTICS"> F  </i>
   <v name="STM">      0.00000000      0.00000000      0.00000000      0.00000000      0.00000000      0.00000000      0.00000000</v>
  </separator>
  <separator name="performance" >
   <i type="int" name="NPAR">     4</i>
   <i type="int" name="NSIM">     4</i>
   <i type="int" name="NBLK">    -1</i>
   <i type="logical" name="LPLANE"> T  </i>
   <i type="logical" name="LSCALAPACK"> T  </i>
   <i type="logical" name="LSCAAWARE"> F  </i>
   <i type="logical" name="LSCALU"> F  </i>
   <i type="logical" name="LASYNC"> F  </i>
   <i type="logical" name="LORBITALREAL"> F  </i>
  </separator>
  <separator name="miscellaneous" >
   <i type="int" name="IDIOT">     3</i>
   <i type="logical" name="LMUSIC"> F  </i>
   <v name="POMASS">     95.94000000     32.06600000     95.94000000     32.06600000</v>
   <v name="DARWINR">      0.00000000      0.00000000      0.00000000      0.00000000</v>
   <v name="DARWINV">      1.00000000      1.00000000      1.00000000      1.00000000</v>
   <i type="logical" name="LCORR"> T  </i>
  </separator>
  <i type="logical" name="GGA_COMPAT"> T  </i>
  <i type="logical" name="LBERRY"> F  </i>
  <i type="int" name="ICORELEVEL">     0</i>
  <i type="logical" name="LDAU"> F  </i>
  <i type="int" name="I_CONSTRAINED_M">     0</i>
  <separator name="electronic exchange-correlation" >
   <i type="string" name="GGA">BO</i>
   <i type="int" name="VOSKOWN">     0</i>
   <i type="logical" name="LHFCALC"> F  </i>
   <i type="string" name="PRECFOCK"></i>
   <i type="logical" name="LSYMGRAD"> F  </i>
   <i type="logical" name="LHFONE"> F  </i>
   <i type="logical" name="LRHFCALC"> F  </i>
   <i type="logical" name="LTHOMAS"> F  </i>
   <i type="logical" name="LMODELHF"> F  </i>
   <i name="ENCUT4O">     -1.00000000</i>
   <i type="int" name="EXXOEP">     0</i>
   <i type="int" name="FOURORBIT">     0</i>
   <i name="AEXX">      0.00000000</i>
   <i name="HFALPHA">      0.00000000</i>
   <i name="MCALPHA">      0.00000000</i>
   <i name="ALDAX">      1.00000000</i>
   <i name="AGGAX">      1.00000000</i>
   <i name="ALDAC">      1.00000000</i>
   <i name="AGGAC">      0.00000000</i>
   <i type="int" name="NKREDX">     1</i>
   <i type="int" name="NKREDY">     1</i>
   <i type="int" name="NKREDZ">     1</i>
   <i type="logical" name="SHIFTRED"> F  </i>
   <i type="logical" name="ODDONLY"> F  </i>
   <i type="logical" name="EVENONLY"> F  </i>
   <i type="int" name="LMAXFOCK">     0</i>
   <i type="int" name="NMAXFOCKAE">     0</i>
   <i type="logical" name="LFOCKAEDFT"> F  </i>
   <i name="HFSCREEN">      0.00000000</i>
   <i name="HFSCREENC">      0.00000000</i>
   <i type="int" name="NBANDSGWLOW">     0</i>
  </separator>
  <separator name="vdW DFT" >
   <i type="logical" name="LUSE_VDW"> T  </i>
   <i name="Zab_VDW">     -0.84910000</i>
   <i name="PARAM1">      0.18333333</i>
   <i name="PARAM2">      0.22000000</i>
   <i name="PARAM3">      0.00000000</i>
  </separator>
  <separator name="model GW" >
   <i type="int" name="MODEL_GW">     0</i>
   <i name="MODEL_EPS0">     20.39722663</i>
   <i name="MODEL_ALPHA">      1.00000000</i>
  </separator>
  <separator name="linear response parameters" >
   <i type="logical" name="LEPSILON"> F  </i>
   <i type="logical" name="LRPA"> F  </i>
   <i type="logical" name="LNABLA"> F  </i>
   <i type="logical" name="LVEL"> F  </i>
   <i type="int" name="KINTER">     0</i>
   <i name="CSHIFT">      0.10000000</i>
   <i name="OMEGAMAX">     -1.00000000</i>
   <i name="DEG_THRESHOLD">      0.00200000</i>
  </separator>
  <separator name="orbital magnetization" >
   <i type="logical" name="NUCIND"> F  </i>
   <v name="MAGPOS">      0.00000000      0.00000000      0.00000000</v>
   <i type="logical" name="LNICSALL"> T  </i>
   <i type="logical" name="ORBITALMAG"> F  </i>
   <i type="logical" name="LMAGBLOCH"> F  </i>
   <i type="logical" name="LCHIMAG"> F  </i>
   <i type="logical" name="LGAUGE"> T  </i>
   <i type="int" name="MAGATOM">     0</i>
   <v name="MAGDIPOL">      0.00000000      0.00000000      0.00000000</v>
   <v name="AVECCONST">      0.00000000      0.00000000      0.00000000</v>
  </separator>
  <separator name="response functions" >
   <i type="logical" name="LADDER"> F  </i>
   <i type="logical" name="LFXC"> F  </i>
   <i type="logical" name="LHARTREE"> T  </i>
   <i type="int" name="IBSE">     0</i>
   <v type="int" name="KPOINT">    -1     0     0     0</v>
   <i type="logical" name="LTCTE"> F  </i>
   <i type="logical" name="LTETE"> F  </i>
   <i type="logical" name="LTRIPLET"> F  </i>
   <i type="logical" name="LFXCEPS"> F  </i>
   <i type="logical" name="LFXHEG"> F  </i>
   <i type="int" name="NATURALO">     0</i>
   <i type="logical" name="L2ORDER"> F  </i>
   <i type="logical" name="LUSEW"> F  </i>
   <i name="ENCUTGW">     -2.00000000</i>
   <i name="ENCUTGWSOFT">     -2.00000000</i>
   <i name="ENCUTLF">     -1.00000000</i>
   <i type="int" name="LMAXMP2">    -1</i>
   <i name="SCISSOR">      0.00000000</i>
   <i type="int" name="NOMEGA">     0</i>
   <i type="int" name="NOMEGAR">     0</i>
   <i type="int" name="NBANDSGW">    -1</i>
   <i type="int" name="NBANDSO">    -1</i>
   <i type="int" name="NBANDSV">    -1</i>
   <i type="int" name="NELM">     1</i>
   <i type="int" name="NELMHF">     1</i>
   <i type="int" name="DIM">     3</i>
   <i type="int" name="ANTIRES">     0</i>
   <i name="OMEGAMAX">    -30.00000000</i>
   <i name="OMEGAMIN">    -30.00000000</i>
   <i name="OMEGATL">   -200.00000000</i>
   <i type="int" name="OMEGAGRID">     0</i>
   <i name="CSHIFT">     -0.10000000</i>
   <i type="logical" name="SELFENERGY"> F  </i>
   <i type="logical" name="LSPECTRAL"> F  </i>
   <i type="logical" name="LSPECTRALGW"> F  </i>
   <i type="logical" name="LSINGLES"> F  </i>
   <i type="logical" name="LFERMIGW"> F  </i>
   <i type="logical" name="ODDONLYGW"> F  </i>
   <i type="logical" name="EVENONLYGW"> F  </i>
   <i type="int" name="NKREDLFX">     1</i>
   <i type="int" name="NKREDLFY">     1</i>
   <i type="int" name="NKREDLFZ">     1</i>
   <i type="int" name="MAXMEM">  1800</i>
   <i type="int" name="TELESCOPE">     0</i>
   <i type="int" name="TAUPAR">     1</i>
   <i type="int" name="OMEGAPAR">    -1</i>
   <i name="LAMBDA">      1.00000000</i>
  </separator>
  <separator name="External order field" >
   <i name="OFIELD_KAPPA">      0.00000000</i>
   <v name="OFIELD_K">      0.00000000      0.00000000      0.00000000</v>
   <i name="OFIELD_Q6_NEAR">      0.00000000</i>
   <i name="OFIELD_Q6_FAR">      0.00000000</i>
   <i name="OFIELD_A">      0.00000000</i>
  </separator>
 </parameters>
 <atominfo>
  <atoms>       6 </atoms>
  <types>       4 </types>
  <array name="atoms" >
   <dimension dim="1">ion</dimension>
   <field type="string">element</field>
   <field type="int">atomtype</field>
   <set>
    <rc><c>Mo</c><c>   1</c></rc>
    <rc><c>S </c><c>   2</c></rc>
    <rc><c>S </c><c>   2</c></rc>
    <rc><c>Mo</c><c>   3</c></rc>
    <rc><c>S </c><c>   4</c></rc>
    <rc><c>S </c><c>   4</c></rc>
   </set>
  </array>
  <array name="atomtypes" >
   <dimension dim="1">type</dimension>
   <field type="int">atomspertype</field>
   <field type="string">element</field>
   <field>mass</field>
   <field>valence</field>
   <field type="string">pseudopotential</field>
   <set>
    <rc><c>   1</c><c>Mo</c><c>     95.94000000</c><c>     12.00000000</c><c> PAW_PBE Mo_pv 08Apr2002                </c></rc>
    <rc><c>   2</c><c>S </c><c>     32.06600000</c><c>      6.00000000</c><c>  PAW_PBE S 17Jan2003                   </c></rc>
    <rc><c>   1</c><c>Mo</c><c>     95.94000000</c><c>     12.00000000</c><c> PAW_PBE Mo_pv 08Apr2002                </c></rc>
    <rc><c>   2</c><c>S </c><c>     32.06600000</c><c>      6.00000000</c><c>  PAW_PBE S 17Jan2003                   </c></rc>
   </set>
  </array>
 </atominfo>
 <structure name="initialpos" >
  <crystal>
   <varray name="basis" >
    <v>       3.19031700       0.00000000       0.00000000 </v>
    <v>      -1.59515800       2.76289700       0.00000000 </v>
    <v>       0.00000000       0.00000000      23.14049200 </v>
   </varray>
   <i name="volume">    203.97226633 </i>
   <varray name="rec_basis" >
    <v>       0.31344848       0.18096941       0.00000000 </v>
    <v>       0.00000000       0.36193894       0.00000000 </v>
    <v>       0.00000000       0.00000000       0.04321429 </v>
   </varray>
  </crystal>
  <varray name="positions" >
   <v>       0.66666700       0.33333300       0.06785900 </v>
   <v>       0.33333300       0.66666700       0.00000000 </v>
   <v>       0.33333300       0.66666700       0.13571500 </v>
   <v>       0.66666700       0.61904729       0.35482300 </v>
   <v>       0.33333300       0.95238129       0.28696500 </v>
   <v>       0.33333300       0.95238129       0.42267900 </v>
  </varray>
 </structure>
 <calculation>
  <scstep>
   <time name="dav">  106.16  106.24</time>
   <time name="total">  125.66  125.79</time>
   <energy>
    <i name="alphaZ">    104.15310261 </i>
    <i name="ewald">   7699.15925134 </i>
    <i name="hartreedc"> -11109.20445245 </i>
    <i name="XCdc">    128.46668654 </i>
    <i name="pawpsdc">   2252.92270536 </i>
    <i name="pawaedc">  -2205.68654582 </i>
    <i name="eentropy">     -0.00065823 </i>
    <i name="bandstr">   -158.96560082 </i>
    <i name="atom">   3688.31848598 </i>
    <i name="e_fr_energy">    399.16297450 </i>
    <i name="e_wo_entrp">    399.16363274 </i>
    <i name="e_0_energy">    399.16319391 </i>
   </energy>
  </scstep>
  <scstep>
   <time name="dav">  114.73  114.82</time>
   <time name="total">  114.74  114.83</time>
   <energy>
    <i name="e_fr_energy">     -1.48175095 </i>
    <i name="e_wo_entrp">     -1.48204547 </i>
    <i name="e_0_energy">     -1.48184912 </i>
   </energy>
  </scstep>
  <scstep>
   <time name="dav">  117.66  117.75</time>
   <time name="total">  117.68  118.09</time>
   <energy>
    <i name="e_fr_energy">    -32.95317330 </i>
    <i name="e_wo_entrp">    -32.95393905 </i>
    <i name="e_0_energy">    -32.95342855 </i>
   </energy>
  </scstep>
  <scstep>
   <time name="dav">  113.25  113.34</time>
   <time name="total">  113.26  113.35</time>
   <energy>
    <i name="e_fr_energy">    -33.83813683 </i>
    <i name="e_wo_entrp">    -33.83910436 </i>
    <i name="e_0_energy">    -33.83845934 </i>
   </energy>
  </scstep>
  <scstep>
   <time name="dav">  117.63  117.72</time>
   <time name="total">  126.82  126.93</time>
   <energy>
    <i name="e_fr_energy">    -33.86536061 </i>
    <i name="e_wo_entrp">    -33.86633619 </i>
    <i name="e_0_energy">    -33.86568581 </i>
   </energy>
  </scstep>
  <scstep>
   <time name="diag">   21.96   21.98</time>
   <time name="diis">   79.33   79.39</time>
   <time name="orth">    0.69    0.69</time>
   <time name="total">  130.22  130.39</time>
   <energy>
    <i name="e_fr_energy">    -30.16085455 </i>
    <i name="e_wo_entrp">    -30.16052368 </i>
    <i name="e_0_energy">    -30.16074426 </i>
   </energy>
  </scstep>
  <scstep>
   <time name="diag">   21.98   22.00</time>
   <time name="diis">   78.83   78.89</time>
   <time name="orth">    0.69    0.69</time>
   <time name="total">  130.12  130.22</time>
   <energy>
    <i name="e_fr_energy">    -32.90934823 </i>
    <i name="e_wo_entrp">    -32.90996214 </i>
    <i name="e_0_energy">    -32.90955286 </i>
   </energy>
  </scstep>
  <scstep>
   <time name="diag">   21.96   21.98</time>
   <time name="diis">   80.76   80.83</time>
   <time name="orth">    0.69    0.69</time>
   <time name="total">  131.69  131.80</time>
   <energy>
    <i name="e_fr_energy">    -34.36480688 </i>
    <i name="e_wo_entrp">    -34.36497130 </i>
    <i name="e_0_energy">    -34.36486169 </i>
   </energy>
  </scstep>
  <scstep>
   <time name="diag">   21.91   21.93</time>
   <time name="diis">   76.07   76.13</time>
   <time name="orth">    0.69    0.69</time>
   <time name="total">  127.09  127.19</time>
   <energy>
    <i name="e_fr_energy">    -37.21040654 </i>
    <i name="e_wo_entrp">    -37.21057297 </i>
    <i name="e_0_energy">    -37.21046202 </i>
   </energy>
  </scstep>
  <scstep>
   <time name="diag">   21.90   21.92</time>
   <time name="diis">   70.99   71.05</time>
   <time name="orth">    0.69    0.69</time>
   <time name="total">  121.80  121.95</time>
   <energy>
    <i name="e_fr_energy">    -39.05048309 </i>
    <i name="e_wo_entrp">    -39.05064892 </i>
    <i name="e_0_energy">    -39.05053836 </i>
   </energy>
  </scstep>
  <scstep>
   <time name="diag">   21.85   21.87</time>
   <time name="diis">   74.80   74.86</time>
   <time name="orth">    0.69    0.69</time>
   <time name="total">  125.63  125.73</time>
   <energy>
    <i name="e_fr_energy">    -39.37078345 </i>
    <i name="e_wo_entrp">    -39.37111442 </i>
    <i name="e_0_energy">    -39.37089377 </i>
   </energy>
  </scstep>
  <scstep>
   <time name="diag">   21.96   21.98</time>
   <time name="diis">   76.24   76.30</time>
   <time name="orth">    0.69    0.69</time>
   <time name="total">  127.27  127.59</time>
   <energy>
    <i name="e_fr_energy">    -39.39089311 </i>
    <i name="e_wo_entrp">    -39.39122359 </i>
    <i name="e_0_energy">    -39.39100327 </i>
   </energy>
  </scstep>
  <scstep>
   <time name="diag">   21.84   21.86</time>
   <time name="diis">   85.59   85.66</time>
   <time name="orth">    0.69    0.69</time>
   <time name="total">  136.55  136.66</time>
   <energy>
    <i name="e_fr_energy">    -39.40567274 </i>
    <i name="e_wo_entrp">    -39.40600406 </i>
    <i name="e_0_energy">    -39.40578318 </i>
   </energy>
  </scstep>
  <scstep>
   <time name="diag">   21.87   21.89</time>
   <time name="diis">   82.80   82.87</time>
   <time name="orth">    0.69    0.69</time>
   <time name="total">  133.82  133.92</time>
   <energy>
    <i name="e_fr_energy">    -39.40970386 </i>
    <i name="e_wo_entrp">    -39.41003585 </i>
    <i name="e_0_energy">    -39.40981452 </i>
   </energy>
  </scstep>
  <scstep>
   <time name="diag">   21.94   21.96</time>
   <time name="diis">   72.33   72.38</time>
   <time name="orth">    0.68    0.69</time>
   <time name="total">  123.48  123.58</time>
   <energy>
    <i name="e_fr_energy">    -39.40910928 </i>
    <i name="e_wo_entrp">    -39.40944126 </i>
    <i name="e_0_energy">    -39.40921994 </i>
   </energy>
  </scstep>
  <scstep>
   <time name="diag">   21.87   21.89</time>
   <time name="diis">   57.15   57.20</time>
   <time name="orth">    0.69    0.69</time>
   <time name="total">   98.31   98.39</time>
   <energy>
    <i name="alphaZ">    104.15310261 </i>
    <i name="ewald">   7699.15925134 </i>
    <i name="hartreedc"> -11093.65000599 </i>
    <i name="XCdc">    122.67352106 </i>
    <i name="pawpsdc">   2398.89746572 </i>
    <i name="pawaedc">  -2361.07105404 </i>
    <i name="eentropy">      0.00033203 </i>
    <i name="bandstr">   -597.89029865 </i>
    <i name="atom">   3688.31848598 </i>
    <i name="e_fr_energy">    -39.40919995 </i>
    <i name="e_wo_entrp">    -39.40953198 </i>
    <i name="e_0_energy">    -39.40931063 </i>
   </energy>
  </scstep>
  <structure>
   <crystal>
    <varray name="basis" >
     <v>       3.19031700       0.00000000       0.00000000 </v>
     <v>      -1.59515800       2.76289700       0.00000000 </v>
     <v>       0.00000000       0.00000000      23.14049200 </v>
    </varray>
    <i name="volume">    203.97226633 </i>
    <varray name="rec_basis" >
     <v>       0.31344848       0.18096941       0.00000000 </v>
     <v>       0.00000000       0.36193894       0.00000000 </v>
     <v>       0.00000000       0.00000000       0.04321429 </v>
    </varray>
   </crystal>
   <varray name="positions" >
    <v>       0.66666700       0.33333300       0.06785900 </v>
    <v>       0.33333300       0.66666700       0.00000000 </v>
    <v>       0.33333300       0.66666700       0.13571500 </v>
    <v>       0.66666700       0.61904729       0.35482300 </v>
    <v>       0.33333300       0.95238129       0.28696500 </v>
    <v>       0.33333300       0.95238129       0.42267900 </v>
   </varray>
  </structure>
  <varray name="forces" >
   <v>       0.00296627      -0.00605543      -0.00730732 </v>
   <v>       0.00124678      -0.00004843      -0.05970243 </v>
   <v>       0.01758051      -0.03142425       0.08164406 </v>
   <v>      -0.00415918       0.00639697       0.00891914 </v>
   <v>      -0.01636371       0.02722113      -0.08798903 </v>
   <v>      -0.00127066       0.00391000       0.06443558 </v>
  </varray>
  <varray name="stress" >
   <v>       3.28190841      -0.18020632      -0.62613249 </v>
   <v>      -0.18020628       3.50461363       1.08769961 </v>
   <v>      -0.62613260       1.08769948       1.10603655 </v>
  </varray>
  <energy>
   <i name="e_fr_energy">    -39.40919995 </i>
   <i name="e_wo_entrp">    -39.40931063 </i>
   <i name="e_0_energy">      0.00033203 </i>
  </energy>
  <time name="totalsc"> 2176.48 2178.92</time>
  <eigenvalues>
   <array>
    <dimension dim="1">band</dimension>
    <dimension dim="2">kpoint</dimension>
    <dimension dim="3">spin</dimension>
    <field>eigene</field>
    <field>occ</field>
    <set>
     <set comment="spin 1">
      <set comment="kpoint 1">
       <r>  -34.9736    1.0000 </r>
       <r>  -34.9730    1.0000 </r>
       <r>  -34.7825    1.0000 </r>
       <r>  -34.7823    1.0000 </r>
       <r>  -34.7819    1.0000 </r>
       <r>  -34.7817    1.0000 </r>
       <r>  -13.9594    1.0000 </r>
       <r>  -13.9022    1.0000 </r>
       <r>  -12.6942    1.0000 </r>
       <r>  -12.5984    1.0000 </r>
       <r>   -5.6752    1.0000 </r>
       <r>   -5.3793    1.0000 </r>
       <r>   -2.6045    1.0000 </r>
       <r>   -2.6035    1.0000 </r>
       <r>   -2.6022    1.0000 </r>
       <r>   -2.6013    1.0000 </r>
       <r>   -2.1711    1.0000 </r>
       <r>   -1.5125    1.0000 </r>
       <r>   -1.5105    1.0000 </r>
       <r>   -1.5094    1.0000 </r>
       <r>   -1.5063    1.0000 </r>
       <r>   -1.4510    1.0000 </r>
       <r>   -0.2107    1.0000 </r>
       <r>    0.2416    0.7986 </r>
       <r>    2.7094   -0.0000 </r>
       <r>    2.7172   -0.0000 </r>
       <r>    2.7259   -0.0000 </r>
       <r>    2.7323   -0.0000 </r>
       <r>    2.8903   -0.0000 </r>
       <r>    2.8986   -0.0000 </r>
       <r>    2.9100   -0.0000 </r>
       <r>    2.9198   -0.0000 </r>
       <r>    5.3767    0.0000 </r>
       <r>    5.7023    0.0000 </r>
       <r>    6.2536    0.0000 </r>
       <r>    6.5924    0.0000 </r>
      </set>
      <set comment="kpoint 2">
       <r>  -34.9695    1.0000 </r>
       <r>  -34.9689    1.0000 </r>
       <r>  -34.8036    1.0000 </r>
       <r>  -34.8030    1.0000 </r>
       <r>  -34.7872    1.0000 </r>
       <r>  -34.7867    1.0000 </r>
       <r>  -13.8728    1.0000 </r>
       <r>  -13.8156    1.0000 </r>
       <r>  -12.6576    1.0000 </r>
       <r>  -12.5639    1.0000 </r>
       <r>   -5.5763    1.0000 </r>
       <r>   -5.2802    1.0000 </r>
       <r>   -2.7927    1.0000 </r>
       <r>   -2.7870    1.0000 </r>
       <r>   -2.5133    1.0000 </r>
       <r>   -2.5115    1.0000 </r>
       <r>   -2.4515    1.0000 </r>
       <r>   -2.0536    1.0000 </r>
       <r>   -1.6482    1.0000 </r>
       <r>   -1.6457    1.0000 </r>
       <r>   -1.3565    1.0000 </r>
       <r>   -1.0439    1.0000 </r>
       <r>   -0.2325    1.0000 </r>
       <r>    0.1715    1.0318 </r>
       <r>    2.5777   -0.0000 </r>
       <r>    2.6258   -0.0000 </r>
       <r>    2.6494   -0.0000 </r>
       <r>    2.7493   -0.0000 </r>
       <r>    2.8038   -0.0000 </r>
       <r>    2.8160   -0.0000 </r>
       <r>    2.8651   -0.0000 </r>
       <r>    2.8734   -0.0000 </r>
       <r>    5.5082    0.0000 </r>
       <r>    5.8483    0.0000 </r>
       <r>    6.5852    0.0000 </r>
       <r>    6.9641    0.0000 </r>
      </set>
      <set comment="kpoint 3">
       <r>  -34.9581    1.0000 </r>
       <r>  -34.9575    1.0000 </r>
       <r>  -34.8621    1.0000 </r>
       <r>  -34.8615    1.0000 </r>
       <r>  -34.8006    1.0000 </r>
       <r>  -34.8001    1.0000 </r>
       <r>  -13.6246    1.0000 </r>
       <r>  -13.5676    1.0000 </r>
       <r>  -12.5529    1.0000 </r>
       <r>  -12.4652    1.0000 </r>
       <r>   -5.3167    1.0000 </r>
       <r>   -5.0258    1.0000 </r>
       <r>   -3.2489    1.0000 </r>
       <r>   -3.2298    1.0000 </r>
       <r>   -2.9481    1.0000 </r>
       <r>   -2.6699    1.0000 </r>
       <r>   -2.2575    1.0000 </r>
       <r>   -2.2556    1.0000 </r>
       <r>   -1.9834    1.0000 </r>
       <r>   -1.9807    1.0000 </r>
       <r>   -1.2864    1.0000 </r>
       <r>   -0.9048    1.0000 </r>
       <r>   -0.3657    1.0000 </r>
       <r>   -0.0926    1.0000 </r>
       <r>    2.1651   -0.0000 </r>
       <r>    2.3806   -0.0000 </r>
       <r>    2.5014   -0.0000 </r>
       <r>    2.5771   -0.0000 </r>
       <r>    2.5866   -0.0000 </r>
       <r>    2.6541   -0.0000 </r>
       <r>    3.2126    0.0000 </r>
       <r>    3.2230    0.0000 </r>
       <r>    5.8622    0.0000 </r>
       <r>    6.2000    0.0000 </r>
       <r>    6.9923    0.0000 </r>
       <r>    7.8464    0.0000 </r>
      </set>
      <set comment="kpoint 4">
       <r>  -34.9436    1.0000 </r>
       <r>  -34.9431    1.0000 </r>
       <r>  -34.9419    1.0000 </r>
       <r>  -34.9414    1.0000 </r>
       <r>  -34.8195    1.0000 </r>
       <r>  -34.8189    1.0000 </r>
       <r>  -13.2499    1.0000 </r>
       <r>  -13.1939    1.0000 </r>
       <r>  -12.3958    1.0000 </r>
       <r>  -12.3171    1.0000 </r>
       <r>   -5.0519    1.0000 </r>
       <r>   -4.8102    1.0000 </r>
       <r>   -3.7275    1.0000 </r>
       <r>   -3.6459    1.0000 </r>
       <r>   -3.4782    1.0000 </r>
       <r>   -3.2865    1.0000 </r>
       <r>   -2.3786    1.0000 </r>
       <r>   -2.3756    1.0000 </r>
       <r>   -1.8888    1.0000 </r>
       <r>   -1.8858    1.0000 </r>
       <r>   -1.4740    1.0000 </r>
       <r>   -1.0819    1.0000 </r>
       <r>   -0.6867    1.0000 </r>
       <r>   -0.5346    1.0000 </r>
       <r>    1.9418   -0.0000 </r>
       <r>    2.2549   -0.0000 </r>
       <r>    2.3267   -0.0000 </r>
       <r>    2.3381   -0.0000 </r>
       <r>    2.6972   -0.0000 </r>
       <r>    2.9274   -0.0000 </r>
       <r>    3.5950    0.0000 </r>
       <r>    3.6083    0.0000 </r>
       <r>    6.3974    0.0000 </r>
       <r>    6.6944    0.0000 </r>
       <r>    7.3880    0.0000 </r>
       <r>    8.1739    0.0000 </r>
      </set>
      <set comment="kpoint 5">
       <r>  -35.0288    1.0000 </r>
       <r>  -35.0283    1.0000 </r>
       <r>  -34.9249    1.0000 </r>
       <r>  -34.9243    1.0000 </r>
       <r>  -34.8394    1.0000 </r>
       <r>  -34.8388    1.0000 </r>
       <r>  -12.8107    1.0000 </r>
       <r>  -12.7567    1.0000 </r>
       <r>  -12.2145    1.0000 </r>
       <r>  -12.1464    1.0000 </r>
       <r>   -5.1029    1.0000 </r>
       <r>   -4.9795    1.0000 </r>
       <r>   -4.0614    1.0000 </r>
       <r>   -3.9025    1.0000 </r>
       <r>   -3.8793    1.0000 </r>
       <r>   -3.7031    1.0000 </r>
       <r>   -2.7339    1.0000 </r>
       <r>   -2.7308    1.0000 </r>
       <r>   -1.7579    1.0000 </r>
       <r>   -1.4927    1.0000 </r>
       <r>   -1.4903    1.0000 </r>
       <r>   -1.3655    1.0000 </r>
       <r>   -0.9784    1.0000 </r>
       <r>   -0.8623    1.0000 </r>
       <r>    2.0415   -0.0000 </r>
       <r>    2.1594   -0.0000 </r>
       <r>    2.1669   -0.0000 </r>
       <r>    2.3353   -0.0000 </r>
       <r>    3.0983    0.0000 </r>
       <r>    3.3799    0.0000 </r>
       <r>    3.8984    0.0000 </r>
       <r>    3.9153    0.0000 </r>
       <r>    7.0582    0.0000 </r>
       <r>    7.2616    0.0000 </r>
       <r>    7.8056    0.0000 </r>
       <r>    8.0319    0.0000 </r>
      </set>
      <set comment="kpoint 6">
       <r>  -35.0986    1.0000 </r>
       <r>  -35.0981    1.0000 </r>
       <r>  -34.9106    1.0000 </r>
       <r>  -34.9100    1.0000 </r>
       <r>  -34.8558    1.0000 </r>
       <r>  -34.8553    1.0000 </r>
       <r>  -12.4014    1.0000 </r>
       <r>  -12.3504    1.0000 </r>
       <r>  -12.0498    1.0000 </r>
       <r>  -11.9917    1.0000 </r>
       <r>   -5.4219    1.0000 </r>
       <r>   -5.3471    1.0000 </r>
       <r>   -4.4772    1.0000 </r>
       <r>   -4.3578    1.0000 </r>
       <r>   -3.9816    1.0000 </r>
       <r>   -3.7704    1.0000 </r>
       <r>   -2.9938    1.0000 </r>
       <r>   -2.9906    1.0000 </r>
       <r>   -1.9757    1.0000 </r>
       <r>   -1.5882    1.0000 </r>
       <r>   -1.1766    1.0000 </r>
       <r>   -1.1699    1.0000 </r>
       <r>   -0.9380    1.0000 </r>
       <r>   -0.7967    1.0000 </r>
       <r>    2.1149   -0.0000 </r>
       <r>    2.1201   -0.0000 </r>
       <r>    2.3103   -0.0000 </r>
       <r>    2.5088   -0.0000 </r>
       <r>    3.4740    0.0000 </r>
       <r>    3.7819    0.0000 </r>
       <r>    4.0875    0.0000 </r>
       <r>    4.1076    0.0000 </r>
       <r>    6.7421    0.0000 </r>
       <r>    7.2497    0.0000 </r>
       <r>    7.6565    0.0000 </r>
       <r>    7.9330    0.0000 </r>
      </set>
      <set comment="kpoint 7">
       <r>  -35.1376    1.0000 </r>
       <r>  -35.1371    1.0000 </r>
       <r>  -34.9026    1.0000 </r>
       <r>  -34.9020    1.0000 </r>
       <r>  -34.8651    1.0000 </r>
       <r>  -34.8645    1.0000 </r>
       <r>  -12.1460    1.0000 </r>
       <r>  -12.0970    1.0000 </r>
       <r>  -11.9490    1.0000 </r>
       <r>  -11.8976    1.0000 </r>
       <r>   -5.6642    1.0000 </r>
       <r>   -5.5970    1.0000 </r>
       <r>   -4.7294    1.0000 </r>
       <r>   -4.6225    1.0000 </r>
       <r>   -4.0836    1.0000 </r>
       <r>   -3.8833    1.0000 </r>
       <r>   -3.1298    1.0000 </r>
       <r>   -3.1265    1.0000 </r>
       <r>   -2.0826    1.0000 </r>
       <r>   -1.6980    1.0000 </r>
       <r>   -1.0101    1.0000 </r>
       <r>   -1.0017    1.0000 </r>
       <r>   -0.7271    1.0000 </r>
       <r>   -0.5572    1.0000 </r>
       <r>    2.1417   -0.0000 </r>
       <r>    2.1443   -0.0000 </r>
       <r>    2.5626   -0.0000 </r>
       <r>    2.6628   -0.0000 </r>
       <r>    3.6666    0.0000 </r>
       <r>    3.9928    0.0000 </r>
       <r>    4.1732    0.0000 </r>
       <r>    4.1950    0.0000 </r>
       <r>    5.9490    0.0000 </r>
       <r>    6.6045    0.0000 </r>
       <r>    7.9018    0.0000 </r>
       <r>    8.0888    0.0000 </r>
      </set>
      <set comment="kpoint 8">
       <r>  -34.9695    1.0000 </r>
       <r>  -34.9689    1.0000 </r>
       <r>  -34.8037    1.0000 </r>
       <r>  -34.8030    1.0000 </r>
       <r>  -34.7871    1.0000 </r>
       <r>  -34.7867    1.0000 </r>
       <r>  -13.8727    1.0000 </r>
       <r>  -13.8157    1.0000 </r>
       <r>  -12.6575    1.0000 </r>
       <r>  -12.5641    1.0000 </r>
       <r>   -5.5761    1.0000 </r>
       <r>   -5.2804    1.0000 </r>
       <r>   -2.7924    1.0000 </r>
       <r>   -2.7873    1.0000 </r>
       <r>   -2.5134    1.0000 </r>
       <r>   -2.5110    1.0000 </r>
       <r>   -2.4526    1.0000 </r>
       <r>   -2.0536    1.0000 </r>
       <r>   -1.6494    1.0000 </r>
       <r>   -1.6445    1.0000 </r>
       <r>   -1.3492    1.0000 </r>
       <r>   -1.0497    1.0000 </r>
       <r>   -0.2316    1.0000 </r>
       <r>    0.1663    1.0341 </r>
       <r>    2.5973   -0.0000 </r>
       <r>    2.6231   -0.0000 </r>
       <r>    2.6556   -0.0000 </r>
       <r>    2.7282   -0.0000 </r>
       <r>    2.7978   -0.0000 </r>
       <r>    2.8211   -0.0000 </r>
       <r>    2.8631   -0.0000 </r>
       <r>    2.8783   -0.0000 </r>
       <r>    5.5083    0.0000 </r>
       <r>    5.8481    0.0000 </r>
       <r>    6.5864    0.0000 </r>
       <r>    6.9650    0.0000 </r>
      </set>
      <set comment="kpoint 9">
       <r>  -34.9617    1.0000 </r>
       <r>  -34.9611    1.0000 </r>
       <r>  -34.8426    1.0000 </r>
       <r>  -34.8419    1.0000 </r>
       <r>  -34.7972    1.0000 </r>
       <r>  -34.7968    1.0000 </r>
       <r>  -13.7052    1.0000 </r>
       <r>  -13.6484    1.0000 </r>
       <r>  -12.5868    1.0000 </r>
       <r>  -12.4974    1.0000 </r>
       <r>   -5.3949    1.0000 </r>
       <r>   -5.1012    1.0000 </r>
       <r>   -3.1087    1.0000 </r>
       <r>   -3.0981    1.0000 </r>
       <r>   -2.7873    1.0000 </r>
       <r>   -2.4685    1.0000 </r>
       <r>   -2.3448    1.0000 </r>
       <r>   -2.3432    1.0000 </r>
       <r>   -1.9644    1.0000 </r>
       <r>   -1.9558    1.0000 </r>
       <r>   -1.2025    1.0000 </r>
       <r>   -0.8599    1.0000 </r>
       <r>   -0.3080    1.0000 </r>
       <r>   -0.0013    1.0003 </r>
       <r>    2.2896   -0.0000 </r>
       <r>    2.4368   -0.0000 </r>
       <r>    2.4668   -0.0000 </r>
       <r>    2.5760   -0.0000 </r>
       <r>    2.6358   -0.0000 </r>
       <r>    2.6575   -0.0000 </r>
       <r>    3.1428    0.0000 </r>
       <r>    3.1559    0.0000 </r>
       <r>    5.7488    0.0000 </r>
       <r>    6.0928    0.0000 </r>
       <r>    7.0045    0.0000 </r>
       <r>    7.6133    0.0000 </r>
      </set>
      <set comment="kpoint 10">
       <r>  -34.9480    1.0000 </r>
       <r>  -34.9474    1.0000 </r>
       <r>  -34.9102    1.0000 </r>
       <r>  -34.9095    1.0000 </r>
       <r>  -34.8157    1.0000 </r>
       <r>  -34.8153    1.0000 </r>
       <r>  -13.3932    1.0000 </r>
       <r>  -13.3369    1.0000 </r>
       <r>  -12.4552    1.0000 </r>
       <r>  -12.3734    1.0000 </r>
       <r>   -5.1157    1.0000 </r>
       <r>   -4.8429    1.0000 </r>
       <r>   -3.5607    1.0000 </r>
       <r>   -3.5203    1.0000 </r>
       <r>   -3.2205    1.0000 </r>
       <r>   -2.9888    1.0000 </r>
       <r>   -2.4556    1.0000 </r>
       <r>   -2.4250    1.0000 </r>
       <r>   -2.0613    1.0000 </r>
       <r>   -2.0582    1.0000 </r>
       <r>   -1.1968    1.0000 </r>
       <r>   -0.8570    1.0000 </r>
       <r>   -0.5415    1.0000 </r>
       <r>   -0.3613    1.0000 </r>
       <r>    1.9519   -0.0000 </r>
       <r>    2.2026   -0.0000 </r>
       <r>    2.4025   -0.0000 </r>
       <r>    2.4345   -0.0000 </r>
       <r>    2.4768   -0.0000 </r>
       <r>    2.6519   -0.0000 </r>
       <r>    3.5463    0.0000 </r>
       <r>    3.5750    0.0000 </r>
       <r>    6.1917    0.0000 </r>
       <r>    6.5176    0.0000 </r>
       <r>    7.2474    0.0000 </r>
       <r>    8.4629    0.0000 </r>
      </set>
      <set comment="kpoint 11">
       <r>  -34.9905    1.0000 </r>
       <r>  -34.9899    1.0000 </r>
       <r>  -34.9314    1.0000 </r>
       <r>  -34.9308    1.0000 </r>
       <r>  -34.8381    1.0000 </r>
       <r>  -34.8377    1.0000 </r>
       <r>  -12.9840    1.0000 </r>
       <r>  -12.9294    1.0000 </r>
       <r>  -12.2840    1.0000 </r>
       <r>  -12.2121    1.0000 </r>
       <r>   -4.9883    1.0000 </r>
       <r>   -4.8148    1.0000 </r>
       <r>   -3.8835    1.0000 </r>
       <r>   -3.7322    1.0000 </r>
       <r>   -3.7160    1.0000 </r>
       <r>   -3.5764    1.0000 </r>
       <r>   -2.8517    1.0000 </r>
       <r>   -2.7865    1.0000 </r>
       <r>   -1.7810    1.0000 </r>
       <r>   -1.7721    1.0000 </r>
       <r>   -1.4198    1.0000 </r>
       <r>   -1.0930    1.0000 </r>
       <r>   -0.8447    1.0000 </r>
       <r>   -0.7427    1.0000 </r>
       <r>    1.8550   -0.0000 </r>
       <r>    2.0783   -0.0000 </r>
       <r>    2.2870   -0.0000 </r>
       <r>    2.3865   -0.0000 </r>
       <r>    2.7538   -0.0000 </r>
       <r>    2.9689   -0.0000 </r>
       <r>    3.8938    0.0000 </r>
       <r>    3.9445    0.0000 </r>
       <r>    6.8134    0.0000 </r>
       <r>    7.0696    0.0000 </r>
       <r>    7.7837    0.0000 </r>
       <r>    8.2993    0.0000 </r>
      </set>
      <set comment="kpoint 12">
       <r>  -35.0651    1.0000 </r>
       <r>  -35.0645    1.0000 </r>
       <r>  -34.9157    1.0000 </r>
       <r>  -34.9151    1.0000 </r>
       <r>  -34.8592    1.0000 </r>
       <r>  -34.8587    1.0000 </r>
       <r>  -12.5546    1.0000 </r>
       <r>  -12.5026    1.0000 </r>
       <r>  -12.1073    1.0000 </r>
       <r>  -12.0458    1.0000 </r>
       <r>   -5.2096    1.0000 </r>
       <r>   -5.1214    1.0000 </r>
       <r>   -4.2897    1.0000 </r>
       <r>   -4.1813    1.0000 </r>
       <r>   -3.9034    1.0000 </r>
       <r>   -3.6915    1.0000 </r>
       <r>   -3.0644    1.0000 </r>
       <r>   -2.9994    1.0000 </r>
       <r>   -1.7406    1.0000 </r>
       <r>   -1.6157    1.0000 </r>
       <r>   -1.6026    1.0000 </r>
       <r>   -1.3848    1.0000 </r>
       <r>   -0.8666    1.0000 </r>
       <r>   -0.7897    1.0000 </r>
       <r>    1.9688   -0.0000 </r>
       <r>    2.1119   -0.0000 </r>
       <r>    2.3254   -0.0000 </r>
       <r>    2.4498   -0.0000 </r>
       <r>    3.1753    0.0000 </r>
       <r>    3.3902    0.0000 </r>
       <r>    4.0859    0.0000 </r>
       <r>    4.1704    0.0000 </r>
       <r>    7.3207    0.0000 </r>
       <r>    7.5610    0.0000 </r>
       <r>    7.5842    0.0000 </r>
       <r>    8.1180    0.0000 </r>
      </set>
      <set comment="kpoint 13">
       <r>  -35.1175    1.0000 </r>
       <r>  -35.1169    1.0000 </r>
       <r>  -34.9045    1.0000 </r>
       <r>  -34.9039    1.0000 </r>
       <r>  -34.8740    1.0000 </r>
       <r>  -34.8735    1.0000 </r>
       <r>  -12.2144    1.0000 </r>
       <r>  -12.1653    1.0000 </r>
       <r>  -11.9701    1.0000 </r>
       <r>  -11.9171    1.0000 </r>
       <r>   -5.4940    1.0000 </r>
       <r>   -5.4258    1.0000 </r>
       <r>   -4.6769    1.0000 </r>
       <r>   -4.5870    1.0000 </r>
       <r>   -4.0083    1.0000 </r>
       <r>   -3.7996    1.0000 </r>
       <r>   -3.1513    1.0000 </r>
       <r>   -3.1057    1.0000 </r>
       <r>   -1.9750    1.0000 </r>
       <r>   -1.6346    1.0000 </r>
       <r>   -1.4887    1.0000 </r>
       <r>   -1.4299    1.0000 </r>
       <r>   -0.6578    1.0000 </r>
       <r>   -0.5592    1.0000 </r>
       <r>    2.1161   -0.0000 </r>
       <r>    2.1794   -0.0000 </r>
       <r>    2.5014   -0.0000 </r>
       <r>    2.6097   -0.0000 </r>
       <r>    3.5665    0.0000 </r>
       <r>    3.7527    0.0000 </r>
       <r>    4.0802    0.0000 </r>
       <r>    4.2152    0.0000 </r>
       <r>    6.3610    0.0000 </r>
       <r>    6.9975    0.0000 </r>
       <r>    8.0985    0.0000 </r>
       <r>    8.3260    0.0000 </r>
      </set>
      <set comment="kpoint 14">
       <r>  -35.1362    1.0000 </r>
       <r>  -35.1357    1.0000 </r>
       <r>  -34.9005    1.0000 </r>
       <r>  -34.8999    1.0000 </r>
       <r>  -34.8794    1.0000 </r>
       <r>  -34.8789    1.0000 </r>
       <r>  -12.0827    1.0000 </r>
       <r>  -12.0346    1.0000 </r>
       <r>  -11.9170    1.0000 </r>
       <r>  -11.8677    1.0000 </r>
       <r>   -5.6126    1.0000 </r>
       <r>   -5.5465    1.0000 </r>
       <r>   -4.8199    1.0000 </r>
       <r>   -4.7338    1.0000 </r>
       <r>   -4.0758    1.0000 </r>
       <r>   -3.8753    1.0000 </r>
       <r>   -3.1713    1.0000 </r>
       <r>   -3.1366    1.0000 </r>
       <r>   -2.0659    1.0000 </r>
       <r>   -1.7130    1.0000 </r>
       <r>   -1.4249    1.0000 </r>
       <r>   -1.3633    1.0000 </r>
       <r>   -0.5292    1.0000 </r>
       <r>   -0.4109    1.0000 </r>
       <r>    2.1514   -0.0000 </r>
       <r>    2.1795   -0.0000 </r>
       <r>    2.6471   -0.0000 </r>
       <r>    2.7327   -0.0000 </r>
       <r>    3.8059    0.0000 </r>
       <r>    3.9195    0.0000 </r>
       <r>    3.9799    0.0000 </r>
       <r>    4.1507    0.0000 </r>
       <r>    5.9201    0.0000 </r>
       <r>    6.6218    0.0000 </r>
       <r>    8.3236    0.0000 </r>
       <r>    8.4249    0.0000 </r>
      </set>
      <set comment="kpoint 15">
       <r>  -35.1174    1.0000 </r>
       <r>  -35.1169    1.0000 </r>
       <r>  -34.9045    1.0000 </r>
       <r>  -34.9039    1.0000 </r>
       <r>  -34.8740    1.0000 </r>
       <r>  -34.8735    1.0000 </r>
       <r>  -12.2144    1.0000 </r>
       <r>  -12.1653    1.0000 </r>
       <r>  -11.9701    1.0000 </r>
       <r>  -11.9171    1.0000 </r>
       <r>   -5.4940    1.0000 </r>
       <r>   -5.4258    1.0000 </r>
       <r>   -4.6769    1.0000 </r>
       <r>   -4.5870    1.0000 </r>
       <r>   -4.0083    1.0000 </r>
       <r>   -3.7996    1.0000 </r>
       <r>   -3.1513    1.0000 </r>
       <r>   -3.1057    1.0000 </r>
       <r>   -1.9750    1.0000 </r>
       <r>   -1.6346    1.0000 </r>
       <r>   -1.4887    1.0000 </r>
       <r>   -1.4299    1.0000 </r>
       <r>   -0.6578    1.0000 </r>
       <r>   -0.5592    1.0000 </r>
       <r>    2.1161   -0.0000 </r>
       <r>    2.1793   -0.0000 </r>
       <r>    2.5014   -0.0000 </r>
       <r>    2.6097   -0.0000 </r>
       <r>    3.5665    0.0000 </r>
       <r>    3.7527    0.0000 </r>
       <r>    4.0802    0.0000 </r>
       <r>    4.2152    0.0000 </r>
       <r>    6.3610    0.0000 </r>
       <r>    6.9975    0.0000 </r>
       <r>    8.1437    0.0000 </r>
       <r>    8.2747    0.0000 </r>
      </set>
      <set comment="kpoint 16">
       <r>  -35.0651    1.0000 </r>
       <r>  -35.0646    1.0000 </r>
       <r>  -34.9157    1.0000 </r>
       <r>  -34.9151    1.0000 </r>
       <r>  -34.8592    1.0000 </r>
       <r>  -34.8586    1.0000 </r>
       <r>  -12.5546    1.0000 </r>
       <r>  -12.5026    1.0000 </r>
       <r>  -12.1073    1.0000 </r>
       <r>  -12.0458    1.0000 </r>
       <r>   -5.2096    1.0000 </r>
       <r>   -5.1214    1.0000 </r>
       <r>   -4.2897    1.0000 </r>
       <r>   -4.1813    1.0000 </r>
       <r>   -3.9034    1.0000 </r>
       <r>   -3.6915    1.0000 </r>
       <r>   -3.0644    1.0000 </r>
       <r>   -2.9994    1.0000 </r>
       <r>   -1.7406    1.0000 </r>
       <r>   -1.6156    1.0000 </r>
       <r>   -1.6027    1.0000 </r>
       <r>   -1.3848    1.0000 </r>
       <r>   -0.8666    1.0000 </r>
       <r>   -0.7896    1.0000 </r>
       <r>    1.9688   -0.0000 </r>
       <r>    2.1118   -0.0000 </r>
       <r>    2.3254   -0.0000 </r>
       <r>    2.4498   -0.0000 </r>
       <r>    3.1753    0.0000 </r>
       <r>    3.3902    0.0000 </r>
       <r>    4.0858    0.0000 </r>
       <r>    4.1704    0.0000 </r>
       <r>    7.3220    0.0000 </r>
       <r>    7.5704    0.0000 </r>
       <r>    7.5874    0.0000 </r>
       <r>    8.1465    0.0000 </r>
      </set>
      <set comment="kpoint 17">
       <r>  -34.9904    1.0000 </r>
       <r>  -34.9899    1.0000 </r>
       <r>  -34.9314    1.0000 </r>
       <r>  -34.9308    1.0000 </r>
       <r>  -34.8382    1.0000 </r>
       <r>  -34.8376    1.0000 </r>
       <r>  -12.9840    1.0000 </r>
       <r>  -12.9294    1.0000 </r>
       <r>  -12.2840    1.0000 </r>
       <r>  -12.2121    1.0000 </r>
       <r>   -4.9883    1.0000 </r>
       <r>   -4.8148    1.0000 </r>
       <r>   -3.8835    1.0000 </r>
       <r>   -3.7322    1.0000 </r>
       <r>   -3.7160    1.0000 </r>
       <r>   -3.5764    1.0000 </r>
       <r>   -2.8516    1.0000 </r>
       <r>   -2.7865    1.0000 </r>
       <r>   -1.7811    1.0000 </r>
       <r>   -1.7720    1.0000 </r>
       <r>   -1.4198    1.0000 </r>
       <r>   -1.0930    1.0000 </r>
       <r>   -0.8447    1.0000 </r>
       <r>   -0.7427    1.0000 </r>
       <r>    1.8550   -0.0000 </r>
       <r>    2.0783   -0.0000 </r>
       <r>    2.2870   -0.0000 </r>
       <r>    2.3865   -0.0000 </r>
       <r>    2.7538   -0.0000 </r>
       <r>    2.9689   -0.0000 </r>
       <r>    3.8937    0.0000 </r>
       <r>    3.9445    0.0000 </r>
       <r>    6.8133    0.0000 </r>
       <r>    7.0696    0.0000 </r>
       <r>    7.7880    0.0000 </r>
       <r>    8.3168    0.0000 </r>
      </set>
      <set comment="kpoint 18">
       <r>  -34.9480    1.0000 </r>
       <r>  -34.9474    1.0000 </r>
       <r>  -34.9101    1.0000 </r>
       <r>  -34.9096    1.0000 </r>
       <r>  -34.8158    1.0000 </r>
       <r>  -34.8152    1.0000 </r>
       <r>  -13.3932    1.0000 </r>
       <r>  -13.3369    1.0000 </r>
       <r>  -12.4552    1.0000 </r>
       <r>  -12.3734    1.0000 </r>
       <r>   -5.1157    1.0000 </r>
       <r>   -4.8429    1.0000 </r>
       <r>   -3.5607    1.0000 </r>
       <r>   -3.5203    1.0000 </r>
       <r>   -3.2205    1.0000 </r>
       <r>   -2.9888    1.0000 </r>
       <r>   -2.4556    1.0000 </r>
       <r>   -2.4250    1.0000 </r>
       <r>   -2.0613    1.0000 </r>
       <r>   -2.0582    1.0000 </r>
       <r>   -1.1968    1.0000 </r>
       <r>   -0.8570    1.0000 </r>
       <r>   -0.5414    1.0000 </r>
       <r>   -0.3613    1.0000 </r>
       <r>    1.9519   -0.0000 </r>
       <r>    2.2026   -0.0000 </r>
       <r>    2.4025   -0.0000 </r>
       <r>    2.4345   -0.0000 </r>
       <r>    2.4768   -0.0000 </r>
       <r>    2.6519   -0.0000 </r>
       <r>    3.5463    0.0000 </r>
       <r>    3.5750    0.0000 </r>
       <r>    6.1914    0.0000 </r>
       <r>    6.5176    0.0000 </r>
       <r>    7.2469    0.0000 </r>
       <r>    8.4125    0.0000 </r>
      </set>
      <set comment="kpoint 19">
       <r>  -34.9617    1.0000 </r>
       <r>  -34.9611    1.0000 </r>
       <r>  -34.8425    1.0000 </r>
       <r>  -34.8421    1.0000 </r>
       <r>  -34.7973    1.0000 </r>
       <r>  -34.7966    1.0000 </r>
       <r>  -13.7052    1.0000 </r>
       <r>  -13.6484    1.0000 </r>
       <r>  -12.5868    1.0000 </r>
       <r>  -12.4974    1.0000 </r>
       <r>   -5.3949    1.0000 </r>
       <r>   -5.1012    1.0000 </r>
       <r>   -3.1087    1.0000 </r>
       <r>   -3.0981    1.0000 </r>
       <r>   -2.7873    1.0000 </r>
       <r>   -2.4685    1.0000 </r>
       <r>   -2.3448    1.0000 </r>
       <r>   -2.3431    1.0000 </r>
       <r>   -1.9644    1.0000 </r>
       <r>   -1.9559    1.0000 </r>
       <r>   -1.2025    1.0000 </r>
       <r>   -0.8599    1.0000 </r>
       <r>   -0.3080    1.0000 </r>
       <r>   -0.0013    1.0003 </r>
       <r>    2.2896   -0.0000 </r>
       <r>    2.4368   -0.0000 </r>
       <r>    2.4668   -0.0000 </r>
       <r>    2.5760   -0.0000 </r>
       <r>    2.6358   -0.0000 </r>
       <r>    2.6575   -0.0000 </r>
       <r>    3.1428    0.0000 </r>
       <r>    3.1559    0.0000 </r>
       <r>    5.7492    0.0000 </r>
       <r>    6.0928    0.0000 </r>
       <r>    6.9646    0.0000 </r>
       <r>    7.6136    0.0000 </r>
      </set>
      <set comment="kpoint 20">
       <r>  -34.9695    1.0000 </r>
       <r>  -34.9689    1.0000 </r>
       <r>  -34.8036    1.0000 </r>
       <r>  -34.8032    1.0000 </r>
       <r>  -34.7873    1.0000 </r>
       <r>  -34.7866    1.0000 </r>
       <r>  -13.8727    1.0000 </r>
       <r>  -13.8157    1.0000 </r>
       <r>  -12.6575    1.0000 </r>
       <r>  -12.5641    1.0000 </r>
       <r>   -5.5761    1.0000 </r>
       <r>   -5.2804    1.0000 </r>
       <r>   -2.7924    1.0000 </r>
       <r>   -2.7873    1.0000 </r>
       <r>   -2.5134    1.0000 </r>
       <r>   -2.5110    1.0000 </r>
       <r>   -2.4526    1.0000 </r>
       <r>   -2.0536    1.0000 </r>
       <r>   -1.6494    1.0000 </r>
       <r>   -1.6445    1.0000 </r>
       <r>   -1.3492    1.0000 </r>
       <r>   -1.0497    1.0000 </r>
       <r>   -0.2316    1.0000 </r>
       <r>    0.1663    1.0341 </r>
       <r>    2.5973   -0.0000 </r>
       <r>    2.6231   -0.0000 </r>
       <r>    2.6556   -0.0000 </r>
       <r>    2.7282   -0.0000 </r>
       <r>    2.7978   -0.0000 </r>
       <r>    2.8211   -0.0000 </r>
       <r>    2.8631   -0.0000 </r>
       <r>    2.8783   -0.0000 </r>
       <r>    5.5083    0.0000 </r>
       <r>    5.8481    0.0000 </r>
       <r>    6.5837    0.0000 </r>
       <r>    6.9651    0.0000 </r>
      </set>
      <set comment="kpoint 21">
       <r>  -34.9581    1.0000 </r>
       <r>  -34.9575    1.0000 </r>
       <r>  -34.8622    1.0000 </r>
       <r>  -34.8615    1.0000 </r>
       <r>  -34.8005    1.0000 </r>
       <r>  -34.8001    1.0000 </r>
       <r>  -13.6242    1.0000 </r>
       <r>  -13.5679    1.0000 </r>
       <r>  -12.5524    1.0000 </r>
       <r>  -12.4658    1.0000 </r>
       <r>   -5.3159    1.0000 </r>
       <r>   -5.0266    1.0000 </r>
       <r>   -3.2470    1.0000 </r>
       <r>   -3.2314    1.0000 </r>
       <r>   -2.9489    1.0000 </r>
       <r>   -2.6702    1.0000 </r>
       <r>   -2.2586    1.0000 </r>
       <r>   -2.2546    1.0000 </r>
       <r>   -1.9851    1.0000 </r>
       <r>   -1.9789    1.0000 </r>
       <r>   -1.2676    1.0000 </r>
       <r>   -0.9191    1.0000 </r>
       <r>   -0.3616    1.0000 </r>
       <r>   -0.1114    1.0000 </r>
       <r>    2.1879   -0.0000 </r>
       <r>    2.3783   -0.0000 </r>
       <r>    2.5077   -0.0000 </r>
       <r>    2.5682   -0.0000 </r>
       <r>    2.5947   -0.0000 </r>
       <r>    2.6399   -0.0000 </r>
       <r>    3.2073    0.0000 </r>
       <r>    3.2287    0.0000 </r>
       <r>    5.8627    0.0000 </r>
       <r>    6.1988    0.0000 </r>
       <r>    6.9570    0.0000 </r>
       <r>    7.8027    0.0000 </r>
      </set>
      <set comment="kpoint 22">
       <r>  -34.9480    1.0000 </r>
       <r>  -34.9474    1.0000 </r>
       <r>  -34.9102    1.0000 </r>
       <r>  -34.9095    1.0000 </r>
       <r>  -34.8157    1.0000 </r>
       <r>  -34.8153    1.0000 </r>
       <r>  -13.3928    1.0000 </r>
       <r>  -13.3372    1.0000 </r>
       <r>  -12.4548    1.0000 </r>
       <r>  -12.3739    1.0000 </r>
       <r>   -5.1153    1.0000 </r>
       <r>   -4.8432    1.0000 </r>
       <r>   -3.5577    1.0000 </r>
       <r>   -3.5235    1.0000 </r>
       <r>   -3.2201    1.0000 </r>
       <r>   -2.9898    1.0000 </r>
       <r>   -2.4568    1.0000 </r>
       <r>   -2.4231    1.0000 </r>
       <r>   -2.0623    1.0000 </r>
       <r>   -2.0572    1.0000 </r>
       <r>   -1.1841    1.0000 </r>
       <r>   -0.8660    1.0000 </r>
       <r>   -0.5387    1.0000 </r>
       <r>   -0.3747    1.0000 </r>
       <r>    1.9601   -0.0000 </r>
       <r>    2.2029   -0.0000 </r>
       <r>    2.3989   -0.0000 </r>
       <r>    2.4471   -0.0000 </r>
       <r>    2.4704   -0.0000 </r>
       <r>    2.6491   -0.0000 </r>
       <r>    3.5392    0.0000 </r>
       <r>    3.5811    0.0000 </r>
       <r>    6.1933    0.0000 </r>
       <r>    6.5160    0.0000 </r>
       <r>    7.2361    0.0000 </r>
       <r>    8.2089    0.0000 </r>
      </set>
      <set comment="kpoint 23">
       <r>  -34.9723    1.0000 </r>
       <r>  -34.9716    1.0000 </r>
       <r>  -34.9337    1.0000 </r>
       <r>  -34.9331    1.0000 </r>
       <r>  -34.8420    1.0000 </r>
       <r>  -34.8417    1.0000 </r>
       <r>  -13.0447    1.0000 </r>
       <r>  -12.9905    1.0000 </r>
       <r>  -12.3076    1.0000 </r>
       <r>  -12.2352    1.0000 </r>
       <r>   -4.9406    1.0000 </r>
       <r>   -4.7392    1.0000 </r>
       <r>   -3.8150    1.0000 </r>
       <r>   -3.7056    1.0000 </r>
       <r>   -3.5115    1.0000 </r>
       <r>   -3.3841    1.0000 </r>
       <r>   -3.0893    1.0000 </r>
       <r>   -2.9748    1.0000 </r>
       <r>   -1.9337    1.0000 </r>
       <r>   -1.9234    1.0000 </r>
       <r>   -1.1714    1.0000 </r>
       <r>   -0.8991    1.0000 </r>
       <r>   -0.7755    1.0000 </r>
       <r>   -0.6829    1.0000 </r>
       <r>    1.7632   -0.0000 </r>
       <r>    2.0071   -0.0000 </r>
       <r>    2.3269   -0.0000 </r>
       <r>    2.4246   -0.0000 </r>
       <r>    2.5229   -0.0000 </r>
       <r>    2.7296   -0.0000 </r>
       <r>    3.9267    0.0000 </r>
       <r>    4.0094    0.0000 </r>
       <r>    6.7319    0.0000 </r>
       <r>    7.0090    0.0000 </r>
       <r>    7.7438    0.0000 </r>
       <r>    8.5537    0.0000 </r>
      </set>
      <set comment="kpoint 24">
       <r>  -35.0351    1.0000 </r>
       <r>  -35.0345    1.0000 </r>
       <r>  -34.9185    1.0000 </r>
       <r>  -34.9179    1.0000 </r>
       <r>  -34.8724    1.0000 </r>
       <r>  -34.8720    1.0000 </r>
       <r>  -12.6396    1.0000 </r>
       <r>  -12.5879    1.0000 </r>
       <r>  -12.1365    1.0000 </r>
       <r>  -12.0740    1.0000 </r>
       <r>   -5.0138    1.0000 </r>
       <r>   -4.9074    1.0000 </r>
       <r>   -4.0907    1.0000 </r>
       <r>   -4.0312    1.0000 </r>
       <r>   -3.8159    1.0000 </r>
       <r>   -3.6141    1.0000 </r>
       <r>   -3.3033    1.0000 </r>
       <r>   -3.1427    1.0000 </r>
       <r>   -2.0644    1.0000 </r>
       <r>   -2.0407    1.0000 </r>
       <r>   -1.3915    1.0000 </r>
       <r>   -1.1287    1.0000 </r>
       <r>   -0.8293    1.0000 </r>
       <r>   -0.7884    1.0000 </r>
       <r>    1.7953   -0.0000 </r>
       <r>    2.0593   -0.0000 </r>
       <r>    2.3963   -0.0000 </r>
       <r>    2.4644   -0.0000 </r>
       <r>    2.7871   -0.0000 </r>
       <r>    2.9833   -0.0000 </r>
       <r>    4.1725    0.0000 </r>
       <r>    4.3013    0.0000 </r>
       <r>    7.4065    0.0000 </r>
       <r>    7.5943    0.0000 </r>
       <r>    8.0687    0.0000 </r>
       <r>    8.5262    0.0000 </r>
      </set>
      <set comment="kpoint 25">
       <r>  -35.0857    1.0000 </r>
       <r>  -35.0851    1.0000 </r>
       <r>  -34.9060    1.0000 </r>
       <r>  -34.9054    1.0000 </r>
       <r>  -34.8983    1.0000 </r>
       <r>  -34.8979    1.0000 </r>
       <r>  -12.2671    1.0000 </r>
       <r>  -12.2186    1.0000 </r>
       <r>  -11.9798    1.0000 </r>
       <r>  -11.9264    1.0000 </r>
       <r>   -5.2152    1.0000 </r>
       <r>   -5.1433    1.0000 </r>
       <r>   -4.6340    1.0000 </r>
       <r>   -4.5838    1.0000 </r>
       <r>   -3.8488    1.0000 </r>
       <r>   -3.6280    1.0000 </r>
       <r>   -3.2745    1.0000 </r>
       <r>   -3.1396    1.0000 </r>
       <r>   -2.2081    1.0000 </r>
       <r>   -2.1542    1.0000 </r>
       <r>   -1.7305    1.0000 </r>
       <r>   -1.4608    1.0000 </r>
       <r>   -0.6581    1.0000 </r>
       <r>   -0.6151    1.0000 </r>
       <r>    2.0203   -0.0000 </r>
       <r>    2.2328   -0.0000 </r>
       <r>    2.5169   -0.0000 </r>
       <r>    2.5693   -0.0000 </r>
       <r>    3.1410    0.0000 </r>
       <r>    3.2985    0.0000 </r>
       <r>    4.2281    0.0000 </r>
       <r>    4.4193    0.0000 </r>
       <r>    7.0015    0.0000 </r>
       <r>    7.5823    0.0000 </r>
       <r>    8.2194    0.0000 </r>
       <r>    8.5095    0.0000 </r>
      </set>
      <set comment="kpoint 26">
       <r>  -35.1138    1.0000 </r>
       <r>  -35.1133    1.0000 </r>
       <r>  -34.9133    1.0000 </r>
       <r>  -34.9128    1.0000 </r>
       <r>  -34.8987    1.0000 </r>
       <r>  -34.8982    1.0000 </r>
       <r>  -12.0384    1.0000 </r>
       <r>  -11.9920    1.0000 </r>
       <r>  -11.8829    1.0000 </r>
       <r>  -11.8358    1.0000 </r>
       <r>   -5.3486    1.0000 </r>
       <r>   -5.2839    1.0000 </r>
       <r>   -4.9422    1.0000 </r>
       <r>   -4.8923    1.0000 </r>
       <r>   -3.9831    1.0000 </r>
       <r>   -3.7776    1.0000 </r>
       <r>   -3.1877    1.0000 </r>
       <r>   -3.0853    1.0000 </r>
       <r>   -2.2217    1.0000 </r>
       <r>   -2.1386    1.0000 </r>
       <r>   -1.9886    1.0000 </r>
       <r>   -1.7014    1.0000 </r>
       <r>   -0.4371    1.0000 </r>
       <r>   -0.3667    1.0000 </r>
       <r>    2.0696   -0.0000 </r>
       <r>    2.1290   -0.0000 </r>
       <r>    2.7608   -0.0000 </r>
       <r>    2.8895   -0.0000 </r>
       <r>    3.4055    0.0000 </r>
       <r>    3.5224    0.0000 </r>
       <r>    4.1529    0.0000 </r>
       <r>    4.4186    0.0000 </r>
       <r>    6.2557    0.0000 </r>
       <r>    6.9838    0.0000 </r>
       <r>    8.7410    0.0000 </r>
       <r>    8.8842    0.0000 </r>
      </set>
      <set comment="kpoint 27">
       <r>  -35.1138    1.0000 </r>
       <r>  -35.1133    1.0000 </r>
       <r>  -34.9133    1.0000 </r>
       <r>  -34.9128    1.0000 </r>
       <r>  -34.8987    1.0000 </r>
       <r>  -34.8982    1.0000 </r>
       <r>  -12.0384    1.0000 </r>
       <r>  -11.9920    1.0000 </r>
       <r>  -11.8829    1.0000 </r>
       <r>  -11.8358    1.0000 </r>
       <r>   -5.3486    1.0000 </r>
       <r>   -5.2839    1.0000 </r>
       <r>   -4.9422    1.0000 </r>
       <r>   -4.8923    1.0000 </r>
       <r>   -3.9831    1.0000 </r>
       <r>   -3.7776    1.0000 </r>
       <r>   -3.1877    1.0000 </r>
       <r>   -3.0853    1.0000 </r>
       <r>   -2.2217    1.0000 </r>
       <r>   -2.1386    1.0000 </r>
       <r>   -1.9886    1.0000 </r>
       <r>   -1.7014    1.0000 </r>
       <r>   -0.4371    1.0000 </r>
       <r>   -0.3667    1.0000 </r>
       <r>    2.0696   -0.0000 </r>
       <r>    2.1290   -0.0000 </r>
       <r>    2.7608   -0.0000 </r>
       <r>    2.8895   -0.0000 </r>
       <r>    3.4055    0.0000 </r>
       <r>    3.5224    0.0000 </r>
       <r>    4.1529    0.0000 </r>
       <r>    4.4186    0.0000 </r>
       <r>    6.2557    0.0000 </r>
       <r>    6.9838    0.0000 </r>
       <r>    8.7425    0.0000 </r>
       <r>    8.9254    0.0000 </r>
      </set>
      <set comment="kpoint 28">
       <r>  -35.0856    1.0000 </r>
       <r>  -35.0852    1.0000 </r>
       <r>  -34.9060    1.0000 </r>
       <r>  -34.9054    1.0000 </r>
       <r>  -34.8984    1.0000 </r>
       <r>  -34.8978    1.0000 </r>
       <r>  -12.2671    1.0000 </r>
       <r>  -12.2186    1.0000 </r>
       <r>  -11.9798    1.0000 </r>
       <r>  -11.9264    1.0000 </r>
       <r>   -5.2152    1.0000 </r>
       <r>   -5.1433    1.0000 </r>
       <r>   -4.6340    1.0000 </r>
       <r>   -4.5837    1.0000 </r>
       <r>   -3.8488    1.0000 </r>
       <r>   -3.6280    1.0000 </r>
       <r>   -3.2745    1.0000 </r>
       <r>   -3.1396    1.0000 </r>
       <r>   -2.2081    1.0000 </r>
       <r>   -2.1542    1.0000 </r>
       <r>   -1.7305    1.0000 </r>
       <r>   -1.4608    1.0000 </r>
       <r>   -0.6581    1.0000 </r>
       <r>   -0.6151    1.0000 </r>
       <r>    2.0203   -0.0000 </r>
       <r>    2.2328   -0.0000 </r>
       <r>    2.5169   -0.0000 </r>
       <r>    2.5693   -0.0000 </r>
       <r>    3.1410    0.0000 </r>
       <r>    3.2985    0.0000 </r>
       <r>    4.2280    0.0000 </r>
       <r>    4.4193    0.0000 </r>
       <r>    7.0014    0.0000 </r>
       <r>    7.5821    0.0000 </r>
       <r>    8.1878    0.0000 </r>
       <r>    8.5323    0.0000 </r>
      </set>
      <set comment="kpoint 29">
       <r>  -35.0350    1.0000 </r>
       <r>  -35.0346    1.0000 </r>
       <r>  -34.9185    1.0000 </r>
       <r>  -34.9180    1.0000 </r>
       <r>  -34.8725    1.0000 </r>
       <r>  -34.8718    1.0000 </r>
       <r>  -12.6396    1.0000 </r>
       <r>  -12.5879    1.0000 </r>
       <r>  -12.1365    1.0000 </r>
       <r>  -12.0740    1.0000 </r>
       <r>   -5.0138    1.0000 </r>
       <r>   -4.9074    1.0000 </r>
       <r>   -4.0907    1.0000 </r>
       <r>   -4.0312    1.0000 </r>
       <r>   -3.8159    1.0000 </r>
       <r>   -3.6141    1.0000 </r>
       <r>   -3.3034    1.0000 </r>
       <r>   -3.1427    1.0000 </r>
       <r>   -2.0644    1.0000 </r>
       <r>   -2.0407    1.0000 </r>
       <r>   -1.3915    1.0000 </r>
       <r>   -1.1288    1.0000 </r>
       <r>   -0.8293    1.0000 </r>
       <r>   -0.7884    1.0000 </r>
       <r>    1.7953   -0.0000 </r>
       <r>    2.0593   -0.0000 </r>
       <r>    2.3964   -0.0000 </r>
       <r>    2.4644   -0.0000 </r>
       <r>    2.7871   -0.0000 </r>
       <r>    2.9833   -0.0000 </r>
       <r>    4.1725    0.0000 </r>
       <r>    4.3013    0.0000 </r>
       <r>    7.4068    0.0000 </r>
       <r>    7.5942    0.0000 </r>
       <r>    8.0695    0.0000 </r>
       <r>    8.5161    0.0000 </r>
      </set>
      <set comment="kpoint 30">
       <r>  -34.9722    1.0000 </r>
       <r>  -34.9718    1.0000 </r>
       <r>  -34.9337    1.0000 </r>
       <r>  -34.9331    1.0000 </r>
       <r>  -34.8422    1.0000 </r>
       <r>  -34.8415    1.0000 </r>
       <r>  -13.0447    1.0000 </r>
       <r>  -12.9905    1.0000 </r>
       <r>  -12.3076    1.0000 </r>
       <r>  -12.2352    1.0000 </r>
       <r>   -4.9406    1.0000 </r>
       <r>   -4.7392    1.0000 </r>
       <r>   -3.8150    1.0000 </r>
       <r>   -3.7056    1.0000 </r>
       <r>   -3.5115    1.0000 </r>
       <r>   -3.3841    1.0000 </r>
       <r>   -3.0893    1.0000 </r>
       <r>   -2.9747    1.0000 </r>
       <r>   -1.9337    1.0000 </r>
       <r>   -1.9233    1.0000 </r>
       <r>   -1.1714    1.0000 </r>
       <r>   -0.8991    1.0000 </r>
       <r>   -0.7755    1.0000 </r>
       <r>   -0.6829    1.0000 </r>
       <r>    1.7632   -0.0000 </r>
       <r>    2.0071   -0.0000 </r>
       <r>    2.3269   -0.0000 </r>
       <r>    2.4246   -0.0000 </r>
       <r>    2.5229   -0.0000 </r>
       <r>    2.7296   -0.0000 </r>
       <r>    3.9267    0.0000 </r>
       <r>    4.0094    0.0000 </r>
       <r>    6.7318    0.0000 </r>
       <r>    7.0090    0.0000 </r>
       <r>    7.7434    0.0000 </r>
       <r>    8.5706    0.0000 </r>
      </set>
      <set comment="kpoint 31">
       <r>  -34.9480    1.0000 </r>
       <r>  -34.9474    1.0000 </r>
       <r>  -34.9100    1.0000 </r>
       <r>  -34.9097    1.0000 </r>
       <r>  -34.8159    1.0000 </r>
       <r>  -34.8151    1.0000 </r>
       <r>  -13.3928    1.0000 </r>
       <r>  -13.3372    1.0000 </r>
       <r>  -12.4548    1.0000 </r>
       <r>  -12.3739    1.0000 </r>
       <r>   -5.1153    1.0000 </r>
       <r>   -4.8432    1.0000 </r>
       <r>   -3.5577    1.0000 </r>
       <r>   -3.5235    1.0000 </r>
       <r>   -3.2201    1.0000 </r>
       <r>   -2.9898    1.0000 </r>
       <r>   -2.4568    1.0000 </r>
       <r>   -2.4231    1.0000 </r>
       <r>   -2.0623    1.0000 </r>
       <r>   -2.0572    1.0000 </r>
       <r>   -1.1841    1.0000 </r>
       <r>   -0.8660    1.0000 </r>
       <r>   -0.5386    1.0000 </r>
       <r>   -0.3747    1.0000 </r>
       <r>    1.9601   -0.0000 </r>
       <r>    2.2029   -0.0000 </r>
       <r>    2.3989   -0.0000 </r>
       <r>    2.4471   -0.0000 </r>
       <r>    2.4704   -0.0000 </r>
       <r>    2.6491   -0.0000 </r>
       <r>    3.5392    0.0000 </r>
       <r>    3.5811    0.0000 </r>
       <r>    6.1936    0.0000 </r>
       <r>    6.5160    0.0000 </r>
       <r>    7.2360    0.0000 </r>
       <r>    8.2119    0.0000 </r>
      </set>
      <set comment="kpoint 32">
       <r>  -34.9581    1.0000 </r>
       <r>  -34.9575    1.0000 </r>
       <r>  -34.8620    1.0000 </r>
       <r>  -34.8617    1.0000 </r>
       <r>  -34.8007    1.0000 </r>
       <r>  -34.8000    1.0000 </r>
       <r>  -13.6242    1.0000 </r>
       <r>  -13.5679    1.0000 </r>
       <r>  -12.5524    1.0000 </r>
       <r>  -12.4658    1.0000 </r>
       <r>   -5.3159    1.0000 </r>
       <r>   -5.0266    1.0000 </r>
       <r>   -3.2470    1.0000 </r>
       <r>   -3.2314    1.0000 </r>
       <r>   -2.9489    1.0000 </r>
       <r>   -2.6702    1.0000 </r>
       <r>   -2.2586    1.0000 </r>
       <r>   -2.2546    1.0000 </r>
       <r>   -1.9851    1.0000 </r>
       <r>   -1.9789    1.0000 </r>
       <r>   -1.2676    1.0000 </r>
       <r>   -0.9191    1.0000 </r>
       <r>   -0.3616    1.0000 </r>
       <r>   -0.1114    1.0000 </r>
       <r>    2.1879   -0.0000 </r>
       <r>    2.3783   -0.0000 </r>
       <r>    2.5077   -0.0000 </r>
       <r>    2.5682   -0.0000 </r>
       <r>    2.5947   -0.0000 </r>
       <r>    2.6399   -0.0000 </r>
       <r>    3.2073    0.0000 </r>
       <r>    3.2287    0.0000 </r>
       <r>    5.8625    0.0000 </r>
       <r>    6.1988    0.0000 </r>
       <r>    6.9937    0.0000 </r>
       <r>    7.8551    0.0000 </r>
      </set>
      <set comment="kpoint 33">
       <r>  -34.9617    1.0000 </r>
       <r>  -34.9611    1.0000 </r>
       <r>  -34.8426    1.0000 </r>
       <r>  -34.8421    1.0000 </r>
       <r>  -34.7972    1.0000 </r>
       <r>  -34.7967    1.0000 </r>
       <r>  -13.7050    1.0000 </r>
       <r>  -13.6486    1.0000 </r>
       <r>  -12.5864    1.0000 </r>
       <r>  -12.4978    1.0000 </r>
       <r>   -5.3942    1.0000 </r>
       <r>   -5.1017    1.0000 </r>
       <r>   -3.1093    1.0000 </r>
       <r>   -3.0974    1.0000 </r>
       <r>   -2.7888    1.0000 </r>
       <r>   -2.4671    1.0000 </r>
       <r>   -2.3463    1.0000 </r>
       <r>   -2.3418    1.0000 </r>
       <r>   -1.9656    1.0000 </r>
       <r>   -1.9542    1.0000 </r>
       <r>   -1.1924    1.0000 </r>
       <r>   -0.8681    1.0000 </r>
       <r>   -0.3053    1.0000 </r>
       <r>   -0.0140    1.0001 </r>
       <r>    2.3078   -0.0000 </r>
       <r>    2.4381   -0.0000 </r>
       <r>    2.4720   -0.0000 </r>
       <r>    2.5640   -0.0000 </r>
       <r>    2.6259   -0.0000 </r>
       <r>    2.6626   -0.0000 </r>
       <r>    3.1323    0.0000 </r>
       <r>    3.1672    0.0000 </r>
       <r>    5.7502    0.0000 </r>
       <r>    6.0924    0.0000 </r>
       <r>    6.9004    0.0000 </r>
       <r>    7.6040    0.0000 </r>
      </set>
      <set comment="kpoint 34">
       <r>  -34.9438    1.0000 </r>
       <r>  -34.9433    1.0000 </r>
       <r>  -34.9419    1.0000 </r>
       <r>  -34.9411    1.0000 </r>
       <r>  -34.8194    1.0000 </r>
       <r>  -34.8190    1.0000 </r>
       <r>  -13.2489    1.0000 </r>
       <r>  -13.1947    1.0000 </r>
       <r>  -12.3945    1.0000 </r>
       <r>  -12.3186    1.0000 </r>
       <r>   -5.0512    1.0000 </r>
       <r>   -4.8106    1.0000 </r>
       <r>   -3.7174    1.0000 </r>
       <r>   -3.6560    1.0000 </r>
       <r>   -3.4764    1.0000 </r>
       <r>   -3.2897    1.0000 </r>
       <r>   -2.3808    1.0000 </r>
       <r>   -2.3734    1.0000 </r>
       <r>   -1.8906    1.0000 </r>
       <r>   -1.8839    1.0000 </r>
       <r>   -1.4416    1.0000 </r>
       <r>   -1.1076    1.0000 </r>
       <r>   -0.6796    1.0000 </r>
       <r>   -0.5611    1.0000 </r>
       <r>    1.9573   -0.0000 </r>
       <r>    2.2545   -0.0000 </r>
       <r>    2.3190   -0.0000 </r>
       <r>    2.3451   -0.0000 </r>
       <r>    2.7048   -0.0000 </r>
       <r>    2.9196   -0.0000 </r>
       <r>    3.5864    0.0000 </r>
       <r>    3.6171    0.0000 </r>
       <r>    6.3978    0.0000 </r>
       <r>    6.6897    0.0000 </r>
       <r>    7.4049    0.0000 </r>
       <r>    8.2574    0.0000 </r>
      </set>
      <set comment="kpoint 35">
       <r>  -34.9906    1.0000 </r>
       <r>  -34.9899    1.0000 </r>
       <r>  -34.9314    1.0000 </r>
       <r>  -34.9308    1.0000 </r>
       <r>  -34.8381    1.0000 </r>
       <r>  -34.8377    1.0000 </r>
       <r>  -12.9829    1.0000 </r>
       <r>  -12.9303    1.0000 </r>
       <r>  -12.2827    1.0000 </r>
       <r>  -12.2137    1.0000 </r>
       <r>   -4.9887    1.0000 </r>
       <r>   -4.8147    1.0000 </r>
       <r>   -3.8722    1.0000 </r>
       <r>   -3.7513    1.0000 </r>
       <r>   -3.7044    1.0000 </r>
       <r>   -3.5796    1.0000 </r>
       <r>   -2.8530    1.0000 </r>
       <r>   -2.7853    1.0000 </r>
       <r>   -1.7834    1.0000 </r>
       <r>   -1.7706    1.0000 </r>
       <r>   -1.3936    1.0000 </r>
       <r>   -1.1131    1.0000 </r>
       <r>   -0.8414    1.0000 </r>
       <r>   -0.7602    1.0000 </r>
       <r>    1.8551   -0.0000 </r>
       <r>    2.0845   -0.0000 </r>
       <r>    2.2845   -0.0000 </r>
       <r>    2.3927   -0.0000 </r>
       <r>    2.7481   -0.0000 </r>
       <r>    2.9762   -0.0000 </r>
       <r>    3.8830    0.0000 </r>
       <r>    3.9520    0.0000 </r>
       <r>    6.8152    0.0000 </r>
       <r>    7.0629    0.0000 </r>
       <r>    7.7867    0.0000 </r>
       <r>    8.3135    0.0000 </r>
      </set>
      <set comment="kpoint 36">
       <r>  -35.0352    1.0000 </r>
       <r>  -35.0344    1.0000 </r>
       <r>  -34.9185    1.0000 </r>
       <r>  -34.9179    1.0000 </r>
       <r>  -34.8723    1.0000 </r>
       <r>  -34.8720    1.0000 </r>
[...]
       <r>    -2.1336     2.1210    18.5889 </r>
       <r>    -1.9713     3.9695    19.2331 </r>
       <r>    -1.8090     2.9145    19.7061 </r>
       <r>    -1.6467     3.6642    20.3008 </r>
       <r>    -1.4844     2.5066    20.7076 </r>
       <r>    -1.3221     3.4384    21.2657 </r>
       <r>    -1.1598     1.4617    21.5029 </r>
       <r>    -0.9975     1.8056    21.7959 </r>
       <r>    -0.8352     2.6888    22.2323 </r>
       <r>    -0.6729     3.3229    22.7716 </r>
       <r>    -0.5106     2.6082    23.1949 </r>
       <r>    -0.3483     2.4891    23.5989 </r>
       <r>    -0.1860     1.2727    23.8054 </r>
       <r>    -0.0238     0.8141    23.9375 </r>
       <r>     0.1385     0.1932    23.9689 </r>
       <r>     0.3008     0.1961    24.0007 </r>
       <r>     0.4631    -0.0042    24.0000 </r>
       <r>     0.6254    -0.0002    24.0000 </r>
       <r>     0.7877    -0.0000    24.0000 </r>
       <r>     0.9500    -0.0000    24.0000 </r>
       <r>     1.1123    -0.0000    24.0000 </r>
       <r>     1.2746    -0.0000    24.0000 </r>
       <r>     1.4369    -0.0003    24.0000 </r>
       <r>     1.5992    -0.0199    23.9967 </r>
       <r>     1.7615     0.6065    24.0951 </r>
       <r>     1.9238     1.6589    24.3644 </r>
       <r>     2.0861     3.9727    25.0091 </r>
       <r>     2.2484     4.8610    25.7980 </r>
       <r>     2.4107     3.8402    26.4213 </r>
       <r>     2.5730     5.2317    27.2703 </r>
       <r>     2.7352     4.2179    27.9549 </r>
       <r>     2.8975     3.1509    28.4663 </r>
       <r>     3.0598     2.6253    28.8923 </r>
       <r>     3.2221     2.8725    29.3585 </r>
       <r>     3.3844     1.9266    29.6712 </r>
       <r>     3.5467     1.8051    29.9641 </r>
       <r>     3.7090     1.6219    30.2274 </r>
       <r>     3.8713     1.1608    30.4157 </r>
       <r>     4.0336     2.1467    30.7641 </r>
       <r>     4.1959     2.8476    31.2263 </r>
       <r>     4.3582     2.0082    31.5522 </r>
       <r>     4.5205     1.4863    31.7934 </r>
       <r>     4.6828     0.8575    31.9326 </r>
       <r>     4.8451     0.3856    31.9952 </r>
       <r>     5.0074     0.0313    32.0002 </r>
       <r>     5.1697    -0.0017    32.0000 </r>
       <r>     5.3320     0.0026    32.0004 </r>
       <r>     5.4943     0.1187    32.0196 </r>
       <r>     5.6565     0.1388    32.0422 </r>
       <r>     5.8188     0.3317    32.0960 </r>
       <r>     5.9811     0.4923    32.1759 </r>
       <r>     6.1434     0.5670    32.2679 </r>
       <r>     6.3057     0.7861    32.3955 </r>
       <r>     6.4680     0.9406    32.5482 </r>
       <r>     6.6303     1.2321    32.7481 </r>
       <r>     6.7926     0.7982    32.8777 </r>
       <r>     6.9549     1.8075    33.1710 </r>
       <r>     7.1172     2.0518    33.5040 </r>
       <r>     7.2795     1.0320    33.6715 </r>
       <r>     7.4418     1.5630    33.9252 </r>
       <r>     7.6041     1.9161    34.2361 </r>
       <r>     7.7664     1.3470    34.4548 </r>
       <r>     7.9287     1.2579    34.6589 </r>
       <r>     8.0910     1.1279    34.8420 </r>
       <r>     8.2533     2.4307    35.2365 </r>
       <r>     8.4155     1.7534    35.5210 </r>
       <r>     8.5778     1.2587    35.7253 </r>
       <r>     8.7401     0.8640    35.8655 </r>
       <r>     8.9024     0.6301    35.9678 </r>
       <r>     9.0647     0.1687    35.9951 </r>
       <r>     9.2270     0.0315    36.0003 </r>
       <r>     9.3893    -0.0016    36.0000 </r>
       <r>     9.5516    -0.0000    36.0000 </r>
       <r>     9.7139    -0.0000    36.0000 </r>
       <r>     9.8762     0.0000    36.0000 </r>
       <r>    10.0385     0.0000    36.0000 </r>
       <r>    10.2008     0.0000    36.0000 </r>
       <r>    10.3631     0.0000    36.0000 </r>
       <r>    10.5254     0.0000    36.0000 </r>
       <r>    10.6877     0.0000    36.0000 </r>
       <r>    10.8500     0.0000    36.0000 </r>
       <r>    11.0123     0.0000    36.0000 </r>
       <r>    11.1746     0.0000    36.0000 </r>
       <r>    11.3368     0.0000    36.0000 </r>
      </set>
      <set comment="spin 2">
       <r>   -37.3514     0.0000     0.0000 </r>
       <r>   -37.1891     0.0000     0.0000 </r>
       <r>   -37.0268     0.0000     0.0000 </r>
       <r>   -36.8646     0.0000     0.0000 </r>
       <r>   -36.7023     0.0000     0.0000 </r>
       <r>   -36.5400     0.0000     0.0000 </r>
       <r>   -36.3777     0.0000     0.0000 </r>
       <r>   -36.2154     0.0000     0.0000 </r>
       <r>   -36.0531    -0.0000    -0.0000 </r>
       <r>   -35.8908    -0.0000    -0.0000 </r>
       <r>   -35.7285    -0.0000    -0.0000 </r>
       <r>   -35.5662    -0.0000    -0.0000 </r>
       <r>   -35.4039    -0.0009    -0.0001 </r>
       <r>   -35.2416    -0.1938    -0.0316 </r>
       <r>   -35.0793     4.3188     0.6693 </r>
       <r>   -34.9170    15.6180     3.2040 </r>
       <r>   -34.7547    17.3069     6.0128 </r>
       <r>   -34.5924    -0.0562     6.0037 </r>
       <r>   -34.4301    -0.0229     6.0000 </r>
       <r>   -34.2678    -0.0000     6.0000 </r>
       <r>   -34.1055    -0.0000     6.0000 </r>
       <r>   -33.9433     0.0000     6.0000 </r>
       <r>   -33.7810     0.0000     6.0000 </r>
       <r>   -33.6187     0.0000     6.0000 </r>
       <r>   -33.4564     0.0000     6.0000 </r>
       <r>   -33.2941     0.0000     6.0000 </r>
       <r>   -33.1318     0.0000     6.0000 </r>
       <r>   -32.9695     0.0000     6.0000 </r>
       <r>   -32.8072     0.0000     6.0000 </r>
       <r>   -32.6449     0.0000     6.0000 </r>
       <r>   -32.4826     0.0000     6.0000 </r>
       <r>   -32.3203     0.0000     6.0000 </r>
       <r>   -32.1580     0.0000     6.0000 </r>
       <r>   -31.9957     0.0000     6.0000 </r>
       <r>   -31.8334     0.0000     6.0000 </r>
       <r>   -31.6711     0.0000     6.0000 </r>
       <r>   -31.5088     0.0000     6.0000 </r>
       <r>   -31.3465     0.0000     6.0000 </r>
       <r>   -31.1843     0.0000     6.0000 </r>
       <r>   -31.0220     0.0000     6.0000 </r>
       <r>   -30.8597     0.0000     6.0000 </r>
       <r>   -30.6974     0.0000     6.0000 </r>
       <r>   -30.5351     0.0000     6.0000 </r>
       <r>   -30.3728     0.0000     6.0000 </r>
       <r>   -30.2105     0.0000     6.0000 </r>
       <r>   -30.0482     0.0000     6.0000 </r>
       <r>   -29.8859     0.0000     6.0000 </r>
       <r>   -29.7236     0.0000     6.0000 </r>
       <r>   -29.5613     0.0000     6.0000 </r>
       <r>   -29.3990     0.0000     6.0000 </r>
       <r>   -29.2367     0.0000     6.0000 </r>
       <r>   -29.0744     0.0000     6.0000 </r>
       <r>   -28.9121     0.0000     6.0000 </r>
       <r>   -28.7498     0.0000     6.0000 </r>
       <r>   -28.5875     0.0000     6.0000 </r>
       <r>   -28.4252     0.0000     6.0000 </r>
       <r>   -28.2630     0.0000     6.0000 </r>
       <r>   -28.1007     0.0000     6.0000 </r>
       <r>   -27.9384     0.0000     6.0000 </r>
       <r>   -27.7761     0.0000     6.0000 </r>
       <r>   -27.6138     0.0000     6.0000 </r>
       <r>   -27.4515     0.0000     6.0000 </r>
       <r>   -27.2892     0.0000     6.0000 </r>
       <r>   -27.1269     0.0000     6.0000 </r>
       <r>   -26.9646     0.0000     6.0000 </r>
       <r>   -26.8023     0.0000     6.0000 </r>
       <r>   -26.6400     0.0000     6.0000 </r>
       <r>   -26.4777     0.0000     6.0000 </r>
       <r>   -26.3154     0.0000     6.0000 </r>
       <r>   -26.1531     0.0000     6.0000 </r>
       <r>   -25.9908     0.0000     6.0000 </r>
       <r>   -25.8285     0.0000     6.0000 </r>
       <r>   -25.6662     0.0000     6.0000 </r>
       <r>   -25.5040     0.0000     6.0000 </r>
       <r>   -25.3417     0.0000     6.0000 </r>
       <r>   -25.1794     0.0000     6.0000 </r>
       <r>   -25.0171     0.0000     6.0000 </r>
       <r>   -24.8548     0.0000     6.0000 </r>
       <r>   -24.6925     0.0000     6.0000 </r>
       <r>   -24.5302     0.0000     6.0000 </r>
       <r>   -24.3679     0.0000     6.0000 </r>
       <r>   -24.2056     0.0000     6.0000 </r>
       <r>   -24.0433     0.0000     6.0000 </r>
       <r>   -23.8810     0.0000     6.0000 </r>
       <r>   -23.7187     0.0000     6.0000 </r>
       <r>   -23.5564     0.0000     6.0000 </r>
       <r>   -23.3941     0.0000     6.0000 </r>
       <r>   -23.2318     0.0000     6.0000 </r>
       <r>   -23.0695     0.0000     6.0000 </r>
       <r>   -22.9072     0.0000     6.0000 </r>
       <r>   -22.7449     0.0000     6.0000 </r>
       <r>   -22.5827     0.0000     6.0000 </r>
       <r>   -22.4204     0.0000     6.0000 </r>
       <r>   -22.2581     0.0000     6.0000 </r>
       <r>   -22.0958     0.0000     6.0000 </r>
       <r>   -21.9335     0.0000     6.0000 </r>
       <r>   -21.7712     0.0000     6.0000 </r>
       <r>   -21.6089     0.0000     6.0000 </r>
       <r>   -21.4466     0.0000     6.0000 </r>
       <r>   -21.2843     0.0000     6.0000 </r>
       <r>   -21.1220     0.0000     6.0000 </r>
       <r>   -20.9597     0.0000     6.0000 </r>
       <r>   -20.7974     0.0000     6.0000 </r>
       <r>   -20.6351     0.0000     6.0000 </r>
       <r>   -20.4728     0.0000     6.0000 </r>
       <r>   -20.3105     0.0000     6.0000 </r>
       <r>   -20.1482     0.0000     6.0000 </r>
       <r>   -19.9859     0.0000     6.0000 </r>
       <r>   -19.8237     0.0000     6.0000 </r>
       <r>   -19.6614     0.0000     6.0000 </r>
       <r>   -19.4991     0.0000     6.0000 </r>
       <r>   -19.3368     0.0000     6.0000 </r>
       <r>   -19.1745     0.0000     6.0000 </r>
       <r>   -19.0122     0.0000     6.0000 </r>
       <r>   -18.8499     0.0000     6.0000 </r>
       <r>   -18.6876     0.0000     6.0000 </r>
       <r>   -18.5253     0.0000     6.0000 </r>
       <r>   -18.3630     0.0000     6.0000 </r>
       <r>   -18.2007     0.0000     6.0000 </r>
       <r>   -18.0384     0.0000     6.0000 </r>
       <r>   -17.8761     0.0000     6.0000 </r>
       <r>   -17.7138     0.0000     6.0000 </r>
       <r>   -17.5515     0.0000     6.0000 </r>
       <r>   -17.3892     0.0000     6.0000 </r>
       <r>   -17.2269     0.0000     6.0000 </r>
       <r>   -17.0647     0.0000     6.0000 </r>
       <r>   -16.9024     0.0000     6.0000 </r>
       <r>   -16.7401     0.0000     6.0000 </r>
       <r>   -16.5778     0.0000     6.0000 </r>
       <r>   -16.4155     0.0000     6.0000 </r>
       <r>   -16.2532     0.0000     6.0000 </r>
       <r>   -16.0909     0.0000     6.0000 </r>
       <r>   -15.9286     0.0000     6.0000 </r>
       <r>   -15.7663     0.0000     6.0000 </r>
       <r>   -15.6040     0.0000     6.0000 </r>
       <r>   -15.4417     0.0000     6.0000 </r>
       <r>   -15.2794     0.0000     6.0000 </r>
       <r>   -15.1171     0.0000     6.0000 </r>
       <r>   -14.9548     0.0000     6.0000 </r>
       <r>   -14.7925    -0.0000     6.0000 </r>
       <r>   -14.6302    -0.0000     6.0000 </r>
       <r>   -14.4679    -0.0000     6.0000 </r>
       <r>   -14.3056    -0.0000     6.0000 </r>
       <r>   -14.1434    -0.0006     5.9999 </r>
       <r>   -13.9811     0.0015     6.0001 </r>
       <r>   -13.8188     0.3594     6.0585 </r>
       <r>   -13.6565     0.4926     6.1384 </r>
       <r>   -13.4942     0.5186     6.2226 </r>
       <r>   -13.3319     0.6535     6.3286 </r>
       <r>   -13.1696     0.5996     6.4260 </r>
       <r>   -13.0073     0.4692     6.5021 </r>
       <r>   -12.8450     0.9801     6.6612 </r>
       <r>   -12.6827     0.4829     6.7395 </r>
       <r>   -12.5204     2.1923     7.0953 </r>
       <r>   -12.3581     2.0557     7.4290 </r>
       <r>   -12.1958     3.3535     7.9732 </r>
       <r>   -12.0335     4.0682     8.6335 </r>
       <r>   -11.8712     5.7467     9.5661 </r>
       <r>   -11.7089     2.7022    10.0047 </r>
       <r>   -11.5466    -0.0256    10.0005 </r>
       <r>   -11.3844    -0.0032    10.0000 </r>
       <r>   -11.2221    -0.0000    10.0000 </r>
       <r>   -11.0598    -0.0000    10.0000 </r>
       <r>   -10.8975     0.0000    10.0000 </r>
       <r>   -10.7352     0.0000    10.0000 </r>
       <r>   -10.5729     0.0000    10.0000 </r>
       <r>   -10.4106     0.0000    10.0000 </r>
       <r>   -10.2483     0.0000    10.0000 </r>
       <r>   -10.0860     0.0000    10.0000 </r>
       <r>    -9.9237     0.0000    10.0000 </r>
       <r>    -9.7614     0.0000    10.0000 </r>
       <r>    -9.5991     0.0000    10.0000 </r>
       <r>    -9.4368     0.0000    10.0000 </r>
       <r>    -9.2745     0.0000    10.0000 </r>
       <r>    -9.1122     0.0000    10.0000 </r>
       <r>    -8.9499     0.0000    10.0000 </r>
       <r>    -8.7876     0.0000    10.0000 </r>
       <r>    -8.6253     0.0000    10.0000 </r>
       <r>    -8.4631     0.0000    10.0000 </r>
       <r>    -8.3008     0.0000    10.0000 </r>
       <r>    -8.1385     0.0000    10.0000 </r>
       <r>    -7.9762     0.0000    10.0000 </r>
       <r>    -7.8139     0.0000    10.0000 </r>
       <r>    -7.6516     0.0000    10.0000 </r>
       <r>    -7.4893     0.0000    10.0000 </r>
       <r>    -7.3270     0.0000    10.0000 </r>
       <r>    -7.1647     0.0000    10.0000 </r>
       <r>    -7.0024     0.0000    10.0000 </r>
       <r>    -6.8401     0.0000    10.0000 </r>
       <r>    -6.6778     0.0000    10.0000 </r>
       <r>    -6.5155    -0.0000    10.0000 </r>
       <r>    -6.3532    -0.0000    10.0000 </r>
       <r>    -6.1909    -0.0000    10.0000 </r>
       <r>    -6.0286    -0.0000    10.0000 </r>
       <r>    -5.8663    -0.0021     9.9997 </r>
       <r>    -5.7041     0.0195    10.0028 </r>
       <r>    -5.5418     0.9762    10.1612 </r>
       <r>    -5.3795     1.4459    10.3959 </r>
       <r>    -5.2172     2.4001    10.7854 </r>
       <r>    -5.0549     3.3775    11.3336 </r>
       <r>    -4.8926     4.6428    12.0871 </r>
       <r>    -4.7303     2.0647    12.4222 </r>
       <r>    -4.5680     2.7059    12.8613 </r>
       <r>    -4.4057     0.6303    12.9636 </r>
       <r>    -4.2434     0.5804    13.0578 </r>
       <r>    -4.0811     0.9745    13.2160 </r>
       <r>    -3.9188     2.4487    13.6134 </r>
       <r>    -3.7565     4.7098    14.3778 </r>
       <r>    -3.5942     3.8863    15.0085 </r>
       <r>    -3.4319     2.2434    15.3726 </r>
       <r>    -3.2696     1.4432    15.6068 </r>
       <r>    -3.1073     4.7892    16.3841 </r>
       <r>    -2.9451     4.6208    17.1340 </r>
       <r>    -2.7828     2.4975    17.5393 </r>
       <r>    -2.6205     1.2021    17.7344 </r>
       <r>    -2.4582     1.4027    17.9621 </r>
       <r>    -2.2959     1.7437    18.2451 </r>
       <r>    -2.1336     2.1268    18.5903 </r>
       <r>    -1.9713     3.9716    19.2348 </r>
       <r>    -1.8090     2.9085    19.7069 </r>
       <r>    -1.6467     3.6713    20.3027 </r>
       <r>    -1.4844     2.5037    20.7090 </r>
       <r>    -1.3221     3.4330    21.2662 </r>
       <r>    -1.1598     1.4656    21.5040 </r>
       <r>    -0.9975     1.8035    21.7967 </r>
       <r>    -0.8352     2.6963    22.2343 </r>
       <r>    -0.6729     3.3158    22.7725 </r>
       <r>    -0.5106     2.6065    23.1955 </r>
       <r>    -0.3483     2.4899    23.5996 </r>
       <r>    -0.1860     1.2706    23.8058 </r>
       <r>    -0.0238     0.8118    23.9375 </r>
       <r>     0.1385     0.1933    23.9689 </r>
       <r>     0.3008     0.1961    24.0007 </r>
       <r>     0.4631    -0.0042    24.0000 </r>
       <r>     0.6254    -0.0002    24.0000 </r>
       <r>     0.7877    -0.0000    24.0000 </r>
       <r>     0.9500    -0.0000    24.0000 </r>
       <r>     1.1123    -0.0000    24.0000 </r>
       <r>     1.2746    -0.0000    24.0000 </r>
       <r>     1.4369    -0.0003    24.0000 </r>
       <r>     1.5992    -0.0198    23.9967 </r>
       <r>     1.7615     0.6072    24.0953 </r>
       <r>     1.9238     1.6593    24.3646 </r>
       <r>     2.0861     3.9837    25.0111 </r>
       <r>     2.2484     4.8577    25.7995 </r>
       <r>     2.4107     3.8466    26.4238 </r>
       <r>     2.5730     5.2254    27.2718 </r>
       <r>     2.7352     4.2144    27.9558 </r>
       <r>     2.8975     3.1501    28.4670 </r>
       <r>     3.0598     2.6260    28.8932 </r>
       <r>     3.2221     2.8722    29.3594 </r>
       <r>     3.3844     1.9247    29.6717 </r>
       <r>     3.5467     1.8055    29.9648 </r>
       <r>     3.7090     1.6195    30.2276 </r>
       <r>     3.8713     1.1618    30.4162 </r>
       <r>     4.0336     2.1469    30.7646 </r>
       <r>     4.1959     2.8497    31.2271 </r>
       <r>     4.3582     2.0063    31.5527 </r>
       <r>     4.5205     1.4844    31.7936 </r>
       <r>     4.6828     0.8580    31.9328 </r>
       <r>     4.8451     0.3843    31.9952 </r>
       <r>     5.0074     0.0311    32.0002 </r>
       <r>     5.1697    -0.0018    32.0000 </r>
       <r>     5.3320     0.0039    32.0006 </r>
       <r>     5.4943     0.1194    32.0200 </r>
       <r>     5.6565     0.1326    32.0415 </r>
       <r>     5.8188     0.2760    32.0863 </r>
       <r>     5.9811     0.5316    32.1726 </r>
       <r>     6.1434     0.4379    32.2436 </r>
       <r>     6.3057     0.8788    32.3862 </r>
       <r>     6.4680     1.1179    32.5677 </r>
       <r>     6.6303     1.0239    32.7338 </r>
       <r>     6.7926     1.0417    32.9029 </r>
       <r>     6.9549     1.8773    33.2076 </r>
       <r>     7.1172     1.6522    33.4757 </r>
       <r>     7.2795     1.2717    33.6821 </r>
       <r>     7.4418     1.4802    33.9223 </r>
       <r>     7.6041     1.7337    34.2037 </r>
       <r>     7.7664     2.1514    34.5529 </r>
       <r>     7.9287     0.5171    34.6368 </r>
       <r>     8.0910     1.2251    34.8356 </r>
       <r>     8.2533     2.6756    35.2699 </r>
       <r>     8.4155     2.0700    35.6058 </r>
       <r>     8.5778     0.7712    35.7310 </r>
       <r>     8.7401     0.5691    35.8233 </r>
       <r>     8.9024     0.7174    35.9398 </r>
       <r>     9.0647     0.3177    35.9913 </r>
       <r>     9.2270     0.0556    36.0003 </r>
       <r>     9.3893    -0.0021    36.0000 </r>
       <r>     9.5516    -0.0000    36.0000 </r>
       <r>     9.7139    -0.0000    36.0000 </r>
       <r>     9.8762    -0.0000    36.0000 </r>
       <r>    10.0385     0.0000    36.0000 </r>
       <r>    10.2008     0.0000    36.0000 </r>
       <r>    10.3631     0.0000    36.0000 </r>
       <r>    10.5254     0.0000    36.0000 </r>
       <r>    10.6877     0.0000    36.0000 </r>
       <r>    10.8500     0.0000    36.0000 </r>
       <r>    11.0123     0.0000    36.0000 </r>
       <r>    11.1746     0.0000    36.0000 </r>
       <r>    11.3368     0.0000    36.0000 </r>
      </set>
     </set>
    </array>
   </total>
  </dos>
 </calculation>
 <structure name="finalpos" >
  <crystal>
   <varray name="basis" >
    <v>       3.19031700       0.00000000       0.00000000 </v>
    <v>      -1.59515800       2.76289700       0.00000000 </v>
    <v>       0.00000000       0.00000000      23.14049200 </v>
   </varray>
   <i name="volume">    203.97226633 </i>
   <varray name="rec_basis" >
    <v>       0.31344848       0.18096941       0.00000000 </v>
    <v>       0.00000000       0.36193894       0.00000000 </v>
    <v>       0.00000000       0.00000000       0.04321429 </v>
   </varray>
  </crystal>
  <varray name="positions" >
   <v>       0.66666700       0.33333300       0.06785900 </v>
   <v>       0.33333300       0.66666700       0.00000000 </v>
   <v>       0.33333300       0.66666700       0.13571500 </v>
   <v>       0.66666700       0.61904729       0.35482300 </v>
   <v>       0.33333300       0.95238129       0.28696500 </v>
   <v>       0.33333300       0.95238129       0.42267900 </v>
  </varray>
 </structure>
</modeling>
