<?xml version="1.0" encoding="ISO-8859-1"?>
<modeling>
 <generator>
  <i name="program" type="string">vasp </i>
  <i name="version" type="string">5.3.5  </i>
  <i name="subversion" type="string">31Mar14 (build Oct 29 2014 16:16:03) complex                          parallel </i>
  <i name="platform" type="string">Linux-UFHPC </i>
  <i name="date" type="string">2016 02 09 </i>
  <i name="time" type="string">18:26:10 </i>
 </generator>
 <incar>
  <i type="string" name="PREC">accurate</i>
  <i type="int" name="IBRION">     2</i>
  <i name="EDIFF">      0.00000100</i>
  <i type="int" name="NSW">     0</i>
  <i type="int" name="ISIF">     3</i>
  <i name="ENCUT">    300.00000000</i>
  <i type="string" name="LREAL"> Auto</i>
  <i type="int" name="ISMEAR">     0</i>
  <i name="SIGMA">      0.10000000</i>
  <i type="logical" name="LWAVE"> F  </i>
  <i type="logical" name="LCHARG"> F  </i>
  <i type="logical" name="LAECHG"> F  </i>
  <i type="string" name="GGA"> Bo</i>
  <i name="PARAM1">      0.18333333</i>
  <i name="PARAM2">      0.22000000</i>
  <i type="logical" name="LUSE_VDW"> T  </i>
  <i name="AGGAC">      0.00000000</i>
 </incar>
 <kpoints>
  <generation param="Gamma">
   <v type="int" name="divisions">      13        4        2 </v>
   <v name="usershift">      0.00000000       0.00000000       0.00000000 </v>
   <v name="genvec1">      0.07692308      -0.00000000       0.00000000 </v>
   <v name="genvec2">      0.00000000       0.25000000       0.00000000 </v>
   <v name="genvec3">      0.00000000       0.00000000       0.50000000 </v>
   <v name="shift">      0.00000000       0.00000000       0.00000000 </v>
  </generation>
  <varray name="kpointlist" >
   <v>       0.00000000       0.00000000       0.00000000 </v>
   <v>       0.07692308      -0.00000000       0.00000000 </v>
   <v>       0.15384615      -0.00000000       0.00000000 </v>
   <v>       0.23076923      -0.00000000       0.00000000 </v>
   <v>       0.30769231      -0.00000000       0.00000000 </v>
   <v>       0.38461538      -0.00000000       0.00000000 </v>
   <v>       0.46153846      -0.00000000       0.00000000 </v>
   <v>       0.00000000       0.25000000       0.00000000 </v>
   <v>       0.07692308       0.25000000       0.00000000 </v>
   <v>       0.15384615       0.25000000       0.00000000 </v>
   <v>       0.23076923       0.25000000       0.00000000 </v>
   <v>       0.30769231       0.25000000       0.00000000 </v>
   <v>       0.38461538       0.25000000       0.00000000 </v>
   <v>       0.46153846       0.25000000       0.00000000 </v>
   <v>      -0.46153846       0.25000000       0.00000000 </v>
   <v>      -0.38461538       0.25000000       0.00000000 </v>
   <v>      -0.30769231       0.25000000       0.00000000 </v>
   <v>      -0.23076923       0.25000000       0.00000000 </v>
   <v>      -0.15384615       0.25000000       0.00000000 </v>
   <v>      -0.07692308       0.25000000       0.00000000 </v>
   <v>       0.00000000       0.50000000       0.00000000 </v>
   <v>       0.07692308       0.50000000       0.00000000 </v>
   <v>       0.15384615       0.50000000       0.00000000 </v>
   <v>       0.23076923       0.50000000       0.00000000 </v>
   <v>       0.30769231       0.50000000       0.00000000 </v>
   <v>       0.38461538       0.50000000       0.00000000 </v>
   <v>       0.46153846       0.50000000       0.00000000 </v>
   <v>       0.00000000       0.00000000       0.50000000 </v>
   <v>       0.07692308      -0.00000000       0.50000000 </v>
   <v>       0.15384615      -0.00000000       0.50000000 </v>
   <v>       0.23076923      -0.00000000       0.50000000 </v>
   <v>       0.30769231      -0.00000000       0.50000000 </v>
   <v>       0.38461538      -0.00000000       0.50000000 </v>
   <v>       0.46153846      -0.00000000       0.50000000 </v>
   <v>       0.00000000       0.25000000       0.50000000 </v>
   <v>       0.07692308       0.25000000       0.50000000 </v>
   <v>       0.15384615       0.25000000       0.50000000 </v>
   <v>       0.23076923       0.25000000       0.50000000 </v>
   <v>       0.30769231       0.25000000       0.50000000 </v>
   <v>       0.38461538       0.25000000       0.50000000 </v>
   <v>       0.46153846       0.25000000       0.50000000 </v>
   <v>      -0.46153846       0.25000000       0.50000000 </v>
   <v>      -0.38461538       0.25000000       0.50000000 </v>
   <v>      -0.30769231       0.25000000       0.50000000 </v>
   <v>      -0.23076923       0.25000000       0.50000000 </v>
   <v>      -0.15384615       0.25000000       0.50000000 </v>
   <v>      -0.07692308       0.25000000       0.50000000 </v>
   <v>       0.00000000       0.50000000       0.50000000 </v>
   <v>       0.07692308       0.50000000       0.50000000 </v>
   <v>       0.15384615       0.50000000       0.50000000 </v>
   <v>       0.23076923       0.50000000       0.50000000 </v>
   <v>       0.30769231       0.50000000       0.50000000 </v>
   <v>       0.38461538       0.50000000       0.50000000 </v>
   <v>       0.46153846       0.50000000       0.50000000 </v>
  </varray>
  <varray name="weights" >
   <v>       0.00961538 </v>
   <v>       0.01923077 </v>
   <v>       0.01923077 </v>
   <v>       0.01923077 </v>
   <v>       0.01923077 </v>
   <v>       0.01923077 </v>
   <v>       0.01923077 </v>
   <v>       0.01923077 </v>
   <v>       0.01923077 </v>
   <v>       0.01923077 </v>
   <v>       0.01923077 </v>
   <v>       0.01923077 </v>
   <v>       0.01923077 </v>
   <v>       0.01923077 </v>
   <v>       0.01923077 </v>
   <v>       0.01923077 </v>
   <v>       0.01923077 </v>
   <v>       0.01923077 </v>
   <v>       0.01923077 </v>
   <v>       0.01923077 </v>
   <v>       0.00961538 </v>
   <v>       0.01923077 </v>
   <v>       0.01923077 </v>
   <v>       0.01923077 </v>
   <v>       0.01923077 </v>
   <v>       0.01923077 </v>
   <v>       0.01923077 </v>
   <v>       0.00961538 </v>
   <v>       0.01923077 </v>
   <v>       0.01923077 </v>
   <v>       0.01923077 </v>
   <v>       0.01923077 </v>
   <v>       0.01923077 </v>
   <v>       0.01923077 </v>
   <v>       0.01923077 </v>
   <v>       0.01923077 </v>
   <v>       0.01923077 </v>
   <v>       0.01923077 </v>
   <v>       0.01923077 </v>
   <v>       0.01923077 </v>
   <v>       0.01923077 </v>
   <v>       0.01923077 </v>
   <v>       0.01923077 </v>
   <v>       0.01923077 </v>
   <v>       0.01923077 </v>
   <v>       0.01923077 </v>
   <v>       0.01923077 </v>
   <v>       0.00961538 </v>
   <v>       0.01923077 </v>
   <v>       0.01923077 </v>
   <v>       0.01923077 </v>
   <v>       0.01923077 </v>
   <v>       0.01923077 </v>
   <v>       0.01923077 </v>
  </varray>
 </kpoints>
 <parameters>
  <separator name="general" >
   <i type="string" name="SYSTEM">unknown system</i>
   <i type="logical" name="LCOMPAT"> F  </i>
  </separator>
  <separator name="electronic" >
   <i type="string" name="PREC">accura</i>
   <i name="ENMAX">    300.00000000</i>
   <i name="ENAUG">    342.92400000</i>
   <i name="EDIFF">      0.00000100</i>
   <i type="int" name="IALGO">    38</i>
   <i type="int" name="IWAVPR">    10</i>
   <i type="int" name="NBANDS">    68</i>
   <i name="NELECT">    108.00000000</i>
   <i type="int" name="TURBO">     0</i>
   <i type="int" name="IRESTART">     0</i>
   <i type="int" name="NREBOOT">     0</i>
   <i type="int" name="NMIN">     0</i>
   <i name="EREF">      0.00000000</i>
   <separator name="electronic smearing" >
    <i type="int" name="ISMEAR">     0</i>
    <i name="SIGMA">      0.10000000</i>
    <i name="KSPACING">      0.50000000</i>
    <i type="logical" name="KGAMMA"> T  </i>
   </separator>
   <separator name="electronic projectors" >
    <i type="logical" name="LREAL"> T  </i>
    <v name="ROPT">     -0.00025000     -0.00025000</v>
    <i type="int" name="LMAXPAW">  -100</i>
    <i type="int" name="LMAXMIX">     2</i>
    <i type="logical" name="NLSPLINE"> F  </i>
   </separator>
   <separator name="electronic startup" >
    <i type="int" name="ISTART">     0</i>
    <i type="int" name="ICHARG">     2</i>
    <i type="int" name="INIWAV">     1</i>
   </separator>
   <separator name="electronic spin" >
    <i type="int" name="ISPIN">     1</i>
    <i type="logical" name="LNONCOLLINEAR"> F  </i>
    <v name="MAGMOM">      1.00000000      1.00000000      1.00000000      1.00000000      1.00000000      1.00000000      1.00000000      1.00000000      1.00000000      1.00000000      1.00000000      1.00000000      1.00000000      1.00000000      1.00000000      1.00000000      1.00000000      1.00000000      1.00000000      1.00000000
      1.00000000      1.00000000      1.00000000      1.00000000</v>
    <i name="NUPDOWN">     -1.00000000</i>
    <i type="logical" name="LSORBIT"> F  </i>
    <v name="SAXIS">      0.00000000      0.00000000      1.00000000</v>
    <i type="logical" name="LSPIRAL"> F  </i>
    <v name="QSPIRAL">      0.00000000      0.00000000      0.00000000</v>
    <i type="logical" name="LZEROZ"> F  </i>
   </separator>
   <separator name="electronic exchange-correlation" >
    <i type="logical" name="LASPH"> F  </i>
    <i type="logical" name="LMETAGGA"> F  </i>
   </separator>
   <separator name="electronic convergence" >
    <i type="int" name="NELM">    60</i>
    <i type="int" name="NELMDL">    -5</i>
    <i type="int" name="NELMIN">     2</i>
    <i name="ENINI">    300.00000000</i>
    <separator name="electronic convergence detail" >
     <i type="logical" name="LDIAG"> T  </i>
     <i type="logical" name="LSUBROT"> F  </i>
     <i name="WEIMIN">      0.00000000</i>
     <i name="EBREAK">      0.00000000</i>
     <i name="DEPER">      0.30000000</i>
     <i type="int" name="NRMM">     4</i>
     <i name="TIME">      0.40000000</i>
    </separator>
   </separator>
   <separator name="electronic mixer" >
    <i name="AMIX">      0.40000000</i>
    <i name="BMIX">      1.00000000</i>
    <i name="AMIN">      0.10000000</i>
    <i name="AMIX_MAG">      1.60000000</i>
    <i name="BMIX_MAG">      1.00000000</i>
    <separator name="electronic mixer details" >
     <i type="int" name="IMIX">     4</i>
     <i type="int" name="MAXMIX">   -45</i>
     <i name="WC">    100.00000000</i>
     <i type="int" name="INIMIX">     1</i>
     <i type="int" name="MIXPRE">     1</i>
     <i type="int" name="MREMOVE">     5</i>
    </separator>
   </separator>
   <separator name="electronic dipolcorrection" >
    <i type="logical" name="LDIPOL"> F  </i>
    <i type="logical" name="LMONO"> F  </i>
    <i type="int" name="IDIPOL">     0</i>
    <i name="EPSILON">      1.00000000</i>
    <v name="DIPOL">   -100.00000000   -100.00000000   -100.00000000</v>
    <i name="EFIELD">      0.00000000</i>
   </separator>
  </separator>
  <separator name="grids" >
   <i type="int" name="NGX">    20</i>
   <i type="int" name="NGY">    60</i>
   <i type="int" name="NGZ">   160</i>
   <i type="int" name="NGXF">    40</i>
   <i type="int" name="NGYF">   120</i>
   <i type="int" name="NGZF">   320</i>
   <i type="logical" name="ADDGRID"> F  </i>
  </separator>
  <separator name="ionic" >
   <i type="int" name="NSW">     0</i>
   <i type="int" name="IBRION">    -1</i>
   <i type="int" name="ISIF">     3</i>
   <i name="PSTRESS">      0.00000000</i>
   <i name="EDIFFG">      0.00001000</i>
   <i type="int" name="NFREE">     1</i>
   <i name="POTIM">      0.50000000</i>
   <i name="SMASS">     -3.00000000</i>
   <i name="SCALEE">      1.00000000</i>
  </separator>
  <separator name="ionic md" >
   <i name="TEBEG">      0.00010000</i>
   <i name="TEEND">      0.00010000</i>
   <i type="int" name="NBLOCK">     1</i>
   <i type="int" name="KBLOCK">     1</i>
   <i type="int" name="NPACO">   256</i>
   <i name="APACO">     16.00000000</i>
  </separator>
  <separator name="symmetry" >
   <i type="int" name="ISYM">     2</i>
   <i name="SYMPREC">      0.00001000</i>
  </separator>
  <separator name="dos" >
   <i type="logical" name="LORBIT"> F  </i>
   <v name="RWIGS">     -1.00000000     -1.00000000</v>
   <i type="int" name="NEDOS">   301</i>
   <i name="EMIN">     10.00000000</i>
   <i name="EMAX">    -10.00000000</i>
   <i name="EFERMI">      0.00000000</i>
  </separator>
  <separator name="writing" >
   <i type="int" name="NWRITE">     2</i>
   <i type="logical" name="LWAVE"> F  </i>
   <i type="logical" name="LCHARG"> F  </i>
   <i type="logical" name="LPARD"> F  </i>
   <i type="logical" name="LVTOT"> F  </i>
   <i type="logical" name="LVHAR"> F  </i>
   <i type="logical" name="LELF"> F  </i>
   <i type="logical" name="LOPTICS"> F  </i>
   <v name="STM">      0.00000000      0.00000000      0.00000000      0.00000000      0.00000000      0.00000000      0.00000000</v>
  </separator>
  <separator name="performance" >
   <i type="int" name="NPAR">     4</i>
   <i type="int" name="NSIM">     4</i>
   <i type="int" name="NBLK">    -1</i>
   <i type="logical" name="LPLANE"> T  </i>
   <i type="logical" name="LSCALAPACK"> T  </i>
   <i type="logical" name="LSCAAWARE"> F  </i>
   <i type="logical" name="LSCALU"> F  </i>
   <i type="logical" name="LASYNC"> F  </i>
   <i type="logical" name="LORBITALREAL"> F  </i>
  </separator>
  <separator name="miscellaneous" >
   <i type="int" name="IDIOT">     3</i>
   <i type="logical" name="LMUSIC"> F  </i>
   <v name="POMASS">     30.97400000     28.08500000</v>
   <v name="DARWINR">      0.00000000      0.00000000</v>
   <v name="DARWINV">      1.00000000      1.00000000</v>
   <i type="logical" name="LCORR"> T  </i>
  </separator>
  <i type="logical" name="GGA_COMPAT"> T  </i>
  <i type="logical" name="LBERRY"> F  </i>
  <i type="int" name="ICORELEVEL">     0</i>
  <i type="logical" name="LDAU"> F  </i>
  <i type="int" name="I_CONSTRAINED_M">     0</i>
  <separator name="electronic exchange-correlation" >
   <i type="string" name="GGA">BO</i>
   <i type="int" name="VOSKOWN">     0</i>
   <i type="logical" name="LHFCALC"> F  </i>
   <i type="string" name="PRECFOCK"></i>
   <i type="logical" name="LSYMGRAD"> F  </i>
   <i type="logical" name="LHFONE"> F  </i>
   <i type="logical" name="LRHFCALC"> F  </i>
   <i type="logical" name="LTHOMAS"> F  </i>
   <i type="logical" name="LMODELHF"> F  </i>
   <i name="ENCUT4O">     -1.00000000</i>
   <i type="int" name="EXXOEP">     0</i>
   <i type="int" name="FOURORBIT">     0</i>
   <i name="AEXX">      0.00000000</i>
   <i name="HFALPHA">      0.00000000</i>
   <i name="MCALPHA">      0.00000000</i>
   <i name="ALDAX">      1.00000000</i>
   <i name="AGGAX">      1.00000000</i>
   <i name="ALDAC">      1.00000000</i>
   <i name="AGGAC">      0.00000000</i>
   <i type="int" name="NKREDX">     1</i>
   <i type="int" name="NKREDY">     1</i>
   <i type="int" name="NKREDZ">     1</i>
   <i type="logical" name="SHIFTRED"> F  </i>
   <i type="logical" name="ODDONLY"> F  </i>
   <i type="logical" name="EVENONLY"> F  </i>
   <i type="int" name="LMAXFOCK">     0</i>
   <i type="int" name="NMAXFOCKAE">     0</i>
   <i type="logical" name="LFOCKAEDFT"> F  </i>
   <i name="HFSCREEN">      0.00000000</i>
   <i name="HFSCREENC">      0.00000000</i>
   <i type="int" name="NBANDSGWLOW">     0</i>
  </separator>
  <separator name="vdW DFT" >
   <i type="logical" name="LUSE_VDW"> T  </i>
   <i name="Zab_VDW">     -0.84910000</i>
   <i name="PARAM1">      0.18333333</i>
   <i name="PARAM2">      0.22000000</i>
   <i name="PARAM3">      0.00000000</i>
  </separator>
  <separator name="model GW" >
   <i type="int" name="MODEL_GW">     0</i>
   <i name="MODEL_EPS0">     25.05800243</i>
   <i name="MODEL_ALPHA">      1.00000000</i>
  </separator>
  <separator name="linear response parameters" >
   <i type="logical" name="LEPSILON"> F  </i>
   <i type="logical" name="LRPA"> F  </i>
   <i type="logical" name="LNABLA"> F  </i>
   <i type="logical" name="LVEL"> F  </i>
   <i type="int" name="KINTER">     0</i>
   <i name="CSHIFT">      0.10000000</i>
   <i name="OMEGAMAX">     -1.00000000</i>
   <i name="DEG_THRESHOLD">      0.00200000</i>
  </separator>
  <separator name="orbital magnetization" >
   <i type="logical" name="NUCIND"> F  </i>
   <v name="MAGPOS">      0.00000000      0.00000000      0.00000000</v>
   <i type="logical" name="LNICSALL"> T  </i>
   <i type="logical" name="ORBITALMAG"> F  </i>
   <i type="logical" name="LMAGBLOCH"> F  </i>
   <i type="logical" name="LCHIMAG"> F  </i>
   <i type="logical" name="LGAUGE"> T  </i>
   <i type="int" name="MAGATOM">     0</i>
   <v name="MAGDIPOL">      0.00000000      0.00000000      0.00000000</v>
   <v name="AVECCONST">      0.00000000      0.00000000      0.00000000</v>
  </separator>
  <separator name="response functions" >
   <i type="logical" name="LADDER"> F  </i>
   <i type="logical" name="LFXC"> F  </i>
   <i type="logical" name="LHARTREE"> T  </i>
   <i type="int" name="IBSE">     0</i>
   <i type="logical" name="LTCTE"> F  </i>
   <i type="logical" name="LTETE"> F  </i>
   <i type="logical" name="LTRIPLET"> F  </i>
   <i type="logical" name="LFXCEPS"> F  </i>
   <i type="logical" name="LFXHEG"> F  </i>
   <i type="logical" name="L2ORDER"> F  </i>
   <i type="logical" name="LUSEW"> F  </i>
   <i name="ENCUTGW">     -2.00000000</i>
   <i name="ENCUTGWSOFT">     -2.00000000</i>
   <i name="ENCUTLF">     -1.00000000</i>
   <i type="int" name="LMAXMP2">    -1</i>
   <i name="SCISSOR">      0.00000000</i>
   <i type="int" name="NOMEGA">     0</i>
   <i type="int" name="NOMEGAR">     0</i>
   <i type="int" name="NBANDSGW">    -1</i>
   <i type="int" name="NBANDSO">    -1</i>
   <i type="int" name="NBANDSV">    -1</i>
   <i type="int" name="NELM">     1</i>
   <i type="int" name="DIM">     3</i>
   <i type="int" name="ANTIRES">     0</i>
   <i name="OMEGAMAX">    -30.00000000</i>
   <i name="OMEGAMIN">    -30.00000000</i>
   <i name="OMEGATL">   -200.00000000</i>
   <i type="int" name="OMEGAGRID">     0</i>
   <i name="CSHIFT">     -0.10000000</i>
   <i type="logical" name="SELFENERGY"> F  </i>
   <i type="logical" name="LSPECTRAL"> F  </i>
   <i type="logical" name="ODDONLYGW"> F  </i>
   <i type="logical" name="EVENONLYGW"> F  </i>
   <i type="int" name="NKREDLFX">     1</i>
   <i type="int" name="NKREDLFY">     1</i>
   <i type="int" name="NKREDLFZ">     1</i>
   <i type="int" name="MAXMEM">  1800</i>
   <i type="int" name="TELESCOPE">     0</i>
   <i type="int" name="TAUPAR">     1</i>
  </separator>
  <separator name="External order field" >
   <i name="OFIELD_KAPPA">      0.00000000</i>
   <v name="OFIELD_K">      0.00000000      0.00000000      0.00000000</v>
   <i name="OFIELD_Q6_NEAR">      0.00000000</i>
   <i name="OFIELD_Q6_FAR">      0.00000000</i>
   <i name="OFIELD_A">      0.00000000</i>
  </separator>
 </parameters>
 <atominfo>
  <atoms>      24 </atoms>
  <types>       2 </types>
  <array name="atoms" >
   <dimension dim="1">ion</dimension>
   <field type="string">element</field>
   <field type="int">atomtype</field>
   <set>
    <rc><c>P </c><c>   1</c></rc>
    <rc><c>P </c><c>   1</c></rc>
    <rc><c>P </c><c>   1</c></rc>
    <rc><c>P </c><c>   1</c></rc>
    <rc><c>P </c><c>   1</c></rc>
    <rc><c>P </c><c>   1</c></rc>
    <rc><c>P </c><c>   1</c></rc>
    <rc><c>P </c><c>   1</c></rc>
    <rc><c>P </c><c>   1</c></rc>
    <rc><c>P </c><c>   1</c></rc>
    <rc><c>P </c><c>   1</c></rc>
    <rc><c>P </c><c>   1</c></rc>
    <rc><c>Si</c><c>   2</c></rc>
    <rc><c>Si</c><c>   2</c></rc>
    <rc><c>Si</c><c>   2</c></rc>
    <rc><c>Si</c><c>   2</c></rc>
    <rc><c>Si</c><c>   2</c></rc>
    <rc><c>Si</c><c>   2</c></rc>
    <rc><c>Si</c><c>   2</c></rc>
    <rc><c>Si</c><c>   2</c></rc>
    <rc><c>Si</c><c>   2</c></rc>
    <rc><c>Si</c><c>   2</c></rc>
    <rc><c>Si</c><c>   2</c></rc>
    <rc><c>Si</c><c>   2</c></rc>
   </set>
  </array>
  <array name="atomtypes" >
   <dimension dim="1">type</dimension>
   <field type="int">atomspertype</field>
   <field type="string">element</field>
   <field>mass</field>
   <field>valence</field>
   <field type="string">pseudopotential</field>
   <set>
    <rc><c>  12</c><c>P </c><c>     30.97400000</c><c>      5.00000000</c><c>  PAW_PBE P 17Jan2003                   </c></rc>
    <rc><c>  12</c><c>Si</c><c>     28.08500000</c><c>      4.00000000</c><c> PAW_PBE Si 05Jan2001                   </c></rc>
   </set>
  </array>
 </atominfo>
 <structure name="initialpos" >
  <crystal>
   <varray name="basis" >
    <v>       3.54040000       0.00000000       0.00000000 </v>
    <v>      -1.77020000      10.29434800       0.00000000 </v>
    <v>       0.00000000       0.00000000      27.50142900 </v>
   </varray>
   <i name="volume">   1002.32009712 </i>
   <varray name="rec_basis" >
    <v>       0.28245396       0.04857034       0.00000000 </v>
    <v>       0.00000000       0.09714068       0.00000000 </v>
    <v>       0.00000000       0.00000000       0.03636175 </v>
   </varray>
  </crystal>
  <varray name="positions" >
   <v>       0.11402300       0.22804500       0.23316207 </v>
   <v>       0.81402300       0.82804500       0.51499159 </v>
   <v>       0.45808900       0.91617900       0.20939482 </v>
   <v>       0.15808900       0.51617900       0.49122434 </v>
   <v>       0.31085400       0.62170900       0.08414979 </v>
   <v>       0.31085400       0.62170900       0.36597930 </v>
   <v>       0.99923000       0.99846000       0.08631254 </v>
   <v>       0.99923000       0.99846000       0.36814206 </v>
   <v>       0.65492700       0.30985400       0.06041748 </v>
   <v>       0.65492700       0.30985400       0.34224700 </v>
   <v>       0.76973800       0.53947500       0.20725292 </v>
   <v>       0.46973800       0.13947500       0.48908244 </v>
   <v>       0.93971600       0.87943300       0.15783749 </v>
   <v>       0.63971600       0.47943300       0.43966701 </v>
   <v>       0.20515200       0.41030300       0.18578822 </v>
   <v>       0.90515200       0.01030300       0.46761774 </v>
   <v>       0.20184900       0.40369900       0.09969156 </v>
   <v>       0.20184900       0.40369900       0.38152107 </v>
   <v>       0.56380500       0.12761000       0.10779021 </v>
   <v>       0.56380500       0.12761000       0.38961973 </v>
   <v>       0.56710600       0.13421200       0.19387616 </v>
   <v>       0.26710600       0.73421200       0.47570568 </v>
   <v>       0.82923400       0.65846800       0.13571444 </v>
   <v>       0.52923400       0.25846800       0.41754396 </v>
  </varray>
 </structure>
 <calculation>
  <scstep>
   <time name="dav">   84.86   84.95</time>
   <time name="total">  101.67  101.78</time>
   <energy>
    <i name="alphaZ">     36.80884744 </i>
    <i name="ewald">  12028.46983421 </i>
    <i name="hartreedc"> -15058.53678775 </i>
    <i name="XCdc">    -87.01136579 </i>
    <i name="pawpsdc">   1056.43050070 </i>
    <i name="pawaedc">   -732.41190547 </i>
    <i name="eentropy">     -0.04221086 </i>
    <i name="bandstr">    -94.59134886 </i>
    <i name="atom">   3354.04126044 </i>
    <i name="e_fr_energy">    503.15682408 </i>
    <i name="e_wo_entrp">    503.19903493 </i>
    <i name="e_0_energy">    503.17792951 </i>
   </energy>
  </scstep>
  <scstep>
   <time name="dav">  100.91  101.00</time>
   <time name="total">  100.92  101.01</time>
   <energy>
    <i name="e_fr_energy">    -61.23299906 </i>
    <i name="e_wo_entrp">    -61.21073549 </i>
    <i name="e_0_energy">    -61.22186727 </i>
   </energy>
  </scstep>
  <scstep>
   <time name="dav">   88.83   88.93</time>
   <time name="total">   88.84   88.94</time>
   <energy>
    <i name="e_fr_energy">   -117.93188263 </i>
    <i name="e_wo_entrp">   -117.90266193 </i>
    <i name="e_0_energy">   -117.91727228 </i>
   </energy>
  </scstep>
  <scstep>
   <time name="dav">  108.06  108.20</time>
   <time name="total">  108.07  108.22</time>
   <energy>
    <i name="e_fr_energy">   -120.52197345 </i>
    <i name="e_wo_entrp">   -120.49098129 </i>
    <i name="e_0_energy">   -120.50647737 </i>
   </energy>
  </scstep>
  <scstep>
   <time name="dav">  102.14  102.28</time>
   <time name="total">  107.20  107.77</time>
   <energy>
    <i name="e_fr_energy">   -120.58136201 </i>
    <i name="e_wo_entrp">   -120.55040747 </i>
    <i name="e_0_energy">   -120.56588474 </i>
   </energy>
  </scstep>
  <scstep>
   <time name="dav">   90.46   90.52</time>
   <time name="total">  110.42  110.49</time>
   <energy>
    <i name="e_fr_energy">   -116.60747296 </i>
    <i name="e_wo_entrp">   -116.56884155 </i>
    <i name="e_0_energy">   -116.58815725 </i>
   </energy>
  </scstep>
  <scstep>
   <time name="dav">   89.66   89.70</time>
   <time name="total">  109.62  109.68</time>
   <energy>
    <i name="e_fr_energy">   -116.50316088 </i>
    <i name="e_wo_entrp">   -116.48519969 </i>
    <i name="e_0_energy">   -116.49418028 </i>
   </energy>
  </scstep>
  <scstep>
   <time name="dav">   89.15   89.25</time>
   <time name="total">  109.18  109.33</time>
   <energy>
    <i name="e_fr_energy">   -116.49431991 </i>
    <i name="e_wo_entrp">   -116.47343014 </i>
    <i name="e_0_energy">   -116.48387503 </i>
   </energy>
  </scstep>
  <scstep>
   <time name="dav">   93.91   94.03</time>
   <time name="total">  113.80  114.00</time>
   <energy>
    <i name="e_fr_energy">   -116.48576683 </i>
    <i name="e_wo_entrp">   -116.46188836 </i>
    <i name="e_0_energy">   -116.47382760 </i>
   </energy>
  </scstep>
  <scstep>
   <time name="dav">   91.72   91.80</time>
   <time name="total">  111.68  111.77</time>
   <energy>
    <i name="e_fr_energy">   -116.47477871 </i>
    <i name="e_wo_entrp">   -116.45223167 </i>
    <i name="e_0_energy">   -116.46350519 </i>
   </energy>
  </scstep>
  <scstep>
   <time name="dav">   90.36   90.41</time>
   <time name="total">  110.33  110.40</time>
   <energy>
    <i name="e_fr_energy">   -116.46750972 </i>
    <i name="e_wo_entrp">   -116.44613532 </i>
    <i name="e_0_energy">   -116.45682252 </i>
   </energy>
  </scstep>
  <scstep>
   <time name="dav">   91.65   91.76</time>
   <time name="total">  111.71  111.86</time>
   <energy>
    <i name="e_fr_energy">   -116.46242006 </i>
    <i name="e_wo_entrp">   -116.44069674 </i>
    <i name="e_0_energy">   -116.45155840 </i>
   </energy>
  </scstep>
  <scstep>
   <time name="dav">   92.58   92.62</time>
   <time name="total">  112.61  112.66</time>
   <energy>
    <i name="e_fr_energy">   -116.45683662 </i>
    <i name="e_wo_entrp">   -116.43522664 </i>
    <i name="e_0_energy">   -116.44603163 </i>
   </energy>
  </scstep>
  <scstep>
   <time name="dav">   95.75   95.81</time>
   <time name="total">  115.77  115.85</time>
   <energy>
    <i name="e_fr_energy">   -116.45493320 </i>
    <i name="e_wo_entrp">   -116.43323538 </i>
    <i name="e_0_energy">   -116.44408429 </i>
   </energy>
  </scstep>
  <scstep>
   <time name="dav">   89.15   89.18</time>
   <time name="total">  109.49  109.53</time>
   <energy>
    <i name="e_fr_energy">   -116.45400658 </i>
    <i name="e_wo_entrp">   -116.43233988 </i>
    <i name="e_0_energy">   -116.44317323 </i>
   </energy>
  </scstep>
  <scstep>
   <time name="dav">   96.20   96.24</time>
   <time name="total">  118.05  118.12</time>
   <energy>
    <i name="e_fr_energy">   -116.45389062 </i>
    <i name="e_wo_entrp">   -116.43222921 </i>
    <i name="e_0_energy">   -116.44305992 </i>
   </energy>
  </scstep>
  <scstep>
   <time name="dav">  107.18  107.24</time>
   <time name="total">  130.77  130.85</time>
   <energy>
    <i name="e_fr_energy">   -116.45440484 </i>
    <i name="e_wo_entrp">   -116.43274251 </i>
    <i name="e_0_energy">   -116.44357368 </i>
   </energy>
  </scstep>
  <scstep>
   <time name="dav">   94.69   94.82</time>
   <time name="total">  116.63  116.83</time>
   <energy>
    <i name="e_fr_energy">   -116.45464838 </i>
    <i name="e_wo_entrp">   -116.43297258 </i>
    <i name="e_0_energy">   -116.44381048 </i>
   </energy>
  </scstep>
  <scstep>
   <time name="dav">   80.92   81.08</time>
   <time name="total">  101.19  101.37</time>
   <energy>
    <i name="e_fr_energy">   -116.45471000 </i>
    <i name="e_wo_entrp">   -116.43304306 </i>
    <i name="e_0_energy">   -116.44387653 </i>
   </energy>
  </scstep>
  <scstep>
   <time name="dav">   80.17   80.24</time>
   <time name="total">  101.13  101.26</time>
   <energy>
    <i name="e_fr_energy">   -116.45476320 </i>
    <i name="e_wo_entrp">   -116.43309458 </i>
    <i name="e_0_energy">   -116.44392889 </i>
   </energy>
  </scstep>
  <scstep>
   <time name="dav">  106.27  106.37</time>
   <time name="total">  127.81  127.92</time>
   <energy>
    <i name="e_fr_energy">   -116.45475734 </i>
    <i name="e_wo_entrp">   -116.43308831 </i>
    <i name="e_0_energy">   -116.44392282 </i>
   </energy>
  </scstep>
  <scstep>
   <time name="dav">   81.64   81.82</time>
   <time name="total">  103.14  103.34</time>
   <energy>
    <i name="e_fr_energy">   -116.45470542 </i>
    <i name="e_wo_entrp">   -116.43303677 </i>
    <i name="e_0_energy">   -116.44387109 </i>
   </energy>
  </scstep>
  <scstep>
   <time name="dav">   79.85   79.95</time>
   <time name="total">  100.79  100.90</time>
   <energy>
    <i name="e_fr_energy">   -116.45462989 </i>
    <i name="e_wo_entrp">   -116.43296069 </i>
    <i name="e_0_energy">   -116.44379529 </i>
   </energy>
  </scstep>
  <scstep>
   <time name="dav">   82.20   82.29</time>
   <time name="total">  103.41  103.52</time>
   <energy>
    <i name="e_fr_energy">   -116.45462533 </i>
    <i name="e_wo_entrp">   -116.43295593 </i>
    <i name="e_0_energy">   -116.44379063 </i>
   </energy>
  </scstep>
  <scstep>
   <time name="dav">   84.30   84.35</time>
   <time name="total">  105.25  105.31</time>
   <energy>
    <i name="e_fr_energy">   -116.45461179 </i>
    <i name="e_wo_entrp">   -116.43294230 </i>
    <i name="e_0_energy">   -116.44377705 </i>
   </energy>
  </scstep>
  <scstep>
   <time name="dav">   73.42   73.45</time>
   <time name="total">   94.20   94.25</time>
   <energy>
    <i name="e_fr_energy">   -116.45461526 </i>
    <i name="e_wo_entrp">   -116.43294589 </i>
    <i name="e_0_energy">   -116.44378057 </i>
   </energy>
  </scstep>
  <scstep>
   <time name="dav">  105.66  105.72</time>
   <time name="total">  127.81  127.96</time>
   <energy>
    <i name="e_fr_energy">   -116.45461165 </i>
    <i name="e_wo_entrp">   -116.43294236 </i>
    <i name="e_0_energy">   -116.44377701 </i>
   </energy>
  </scstep>
  <scstep>
   <time name="dav">   96.87   97.05</time>
   <time name="total">  112.16  112.40</time>
   <energy>
    <i name="alphaZ">     36.80884744 </i>
    <i name="ewald">  12028.46983421 </i>
    <i name="hartreedc"> -15157.78158019 </i>
    <i name="XCdc">    -79.39950765 </i>
    <i name="pawpsdc">   1172.34725700 </i>
    <i name="pawaedc">   -851.76786825 </i>
    <i name="eentropy">     -0.02166928 </i>
    <i name="bandstr">   -619.15118600 </i>
    <i name="atom">   3354.04126044 </i>
    <i name="e_fr_energy">   -116.45461227 </i>
    <i name="e_wo_entrp">   -116.43294299 </i>
    <i name="e_0_energy">   -116.44377763 </i>
   </energy>
  </scstep>
  <structure>
   <crystal>
    <varray name="basis" >
     <v>       3.54040000       0.00000000       0.00000000 </v>
     <v>      -1.77020000      10.29434800       0.00000000 </v>
     <v>       0.00000000       0.00000000      27.50142900 </v>
    </varray>
    <i name="volume">   1002.32009712 </i>
    <varray name="rec_basis" >
     <v>       0.28245396       0.04857034       0.00000000 </v>
     <v>       0.00000000       0.09714068       0.00000000 </v>
     <v>       0.00000000       0.00000000       0.03636175 </v>
    </varray>
   </crystal>
   <varray name="positions" >
    <v>       0.11402300       0.22804500       0.23316207 </v>
    <v>       0.81402300       0.82804500       0.51499159 </v>
    <v>       0.45808900       0.91617900       0.20939482 </v>
    <v>       0.15808900       0.51617900       0.49122434 </v>
    <v>       0.31085400       0.62170900       0.08414979 </v>
    <v>       0.31085400       0.62170900       0.36597930 </v>
    <v>       0.99923000       0.99846000       0.08631254 </v>
    <v>       0.99923000       0.99846000       0.36814206 </v>
    <v>       0.65492700       0.30985400       0.06041748 </v>
    <v>       0.65492700       0.30985400       0.34224700 </v>
    <v>       0.76973800       0.53947500       0.20725292 </v>
    <v>       0.46973800       0.13947500       0.48908244 </v>
    <v>       0.93971600       0.87943300       0.15783749 </v>
    <v>       0.63971600       0.47943300       0.43966701 </v>
    <v>       0.20515200       0.41030300       0.18578822 </v>
    <v>       0.90515200       0.01030300       0.46761774 </v>
    <v>       0.20184900       0.40369900       0.09969156 </v>
    <v>       0.20184900       0.40369900       0.38152107 </v>
    <v>       0.56380500       0.12761000       0.10779021 </v>
    <v>       0.56380500       0.12761000       0.38961973 </v>
    <v>       0.56710600       0.13421200       0.19387616 </v>
    <v>       0.26710600       0.73421200       0.47570568 </v>
    <v>       0.82923400       0.65846800       0.13571444 </v>
    <v>       0.52923400       0.25846800       0.41754396 </v>
   </varray>
  </structure>
  <varray name="forces" >
   <v>      -0.00513756      -0.04489414       0.00231052 </v>
   <v>      -0.03727423      -0.03576541      -0.49467287 </v>
   <v>      -0.00159147      -0.01128634       0.07437634 </v>
   <v>      -0.05760478       0.25589081       1.09646406 </v>
   <v>      -0.00069700      -0.00017421       0.00302765 </v>
   <v>       0.58910736      -0.63149491       0.98888287 </v>
   <v>      -0.00236226      -0.00668785      -0.00126654 </v>
   <v>      -0.28772631      -0.04465135       1.25182756 </v>
   <v>       0.00114902      -0.00114165       0.00366534 </v>
   <v>       0.50784202       0.76965871      -4.21242719 </v>
   <v>       0.00210292       0.01038390       0.09182878 </v>
   <v>      -0.50459577      -0.34706882       1.80734086 </v>
   <v>       0.00339517      -0.00431544       0.00439202 </v>
   <v>       0.60003582       1.76275775       1.92500925 </v>
   <v>      -0.00328286       0.00695171       0.04679803 </v>
   <v>       0.55530984      -0.02523276      -0.29796888 </v>
   <v>       0.00114909       0.00017859      -0.01240759 </v>
   <v>      -1.56254840       0.31705271      -2.67197711 </v>
   <v>      -0.00420258      -0.01198946      -0.00176577 </v>
   <v>       7.01462242     -27.14183970     -17.04432110 </v>
   <v>      -0.00024409      -0.00028438      -0.01180451 </v>
   <v>       0.05862736      -0.50494448      -0.42951360 </v>
   <v>       0.00208973       0.00109257      -0.00077964 </v>
   <v>      -6.86816343      25.68780415      17.88298152 </v>
  </varray>
  <varray name="stress" >
   <v>       6.46159156     -12.29821253      -8.42665155 </v>
   <v>     -12.29821260      58.20753497      32.41922751 </v>
   <v>      -8.42665144      32.41922743      37.77166380 </v>
  </varray>
  <energy>
   <i name="e_fr_energy">   -116.45461227 </i>
   <i name="e_wo_entrp">   -116.44377763 </i>
   <i name="e_0_energy">     -0.02166928 </i>
  </energy>
  <time name="totalsc"> 3195.26 3199.05</time>
  <eigenvalues>
   <array>
    <dimension dim="1">band</dimension>
    <dimension dim="2">kpoint</dimension>
    <dimension dim="3">spin</dimension>
    <field>eigene</field>
    <field>occ</field>
    <set>
     <set comment="spin 1">
      <set comment="kpoint 1">
       <r>  -14.9866    1.0000 </r>
       <r>  -13.4826    1.0000 </r>
       <r>  -13.1270    1.0000 </r>
       <r>  -12.9255    1.0000 </r>
       <r>  -12.7456    1.0000 </r>
       <r>  -12.4204    1.0000 </r>
       <r>  -12.0302    1.0000 </r>
       <r>  -11.7591    1.0000 </r>
       <r>  -11.4130    1.0000 </r>
       <r>  -11.3737    1.0000 </r>
       <r>  -10.9359    1.0000 </r>
       <r>  -10.5606    1.0000 </r>
       <r>   -8.8790    1.0000 </r>
       <r>   -8.6341    1.0000 </r>
       <r>   -7.9716    1.0000 </r>
       <r>   -7.7691    1.0000 </r>
       <r>   -6.7826    1.0000 </r>
       <r>   -6.7268    1.0000 </r>
       <r>   -6.4352    1.0000 </r>
       <r>   -6.0437    1.0000 </r>
       <r>   -5.7694    1.0000 </r>
       <r>   -5.4297    1.0000 </r>
       <r>   -4.9507    1.0000 </r>
       <r>   -4.7696    1.0000 </r>
       <r>   -4.6025    1.0000 </r>
       <r>   -4.1086    1.0000 </r>
       <r>   -3.6577    1.0000 </r>
       <r>   -3.5526    1.0000 </r>
       <r>   -3.2560    1.0000 </r>
       <r>   -3.0870    1.0000 </r>
       <r>   -3.0156    1.0000 </r>
       <r>   -2.9961    1.0000 </r>
       <r>   -2.9374    1.0000 </r>
       <r>   -2.7903    1.0000 </r>
       <r>   -2.4251    1.0000 </r>
       <r>   -2.3958    1.0000 </r>
       <r>   -2.3292    1.0000 </r>
       <r>   -2.3225    1.0000 </r>
       <r>   -2.2287    1.0000 </r>
       <r>   -2.1662    1.0000 </r>
       <r>   -1.9362    1.0000 </r>
       <r>   -1.8166    1.0000 </r>
       <r>   -1.6765    1.0000 </r>
       <r>   -1.6398    1.0000 </r>
       <r>   -1.5834    1.0000 </r>
       <r>   -1.5298    1.0000 </r>
       <r>   -1.4895    1.0000 </r>
       <r>   -1.3754    1.0000 </r>
       <r>   -1.2133    1.0000 </r>
       <r>   -1.1058    1.0000 </r>
       <r>   -0.9465    1.0000 </r>
       <r>   -0.8710    1.0000 </r>
       <r>   -0.3994    1.0000 </r>
       <r>    0.1543    0.0044 </r>
       <r>    0.4820    0.0000 </r>
       <r>    0.6412    0.0000 </r>
       <r>    1.1002    0.0000 </r>
       <r>    1.2003    0.0000 </r>
       <r>    1.3730    0.0000 </r>
       <r>    1.4262    0.0000 </r>
       <r>    1.7642    0.0000 </r>
       <r>    1.8284    0.0000 </r>
       <r>    1.9097    0.0000 </r>
       <r>    2.0084    0.0000 </r>
       <r>    2.0672    0.0000 </r>
       <r>    2.1874    0.0000 </r>
       <r>    2.3576    0.0000 </r>
       <r>    2.4816    0.0000 </r>
      </set>
      <set comment="kpoint 2">
       <r>  -14.9348    1.0000 </r>
       <r>  -13.4212    1.0000 </r>
       <r>  -13.0753    1.0000 </r>
       <r>  -12.8609    1.0000 </r>
       <r>  -12.6935    1.0000 </r>
       <r>  -12.3648    1.0000 </r>
       <r>  -11.9680    1.0000 </r>
       <r>  -11.7174    1.0000 </r>
       <r>  -11.3555    1.0000 </r>
       <r>  -11.3242    1.0000 </r>
       <r>  -10.8875    1.0000 </r>
       <r>  -10.5284    1.0000 </r>
       <r>   -8.8489    1.0000 </r>
       <r>   -8.6210    1.0000 </r>
       <r>   -8.0094    1.0000 </r>
       <r>   -7.7313    1.0000 </r>
       <r>   -6.7596    1.0000 </r>
       <r>   -6.7173    1.0000 </r>
       <r>   -6.4294    1.0000 </r>
       <r>   -6.0179    1.0000 </r>
       <r>   -5.7360    1.0000 </r>
       <r>   -5.4591    1.0000 </r>
       <r>   -4.9654    1.0000 </r>
       <r>   -4.8202    1.0000 </r>
       <r>   -4.6804    1.0000 </r>
       <r>   -4.3839    1.0000 </r>
       <r>   -3.7009    1.0000 </r>
       <r>   -3.6203    1.0000 </r>
       <r>   -3.5634    1.0000 </r>
       <r>   -3.3668    1.0000 </r>
       <r>   -3.2102    1.0000 </r>
       <r>   -3.1234    1.0000 </r>
       <r>   -3.0789    1.0000 </r>
       <r>   -2.9863    1.0000 </r>
       <r>   -2.8128    1.0000 </r>
       <r>   -2.6734    1.0000 </r>
       <r>   -2.5520    1.0000 </r>
       <r>   -2.4300    1.0000 </r>
       <r>   -2.3299    1.0000 </r>
       <r>   -2.1766    1.0000 </r>
       <r>   -2.1194    1.0000 </r>
       <r>   -1.9567    1.0000 </r>
       <r>   -1.9098    1.0000 </r>
       <r>   -1.8611    1.0000 </r>
       <r>   -1.7555    1.0000 </r>
       <r>   -1.7132    1.0000 </r>
       <r>   -1.5098    1.0000 </r>
       <r>   -1.4588    1.0000 </r>
       <r>   -1.1885    1.0000 </r>
       <r>   -1.0705    1.0000 </r>
       <r>   -0.9116    1.0000 </r>
       <r>   -0.6020    1.0000 </r>
       <r>   -0.3559    1.0000 </r>
       <r>    0.0580    0.1045 </r>
       <r>    0.4793    0.0000 </r>
       <r>    0.7787    0.0000 </r>
       <r>    1.0748    0.0000 </r>
       <r>    1.5136    0.0000 </r>
       <r>    1.6568    0.0000 </r>
       <r>    1.8094    0.0000 </r>
       <r>    1.8957    0.0000 </r>
       <r>    2.0493    0.0000 </r>
       <r>    2.1725    0.0000 </r>
       <r>    2.2424    0.0000 </r>
       <r>    2.2676    0.0000 </r>
       <r>    2.3365    0.0000 </r>
       <r>    2.5281    0.0000 </r>
       <r>    2.6660    0.0000 </r>
      </set>
      <set comment="kpoint 3">
       <r>  -14.7825    1.0000 </r>
       <r>  -13.2382    1.0000 </r>
       <r>  -12.9188    1.0000 </r>
       <r>  -12.6726    1.0000 </r>
       <r>  -12.5377    1.0000 </r>
       <r>  -12.2000    1.0000 </r>
       <r>  -11.7855    1.0000 </r>
       <r>  -11.5938    1.0000 </r>
       <r>  -11.1945    1.0000 </r>
       <r>  -11.1773    1.0000 </r>
       <r>  -10.7485    1.0000 </r>
       <r>  -10.4411    1.0000 </r>
       <r>   -8.7686    1.0000 </r>
       <r>   -8.6012    1.0000 </r>
       <r>   -8.1072    1.0000 </r>
       <r>   -7.6889    1.0000 </r>
       <r>   -6.7781    1.0000 </r>
       <r>   -6.6604    1.0000 </r>
       <r>   -6.4413    1.0000 </r>
       <r>   -6.0568    1.0000 </r>
       <r>   -5.8462    1.0000 </r>
       <r>   -5.6601    1.0000 </r>
       <r>   -5.1197    1.0000 </r>
       <r>   -4.9752    1.0000 </r>
       <r>   -4.8150    1.0000 </r>
       <r>   -4.5562    1.0000 </r>
       <r>   -4.2229    1.0000 </r>
       <r>   -4.1378    1.0000 </r>
       <r>   -4.0233    1.0000 </r>
       <r>   -3.9131    1.0000 </r>
       <r>   -3.6913    1.0000 </r>
       <r>   -3.5953    1.0000 </r>
       <r>   -3.4631    1.0000 </r>
       <r>   -3.2786    1.0000 </r>
       <r>   -3.1264    1.0000 </r>
       <r>   -3.0387    1.0000 </r>
       <r>   -2.9341    1.0000 </r>
       <r>   -2.9055    1.0000 </r>
       <r>   -2.8000    1.0000 </r>
       <r>   -2.6288    1.0000 </r>
       <r>   -2.3369    1.0000 </r>
       <r>   -2.2524    1.0000 </r>
       <r>   -2.1190    1.0000 </r>
       <r>   -2.0415    1.0000 </r>
       <r>   -1.8354    1.0000 </r>
       <r>   -1.7502    1.0000 </r>
       <r>   -1.5957    1.0000 </r>
       <r>   -1.5586    1.0000 </r>
       <r>   -1.2556    1.0000 </r>
       <r>   -1.1273    1.0000 </r>
       <r>   -0.9436    1.0000 </r>
       <r>   -0.5939    1.0000 </r>
       <r>   -0.4212    1.0000 </r>
       <r>   -0.1677    0.9735 </r>
       <r>    0.4515    0.0000 </r>
       <r>    0.9503    0.0000 </r>
       <r>    1.1991    0.0000 </r>
       <r>    1.7024    0.0000 </r>
       <r>    1.8897    0.0000 </r>
       <r>    2.0509    0.0000 </r>
       <r>    2.2682    0.0000 </r>
       <r>    2.3215    0.0000 </r>
       <r>    2.4894    0.0000 </r>
       <r>    2.6759    0.0000 </r>
       <r>    2.7190    0.0000 </r>
       <r>    2.8687    0.0000 </r>
       <r>    2.9707    0.0000 </r>
       <r>    3.0401    0.0000 </r>
      </set>
      <set comment="kpoint 4">
       <r>  -14.5412    1.0000 </r>
       <r>  -12.9371    1.0000 </r>
       <r>  -12.6576    1.0000 </r>
       <r>  -12.3753    1.0000 </r>
       <r>  -12.2816    1.0000 </r>
       <r>  -11.9333    1.0000 </r>
       <r>  -11.4982    1.0000 </r>
       <r>  -11.3977    1.0000 </r>
       <r>  -10.9708    1.0000 </r>
       <r>  -10.9376    1.0000 </r>
       <r>  -10.5452    1.0000 </r>
       <r>  -10.3302    1.0000 </r>
       <r>   -8.6840    1.0000 </r>
       <r>   -8.6240    1.0000 </r>
       <r>   -8.2995    1.0000 </r>
       <r>   -7.7636    1.0000 </r>
       <r>   -6.9986    1.0000 </r>
       <r>   -6.7436    1.0000 </r>
       <r>   -6.6344    1.0000 </r>
       <r>   -6.5734    1.0000 </r>
       <r>   -6.0301    1.0000 </r>
       <r>   -5.6827    1.0000 </r>
       <r>   -5.4095    1.0000 </r>
       <r>   -5.2803    1.0000 </r>
       <r>   -5.0600    1.0000 </r>
       <r>   -4.9764    1.0000 </r>
       <r>   -4.7507    1.0000 </r>
       <r>   -4.5491    1.0000 </r>
       <r>   -4.4545    1.0000 </r>
       <r>   -4.3668    1.0000 </r>
       <r>   -4.1406    1.0000 </r>
       <r>   -4.0019    1.0000 </r>
       <r>   -3.8861    1.0000 </r>
       <r>   -3.7336    1.0000 </r>
       <r>   -3.6650    1.0000 </r>
       <r>   -3.4109    1.0000 </r>
       <r>   -3.0942    1.0000 </r>
       <r>   -2.9886    1.0000 </r>
       <r>   -2.9353    1.0000 </r>
       <r>   -2.7401    1.0000 </r>
       <r>   -2.5390    1.0000 </r>
       <r>   -2.4811    1.0000 </r>
       <r>   -2.3863    1.0000 </r>
       <r>   -2.0504    1.0000 </r>
       <r>   -1.8749    1.0000 </r>
       <r>   -1.8244    1.0000 </r>
       <r>   -1.7481    1.0000 </r>
       <r>   -1.6476    1.0000 </r>
       <r>   -1.4273    1.0000 </r>
       <r>   -1.3963    1.0000 </r>
       <r>   -1.0660    1.0000 </r>
       <r>   -0.8104    1.0000 </r>
       <r>   -0.7416    1.0000 </r>
       <r>   -0.2829    0.9998 </r>
       <r>    0.3363    0.0000 </r>
       <r>    0.7540    0.0000 </r>
       <r>    1.2018    0.0000 </r>
       <r>    1.6157    0.0000 </r>
       <r>    1.9093    0.0000 </r>
       <r>    2.0396    0.0000 </r>
       <r>    2.2096    0.0000 </r>
       <r>    2.3023    0.0000 </r>
       <r>    2.4279    0.0000 </r>
       <r>    2.6274    0.0000 </r>
       <r>    2.7255    0.0000 </r>
       <r>    2.8177    0.0000 </r>
       <r>    2.9464    0.0000 </r>
       <r>    3.0219    0.0000 </r>
      </set>
      <set comment="kpoint 5">
       <r>  -14.2359    1.0000 </r>
       <r>  -12.5253    1.0000 </r>
       <r>  -12.2987    1.0000 </r>
       <r>  -11.9978    1.0000 </r>
       <r>  -11.9334    1.0000 </r>
       <r>  -11.5817    1.0000 </r>
       <r>  -11.1742    1.0000 </r>
       <r>  -11.1321    1.0000 </r>
       <r>  -10.7262    1.0000 </r>
       <r>  -10.6750    1.0000 </r>
       <r>  -10.3587    1.0000 </r>
       <r>  -10.2535    1.0000 </r>
       <r>   -8.7879    1.0000 </r>
       <r>   -8.6201    1.0000 </r>
       <r>   -8.5876    1.0000 </r>
       <r>   -8.0255    1.0000 </r>
       <r>   -7.5677    1.0000 </r>
       <r>   -7.2330    1.0000 </r>
       <r>   -6.9355    1.0000 </r>
       <r>   -6.8420    1.0000 </r>
       <r>   -6.4569    1.0000 </r>
       <r>   -6.1098    1.0000 </r>
       <r>   -5.9037    1.0000 </r>
       <r>   -5.8657    1.0000 </r>
       <r>   -5.4739    1.0000 </r>
       <r>   -5.1546    1.0000 </r>
       <r>   -4.9059    1.0000 </r>
       <r>   -4.7286    1.0000 </r>
       <r>   -4.6427    1.0000 </r>
       <r>   -4.4589    1.0000 </r>
       <r>   -4.2574    1.0000 </r>
       <r>   -4.1977    1.0000 </r>
       <r>   -4.1568    1.0000 </r>
       <r>   -3.8978    1.0000 </r>
       <r>   -3.7888    1.0000 </r>
       <r>   -3.4351    1.0000 </r>
       <r>   -3.3314    1.0000 </r>
       <r>   -3.1029    1.0000 </r>
       <r>   -3.0228    1.0000 </r>
       <r>   -2.8740    1.0000 </r>
       <r>   -2.6828    1.0000 </r>
       <r>   -2.5378    1.0000 </r>
       <r>   -2.4880    1.0000 </r>
       <r>   -2.2955    1.0000 </r>
       <r>   -2.0326    1.0000 </r>
       <r>   -1.9433    1.0000 </r>
       <r>   -1.8379    1.0000 </r>
       <r>   -1.7938    1.0000 </r>
       <r>   -1.6998    1.0000 </r>
       <r>   -1.6528    1.0000 </r>
       <r>   -1.3040    1.0000 </r>
       <r>   -1.0370    1.0000 </r>
       <r>   -0.7512    1.0000 </r>
       <r>   -0.2747    0.9997 </r>
       <r>    0.1129    0.0210 </r>
       <r>    0.5314    0.0000 </r>
       <r>    0.9084    0.0000 </r>
       <r>    1.4068    0.0000 </r>
       <r>    1.6469    0.0000 </r>
       <r>    1.8207    0.0000 </r>
       <r>    1.9970    0.0000 </r>
       <r>    2.0872    0.0000 </r>
       <r>    2.2651    0.0000 </r>
       <r>    2.3608    0.0000 </r>
       <r>    2.4364    0.0000 </r>
       <r>    2.7076    0.0000 </r>
       <r>    2.7900    0.0000 </r>
       <r>    2.8770    0.0000 </r>
      </set>
      <set comment="kpoint 6">
       <r>  -13.9203    1.0000 </r>
       <r>  -12.0169    1.0000 </r>
       <r>  -11.8638    1.0000 </r>
       <r>  -11.6095    1.0000 </r>
       <r>  -11.5145    1.0000 </r>
       <r>  -11.1842    1.0000 </r>
       <r>  -11.0113    1.0000 </r>
       <r>  -10.7923    1.0000 </r>
       <r>  -10.5716    1.0000 </r>
       <r>  -10.5070    1.0000 </r>
       <r>  -10.3976    1.0000 </r>
       <r>  -10.2473    1.0000 </r>
       <r>   -8.9769    1.0000 </r>
       <r>   -8.7737    1.0000 </r>
       <r>   -8.5951    1.0000 </r>
       <r>   -8.3187    1.0000 </r>
       <r>   -8.1007    1.0000 </r>
       <r>   -7.5975    1.0000 </r>
       <r>   -7.4014    1.0000 </r>
       <r>   -7.3544    1.0000 </r>
       <r>   -7.0065    1.0000 </r>
       <r>   -6.7067    1.0000 </r>
       <r>   -6.6021    1.0000 </r>
       <r>   -6.3177    1.0000 </r>
       <r>   -5.6152    1.0000 </r>
       <r>   -5.1550    1.0000 </r>
       <r>   -4.7496    1.0000 </r>
       <r>   -4.5971    1.0000 </r>
       <r>   -4.4889    1.0000 </r>
       <r>   -4.4567    1.0000 </r>
       <r>   -4.1983    1.0000 </r>
       <r>   -4.1749    1.0000 </r>
       <r>   -4.0803    1.0000 </r>
       <r>   -4.0054    1.0000 </r>
       <r>   -3.7441    1.0000 </r>
       <r>   -3.5990    1.0000 </r>
       <r>   -3.5109    1.0000 </r>
       <r>   -3.2172    1.0000 </r>
       <r>   -3.1883    1.0000 </r>
       <r>   -3.0927    1.0000 </r>
       <r>   -2.7514    1.0000 </r>
       <r>   -2.6730    1.0000 </r>
       <r>   -2.4870    1.0000 </r>
       <r>   -2.4078    1.0000 </r>
       <r>   -2.2628    1.0000 </r>
       <r>   -2.1494    1.0000 </r>
       <r>   -1.9919    1.0000 </r>
       <r>   -1.9652    1.0000 </r>
       <r>   -1.8630    1.0000 </r>
       <r>   -1.7700    1.0000 </r>
       <r>   -1.4219    1.0000 </r>
       <r>   -1.2416    1.0000 </r>
       <r>   -0.6864    1.0000 </r>
       <r>   -0.2456    0.9988 </r>
       <r>   -0.0710    0.7147 </r>
       <r>    0.3763    0.0000 </r>
       <r>    0.5764    0.0000 </r>
       <r>    1.2363    0.0000 </r>
       <r>    1.4671    0.0000 </r>
       <r>    1.7268    0.0000 </r>
       <r>    1.7710    0.0000 </r>
       <r>    1.9049    0.0000 </r>
       <r>    2.1125    0.0000 </r>
       <r>    2.1790    0.0000 </r>
       <r>    2.3231    0.0000 </r>
       <r>    2.3857    0.0000 </r>
       <r>    2.5821    0.0000 </r>
       <r>    2.7490    0.0000 </r>
      </set>
      <set comment="kpoint 7">
       <r>  -13.6992    1.0000 </r>
       <r>  -11.4447    1.0000 </r>
       <r>  -11.4271    1.0000 </r>
       <r>  -11.3561    1.0000 </r>
       <r>  -11.0928    1.0000 </r>
       <r>  -11.0712    1.0000 </r>
       <r>  -10.8820    1.0000 </r>
       <r>  -10.7867    1.0000 </r>
       <r>  -10.6736    1.0000 </r>
       <r>  -10.5763    1.0000 </r>
       <r>  -10.4787    1.0000 </r>
       <r>  -10.2416    1.0000 </r>
       <r>   -9.1553    1.0000 </r>
       <r>   -8.6339    1.0000 </r>
       <r>   -8.5532    1.0000 </r>
       <r>   -8.3817    1.0000 </r>
       <r>   -8.2564    1.0000 </r>
       <r>   -8.0212    1.0000 </r>
       <r>   -7.8199    1.0000 </r>
       <r>   -7.5719    1.0000 </r>
       <r>   -7.5088    1.0000 </r>
       <r>   -7.2267    1.0000 </r>
       <r>   -7.1269    1.0000 </r>
       <r>   -6.4973    1.0000 </r>
       <r>   -5.4942    1.0000 </r>
       <r>   -4.8903    1.0000 </r>
       <r>   -4.8506    1.0000 </r>
       <r>   -4.6125    1.0000 </r>
       <r>   -4.4442    1.0000 </r>
       <r>   -4.2642    1.0000 </r>
       <r>   -4.1220    1.0000 </r>
       <r>   -4.0357    1.0000 </r>
       <r>   -3.9715    1.0000 </r>
       <r>   -3.8742    1.0000 </r>
       <r>   -3.7758    1.0000 </r>
       <r>   -3.5807    1.0000 </r>
       <r>   -3.5222    1.0000 </r>
       <r>   -3.4678    1.0000 </r>
       <r>   -3.3330    1.0000 </r>
       <r>   -3.2009    1.0000 </r>
       <r>   -2.9681    1.0000 </r>
       <r>   -2.9426    1.0000 </r>
       <r>   -2.6432    1.0000 </r>
       <r>   -2.4523    1.0000 </r>
       <r>   -2.3132    1.0000 </r>
       <r>   -2.1794    1.0000 </r>
       <r>   -2.1085    1.0000 </r>
       <r>   -1.9942    1.0000 </r>
       <r>   -1.9238    1.0000 </r>
       <r>   -1.6957    1.0000 </r>
       <r>   -1.5342    1.0000 </r>
       <r>   -1.3933    1.0000 </r>
       <r>   -0.6625    1.0000 </r>
       <r>   -0.3489    1.0000 </r>
       <r>   -0.0175    0.4247 </r>
       <r>    0.1770    0.0016 </r>
       <r>    0.5090    0.0000 </r>
       <r>    1.1956    0.0000 </r>
       <r>    1.4248    0.0000 </r>
       <r>    1.5660    0.0000 </r>
       <r>    1.6731    0.0000 </r>
       <r>    1.7772    0.0000 </r>
       <r>    1.9097    0.0000 </r>
       <r>    2.0458    0.0000 </r>
       <r>    2.1727    0.0000 </r>
       <r>    2.4504    0.0000 </r>
       <r>    2.5120    0.0000 </r>
       <r>    2.5914    0.0000 </r>
      </set>
      <set comment="kpoint 8">
       <r>  -14.9838    1.0000 </r>
       <r>  -13.4269    1.0000 </r>
       <r>  -13.2542    1.0000 </r>
       <r>  -12.9195    1.0000 </r>
       <r>  -12.7126    1.0000 </r>
       <r>  -12.4185    1.0000 </r>
       <r>  -11.9793    1.0000 </r>
       <r>  -11.8156    1.0000 </r>
       <r>  -11.4214    1.0000 </r>
       <r>  -11.2775    1.0000 </r>
       <r>  -10.9442    1.0000 </r>
       <r>  -10.5025    1.0000 </r>
       <r>   -9.0678    1.0000 </r>
       <r>   -8.5465    1.0000 </r>
       <r>   -8.4561    1.0000 </r>
       <r>   -7.3211    1.0000 </r>
       <r>   -6.7719    1.0000 </r>
       <r>   -6.6135    1.0000 </r>
       <r>   -6.5442    1.0000 </r>
       <r>   -5.9480    1.0000 </r>
       <r>   -5.6937    1.0000 </r>
       <r>   -5.4312    1.0000 </r>
       <r>   -4.9607    1.0000 </r>
       <r>   -4.6123    1.0000 </r>
       <r>   -4.4188    1.0000 </r>
       <r>   -4.1104    1.0000 </r>
       <r>   -3.9567    1.0000 </r>
       <r>   -3.5903    1.0000 </r>
       <r>   -3.3824    1.0000 </r>
       <r>   -3.2108    1.0000 </r>
       <r>   -3.0694    1.0000 </r>
       <r>   -3.0625    1.0000 </r>
       <r>   -2.9523    1.0000 </r>
       <r>   -2.6542    1.0000 </r>
       <r>   -2.6043    1.0000 </r>
       <r>   -2.4132    1.0000 </r>
       <r>   -2.3293    1.0000 </r>
       <r>   -2.3035    1.0000 </r>
       <r>   -2.1461    1.0000 </r>
       <r>   -2.0861    1.0000 </r>
       <r>   -2.0048    1.0000 </r>
       <r>   -1.8520    1.0000 </r>
       <r>   -1.8279    1.0000 </r>
       <r>   -1.6958    1.0000 </r>
       <r>   -1.5694    1.0000 </r>
       <r>   -1.5431    1.0000 </r>
       <r>   -1.3607    1.0000 </r>
       <r>   -1.3071    1.0000 </r>
       <r>   -1.2309    1.0000 </r>
       <r>   -1.0681    1.0000 </r>
       <r>   -0.9261    1.0000 </r>
       <r>   -0.8615    1.0000 </r>
       <r>   -0.3224    1.0000 </r>
       <r>    0.1242    0.0141 </r>
       <r>    0.4967    0.0000 </r>
       <r>    0.7521    0.0000 </r>
       <r>    1.1120    0.0000 </r>
       <r>    1.2364    0.0000 </r>
       <r>    1.3855    0.0000 </r>
       <r>    1.4524    0.0000 </r>
       <r>    1.6998    0.0000 </r>
       <r>    1.7847    0.0000 </r>
       <r>    1.8639    0.0000 </r>
       <r>    1.9145    0.0000 </r>
       <r>    2.2415    0.0000 </r>
       <r>    2.3113    0.0000 </r>
       <r>    2.3889    0.0000 </r>
       <r>    2.5804    0.0000 </r>
      </set>
      <set comment="kpoint 9">
       <r>  -14.9315    1.0000 </r>
       <r>  -13.3499    1.0000 </r>
       <r>  -13.2140    1.0000 </r>
       <r>  -12.9005    1.0000 </r>
       <r>  -12.6118    1.0000 </r>
       <r>  -12.3612    1.0000 </r>
       <r>  -11.9760    1.0000 </r>
       <r>  -11.7161    1.0000 </r>
       <r>  -11.3799    1.0000 </r>
       <r>  -11.2078    1.0000 </r>
       <r>  -10.8997    1.0000 </r>
       <r>  -10.4559    1.0000 </r>
       <r>   -9.0627    1.0000 </r>
       <r>   -8.5339    1.0000 </r>
       <r>   -8.5116    1.0000 </r>
       <r>   -7.2725    1.0000 </r>
       <r>   -6.7648    1.0000 </r>
       <r>   -6.6217    1.0000 </r>
       <r>   -6.4735    1.0000 </r>
       <r>   -5.8997    1.0000 </r>
       <r>   -5.6466    1.0000 </r>
       <r>   -5.4807    1.0000 </r>
       <r>   -4.9862    1.0000 </r>
       <r>   -4.6604    1.0000 </r>
       <r>   -4.6112    1.0000 </r>
       <r>   -4.2949    1.0000 </r>
       <r>   -4.0167    1.0000 </r>
       <r>   -3.6886    1.0000 </r>
       <r>   -3.5603    1.0000 </r>
       <r>   -3.3782    1.0000 </r>
       <r>   -3.3333    1.0000 </r>
       <r>   -3.1962    1.0000 </r>
       <r>   -3.0879    1.0000 </r>
       <r>   -2.9774    1.0000 </r>
       <r>   -2.9564    1.0000 </r>
       <r>   -2.6372    1.0000 </r>
       <r>   -2.4580    1.0000 </r>
       <r>   -2.4235    1.0000 </r>
       <r>   -2.3245    1.0000 </r>
       <r>   -2.2466    1.0000 </r>
       <r>   -2.1360    1.0000 </r>
       <r>   -2.0308    1.0000 </r>
       <r>   -1.9795    1.0000 </r>
       <r>   -1.8731    1.0000 </r>
       <r>   -1.7630    1.0000 </r>
       <r>   -1.6941    1.0000 </r>
       <r>   -1.5576    1.0000 </r>
       <r>   -1.2988    1.0000 </r>
       <r>   -1.2094    1.0000 </r>
       <r>   -1.0090    1.0000 </r>
       <r>   -0.8488    1.0000 </r>
       <r>   -0.6570    1.0000 </r>
       <r>   -0.2981    0.9999 </r>
       <r>    0.1100    0.0232 </r>
       <r>    0.3765    0.0000 </r>
       <r>    0.9445    0.0000 </r>
       <r>    1.0707    0.0000 </r>
       <r>    1.5610    0.0000 </r>
       <r>    1.6977    0.0000 </r>
       <r>    1.7943    0.0000 </r>
       <r>    1.8779    0.0000 </r>
       <r>    1.9769    0.0000 </r>
       <r>    2.0079    0.0000 </r>
       <r>    2.1949    0.0000 </r>
       <r>    2.2739    0.0000 </r>
       <r>    2.5762    0.0000 </r>
       <r>    2.6928    0.0000 </r>
       <r>    2.7349    0.0000 </r>
      </set>
      <set comment="kpoint 10">
       <r>  -14.7792    1.0000 </r>
       <r>  -13.1531    1.0000 </r>
       <r>  -13.0551    1.0000 </r>
       <r>  -12.7642    1.0000 </r>
       <r>  -12.4043    1.0000 </r>
       <r>  -12.1946    1.0000 </r>
       <r>  -11.8699    1.0000 </r>
       <r>  -11.5183    1.0000 </r>
       <r>  -11.2404    1.0000 </r>
       <r>  -11.0524    1.0000 </r>
       <r>  -10.7583    1.0000 </r>
       <r>  -10.3585    1.0000 </r>
       <r>   -8.9873    1.0000 </r>
       <r>   -8.5828    1.0000 </r>
       <r>   -8.5115    1.0000 </r>
       <r>   -7.2432    1.0000 </r>
       <r>   -6.7872    1.0000 </r>
       <r>   -6.5990    1.0000 </r>
       <r>   -6.4418    1.0000 </r>
       <r>   -5.9605    1.0000 </r>
       <r>   -5.8387    1.0000 </r>
       <r>   -5.5971    1.0000 </r>
       <r>   -5.1263    1.0000 </r>
       <r>   -4.9460    1.0000 </r>
       <r>   -4.7885    1.0000 </r>
       <r>   -4.5385    1.0000 </r>
       <r>   -4.3220    1.0000 </r>
       <r>   -4.2292    1.0000 </r>
       <r>   -4.0347    1.0000 </r>
       <r>   -3.9140    1.0000 </r>
       <r>   -3.7889    1.0000 </r>
       <r>   -3.5658    1.0000 </r>
       <r>   -3.5366    1.0000 </r>
       <r>   -3.2465    1.0000 </r>
       <r>   -3.0964    1.0000 </r>
       <r>   -2.9878    1.0000 </r>
       <r>   -2.9060    1.0000 </r>
       <r>   -2.8397    1.0000 </r>
       <r>   -2.6986    1.0000 </r>
       <r>   -2.5515    1.0000 </r>
       <r>   -2.5186    1.0000 </r>
       <r>   -2.4769    1.0000 </r>
       <r>   -2.2661    1.0000 </r>
       <r>   -2.0052    1.0000 </r>
       <r>   -1.8656    1.0000 </r>
       <r>   -1.7741    1.0000 </r>
       <r>   -1.5807    1.0000 </r>
       <r>   -1.4284    1.0000 </r>
       <r>   -1.2222    1.0000 </r>
       <r>   -1.0635    1.0000 </r>
       <r>   -0.8989    1.0000 </r>
       <r>   -0.6376    1.0000 </r>
       <r>   -0.4157    1.0000 </r>
       <r>   -0.1084    0.8635 </r>
       <r>    0.2973    0.0000 </r>
       <r>    0.9114    0.0000 </r>
       <r>    1.2460    0.0000 </r>
       <r>    1.6324    0.0000 </r>
       <r>    1.8280    0.0000 </r>
       <r>    1.9711    0.0000 </r>
       <r>    2.1606    0.0000 </r>
       <r>    2.2982    0.0000 </r>
       <r>    2.4295    0.0000 </r>
       <r>    2.7453    0.0000 </r>
       <r>    2.7981    0.0000 </r>
       <r>    2.9133    0.0000 </r>
       <r>    3.0148    0.0000 </r>
       <r>    3.1298    0.0000 </r>
      </set>
      <set comment="kpoint 11">
       <r>  -14.5381    1.0000 </r>
       <r>  -12.8415    1.0000 </r>
       <r>  -12.7817    1.0000 </r>
       <r>  -12.5130    1.0000 </r>
       <r>  -12.1042    1.0000 </r>
       <r>  -11.9267    1.0000 </r>
       <r>  -11.6694    1.0000 </r>
       <r>  -11.2416    1.0000 </r>
       <r>  -11.0186    1.0000 </r>
       <r>  -10.8405    1.0000 </r>
       <r>  -10.5408    1.0000 </r>
       <r>  -10.2425    1.0000 </r>
       <r>   -8.8712    1.0000 </r>
       <r>   -8.7133    1.0000 </r>
       <r>   -8.5455    1.0000 </r>
       <r>   -7.3329    1.0000 </r>
       <r>   -7.0293    1.0000 </r>
       <r>   -6.7025    1.0000 </r>
       <r>   -6.6360    1.0000 </r>
       <r>   -6.5847    1.0000 </r>
       <r>   -5.9832    1.0000 </r>
       <r>   -5.7680    1.0000 </r>
       <r>   -5.3416    1.0000 </r>
       <r>   -5.1944    1.0000 </r>
       <r>   -5.1384    1.0000 </r>
       <r>   -4.9878    1.0000 </r>
       <r>   -4.8475    1.0000 </r>
       <r>   -4.6065    1.0000 </r>
       <r>   -4.5362    1.0000 </r>
       <r>   -4.4879    1.0000 </r>
       <r>   -4.1304    1.0000 </r>
       <r>   -3.9608    1.0000 </r>
       <r>   -3.7099    1.0000 </r>
       <r>   -3.6220    1.0000 </r>
       <r>   -3.5300    1.0000 </r>
       <r>   -3.2192    1.0000 </r>
       <r>   -3.1550    1.0000 </r>
       <r>   -3.0362    1.0000 </r>
       <r>   -2.9235    1.0000 </r>
       <r>   -2.7200    1.0000 </r>
       <r>   -2.6007    1.0000 </r>
       <r>   -2.5186    1.0000 </r>
       <r>   -2.4691    1.0000 </r>
       <r>   -2.0438    1.0000 </r>
       <r>   -1.9156    1.0000 </r>
       <r>   -1.8586    1.0000 </r>
       <r>   -1.7464    1.0000 </r>
       <r>   -1.7080    1.0000 </r>
       <r>   -1.3521    1.0000 </r>
       <r>   -1.3093    1.0000 </r>
       <r>   -1.0680    1.0000 </r>
       <r>   -0.8251    1.0000 </r>
       <r>   -0.7920    1.0000 </r>
       <r>   -0.2851    0.9998 </r>
       <r>    0.2110    0.0003 </r>
       <r>    0.5765    0.0000 </r>
       <r>    1.2497    0.0000 </r>
       <r>    1.4671    0.0000 </r>
       <r>    1.6048    0.0000 </r>
       <r>    1.7347    0.0000 </r>
       <r>    2.1169    0.0000 </r>
       <r>    2.2635    0.0000 </r>
       <r>    2.4889    0.0000 </r>
       <r>    2.6367    0.0000 </r>
       <r>    2.7401    0.0000 </r>
       <r>    2.8405    0.0000 </r>
       <r>    3.0854    0.0000 </r>
       <r>    3.1418    0.0000 </r>
      </set>
      <set comment="kpoint 12">
       <r>  -14.2336    1.0000 </r>
       <r>  -12.4250    1.0000 </r>
       <r>  -12.4038    1.0000 </r>
       <r>  -12.1543    1.0000 </r>
       <r>  -11.7449    1.0000 </r>
       <r>  -11.5759    1.0000 </r>
       <r>  -11.4019    1.0000 </r>
       <r>  -10.9278    1.0000 </r>
       <r>  -10.7549    1.0000 </r>
       <r>  -10.6402    1.0000 </r>
       <r>  -10.3349    1.0000 </r>
       <r>  -10.1676    1.0000 </r>
       <r>   -8.9136    1.0000 </r>
       <r>   -8.8023    1.0000 </r>
       <r>   -8.6344    1.0000 </r>
       <r>   -7.6494    1.0000 </r>
       <r>   -7.6320    1.0000 </r>
       <r>   -7.1854    1.0000 </r>
       <r>   -7.0557    1.0000 </r>
       <r>   -6.9009    1.0000 </r>
       <r>   -6.4712    1.0000 </r>
       <r>   -6.1377    1.0000 </r>
       <r>   -5.8591    1.0000 </r>
       <r>   -5.8216    1.0000 </r>
       <r>   -5.4826    1.0000 </r>
       <r>   -5.3252    1.0000 </r>
       <r>   -4.8863    1.0000 </r>
       <r>   -4.8591    1.0000 </r>
       <r>   -4.7169    1.0000 </r>
       <r>   -4.3660    1.0000 </r>
       <r>   -4.2667    1.0000 </r>
       <r>   -4.1747    1.0000 </r>
       <r>   -3.9583    1.0000 </r>
       <r>   -3.8690    1.0000 </r>
       <r>   -3.6745    1.0000 </r>
       <r>   -3.3036    1.0000 </r>
       <r>   -3.2706    1.0000 </r>
       <r>   -2.9587    1.0000 </r>
       <r>   -2.9333    1.0000 </r>
       <r>   -2.8139    1.0000 </r>
       <r>   -2.6911    1.0000 </r>
       <r>   -2.6185    1.0000 </r>
       <r>   -2.4360    1.0000 </r>
       <r>   -2.3317    1.0000 </r>
       <r>   -2.2233    1.0000 </r>
       <r>   -1.9633    1.0000 </r>
       <r>   -1.8960    1.0000 </r>
       <r>   -1.8293    1.0000 </r>
       <r>   -1.7063    1.0000 </r>
       <r>   -1.6360    1.0000 </r>
       <r>   -1.3255    1.0000 </r>
       <r>   -1.1121    1.0000 </r>
       <r>   -0.7440    1.0000 </r>
       <r>   -0.3068    1.0000 </r>
       <r>    0.0763    0.0647 </r>
       <r>    0.3315    0.0000 </r>
       <r>    0.8226    0.0000 </r>
       <r>    1.2547    0.0000 </r>
       <r>    1.3210    0.0000 </r>
       <r>    1.5067    0.0000 </r>
       <r>    2.0090    0.0000 </r>
       <r>    2.1312    0.0000 </r>
       <r>    2.2215    0.0000 </r>
       <r>    2.3990    0.0000 </r>
       <r>    2.5033    0.0000 </r>
       <r>    2.6622    0.0000 </r>
       <r>    2.7288    0.0000 </r>
       <r>    2.9729    0.0000 </r>
      </set>
      <set comment="kpoint 13">
       <r>  -13.9191    1.0000 </r>
       <r>  -11.9471    1.0000 </r>
       <r>  -11.9197    1.0000 </r>
       <r>  -11.7046    1.0000 </r>
       <r>  -11.4152    1.0000 </r>
       <r>  -11.1859    1.0000 </r>
       <r>  -11.1519    1.0000 </r>
       <r>  -10.6699    1.0000 </r>
       <r>  -10.5467    1.0000 </r>
       <r>  -10.5240    1.0000 </r>
       <r>  -10.4106    1.0000 </r>
       <r>  -10.1880    1.0000 </r>
       <r>   -8.9526    1.0000 </r>
       <r>   -8.9037    1.0000 </r>
       <r>   -8.6041    1.0000 </r>
       <r>   -8.1231    1.0000 </r>
       <r>   -8.0504    1.0000 </r>
       <r>   -7.7238    1.0000 </r>
       <r>   -7.5583    1.0000 </r>
       <r>   -7.2955    1.0000 </r>
       <r>   -7.1000    1.0000 </r>
       <r>   -6.6371    1.0000 </r>
       <r>   -6.6064    1.0000 </r>
       <r>   -6.3025    1.0000 </r>
       <r>   -5.5850    1.0000 </r>
       <r>   -5.2883    1.0000 </r>
       <r>   -4.7597    1.0000 </r>
       <r>   -4.7213    1.0000 </r>
       <r>   -4.6157    1.0000 </r>
       <r>   -4.3981    1.0000 </r>
       <r>   -4.2667    1.0000 </r>
       <r>   -4.0630    1.0000 </r>
       <r>   -4.0430    1.0000 </r>
       <r>   -3.8030    1.0000 </r>
       <r>   -3.6507    1.0000 </r>
       <r>   -3.3446    1.0000 </r>
       <r>   -3.2956    1.0000 </r>
       <r>   -3.2242    1.0000 </r>
       <r>   -3.0756    1.0000 </r>
       <r>   -3.0337    1.0000 </r>
       <r>   -2.8841    1.0000 </r>
       <r>   -2.7407    1.0000 </r>
       <r>   -2.5968    1.0000 </r>
       <r>   -2.4189    1.0000 </r>
       <r>   -2.2546    1.0000 </r>
       <r>   -2.1636    1.0000 </r>
       <r>   -2.0401    1.0000 </r>
       <r>   -2.0040    1.0000 </r>
       <r>   -1.9050    1.0000 </r>
       <r>   -1.7847    1.0000 </r>
       <r>   -1.4742    1.0000 </r>
       <r>   -1.3194    1.0000 </r>
       <r>   -0.6767    1.0000 </r>
       <r>   -0.3168    1.0000 </r>
       <r>   -0.0484    0.5978 </r>
       <r>    0.2770    0.0000 </r>
       <r>    0.4860    0.0000 </r>
       <r>    1.1897    0.0000 </r>
       <r>    1.3169    0.0000 </r>
       <r>    1.3962    0.0000 </r>
       <r>    1.8101    0.0000 </r>
       <r>    1.8970    0.0000 </r>
       <r>    1.9878    0.0000 </r>
       <r>    2.1285    0.0000 </r>
       <r>    2.2652    0.0000 </r>
       <r>    2.4204    0.0000 </r>
       <r>    2.6621    0.0000 </r>
       <r>    2.7122    0.0000 </r>
      </set>
      <set comment="kpoint 14">
       <r>  -13.6988    1.0000 </r>
       <r>  -11.4767    1.0000 </r>
       <r>  -11.3707    1.0000 </r>
       <r>  -11.2907    1.0000 </r>
       <r>  -11.2099    1.0000 </r>
       <r>  -11.0978    1.0000 </r>
       <r>  -10.8956    1.0000 </r>
       <r>  -10.8063    1.0000 </r>
       <r>  -10.6450    1.0000 </r>
       <r>  -10.5216    1.0000 </r>
       <r>  -10.4379    1.0000 </r>
       <r>  -10.2736    1.0000 </r>
       <r>   -9.1588    1.0000 </r>
       <r>   -8.5647    1.0000 </r>
       <r>   -8.4973    1.0000 </r>
       <r>   -8.3444    1.0000 </r>
       <r>   -8.2700    1.0000 </r>
       <r>   -8.1841    1.0000 </r>
       <r>   -7.8529    1.0000 </r>
       <r>   -7.6166    1.0000 </r>
       <r>   -7.4564    1.0000 </r>
       <r>   -7.2549    1.0000 </r>
       <r>   -7.0875    1.0000 </r>
       <r>   -6.4799    1.0000 </r>
       <r>   -5.5025    1.0000 </r>
       <r>   -4.9660    1.0000 </r>
       <r>   -4.8782    1.0000 </r>
       <r>   -4.6533    1.0000 </r>
       <r>   -4.4222    1.0000 </r>
       <r>   -4.2553    1.0000 </r>
       <r>   -4.1035    1.0000 </r>
       <r>   -4.0444    1.0000 </r>
       <r>   -3.9950    1.0000 </r>
       <r>   -3.8730    1.0000 </r>
       <r>   -3.6085    1.0000 </r>
       <r>   -3.5188    1.0000 </r>
       <r>   -3.4469    1.0000 </r>
       <r>   -3.3939    1.0000 </r>
       <r>   -3.2825    1.0000 </r>
       <r>   -3.2033    1.0000 </r>
       <r>   -2.9651    1.0000 </r>
       <r>   -2.9330    1.0000 </r>
       <r>   -2.6193    1.0000 </r>
       <r>   -2.5536    1.0000 </r>
       <r>   -2.4826    1.0000 </r>
       <r>   -2.2052    1.0000 </r>
       <r>   -2.0968    1.0000 </r>
       <r>   -2.0403    1.0000 </r>
       <r>   -1.9200    1.0000 </r>
       <r>   -1.6850    1.0000 </r>
       <r>   -1.5350    1.0000 </r>
       <r>   -1.3906    1.0000 </r>
       <r>   -0.6807    1.0000 </r>
       <r>   -0.3248    1.0000 </r>
       <r>   -0.0701    0.7104 </r>
       <r>    0.1566    0.0040 </r>
       <r>    0.5500    0.0000 </r>
       <r>    1.1696    0.0000 </r>
       <r>    1.4755    0.0000 </r>
       <r>    1.5497    0.0000 </r>
       <r>    1.5802    0.0000 </r>
       <r>    1.6333    0.0000 </r>
       <r>    1.8381    0.0000 </r>
       <r>    2.0733    0.0000 </r>
       <r>    2.1916    0.0000 </r>
       <r>    2.3642    0.0000 </r>
       <r>    2.4981    0.0000 </r>
       <r>    2.5408    0.0000 </r>
      </set>
      <set comment="kpoint 15">
       <r>  -13.6992    1.0000 </r>
       <r>  -11.4775    1.0000 </r>
       <r>  -11.4526    1.0000 </r>
       <r>  -11.3327    1.0000 </r>
       <r>  -11.0505    1.0000 </r>
       <r>  -11.0164    1.0000 </r>
       <r>  -10.8686    1.0000 </r>
       <r>  -10.7524    1.0000 </r>
       <r>  -10.6981    1.0000 </r>
       <r>  -10.6459    1.0000 </r>
       <r>  -10.5333    1.0000 </r>
       <r>  -10.2058    1.0000 </r>
       <r>   -9.1370    1.0000 </r>
       <r>   -8.7018    1.0000 </r>
       <r>   -8.5439    1.0000 </r>
       <r>   -8.3751    1.0000 </r>
       <r>   -8.3279    1.0000 </r>
       <r>   -7.8875    1.0000 </r>
       <r>   -7.8453    1.0000 </r>
       <r>   -7.5488    1.0000 </r>
       <r>   -7.4952    1.0000 </r>
       <r>   -7.2242    1.0000 </r>
       <r>   -7.1634    1.0000 </r>
       <r>   -6.4540    1.0000 </r>
       <r>   -5.5631    1.0000 </r>
       <r>   -4.9017    1.0000 </r>
       <r>   -4.6768    1.0000 </r>
       <r>   -4.5695    1.0000 </r>
       <r>   -4.5208    1.0000 </r>
       <r>   -4.3206    1.0000 </r>
       <r>   -4.1587    1.0000 </r>
       <r>   -3.9926    1.0000 </r>
       <r>   -3.9418    1.0000 </r>
       <r>   -3.8701    1.0000 </r>
       <r>   -3.8270    1.0000 </r>
       <r>   -3.6249    1.0000 </r>
       <r>   -3.5817    1.0000 </r>
       <r>   -3.4733    1.0000 </r>
       <r>   -3.3014    1.0000 </r>
       <r>   -3.2539    1.0000 </r>
       <r>   -2.9760    1.0000 </r>
       <r>   -2.7811    1.0000 </r>
       <r>   -2.6736    1.0000 </r>
       <r>   -2.6103    1.0000 </r>
       <r>   -2.3565    1.0000 </r>
       <r>   -2.2220    1.0000 </r>
       <r>   -2.0998    1.0000 </r>
       <r>   -2.0463    1.0000 </r>
       <r>   -1.8375    1.0000 </r>
       <r>   -1.6593    1.0000 </r>
       <r>   -1.4851    1.0000 </r>
       <r>   -1.3211    1.0000 </r>
       <r>   -0.6834    1.0000 </r>
       <r>   -0.2901    0.9999 </r>
       <r>   -0.0607    0.6634 </r>
       <r>    0.2093    0.0003 </r>
       <r>    0.6100    0.0000 </r>
       <r>    1.1439    0.0000 </r>
       <r>    1.4104    0.0000 </r>
       <r>    1.5281    0.0000 </r>
       <r>    1.7207    0.0000 </r>
       <r>    1.8161    0.0000 </r>
       <r>    1.8502    0.0000 </r>
       <r>    2.2779    0.0000 </r>
       <r>    2.3250    0.0000 </r>
       <r>    2.4073    0.0000 </r>
       <r>    2.4350    0.0000 </r>
       <r>    2.6088    0.0000 </r>
      </set>
      <set comment="kpoint 16">
       <r>  -13.9206    1.0000 </r>
       <r>  -12.0435    1.0000 </r>
       <r>  -11.8312    1.0000 </r>
       <r>  -11.6617    1.0000 </r>
       <r>  -11.4303    1.0000 </r>
       <r>  -11.1813    1.0000 </r>
       <r>  -10.9669    1.0000 </r>
       <r>  -10.8721    1.0000 </r>
       <r>  -10.5749    1.0000 </r>
       <r>  -10.5400    1.0000 </r>
       <r>  -10.3931    1.0000 </r>
       <r>  -10.2359    1.0000 </r>
       <r>   -9.0054    1.0000 </r>
       <r>   -8.6857    1.0000 </r>
       <r>   -8.6074    1.0000 </r>
       <r>   -8.4307    1.0000 </r>
       <r>   -8.0150    1.0000 </r>
       <r>   -7.6654    1.0000 </r>
       <r>   -7.3804    1.0000 </r>
       <r>   -7.2711    1.0000 </r>
       <r>   -7.0012    1.0000 </r>
       <r>   -6.7570    1.0000 </r>
       <r>   -6.6052    1.0000 </r>
       <r>   -6.2341    1.0000 </r>
       <r>   -5.7164    1.0000 </r>
       <r>   -4.9953    1.0000 </r>
       <r>   -4.8052    1.0000 </r>
       <r>   -4.7276    1.0000 </r>
       <r>   -4.3720    1.0000 </r>
       <r>   -4.3224    1.0000 </r>
       <r>   -4.2452    1.0000 </r>
       <r>   -4.2034    1.0000 </r>
       <r>   -4.0795    1.0000 </r>
       <r>   -4.0053    1.0000 </r>
       <r>   -3.7355    1.0000 </r>
       <r>   -3.6593    1.0000 </r>
       <r>   -3.5293    1.0000 </r>
       <r>   -3.3480    1.0000 </r>
       <r>   -3.2932    1.0000 </r>
       <r>   -3.1050    1.0000 </r>
       <r>   -2.7831    1.0000 </r>
       <r>   -2.6818    1.0000 </r>
       <r>   -2.5042    1.0000 </r>
       <r>   -2.4692    1.0000 </r>
       <r>   -2.2116    1.0000 </r>
       <r>   -2.1437    1.0000 </r>
       <r>   -1.9960    1.0000 </r>
       <r>   -1.8892    1.0000 </r>
       <r>   -1.7943    1.0000 </r>
       <r>   -1.7439    1.0000 </r>
       <r>   -1.4083    1.0000 </r>
       <r>   -1.1993    1.0000 </r>
       <r>   -0.6743    1.0000 </r>
       <r>   -0.1969    0.9906 </r>
       <r>   -0.1132    0.8778 </r>
       <r>    0.4603    0.0000 </r>
       <r>    0.6286    0.0000 </r>
       <r>    1.2286    0.0000 </r>
       <r>    1.4346    0.0000 </r>
       <r>    1.7088    0.0000 </r>
       <r>    1.8294    0.0000 </r>
       <r>    1.9545    0.0000 </r>
       <r>    2.1789    0.0000 </r>
       <r>    2.3248    0.0000 </r>
       <r>    2.4375    0.0000 </r>
       <r>    2.5206    0.0000 </r>
       <r>    2.6038    0.0000 </r>
       <r>    2.6786    0.0000 </r>
      </set>
      <set comment="kpoint 17">
       <r>  -14.2361    1.0000 </r>
       <r>  -12.5376    1.0000 </r>
       <r>  -12.2816    1.0000 </r>
       <r>  -12.0272    1.0000 </r>
       <r>  -11.8920    1.0000 </r>
       <r>  -11.5810    1.0000 </r>
       <r>  -11.1867    1.0000 </r>
       <r>  -11.1387    1.0000 </r>
       <r>  -10.7179    1.0000 </r>
       <r>  -10.6663    1.0000 </r>
       <r>  -10.3649    1.0000 </r>
       <r>  -10.2863    1.0000 </r>
       <r>   -8.8519    1.0000 </r>
       <r>   -8.5266    1.0000 </r>
       <r>   -8.4906    1.0000 </r>
       <r>   -8.1275    1.0000 </r>
       <r>   -7.5837    1.0000 </r>
       <r>   -7.2118    1.0000 </r>
       <r>   -6.9402    1.0000 </r>
       <r>   -6.8136    1.0000 </r>
       <r>   -6.5161    1.0000 </r>
       <r>   -6.1031    1.0000 </r>
       <r>   -5.9126    1.0000 </r>
       <r>   -5.7664    1.0000 </r>
       <r>   -5.5741    1.0000 </r>
       <r>   -5.0935    1.0000 </r>
       <r>   -4.8937    1.0000 </r>
       <r>   -4.8105    1.0000 </r>
       <r>   -4.5877    1.0000 </r>
       <r>   -4.3580    1.0000 </r>
       <r>   -4.2653    1.0000 </r>
       <r>   -4.2172    1.0000 </r>
       <r>   -4.1601    1.0000 </r>
       <r>   -3.9068    1.0000 </r>
       <r>   -3.7551    1.0000 </r>
       <r>   -3.5024    1.0000 </r>
       <r>   -3.3953    1.0000 </r>
       <r>   -3.1870    1.0000 </r>
       <r>   -3.0265    1.0000 </r>
       <r>   -2.8832    1.0000 </r>
       <r>   -2.7145    1.0000 </r>
       <r>   -2.5586    1.0000 </r>
       <r>   -2.5069    1.0000 </r>
       <r>   -2.2550    1.0000 </r>
       <r>   -1.9727    1.0000 </r>
       <r>   -1.8823    1.0000 </r>
       <r>   -1.8281    1.0000 </r>
       <r>   -1.7970    1.0000 </r>
       <r>   -1.6738    1.0000 </r>
       <r>   -1.6316    1.0000 </r>
       <r>   -1.3281    1.0000 </r>
       <r>   -1.0862    1.0000 </r>
       <r>   -0.7421    1.0000 </r>
       <r>   -0.2426    0.9986 </r>
       <r>    0.1025    0.0296 </r>
       <r>    0.5852    0.0000 </r>
       <r>    0.9019    0.0000 </r>
       <r>    1.4329    0.0000 </r>
       <r>    1.6800    0.0000 </r>
       <r>    1.9089    0.0000 </r>
       <r>    2.0131    0.0000 </r>
       <r>    2.0417    0.0000 </r>
       <r>    2.3089    0.0000 </r>
       <r>    2.4348    0.0000 </r>
       <r>    2.5626    0.0000 </r>
       <r>    2.7086    0.0000 </r>
       <r>    2.7927    0.0000 </r>
       <r>    2.8887    0.0000 </r>
      </set>
      <set comment="kpoint 18">
       <r>  -14.5408    1.0000 </r>
       <r>  -12.9329    1.0000 </r>
       <r>  -12.6767    1.0000 </r>
       <r>  -12.3479    1.0000 </r>
       <r>  -12.2961    1.0000 </r>
       <r>  -11.9333    1.0000 </r>
       <r>  -11.4819    1.0000 </r>
       <r>  -11.4175    1.0000 </r>
       <r>  -10.9736    1.0000 </r>
       <r>  -10.9180    1.0000 </r>
       <r>  -10.5437    1.0000 </r>
       <r>  -10.3370    1.0000 </r>
       <r>   -8.7872    1.0000 </r>
       <r>   -8.5117    1.0000 </r>
       <r>   -8.3391    1.0000 </r>
       <r>   -7.7217    1.0000 </r>
       <r>   -7.0400    1.0000 </r>
       <r>   -6.7133    1.0000 </r>
       <r>   -6.6266    1.0000 </r>
       <r>   -6.5778    1.0000 </r>
       <r>   -6.0475    1.0000 </r>
       <r>   -5.6855    1.0000 </r>
       <r>   -5.3694    1.0000 </r>
       <r>   -5.2756    1.0000 </r>
       <r>   -5.1004    1.0000 </r>
       <r>   -5.0000    1.0000 </r>
       <r>   -4.7724    1.0000 </r>
       <r>   -4.5411    1.0000 </r>
       <r>   -4.4592    1.0000 </r>
       <r>   -4.3181    1.0000 </r>
       <r>   -4.1372    1.0000 </r>
       <r>   -3.9619    1.0000 </r>
       <r>   -3.8666    1.0000 </r>
       <r>   -3.7139    1.0000 </r>
       <r>   -3.6711    1.0000 </r>
       <r>   -3.3925    1.0000 </r>
       <r>   -3.2077    1.0000 </r>
       <r>   -2.9820    1.0000 </r>
       <r>   -2.9325    1.0000 </r>
       <r>   -2.7578    1.0000 </r>
       <r>   -2.5677    1.0000 </r>
       <r>   -2.5302    1.0000 </r>
       <r>   -2.3832    1.0000 </r>
       <r>   -1.9545    1.0000 </r>
       <r>   -1.8577    1.0000 </r>
       <r>   -1.8116    1.0000 </r>
       <r>   -1.7520    1.0000 </r>
       <r>   -1.6508    1.0000 </r>
       <r>   -1.4197    1.0000 </r>
       <r>   -1.3345    1.0000 </r>
       <r>   -1.0814    1.0000 </r>
       <r>   -0.8594    1.0000 </r>
       <r>   -0.7712    1.0000 </r>
       <r>   -0.2791    0.9998 </r>
       <r>    0.3102    0.0000 </r>
       <r>    0.7809    0.0000 </r>
       <r>    1.1453    0.0000 </r>
       <r>    1.6390    0.0000 </r>
       <r>    1.8891    0.0000 </r>
[...]
       <r>    2.7357    0.0000 </r>
      </set>
      <set comment="kpoint 54">
       <r>  -13.6988    1.0000 </r>
       <r>  -11.4890    1.0000 </r>
       <r>  -11.4314    1.0000 </r>
       <r>  -11.2804    1.0000 </r>
       <r>  -11.1146    1.0000 </r>
       <r>  -11.0772    1.0000 </r>
       <r>  -10.8852    1.0000 </r>
       <r>  -10.7923    1.0000 </r>
       <r>  -10.6671    1.0000 </r>
       <r>  -10.5629    1.0000 </r>
       <r>  -10.5015    1.0000 </r>
       <r>  -10.2271    1.0000 </r>
       <r>   -9.1402    1.0000 </r>
       <r>   -8.6105    1.0000 </r>
       <r>   -8.5612    1.0000 </r>
       <r>   -8.3805    1.0000 </r>
       <r>   -8.2569    1.0000 </r>
       <r>   -8.0611    1.0000 </r>
       <r>   -7.8836    1.0000 </r>
       <r>   -7.5391    1.0000 </r>
       <r>   -7.4976    1.0000 </r>
       <r>   -7.2306    1.0000 </r>
       <r>   -7.1172    1.0000 </r>
       <r>   -6.4333    1.0000 </r>
       <r>   -5.5811    1.0000 </r>
       <r>   -4.9128    1.0000 </r>
       <r>   -4.8811    1.0000 </r>
       <r>   -4.5978    1.0000 </r>
       <r>   -4.4254    1.0000 </r>
       <r>   -4.2642    1.0000 </r>
       <r>   -4.1061    1.0000 </r>
       <r>   -4.0266    1.0000 </r>
       <r>   -3.9537    1.0000 </r>
       <r>   -3.8694    1.0000 </r>
       <r>   -3.7154    1.0000 </r>
       <r>   -3.5566    1.0000 </r>
       <r>   -3.4937    1.0000 </r>
       <r>   -3.3922    1.0000 </r>
       <r>   -3.2696    1.0000 </r>
       <r>   -3.2040    1.0000 </r>
       <r>   -2.9771    1.0000 </r>
       <r>   -2.9045    1.0000 </r>
       <r>   -2.7267    1.0000 </r>
       <r>   -2.6267    1.0000 </r>
       <r>   -2.3602    1.0000 </r>
       <r>   -2.2930    1.0000 </r>
       <r>   -2.1107    1.0000 </r>
       <r>   -2.0524    1.0000 </r>
       <r>   -1.8405    1.0000 </r>
       <r>   -1.6776    1.0000 </r>
       <r>   -1.5076    1.0000 </r>
       <r>   -1.3263    1.0000 </r>
       <r>   -0.6728    1.0000 </r>
       <r>   -0.2821    0.9998 </r>
       <r>   -0.1092    0.8659 </r>
       <r>    0.2293    0.0001 </r>
       <r>    0.5979    0.0000 </r>
       <r>    1.1064    0.0000 </r>
       <r>    1.3989    0.0000 </r>
       <r>    1.5213    0.0000 </r>
       <r>    1.6455    0.0000 </r>
       <r>    1.7320    0.0000 </r>
       <r>    1.9285    0.0000 </r>
       <r>    2.0434    0.0000 </r>
       <r>    2.1334    0.0000 </r>
       <r>    2.4086    0.0000 </r>
       <r>    2.4927    0.0000 </r>
       <r>    2.6146    0.0000 </r>
      </set>
     </set>
    </set>
   </array>
  </eigenvalues>
  <separator name="orbital magnetization" >
   <v name="MAGDIPOLOUT">      0.00000000      0.00000000      0.00000000</v>
  </separator>
  <dos>
   <i name="efermi">     -0.03088562 </i>
   <total>
    <array>
     <dimension dim="1">gridpoints</dimension>
     <dimension dim="2">spin</dimension>
     <field>energy</field>
     <field>total</field>
     <field>integrated</field>
     <set>
      <set comment="spin 1">
       <r>   -15.9866     0.0000     0.0000 </r>
       <r>   -15.9191     0.0000     0.0000 </r>
       <r>   -15.8516     0.0000     0.0000 </r>
       <r>   -15.7842     0.0000     0.0000 </r>
       <r>   -15.7167     0.0000     0.0000 </r>
       <r>   -15.6492     0.0000     0.0000 </r>
       <r>   -15.5818     0.0000     0.0000 </r>
       <r>   -15.5143     0.0000     0.0000 </r>
       <r>   -15.4469     0.0000     0.0000 </r>
       <r>   -15.3794     0.0000     0.0000 </r>
       <r>   -15.3119     0.0000     0.0000 </r>
       <r>   -15.2445     0.0003     0.0000 </r>
       <r>   -15.1770     0.0081     0.0006 </r>
       <r>   -15.1095     0.1052     0.0077 </r>
       <r>   -15.0421     0.6277     0.0500 </r>
       <r>   -14.9746     1.7791     0.1700 </r>
       <r>   -14.9071     2.5172     0.3399 </r>
       <r>   -14.8397     2.2338     0.4906 </r>
       <r>   -14.7722     2.0016     0.6256 </r>
       <r>   -14.7048     1.5188     0.7281 </r>
       <r>   -14.6373     0.8918     0.7882 </r>
       <r>   -14.5698     1.2350     0.8715 </r>
       <r>   -14.5024     1.6770     0.9847 </r>
       <r>   -14.4349     1.0606     1.0562 </r>
       <r>   -14.3674     0.4114     1.0840 </r>
       <r>   -14.3000     0.7084     1.1318 </r>
       <r>   -14.2325     1.5279     1.2348 </r>
       <r>   -14.1651     1.4834     1.3349 </r>
       <r>   -14.0976     0.6448     1.3784 </r>
       <r>   -14.0301     0.3545     1.4023 </r>
       <r>   -13.9627     0.9806     1.4685 </r>
       <r>   -13.8952     1.6720     1.5813 </r>
       <r>   -13.8277     1.3629     1.6732 </r>
       <r>   -13.7603     1.1084     1.7480 </r>
       <r>   -13.6928     1.6115     1.8567 </r>
       <r>   -13.6253     1.4626     1.9554 </r>
       <r>   -13.5579     0.7147     2.0036 </r>
       <r>   -13.4904     0.7092     2.0515 </r>
       <r>   -13.4230     1.4920     2.1521 </r>
       <r>   -13.3555     2.3114     2.3081 </r>
       <r>   -13.2880     2.9708     2.5085 </r>
       <r>   -13.2206     3.5490     2.7479 </r>
       <r>   -13.1531     3.6664     2.9953 </r>
       <r>   -13.0856     3.5435     3.2343 </r>
       <r>   -13.0182     3.3688     3.4616 </r>
       <r>   -12.9507     3.5512     3.7012 </r>
       <r>   -12.8832     4.2959     3.9910 </r>
       <r>   -12.8158     4.6725     4.3062 </r>
       <r>   -12.7483     4.5031     4.6100 </r>
       <r>   -12.6809     4.3297     4.9021 </r>
       <r>   -12.6134     4.1806     5.1841 </r>
       <r>   -12.5459     4.1994     5.4674 </r>
       <r>   -12.4785     4.7939     5.7908 </r>
       <r>   -12.4110     6.0442     6.1986 </r>
       <r>   -12.3435     6.8043     6.6576 </r>
       <r>   -12.2761     5.9844     7.0614 </r>
       <r>   -12.2086     4.8555     7.3889 </r>
       <r>   -12.1412     4.3050     7.6794 </r>
       <r>   -12.0737     4.3888     7.9754 </r>
       <r>   -12.0062     5.8311     8.3688 </r>
       <r>   -11.9388     7.6659     8.8860 </r>
       <r>   -11.8713     7.5259     9.3937 </r>
       <r>   -11.8038     6.0622     9.8027 </r>
       <r>   -11.7364     5.5240    10.1754 </r>
       <r>   -11.6689     5.8857    10.5724 </r>
       <r>   -11.6014     6.3146    10.9984 </r>
       <r>   -11.5340     7.0568    11.4745 </r>
       <r>   -11.4665     8.8027    12.0684 </r>
       <r>   -11.3991    10.3846    12.7690 </r>
       <r>   -11.3316     9.6921    13.4228 </r>
       <r>   -11.2641     8.7050    14.0101 </r>
       <r>   -11.1967     9.6696    14.6624 </r>
       <r>   -11.1292    10.2424    15.3534 </r>
       <r>   -11.0617     9.2379    15.9766 </r>
       <r>   -10.9943     8.6568    16.5607 </r>
       <r>   -10.9268     8.9777    17.1663 </r>
       <r>   -10.8593     8.9313    17.7689 </r>
       <r>   -10.7919     8.6000    18.3490 </r>
       <r>   -10.7244     8.8449    18.9457 </r>
       <r>   -10.6570     8.9548    19.5499 </r>
       <r>   -10.5895     9.4954    20.1905 </r>
       <r>   -10.5220    10.7580    20.9162 </r>
       <r>   -10.4546    10.3981    21.6177 </r>
       <r>   -10.3871     8.9776    22.2234 </r>
       <r>   -10.3196     8.0624    22.7673 </r>
       <r>   -10.2522     7.4020    23.2667 </r>
       <r>   -10.1847     6.1231    23.6798 </r>
       <r>   -10.1173     3.4679    23.9137 </r>
       <r>   -10.0498     1.0928    23.9874 </r>
       <r>    -9.9823     0.1729    23.9991 </r>
       <r>    -9.9149     0.0129    24.0000 </r>
       <r>    -9.8474     0.0004    24.0000 </r>
       <r>    -9.7799     0.0000    24.0000 </r>
       <r>    -9.7125     0.0000    24.0000 </r>
       <r>    -9.6450     0.0000    24.0000 </r>
       <r>    -9.5775     0.0000    24.0000 </r>
       <r>    -9.5101     0.0000    24.0000 </r>
       <r>    -9.4426     0.0003    24.0000 </r>
       <r>    -9.3752     0.0085    24.0006 </r>
       <r>    -9.3077     0.1094    24.0080 </r>
       <r>    -9.2402     0.6648    24.0528 </r>
       <r>    -9.1728     1.9677    24.1856 </r>
       <r>    -9.1053     3.1973    24.4013 </r>
       <r>    -9.0378     3.8733    24.6626 </r>
       <r>    -8.9704     4.6966    24.9794 </r>
       <r>    -8.9029     5.6929    25.3635 </r>
       <r>    -8.8354     6.2684    25.7864 </r>
       <r>    -8.7680     6.0894    26.1972 </r>
       <r>    -8.7005     6.6702    26.6472 </r>
       <r>    -8.6331     9.2025    27.2680 </r>
       <r>    -8.5656    11.9902    28.0769 </r>
       <r>    -8.4981    11.8699    28.8777 </r>
       <r>    -8.4307     8.6307    29.4600 </r>
       <r>    -8.3632     6.1213    29.8729 </r>
       <r>    -8.2957     5.3038    30.2307 </r>
       <r>    -8.2283     4.2615    30.5182 </r>
       <r>    -8.1608     3.4890    30.7536 </r>
       <r>    -8.0934     3.8623    31.0142 </r>
       <r>    -8.0259     4.3009    31.3043 </r>
       <r>    -7.9584     3.5755    31.5455 </r>
       <r>    -7.8910     2.7420    31.7305 </r>
       <r>    -7.8235     2.9071    31.9266 </r>
       <r>    -7.7560     3.6042    32.1698 </r>
       <r>    -7.6886     4.7184    32.4881 </r>
       <r>    -7.6211     5.9000    32.8862 </r>
       <r>    -7.5536     6.4314    33.3200 </r>
       <r>    -7.4862     5.6523    33.7014 </r>
       <r>    -7.4187     4.4706    34.0030 </r>
       <r>    -7.3513     4.6610    34.3174 </r>
       <r>    -7.2838     6.0656    34.7266 </r>
       <r>    -7.2163     7.1853    35.2114 </r>
       <r>    -7.1489     7.0162    35.6847 </r>
       <r>    -7.0814     6.2049    36.1033 </r>
       <r>    -7.0139     5.6045    36.4814 </r>
       <r>    -6.9465     4.7145    36.7995 </r>
       <r>    -6.8790     4.1912    37.0822 </r>
       <r>    -6.8115     5.7512    37.4702 </r>
       <r>    -6.7441     8.6819    38.0559 </r>
       <r>    -6.6766    10.6308    38.7731 </r>
       <r>    -6.6092    11.6534    39.5593 </r>
       <r>    -6.5417    10.9316    40.2968 </r>
       <r>    -6.4742     8.6837    40.8826 </r>
       <r>    -6.4068     6.2169    41.3020 </r>
       <r>    -6.3393     3.8379    41.5609 </r>
       <r>    -6.2718     2.8027    41.7500 </r>
       <r>    -6.2044     2.7838    41.9378 </r>
       <r>    -6.1369     3.1879    42.1529 </r>
       <r>    -6.0694     4.2176    42.4374 </r>
       <r>    -6.0020     5.2699    42.7929 </r>
       <r>    -5.9345     5.8066    43.1847 </r>
       <r>    -5.8671     6.1144    43.5972 </r>
       <r>    -5.7996     6.2955    44.0219 </r>
       <r>    -5.7321     6.7632    44.4781 </r>
       <r>    -5.6647     7.3837    44.9763 </r>
       <r>    -5.5972     7.2580    45.4659 </r>
       <r>    -5.5297     6.7178    45.9191 </r>
       <r>    -5.4623     6.2322    46.3396 </r>
       <r>    -5.3948     5.7001    46.7241 </r>
       <r>    -5.3274     5.1693    47.0729 </r>
       <r>    -5.2599     4.8852    47.4024 </r>
       <r>    -5.1924     5.0914    47.7459 </r>
       <r>    -5.1250     5.7253    48.1322 </r>
       <r>    -5.0575     6.3138    48.5581 </r>
       <r>    -4.9900     8.3700    49.1228 </r>
       <r>    -4.9226    11.1490    49.8749 </r>
       <r>    -4.8551    11.9321    50.6799 </r>
       <r>    -4.7876    11.0751    51.4271 </r>
       <r>    -4.7202    10.0423    52.1046 </r>
       <r>    -4.6527    10.2182    52.7939 </r>
       <r>    -4.5853    11.4183    53.5642 </r>
       <r>    -4.5178    11.3850    54.3323 </r>
       <r>    -4.4503    10.4447    55.0369 </r>
       <r>    -4.3829     9.9806    55.7103 </r>
       <r>    -4.3154    10.5218    56.4201 </r>
       <r>    -4.2479    12.2910    57.2493 </r>
       <r>    -4.1805    13.5455    58.1631 </r>
       <r>    -4.1130    13.8020    59.0942 </r>
       <r>    -4.0455    13.9961    60.0385 </r>
       <r>    -3.9781    14.1783    60.9950 </r>
       <r>    -3.9106    13.4680    61.9036 </r>
       <r>    -3.8432    11.3844    62.6716 </r>
       <r>    -3.7757     9.6441    63.3222 </r>
       <r>    -3.7082    10.4543    64.0275 </r>
       <r>    -3.6408    12.8387    64.8937 </r>
       <r>    -3.5733    14.5473    65.8751 </r>
       <r>    -3.5058    14.5433    66.8562 </r>
       <r>    -3.4384    13.5263    67.7687 </r>
       <r>    -3.3709    12.9665    68.6435 </r>
       <r>    -3.3035    13.2301    69.5360 </r>
       <r>    -3.2360    13.9181    70.4750 </r>
       <r>    -3.1685    14.3403    71.4424 </r>
       <r>    -3.1011    14.9303    72.4497 </r>
       <r>    -3.0336    16.6244    73.5712 </r>
       <r>    -2.9661    18.0396    74.7882 </r>
       <r>    -2.8987    16.8776    75.9269 </r>
       <r>    -2.8312    13.7894    76.8571 </r>
       <r>    -2.7637    12.3684    77.6916 </r>
       <r>    -2.6963    13.4561    78.5993 </r>
       <r>    -2.6288    14.8303    79.5998 </r>
       <r>    -2.5614    15.4395    80.6414 </r>
       <r>    -2.4939    16.3848    81.7468 </r>
       <r>    -2.4264    16.1284    82.8349 </r>
       <r>    -2.3590    14.3365    83.8021 </r>
       <r>    -2.2915    13.4206    84.7075 </r>
       <r>    -2.2240    13.2571    85.6019 </r>
       <r>    -2.1566    13.2874    86.4983 </r>
       <r>    -2.0891    14.1100    87.4502 </r>
       <r>    -2.0216    15.7398    88.5120 </r>
       <r>    -1.9542    17.6129    89.7003 </r>
       <r>    -1.8867    19.2196    90.9969 </r>
       <r>    -1.8193    20.3315    92.3685 </r>
       <r>    -1.7518    19.7359    93.7000 </r>
       <r>    -1.6843    17.5289    94.8825 </r>
       <r>    -1.6169    14.4093    95.8546 </r>
       <r>    -1.5494    11.7136    96.6449 </r>
       <r>    -1.4819    10.2744    97.3380 </r>
       <r>    -1.4145     9.9768    98.0111 </r>
       <r>    -1.3470    10.9514    98.7499 </r>
       <r>    -1.2796    11.4578    99.5229 </r>
       <r>    -1.2121    10.4046   100.2248 </r>
       <r>    -1.1446     8.8792   100.8238 </r>
       <r>    -1.0772     8.0853   101.3693 </r>
       <r>    -1.0097     7.1692   101.8529 </r>
       <r>    -0.9422     6.3126   102.2788 </r>
       <r>    -0.8748     7.1361   102.7602 </r>
       <r>    -0.8073     8.0099   103.3006 </r>
       <r>    -0.7398     8.0940   103.8467 </r>
       <r>    -0.6724     8.2424   104.4027 </r>
       <r>    -0.6049     7.0406   104.8777 </r>
       <r>    -0.5375     4.0697   105.1523 </r>
       <r>    -0.4700     2.3382   105.3100 </r>
       <r>    -0.4025     3.4878   105.5453 </r>
       <r>    -0.3351     6.5263   105.9856 </r>
       <r>    -0.2676     9.0402   106.5955 </r>
       <r>    -0.2001     8.0350   107.1375 </r>
       <r>    -0.1327     5.6823   107.5209 </r>
       <r>    -0.0652     4.8307   107.8468 </r>
       <r>     0.0023     4.3677   108.1414 </r>
       <r>     0.0697     4.5448   108.4480 </r>
       <r>     0.1372     5.4007   108.8124 </r>
       <r>     0.2046     5.4706   109.1814 </r>
       <r>     0.2721     5.0831   109.5244 </r>
       <r>     0.3396     5.3008   109.8820 </r>
       <r>     0.4070     5.6485   110.2630 </r>
       <r>     0.4745     5.7615   110.6517 </r>
       <r>     0.5420     6.0202   111.0579 </r>
       <r>     0.6094     5.4762   111.4273 </r>
       <r>     0.6769     3.7237   111.6785 </r>
       <r>     0.7443     2.7016   111.8608 </r>
       <r>     0.8118     3.1531   112.0735 </r>
       <r>     0.8793     3.7698   112.3278 </r>
       <r>     0.9467     3.9858   112.5967 </r>
       <r>     1.0142     3.9939   112.8662 </r>
       <r>     1.0817     5.0500   113.2069 </r>
       <r>     1.1491     7.0478   113.6823 </r>
       <r>     1.2166     8.3545   114.2459 </r>
       <r>     1.2841     7.8230   114.7737 </r>
       <r>     1.3515     6.8078   115.2330 </r>
       <r>     1.4190     7.5883   115.7449 </r>
       <r>     1.4864     8.8412   116.3414 </r>
       <r>     1.5539     9.5710   116.9871 </r>
       <r>     1.6214    10.5338   117.6977 </r>
       <r>     1.6888    11.4691   118.4715 </r>
       <r>     1.7563    12.1146   119.2888 </r>
       <r>     1.8238    13.1498   120.1759 </r>
       <r>     1.8912    14.0057   121.1207 </r>
       <r>     1.9587    13.7188   122.0463 </r>
       <r>     2.0262    13.1313   122.9321 </r>
       <r>     2.0936    12.7721   123.7938 </r>
       <r>     2.1611    13.2237   124.6859 </r>
       <r>     2.2285    15.0234   125.6994 </r>
       <r>     2.2960    16.3801   126.8045 </r>
       <r>     2.3635    15.3968   127.8432 </r>
       <r>     2.4309    13.7688   128.7721 </r>
       <r>     2.4984    12.9546   129.6461 </r>
       <r>     2.5659    12.1852   130.4681 </r>
       <r>     2.6333    11.9955   131.2774 </r>
       <r>     2.7008    13.1368   132.1636 </r>
       <r>     2.7682    13.3850   133.0666 </r>
       <r>     2.8357    11.1271   133.8173 </r>
       <r>     2.9032     8.5014   134.3908 </r>
       <r>     2.9706     7.0426   134.8659 </r>
       <r>     3.0381     6.2011   135.2843 </r>
       <r>     3.1056     4.8896   135.6142 </r>
       <r>     3.1730     3.2006   135.8301 </r>
       <r>     3.2405     1.6360   135.9405 </r>
       <r>     3.3080     0.6537   135.9846 </r>
       <r>     3.3754     0.1933   135.9976 </r>
       <r>     3.4429     0.0329   135.9998 </r>
       <r>     3.5103     0.0026   136.0000 </r>
       <r>     3.5778     0.0001   136.0000 </r>
       <r>     3.6453     0.0000   136.0000 </r>
       <r>     3.7127     0.0000   136.0000 </r>
       <r>     3.7802     0.0000   136.0000 </r>
       <r>     3.8477     0.0000   136.0000 </r>
       <r>     3.9151     0.0000   136.0000 </r>
       <r>     3.9826     0.0000   136.0000 </r>
       <r>     4.0501     0.0000   136.0000 </r>
       <r>     4.1175     0.0000   136.0000 </r>
       <r>     4.1850     0.0000   136.0000 </r>
       <r>     4.2524     0.0000   136.0000 </r>
      </set>
     </set>
    </array>
   </total>
  </dos>
 </calculation>
 <structure name="finalpos" >
  <crystal>
   <varray name="basis" >
    <v>       3.54040000       0.00000000       0.00000000 </v>
    <v>      -1.77020000      10.29434800       0.00000000 </v>
    <v>       0.00000000       0.00000000      27.50142900 </v>
   </varray>
   <i name="volume">   1002.32009712 </i>
   <varray name="rec_basis" >
    <v>       0.28245396       0.04857034       0.00000000 </v>
    <v>       0.00000000       0.09714068       0.00000000 </v>
    <v>       0.00000000       0.00000000       0.03636175 </v>
   </varray>
  </crystal>
  <varray name="positions" >
   <v>       0.11402300       0.22804500       0.23316207 </v>
   <v>       0.81402300       0.82804500       0.51499159 </v>
   <v>       0.45808900       0.91617900       0.20939482 </v>
   <v>       0.15808900       0.51617900       0.49122434 </v>
   <v>       0.31085400       0.62170900       0.08414979 </v>
   <v>       0.31085400       0.62170900       0.36597930 </v>
   <v>       0.99923000       0.99846000       0.08631254 </v>
   <v>       0.99923000       0.99846000       0.36814206 </v>
   <v>       0.65492700       0.30985400       0.06041748 </v>
   <v>       0.65492700       0.30985400       0.34224700 </v>
   <v>       0.76973800       0.53947500       0.20725292 </v>
   <v>       0.46973800       0.13947500       0.48908244 </v>
   <v>       0.93971600       0.87943300       0.15783749 </v>
   <v>       0.63971600       0.47943300       0.43966701 </v>
   <v>       0.20515200       0.41030300       0.18578822 </v>
   <v>       0.90515200       0.01030300       0.46761774 </v>
   <v>       0.20184900       0.40369900       0.09969156 </v>
   <v>       0.20184900       0.40369900       0.38152107 </v>
   <v>       0.56380500       0.12761000       0.10779021 </v>
   <v>       0.56380500       0.12761000       0.38961973 </v>
   <v>       0.56710600       0.13421200       0.19387616 </v>
   <v>       0.26710600       0.73421200       0.47570568 </v>
   <v>       0.82923400       0.65846800       0.13571444 </v>
   <v>       0.52923400       0.25846800       0.41754396 </v>
  </varray>
 </structure>
</modeling>
