  24  24   0   0
  0.4176334E+02  0.3540400E-09  0.1044544E-08  0.2750143E-08  0.5000000E-15
  1.000000000000000E-004
  CAR 
 unknown system                          
      4.27407932    -14.63193371  301      0.17876119      1.00000000
    -14.632  0.0000E+00  0.0000E+00
    -14.569  0.0000E+00  0.0000E+00
    -14.506  0.0000E+00  0.0000E+00
    -14.443  0.0000E+00  0.0000E+00
    -14.380  0.0000E+00  0.0000E+00
    -14.317  0.0000E+00  0.0000E+00
    -14.254  0.0000E+00  0.0000E+00
    -14.191  0.8131E-15  0.5124E-16
    -14.128  0.7226E-12  0.4559E-13
    -14.065  0.2891E-09  0.1827E-10
    -14.002  0.5372E-07  0.3404E-08
    -13.939  0.4696E-05  0.2994E-06
    -13.876  0.1973E-03  0.1273E-04
    -13.813  0.4111E-02  0.2718E-03
    -13.750  0.4435E-01  0.3066E-02
    -13.687  0.2595E+00  0.1942E-01
    -13.624  0.8633E+00  0.7382E-01
    -13.561  0.1747E+01  0.1839E+00
    -13.498  0.2518E+01  0.3426E+00
    -13.435  0.3248E+01  0.5473E+00
    -13.372  0.3872E+01  0.7913E+00
    -13.309  0.3891E+01  0.1037E+01
    -13.245  0.3609E+01  0.1264E+01
    -13.182  0.3631E+01  0.1493E+01
    -13.119  0.4122E+01  0.1753E+01
    -13.056  0.4568E+01  0.2040E+01
    -12.993  0.4391E+01  0.2317E+01
    -12.930  0.4265E+01  0.2586E+01
    -12.867  0.4824E+01  0.2890E+01
    -12.804  0.5532E+01  0.3239E+01
    -12.741  0.5480E+01  0.3584E+01
    -12.678  0.4251E+01  0.3852E+01
    -12.615  0.3052E+01  0.4044E+01
    -12.552  0.3814E+01  0.4285E+01
    -12.489  0.6313E+01  0.4682E+01
    -12.426  0.8144E+01  0.5196E+01
    -12.363  0.8092E+01  0.5706E+01
    -12.300  0.7453E+01  0.6175E+01
    -12.237  0.7462E+01  0.6646E+01
    -12.174  0.7365E+01  0.7110E+01
    -12.111  0.6148E+01  0.7497E+01
    -12.048  0.5448E+01  0.7840E+01
    -11.985  0.6723E+01  0.8264E+01
    -11.922  0.8059E+01  0.8772E+01
    -11.859  0.7746E+01  0.9260E+01
    -11.796  0.6454E+01  0.9667E+01
    -11.733  0.5705E+01  0.1003E+02
    -11.670  0.5740E+01  0.1039E+02
    -11.607  0.6158E+01  0.1078E+02
    -11.544  0.7065E+01  0.1122E+02
    -11.481  0.8712E+01  0.1177E+02
    -11.418  0.1046E+02  0.1243E+02
    -11.355  0.1068E+02  0.1310E+02
    -11.292  0.9703E+01  0.1371E+02
    -11.229  0.9538E+01  0.1431E+02
    -11.166  0.9879E+01  0.1494E+02
    -11.103  0.1021E+02  0.1558E+02
    -11.040  0.1096E+02  0.1627E+02
    -10.977  0.1155E+02  0.1700E+02
    -10.914  0.1172E+02  0.1774E+02
    -10.851  0.1146E+02  0.1846E+02
    -10.788  0.1118E+02  0.1916E+02
    -10.725  0.1136E+02  0.1988E+02
    -10.662  0.1040E+02  0.2054E+02
    -10.599  0.9191E+01  0.2112E+02
    -10.536  0.1023E+02  0.2176E+02
    -10.473  0.1106E+02  0.2246E+02
    -10.410  0.9760E+01  0.2307E+02
    -10.347  0.7676E+01  0.2356E+02
    -10.284  0.4755E+01  0.2385E+02
    -10.221  0.1855E+01  0.2397E+02
    -10.158  0.4021E+00  0.2400E+02
    -10.094  0.4558E-01  0.2400E+02
    -10.031  0.2603E-02  0.2400E+02
     -9.968  0.7286E-04  0.2400E+02
     -9.905  0.9803E-06  0.2400E+02
     -9.842  0.6248E-08  0.2400E+02
     -9.779  0.1866E-10  0.2400E+02
     -9.716  0.2615E-13  0.2400E+02
     -9.653  0.0000E+00  0.2400E+02
     -9.590  0.0000E+00  0.2400E+02
     -9.527  0.1077E-13  0.2400E+02
     -9.464  0.8456E-11  0.2400E+02
     -9.401  0.3042E-08  0.2400E+02
     -9.338  0.5050E-06  0.2400E+02
     -9.275  0.3893E-04  0.2400E+02
     -9.212  0.1404E-02  0.2400E+02
     -9.149  0.2402E-01  0.2400E+02
     -9.086  0.1993E+00  0.2401E+02
     -9.023  0.8404E+00  0.2407E+02
     -8.960  0.1979E+01  0.2419E+02
     -8.897  0.3086E+01  0.2439E+02
     -8.834  0.3856E+01  0.2463E+02
     -8.771  0.4412E+01  0.2491E+02
     -8.708  0.5406E+01  0.2525E+02
     -8.645  0.6718E+01  0.2567E+02
     -8.582  0.6800E+01  0.2610E+02
     -8.519  0.6150E+01  0.2649E+02
     -8.456  0.6440E+01  0.2689E+02
     -8.393  0.7367E+01  0.2736E+02
     -8.330  0.7715E+01  0.2784E+02
     -8.267  0.6509E+01  0.2825E+02
     -8.204  0.4434E+01  0.2853E+02
     -8.141  0.3457E+01  0.2875E+02
     -8.078  0.4283E+01  0.2902E+02
     -8.015  0.5478E+01  0.2937E+02
     -7.952  0.5063E+01  0.2969E+02
     -7.889  0.3772E+01  0.2992E+02
     -7.826  0.3391E+01  0.3014E+02
     -7.763  0.4112E+01  0.3040E+02
     -7.700  0.5515E+01  0.3074E+02
     -7.637  0.6249E+01  0.3114E+02
     -7.574  0.5937E+01  0.3151E+02
     -7.511  0.5587E+01  0.3186E+02
     -7.448  0.5757E+01  0.3223E+02
     -7.385  0.6792E+01  0.3265E+02
     -7.322  0.8679E+01  0.3320E+02
     -7.259  0.9904E+01  0.3383E+02
     -7.196  0.9512E+01  0.3443E+02
     -7.133  0.8360E+01  0.3495E+02
     -7.070  0.6816E+01  0.3538E+02
     -7.007  0.5111E+01  0.3570E+02
     -6.943  0.4120E+01  0.3596E+02
     -6.880  0.4557E+01  0.3625E+02
     -6.817  0.6730E+01  0.3667E+02
     -6.754  0.9491E+01  0.3727E+02
     -6.691  0.1146E+02  0.3799E+02
     -6.628  0.1316E+02  0.3882E+02
     -6.565  0.1403E+02  0.3971E+02
     -6.502  0.1277E+02  0.4051E+02
     -6.439  0.1004E+02  0.4115E+02
     -6.376  0.6612E+01  0.4156E+02
     -6.313  0.3872E+01  0.4181E+02
     -6.250  0.3141E+01  0.4200E+02
     -6.187  0.3952E+01  0.4225E+02
     -6.124  0.4852E+01  0.4256E+02
     -6.061  0.4479E+01  0.4284E+02
     -5.998  0.2861E+01  0.4302E+02
     -5.935  0.1864E+01  0.4314E+02
     -5.872  0.2641E+01  0.4331E+02
     -5.809  0.4653E+01  0.4360E+02
     -5.746  0.6965E+01  0.4404E+02
     -5.683  0.8574E+01  0.4458E+02
     -5.620  0.8452E+01  0.4511E+02
     -5.557  0.6409E+01  0.4551E+02
     -5.494  0.3880E+01  0.4576E+02
     -5.431  0.2256E+01  0.4590E+02
     -5.368  0.2284E+01  0.4605E+02
     -5.305  0.4009E+01  0.4630E+02
     -5.242  0.5624E+01  0.4665E+02
     -5.179  0.5845E+01  0.4702E+02
     -5.116  0.5746E+01  0.4738E+02
     -5.053  0.6328E+01  0.4778E+02
     -4.990  0.7490E+01  0.4825E+02
     -4.927  0.8598E+01  0.4880E+02
     -4.864  0.9562E+01  0.4940E+02
     -4.801  0.1063E+02  0.5007E+02
     -4.738  0.1081E+02  0.5075E+02
     -4.675  0.9900E+01  0.5137E+02
     -4.612  0.9928E+01  0.5200E+02
     -4.549  0.1144E+02  0.5272E+02
     -4.486  0.1231E+02  0.5350E+02
     -4.423  0.1209E+02  0.5426E+02
     -4.360  0.1204E+02  0.5502E+02
     -4.297  0.1206E+02  0.5578E+02
     -4.234  0.1230E+02  0.5655E+02
     -4.171  0.1358E+02  0.5741E+02
     -4.108  0.1498E+02  0.5835E+02
     -4.045  0.1523E+02  0.5931E+02
     -3.982  0.1483E+02  0.6025E+02
     -3.919  0.1420E+02  0.6114E+02
     -3.856  0.1268E+02  0.6194E+02
     -3.792  0.1114E+02  0.6264E+02
     -3.729  0.1086E+02  0.6333E+02
     -3.666  0.1189E+02  0.6408E+02
     -3.603  0.1340E+02  0.6492E+02
     -3.540  0.1400E+02  0.6580E+02
     -3.477  0.1310E+02  0.6663E+02
     -3.414  0.1173E+02  0.6737E+02
     -3.351  0.1168E+02  0.6810E+02
     -3.288  0.1354E+02  0.6896E+02
     -3.225  0.1543E+02  0.6993E+02
     -3.162  0.1633E+02  0.7096E+02
     -3.099  0.1686E+02  0.7202E+02
     -3.036  0.1758E+02  0.7313E+02
     -2.973  0.1863E+02  0.7430E+02
     -2.910  0.1876E+02  0.7548E+02
     -2.847  0.1703E+02  0.7656E+02
     -2.784  0.1476E+02  0.7749E+02
     -2.721  0.1372E+02  0.7835E+02
     -2.658  0.1495E+02  0.7929E+02
     -2.595  0.1689E+02  0.8036E+02
     -2.532  0.1743E+02  0.8146E+02
     -2.469  0.1770E+02  0.8257E+02
     -2.406  0.1813E+02  0.8371E+02
     -2.343  0.1807E+02  0.8485E+02
     -2.280  0.1664E+02  0.8590E+02
     -2.217  0.1441E+02  0.8681E+02
     -2.154  0.1397E+02  0.8769E+02
     -2.091  0.1592E+02  0.8869E+02
     -2.028  0.1792E+02  0.8982E+02
     -1.965  0.1879E+02  0.9101E+02
     -1.902  0.1978E+02  0.9225E+02
     -1.839  0.2162E+02  0.9362E+02
     -1.776  0.2274E+02  0.9505E+02
     -1.713  0.2210E+02  0.9644E+02
     -1.650  0.2002E+02  0.9770E+02
     -1.587  0.1676E+02  0.9876E+02
     -1.524  0.1316E+02  0.9959E+02
     -1.461  0.1049E+02  0.1003E+03
     -1.398  0.9715E+01  0.1009E+03
     -1.335  0.9919E+01  0.1015E+03
     -1.272  0.1017E+02  0.1021E+03
     -1.209  0.1041E+02  0.1028E+03
     -1.146  0.1056E+02  0.1035E+03
     -1.083  0.1066E+02  0.1041E+03
     -1.020  0.1025E+02  0.1048E+03
     -0.957  0.8988E+01  0.1053E+03
     -0.894  0.7781E+01  0.1058E+03
     -0.831  0.6727E+01  0.1062E+03
     -0.768  0.4965E+01  0.1066E+03
     -0.705  0.2970E+01  0.1067E+03
     -0.641  0.2232E+01  0.1069E+03
     -0.578  0.2446E+01  0.1070E+03
     -0.515  0.2059E+01  0.1072E+03
     -0.452  0.1486E+01  0.1073E+03
     -0.389  0.1932E+01  0.1074E+03
     -0.326  0.2991E+01  0.1076E+03
     -0.263  0.3303E+01  0.1078E+03
     -0.200  0.2284E+01  0.1079E+03
     -0.137  0.9022E+00  0.1080E+03
     -0.074  0.1888E+00  0.1080E+03
     -0.011  0.1994E-01  0.1080E+03
      0.052  0.1031E-02  0.1080E+03
      0.115  0.2561E-04  0.1080E+03
      0.178  0.3019E-06  0.1080E+03
      0.241  0.2335E-07  0.1080E+03
      0.304  0.2685E-05  0.1080E+03
      0.367  0.1572E-03  0.1080E+03
      0.430  0.4409E-02  0.1080E+03
      0.493  0.6053E-01  0.1080E+03
      0.556  0.4202E+00  0.1080E+03
      0.619  0.1543E+01  0.1081E+03
      0.682  0.3162E+01  0.1083E+03
      0.745  0.3844E+01  0.1086E+03
      0.808  0.3256E+01  0.1088E+03
      0.871  0.3009E+01  0.1090E+03
      0.934  0.3503E+01  0.1092E+03
      0.997  0.3729E+01  0.1094E+03
      1.060  0.3890E+01  0.1097E+03
      1.123  0.4839E+01  0.1100E+03
      1.186  0.6105E+01  0.1104E+03
      1.249  0.7309E+01  0.1108E+03
      1.312  0.8553E+01  0.1114E+03
      1.375  0.9559E+01  0.1120E+03
      1.438  0.1030E+02  0.1126E+03
      1.501  0.1059E+02  0.1133E+03
      1.564  0.1119E+02  0.1140E+03
      1.627  0.1277E+02  0.1148E+03
      1.690  0.1440E+02  0.1157E+03
      1.753  0.1508E+02  0.1166E+03
      1.816  0.1449E+02  0.1176E+03
      1.879  0.1360E+02  0.1184E+03
      1.942  0.1390E+02  0.1193E+03
      2.005  0.1465E+02  0.1202E+03
      2.068  0.1449E+02  0.1211E+03
      2.131  0.1408E+02  0.1220E+03
      2.194  0.1463E+02  0.1229E+03
      2.257  0.1600E+02  0.1239E+03
      2.320  0.1736E+02  0.1250E+03
      2.383  0.1754E+02  0.1261E+03
      2.446  0.1683E+02  0.1272E+03
      2.510  0.1590E+02  0.1282E+03
      2.573  0.1507E+02  0.1292E+03
      2.636  0.1452E+02  0.1301E+03
      2.699  0.1430E+02  0.1310E+03
      2.762  0.1428E+02  0.1319E+03
      2.825  0.1354E+02  0.1327E+03
      2.888  0.1135E+02  0.1334E+03
      2.951  0.9002E+01  0.1340E+03
      3.014  0.8092E+01  0.1345E+03
      3.077  0.7645E+01  0.1350E+03
      3.140  0.6512E+01  0.1354E+03
      3.203  0.4751E+01  0.1357E+03
      3.266  0.2816E+01  0.1359E+03
      3.329  0.1313E+01  0.1360E+03
      3.392  0.4301E+00  0.1360E+03
      3.455  0.8278E-01  0.1360E+03
      3.518  0.8288E-02  0.1360E+03
      3.581  0.4073E-03  0.1360E+03
      3.644  0.9567E-05  0.1360E+03
      3.707  0.1058E-06  0.1360E+03
      3.770  0.5465E-09  0.1360E+03
      3.833  0.1308E-11  0.1360E+03
      3.896  0.1491E-14  0.1360E+03
      3.959  0.0000E+00  0.1360E+03
      4.022  0.0000E+00  0.1360E+03
      4.085  0.0000E+00  0.1360E+03
      4.148  0.0000E+00  0.1360E+03
      4.211  0.0000E+00  0.1360E+03
      4.274  0.0000E+00  0.1360E+03
