   24   24    1    1
  0.4176334E+02  0.3540400E-09  0.1044544E-08  0.2750143E-08  0.5000000E-15
  1.000000000000000E-004
  CAR 
 unknown system                          
    108     54     68
 
  0.0000000E+00  0.0000000E+00  0.0000000E+00  0.9615385E-02
    1      -13.631934
    2      -13.468099
    3      -12.942285
    4      -12.730323
    5      -12.487897
    6      -12.396230
    7      -12.207644
    8      -12.008659
    9      -11.457571
   10      -11.363172
   11      -11.107531
   12      -10.917787
   13       -8.013913
   14       -7.933112
   15       -7.755983
   16       -7.711205
   17       -6.831125
   18       -6.676908
   19       -6.518041
   20       -6.419865
   21       -5.794051
   22       -5.745524
   23       -4.813890
   24       -4.673055
   25       -3.960031
   26       -3.753457
   27       -3.620747
   28       -3.463908
   29       -3.168292
   30       -2.984887
   31       -2.875346
   32       -2.864658
   33       -2.773567
   34       -2.646872
   35       -2.556359
   36       -2.450498
   37       -2.370669
   38       -2.313555
   39       -2.141567
   40       -2.102380
   41       -1.972506
   42       -1.882398
   43       -1.781113
   44       -1.716749
   45       -1.657481
   46       -1.571784
   47       -1.515526
   48       -1.444667
   49       -1.360644
   50       -1.198957
   51       -1.053268
   52       -0.802887
   53       -0.617078
   54       -0.317226
   55        0.634395
   56        1.202299
   57        1.296278
   58        1.381940
   59        1.412697
   60        1.716736
   61        1.770645
   62        1.784888
   63        2.013060
   64        2.066032
   65        2.246506
   66        2.350405
   67        2.504625
   68        2.714084
 
  0.7692308E-01 -0.1387779E-16  0.0000000E+00  0.1923077E-01
    1      -13.575352
    2      -13.406778
    3      -12.893190
    4      -12.678165
    5      -12.432071
    6      -12.340551
    7      -12.150559
    8      -11.946520
    9      -11.407868
   10      -11.314255
   11      -11.059497
   12      -10.869451
   13       -8.027023
   14       -7.960145
   15       -7.723113
   16       -7.691850
   17       -6.797845
   18       -6.649907
   19       -6.504825
   20       -6.414028
   21       -5.757819
   22       -5.710012
   23       -4.823920
   24       -4.676440
   25       -3.959474
   26       -3.782926
   27       -3.652931
   28       -3.570105
   29       -3.418417
   30       -3.294109
   31       -3.204585
   32       -3.154152
   33       -3.091716
   34       -2.913356
   35       -2.787619
   36       -2.662202
   37       -2.530229
   38       -2.406172
   39       -2.285668
   40       -2.179091
   41       -2.116197
   42       -2.031596
   43       -1.961438
   44       -1.896606
   45       -1.853900
   46       -1.769764
   47       -1.669482
   48       -1.497678
   49       -1.439110
   50       -1.151808
   51       -1.097148
   52       -1.005269
   53       -0.791609
   54       -0.325822
   55        1.107300
   56        1.581468
   57        1.629314
   58        1.749674
   59        1.832859
   60        1.959657
   61        2.039178
   62        2.203710
   63        2.277051
   64        2.328065
   65        2.429000
   66        2.541103
   67        2.678456
   68        2.836244
 
  0.1538462E+00 -0.2775558E-16  0.0000000E+00  0.1923077E-01
    1      -13.408511
    2      -13.223886
    3      -12.747180
    4      -12.522412
    5      -12.266443
    6      -12.175685
    7      -11.983906
    8      -11.764316
    9      -11.262638
   10      -11.172340
   11      -10.920516
   12      -10.730786
   13       -8.101016
   14       -7.998199
   15       -7.708915
   16       -7.669542
   17       -6.725814
   18       -6.604808
   19       -6.475690
   20       -6.425665
   21       -5.674125
   22       -5.628700
   23       -4.950888
   24       -4.794977
   25       -4.346760
   26       -4.148699
   27       -4.041800
   28       -3.982108
   29       -3.937442
   30       -3.885207
   31       -3.674057
   32       -3.587581
   33       -3.504381
   34       -3.248524
   35       -3.167744
   36       -3.050336
   37       -2.990467
   38       -2.896038
   39       -2.866944
   40       -2.624554
   41       -2.401542
   42       -2.311509
   43       -2.123137
   44       -2.078549
   45       -1.931743
   46       -1.840289
   47       -1.722282
   48       -1.658501
   49       -1.576975
   50       -1.550671
   51       -1.152844
   52       -1.036299
   53       -0.889030
   54       -0.414452
   55        1.536640
   56        1.736955
   57        2.002237
   58        2.085910
   59        2.278578
   60        2.337576
   61        2.499633
   62        2.543882
   63        2.704872
   64        2.723303
   65        2.815470
   66        2.956627
   67        3.024473
   68        3.124619
 
  0.2307692E+00 -0.4163336E-16  0.0000000E+00  0.1923077E-01
    1      -13.142109
    2      -12.923001
    3      -12.508611
    4      -12.266152
    5      -11.997652
    6      -11.909196
    7      -11.723058
    8      -11.476769
    9      -11.036168
   10      -10.955633
   11      -10.710885
   12      -10.527986
   13       -8.287709
   14       -8.074891
   15       -7.855963
   16       -7.749388
   17       -6.772335
   18       -6.628579
   19       -6.560970
   20       -6.464595
   21       -5.686512
   22       -5.646616
   23       -5.354884
   24       -5.267758
   25       -4.842621
   26       -4.744396
   27       -4.585858
   28       -4.536892
   29       -4.458552
   30       -4.420573
   31       -4.167239
   32       -4.107825
   33       -3.772300
   34       -3.714363
   35       -3.453430
   36       -3.396536
   37       -3.262057
   38       -3.087235
   39       -2.922250
   40       -2.749009
   41       -2.642312
   42       -2.479017
   43       -2.391469
   44       -2.312009
   45       -1.939269
   46       -1.831138
   47       -1.771234
   48       -1.749701
   49       -1.653185
   50       -1.607292
   51       -1.394149
   52       -1.219656
   53       -1.075305
   54       -0.629291
   55        1.251663
   56        1.616805
   57        1.895805
   58        1.973986
   59        2.034440
   60        2.177111
   61        2.327697
   62        2.428402
   63        2.600764
   64        2.702774
   65        2.776787
   66        2.951650
   67        2.986947
   68        3.041736
 
  0.3076923E+00 -0.5551115E-16  0.0000000E+00  0.1923077E-01
    1      -12.802509
    2      -12.511421
    3      -12.185789
    4      -11.917867
    5      -11.641145
    6      -11.558485
    7      -11.400221
    8      -11.118657
    9      -10.764089
   10      -10.711556
   11      -10.488052
   12      -10.342633
   13       -8.582027
   14       -8.289422
   15       -8.197621
   16       -8.010958
   17       -7.133572
   18       -6.923870
   19       -6.829135
   20       -6.639053
   21       -6.143678
   22       -6.092417
   23       -5.892389
   24       -5.768147
   25       -5.143026
   26       -5.059941
   27       -4.958199
   28       -4.745462
   29       -4.676891
   30       -4.627483
   31       -4.374603
   32       -4.239505
   33       -4.162822
   34       -4.068228
   35       -3.422110
   36       -3.321922
   37       -3.191680
   38       -3.141638
   39       -3.004647
   40       -2.909048
   41       -2.783134
   42       -2.643241
   43       -2.574999
   44       -2.374363
   45       -2.085596
   46       -1.987427
   47       -1.826379
   48       -1.819990
   49       -1.749378
   50       -1.669315
   51       -1.595944
   52       -1.552236
   53       -1.253047
   54       -0.912036
   55        0.930475
   56        1.396952
   57        1.579052
   58        1.669152
   59        1.801711
   60        1.918081
   61        2.065491
   62        2.274541
   63        2.315149
   64        2.410033
   65        2.584149
   66        2.749204
   67        2.830930
   68        2.896804
 
  0.3846154E+00 -0.8326673E-16  0.0000000E+00  0.1923077E-01
    1      -12.452039
    2      -12.003315
    3      -11.790585
    4      -11.498767
    5      -11.232217
    6      -11.164633
    7      -11.083790
    8      -10.775841
    9      -10.558273
   10      -10.534158
   11      -10.388900
   12      -10.382941
   13       -8.759089
   14       -8.681340
   15       -8.427431
   16       -8.303377
   17       -7.575808
   18       -7.386636
   19       -7.342519
   20       -7.120835
   21       -6.796243
   22       -6.689608
   23       -6.588673
   24       -6.224316
   25       -5.160022
   26       -5.129102
   27       -4.781682
   28       -4.612212
   29       -4.531514
   30       -4.454800
   31       -4.205346
   32       -4.144482
   33       -4.063716
   34       -3.994173
   35       -3.651965
   36       -3.582828
   37       -3.407616
   38       -3.198746
   39       -3.114514
   40       -3.066586
   41       -2.908516
   42       -2.739429
   43       -2.553584
   44       -2.408487
   45       -2.288836
   46       -2.204925
   47       -2.021284
   48       -1.957739
   49       -1.927009
   50       -1.820538
   51       -1.750764
   52       -1.578941
   53       -1.322046
   54       -1.103922
   55        0.743798
   56        1.120163
   57        1.310952
   58        1.476678
   59        1.691278
   60        1.766194
   61        1.887021
   62        1.994214
   63        2.116772
   64        2.296594
   65        2.337069
   66        2.422744
   67        2.618960
   68        2.777826
 
  0.4615385E+00 -0.8326673E-16  0.0000000E+00  0.1923077E-01
    1      -12.212477
    2      -11.430126
    3      -11.355206
    4      -11.076009
    5      -10.986992
    6      -10.877780
    7      -10.852553
    8      -10.771217
    9      -10.656366
   10      -10.564391
   11      -10.519963
   12      -10.429425
   13       -8.976303
   14       -8.617293
   15       -8.368097
   16       -8.325004
   17       -8.006861
   18       -7.848563
   19       -7.622566
   20       -7.498740
   21       -7.326881
   22       -7.213539
   23       -7.109153
   24       -6.508185
   25       -4.949551
   26       -4.844513
   27       -4.553680
   28       -4.434611
   29       -4.326251
   30       -4.227445
   31       -4.138487
   32       -3.979168
   33       -3.934153
   34       -3.852126
   35       -3.761497
   36       -3.671440
   37       -3.593705
   38       -3.499216
   39       -3.350944
   40       -3.213500
   41       -3.183974
   42       -2.934404
   43       -2.630119
   44       -2.470095
   45       -2.395176
   46       -2.285498
   47       -2.139445
   48       -2.085889
   49       -2.018199
   50       -1.839155
   51       -1.656542
   52       -1.515801
   53       -1.437731
   54       -1.172367
   55        0.717439
   56        0.908073
   57        1.172979
   58        1.424272
   59        1.577927
   60        1.646215
   61        1.745164
   62        1.840293
   63        1.938531
   64        2.155484
   65        2.273397
   66        2.452418
   67        2.519973
   68        2.590373
 
  0.0000000E+00  0.2500000E+00  0.0000000E+00  0.1923077E-01
    1      -13.577384
    2      -13.412584
    3      -13.099628
    4      -12.903795
    5      -12.489185
    6      -12.390744
    7      -12.035000
    8      -11.798231
    9      -11.491207
   10      -11.408145
   11      -11.107062
   12      -10.926994
   13       -8.454089
   14       -8.422770
   15       -7.357776
   16       -7.207103
   17       -6.712866
   18       -6.599412
   19       -6.571449
   20       -6.492351
   21       -5.732856
   22       -5.659785
   23       -4.728637
   24       -4.567465
   25       -4.099248
   26       -3.952018
   27       -3.760436
   28       -3.458622
   29       -3.288394
   30       -3.057094
   31       -2.999698
   32       -2.929307
   33       -2.738265
   34       -2.637699
   35       -2.501197
   36       -2.369667
   37       -2.320708
   38       -2.304014
   39       -2.266637
   40       -2.122257
   41       -2.019368
   42       -1.906095
   43       -1.847743
   44       -1.809160
   45       -1.622846
   46       -1.557408
   47       -1.421575
   48       -1.347338
   49       -1.291363
   50       -1.130072
   51       -0.993119
   52       -0.798499
   53       -0.619737
   54       -0.271441
   55        0.639893
   56        1.242964
   57        1.280579
   58        1.422819
   59        1.494064
   60        1.630936
   61        1.795129
   62        1.824094
   63        1.958184
   64        2.171567
   65        2.312939
   66        2.395614
   67        2.631365
   68        2.717002
 
  0.7692308E-01  0.2500000E+00  0.0000000E+00  0.1923077E-01
    1      -13.507720
    2      -13.335725
    3      -13.076900
    4      -12.884707
    5      -12.432266
    6      -12.333471
    7      -11.954667
    8      -11.698696
    9      -11.443253
   10      -11.366779
   11      -11.061156
   12      -10.882820
   13       -8.506617
   14       -8.456277
   15       -7.313981
   16       -7.165186
   17       -6.727101
   18       -6.605891
   19       -6.507605
   20       -6.433656
   21       -5.676425
   22       -5.607422
   23       -4.732947
   24       -4.613270
   25       -4.166263
   26       -4.025201
   27       -3.733117
   28       -3.575448
   29       -3.511975
   30       -3.352131
   31       -3.303532
   32       -3.082535
   33       -2.961867
   34       -2.902385
   35       -2.805387
   36       -2.618984
   37       -2.528596
   38       -2.432495
   39       -2.394884
   40       -2.243936
   41       -2.207838
   42       -2.126574
   43       -2.059194
   44       -1.939637
   45       -1.789870
   46       -1.758782
   47       -1.674111
   48       -1.415291
   49       -1.300609
   50       -1.075855
   51       -0.997158
   52       -0.938727
   53       -0.790944
   54       -0.286778
   55        1.099531
   56        1.502691
   57        1.637500
   58        1.721503
   59        1.850035
   60        1.978968
   61        2.036659
   62        2.196601
   63        2.306418
   64        2.416131
   65        2.583724
   66        2.711077
   67        2.736066
   68        2.987937
 
  0.1538462E+00  0.2500000E+00  0.0000000E+00  0.1923077E-01
    1      -13.331763
    2      -13.139281
    3      -12.942602
    4      -12.748242
    5      -12.265120
    6      -12.167383
    7      -11.786071
    8      -11.501026
    9      -11.293817
   10      -11.227320
   11      -10.919920
   12      -10.741763
   13       -8.569683
   14       -8.472467
   15       -7.281876
   16       -7.164123
   17       -6.725747
   18       -6.583838
   19       -6.468650
   20       -6.399836
   21       -5.605584
   22       -5.545280
   23       -4.840111
   24       -4.766220
   25       -4.469647
   26       -4.314038
   27       -4.260305
   28       -4.209351
   29       -3.924366
   30       -3.850811
   31       -3.604050
   32       -3.534569
   33       -3.441646
   34       -3.242514
   35       -3.126395
   36       -3.025871
   37       -2.895864
   38       -2.810019
   39       -2.754047
   40       -2.654561
   41       -2.525629
   42       -2.499820
   43       -2.308741
   44       -2.239358
   45       -1.951673
   46       -1.837156
   47       -1.781352
   48       -1.674616
   49       -1.417047
   50       -1.357313
   51       -1.097086
   52       -0.986903
   53       -0.886946
   54       -0.381741
   55        1.484584
   56        1.574689
   57        1.731441
   58        2.036789
   59        2.155722
   60        2.308724
   61        2.451647
   62        2.652508
   63        2.806271
   64        2.868219
   65        2.963311
   66        3.043337
   67        3.133619
   68        3.170818
 
  0.2307692E+00  0.2500000E+00  0.0000000E+00  0.1923077E-01
    1      -13.064727
    2      -12.828214
    3      -12.696214
    4      -12.496937
    5      -11.995105
    6      -11.900542
    7      -11.547417
    8      -11.224591
    9      -11.057139
   10      -11.005547
   11      -10.700622
   12      -10.524694
   13       -8.699934
   14       -8.528213
   15       -7.399378
   16       -7.307702
   17       -6.809462
   18       -6.624244
   19       -6.580170
   20       -6.483546
   21       -5.759913
   22       -5.657241
   23       -5.200014
   24       -5.135998
   25       -4.975309
   26       -4.944734
   27       -4.717048
   28       -4.592077
   29       -4.505118
   30       -4.442480
   31       -4.075871
   32       -3.945940
   33       -3.684486
   34       -3.633270
   35       -3.479362
   36       -3.291370
   37       -3.138536
   38       -3.022052
   39       -2.981570
   40       -2.771413
   41       -2.631220
   42       -2.513059
   43       -2.455909
   44       -2.396586
   45       -2.002598
   46       -1.910803
   47       -1.851767
   48       -1.743487
   49       -1.697150
   50       -1.591709
   51       -1.326472
   52       -1.204598
   53       -1.036119
   54       -0.614425
   55        1.182710
   56        1.388411
   57        1.534743
   58        1.673617
   59        1.736203
   60        2.101994
   61        2.325259
   62        2.491920
   63        2.628207
   64        2.749552
   65        2.803303
   66        3.080032
   67        3.135760
   68        3.269595
 
  0.3076923E+00  0.2500000E+00  0.0000000E+00  0.1923077E-01
    1      -12.739988
    2      -12.412368
    3      -12.338420
    4      -12.137988
    5      -11.638492
    6      -11.551038
    7      -11.271568
    8      -10.910800
    9      -10.771155
   10      -10.741944
   11      -10.461239
   12      -10.319472
   13       -8.898874
   14       -8.677414
   15       -7.818250
   16       -7.633070
   17       -7.114311
   18       -7.041257
   19       -6.888590
   20       -6.788804
   21       -6.126101
   22       -6.048800
   23       -5.846654
   24       -5.799977
   25       -5.312363
   26       -5.240665
   27       -4.982305
   28       -4.864786
   29       -4.517185
   30       -4.415231
   31       -4.334968
   32       -4.246987
   33       -3.942419
   34       -3.805214
   35       -3.613003
   36       -3.271526
   37       -3.124614
   38       -3.016522
   39       -2.925616
   40       -2.836621
   41       -2.787504
   42       -2.685956
   43       -2.501571
   44       -2.391857
   45       -2.243579
   46       -2.080497
   47       -1.926952
   48       -1.880947
   49       -1.828358
   50       -1.687851
   51       -1.667982
   52       -1.548999
   53       -1.236752
   54       -0.922466
   55        0.843928
   56        1.132172
   57        1.293418
   58        1.361882
   59        1.421608
   60        1.907739
   61        2.184654
   62        2.306662
   63        2.424867
   64        2.487879
   65        2.552121
   66        2.685477
   67        2.850913
   68        3.033907
 
  0.3846154E+00  0.2500000E+00  0.0000000E+00  0.1923077E-01
    1      -12.419759
    2      -11.911561
    3      -11.878766
    4      -11.688094
    5      -11.231583
    6      -11.160170
    7      -11.025150
    8      -10.652350
    9      -10.533247
   10      -10.529724
   11      -10.395968
   12      -10.355208
   13       -8.889165
   14       -8.778670
   15       -8.342206
   16       -8.037485
   17       -7.708481
   18       -7.518193
   19       -7.333462
   20       -7.283462
   21       -6.715200
   22       -6.623165
   23       -6.588257
   24       -6.199799
   25       -5.285059
   26       -5.251197
   27       -4.840383
   28       -4.715253
   29       -4.545235
   30       -4.334625
   31       -4.167746
   32       -4.036906
   33       -3.851387
   34       -3.788327
   35       -3.548099
   36       -3.303263
   37       -3.282132
   38       -3.211641
   39       -3.134518
   40       -3.055496
   41       -2.929781
   42       -2.864779
   43       -2.661380
   44       -2.482591
   45       -2.391713
   46       -2.232552
   47       -2.056762
   48       -2.000925
   49       -1.976919
   50       -1.814625
   51       -1.769449
   52       -1.675750
   53       -1.367108
   54       -1.135772
   55        0.708539
   56        0.986405
   57        1.158924
   58        1.286484
   59        1.402396
   60        1.732166
   61        1.891602
   62        1.981259
   63        2.121624
   64        2.216623
   65        2.369660
   66        2.645982
   67        2.691378
   68        2.742524
 
  0.4615385E+00  0.2500000E+00  0.0000000E+00  0.1923077E-01
    1      -12.205271
    2      -11.381263
    3      -11.354003
    4      -11.192937
    5      -10.997623
    6      -10.886711
    7      -10.859721
    8      -10.788729
    9      -10.627749
   10      -10.517977
   11      -10.507804
   12      -10.409096
   13       -8.801737
   14       -8.528830
   15       -8.483521
   16       -8.327862
   17       -8.254201
   18       -7.867242
   19       -7.663041
   20       -7.444803
   21       -7.291771
   22       -7.241175
   23       -7.069678
   24       -6.442688
   25       -5.045796
   26       -4.946839
   27       -4.528303
   28       -4.407379
   29       -4.305519
   30       -4.172289
   31       -4.091712
   32       -4.050918
   33       -3.932746
   34       -3.858011
   35       -3.703534
   36       -3.589001
   37       -3.544170
   38       -3.416054
   39       -3.213907
   40       -3.193796
   41       -3.129018
   42       -2.920109
   43       -2.610797
   44       -2.569476
   45       -2.531920
   46       -2.459437
   47       -2.137430
   48       -2.060479
   49       -2.046822
   50       -1.823154
   51       -1.673001
   52       -1.557859
   53       -1.468794
   54       -1.205603
   55        0.711466
   56        0.867330
   57        1.206278
   58        1.478663
   59        1.546871
   60        1.621651
   61        1.690822
   62        1.842635
   63        1.940712
   64        2.109859
   65        2.222798
   66        2.447446
   67        2.544286
   68        2.593126
 
 -0.4615385E+00  0.2500000E+00  0.0000000E+00  0.1923077E-01
    1      -12.213744
    2      -11.463668
    3      -11.357603
    4      -10.999407
    5      -10.979680
    6      -10.867969
    7      -10.836948
    8      -10.739400
    9      -10.682667
   10      -10.631928
   11      -10.514258
   12      -10.451214
   13       -8.979231
   14       -8.685814
   15       -8.360830
   16       -8.234095
   17       -8.024110
   18       -7.871674
   19       -7.566560
   20       -7.531402
   21       -7.333941
   22       -7.209028
   23       -7.147755
   24       -6.428014
   25       -4.899663
   26       -4.663516
   27       -4.583472
   28       -4.509276
   29       -4.340170
   30       -4.296493
   31       -4.117392
   32       -4.069626
   33       -3.932405
   34       -3.913465
   35       -3.813112
   36       -3.789381
   37       -3.647418
   38       -3.561197
   39       -3.300266
   40       -3.274492
   41       -2.960549
   42       -2.732944
   43       -2.627845
   44       -2.514136
   45       -2.438190
   46       -2.307548
   47       -2.118277
   48       -2.091102
   49       -2.043909
   50       -1.859440
   51       -1.631524
   52       -1.565992
   53       -1.412379
   54       -1.179449
   55        0.663455
   56        0.985357
   57        1.280347
   58        1.439446
   59        1.654054
   60        1.767702
   61        1.818132
   62        1.926492
   63        2.016089
   64        2.200129
   65        2.283429
   66        2.396364
   67        2.451019
   68        2.651348
 
 -0.3846154E+00  0.2500000E+00  0.0000000E+00  0.1923077E-01
    1      -12.456378
    2      -12.029902
    3      -11.782926
    4      -11.414172
    5      -11.228455
    6      -11.160837
    7      -11.087952
    8      -10.855597
    9      -10.561053
   10      -10.535290
   11      -10.380259
   12      -10.376821
   13       -8.911573
   14       -8.670112
   15       -8.418027
   16       -8.093452
   17       -7.619478
   18       -7.368883
   19       -7.274161
   20       -7.242574
   21       -6.761945
   22       -6.738561
   23       -6.592725
   24       -6.136344
   25       -5.150316
   26       -4.978597
   27       -4.814975
   28       -4.771556
   29       -4.523535
   30       -4.337303
   31       -4.275874
   32       -4.191436
   33       -4.076392
   34       -4.017258
   35       -3.722662
   36       -3.651842
   37       -3.474267
   38       -3.333868
   39       -3.117276
   40       -2.982837
   41       -2.848710
   42       -2.684990
   43       -2.545567
   44       -2.393864
   45       -2.300690
   46       -2.163911
   47       -2.014318
   48       -1.947225
   49       -1.876499
   50       -1.829645
   51       -1.726518
   52       -1.631070
   53       -1.310790
   54       -1.071327
   55        0.724655
   56        1.150969
   57        1.411984
   58        1.456217
   59        1.818945
   60        1.907077
   61        2.028504
   62        2.183263
   63        2.235517
   64        2.269088
   65        2.383443
   66        2.441780
   67        2.511798
   68        2.640634
 
 -0.3076923E+00  0.2500000E+00  0.0000000E+00  0.1923077E-01
    1      -12.803162
    2      -12.523751
    3      -12.187762
    4      -11.876294
    5      -11.638062
    6      -11.557256
    7      -11.399690
    8      -11.164581
    9      -10.765358
   10      -10.703390
   11      -10.474767
   12      -10.348463
   13       -8.626367
   14       -8.482551
   15       -8.114477
   16       -7.731344
   17       -7.141167
   18       -6.928935
   19       -6.817638
   20       -6.770832
   21       -6.116179
   22       -6.086529
   23       -5.901793
   24       -5.783951
   25       -5.212931
   26       -5.076371
   27       -4.827296
   28       -4.773163
   29       -4.692512
   30       -4.568628
   31       -4.342704
   32       -4.254190
   33       -4.182082
   34       -4.133768
   35       -3.555009
   36       -3.386382
   37       -3.155254
   38       -3.098772
   39       -3.003386
   40       -2.841904
   41       -2.777215
   42       -2.653360
   43       -2.520241
   44       -2.336671
   45       -2.125635
   46       -1.952503
   47       -1.837841
   48       -1.802132
   49       -1.753908
   50       -1.709826
   51       -1.636739
   52       -1.564578
   53       -1.247301
   54       -0.853564
   55        0.924049
   56        1.335426
   57        1.654673
   58        1.709423
   59        1.938558
   60        2.039067
   61        2.130054
   62        2.291612
   63        2.406038
   64        2.450077
   65        2.543799
   66        2.713981
   67        2.753479
   68        2.842097
 
 -0.2307692E+00  0.2500000E+00  0.0000000E+00  0.1923077E-01
    1      -13.131915
    2      -12.918769
    3      -12.542570
    4      -12.280697
    5      -11.996661
    6      -11.907973
    7      -11.687828
    8      -11.459473
    9      -11.043773
   10      -10.959388
   11      -10.700607
   12      -10.526495
   13       -8.388580
   14       -8.326157
   15       -7.710746
   16       -7.432029
   17       -6.769539
   18       -6.628770
   19       -6.566594
   20       -6.502248
   21       -5.720071
   22       -5.658974
   23       -5.485526
   24       -5.263286
   25       -4.908579
   26       -4.758631
   27       -4.546469
   28       -4.491352
   29       -4.446638
   30       -4.370368
   31       -4.136063
   32       -4.103782
   33       -3.833343
   34       -3.712290
   35       -3.529812
   36       -3.378139
   37       -3.246142
   38       -2.980925
   39       -2.910981
   40       -2.697750
   41       -2.593505
   42       -2.491660
   43       -2.393034
   44       -2.337192
   45       -2.005867
   46       -1.863487
   47       -1.805807
   48       -1.756644
   49       -1.667946
   50       -1.566618
   51       -1.384997
   52       -1.264000
   53       -1.060551
   54       -0.565545
   55        1.281060
   56        1.590034
   57        1.799619
   58        1.943980
   59        2.060856
   60        2.209405
   61        2.309792
   62        2.416863
   63        2.470452
   64        2.776059
   65        2.829887
   66        2.876069
   67        2.993715
   68        3.058600
 
 -0.1538462E+00  0.2500000E+00  0.0000000E+00  0.1923077E-01
    1      -13.384059
    2      -13.202357
    3      -12.823835
    4      -12.595826
    5      -12.267094
    6      -12.173372
    7      -11.900153
    8      -11.675913
    9      -11.280222
   10      -11.191699
   11      -10.912783
   12      -10.728893
   13       -8.338548
   14       -8.302384
   15       -7.473610
   16       -7.300761
   17       -6.664788
   18       -6.600330
   19       -6.494348
   20       -6.468208
   21       -5.679311
   22       -5.609153
   23       -5.027007
   24       -4.770719
   25       -4.371009
   26       -4.216776
   27       -4.104084
   28       -4.026198
   29       -3.909684
   30       -3.861486
   31       -3.699217
   32       -3.626042
   33       -3.513394
   34       -3.274370
   35       -3.153189
   36       -2.983731
   37       -2.911772
   38       -2.848441
   39       -2.816660
   40       -2.603094
   41       -2.436411
   42       -2.337320
   43       -2.197250
   44       -2.107272
   45       -1.927851
   46       -1.857654
   47       -1.755534
   48       -1.695480
   49       -1.543122
   50       -1.463973
   51       -1.146688
   52       -1.029916
   53       -0.901313
   54       -0.354154
   55        1.548643
   56        1.763305
   57        1.877917
   58        2.033022
   59        2.209239
   60        2.322875
   61        2.440439
   62        2.537914
   63        2.715427
   64        2.781474
   65        2.870146
   66        3.014550
   67        3.132703
   68        3.162853
 
 -0.7692308E-01  0.2500000E+00  0.0000000E+00  0.1923077E-01
    1      -13.535646
    2      -13.367975
    3      -13.013290
    4      -12.806229
    5      -12.433540