 vasp.5.3.5 31Mar14 (build Oct 29 2014 16:16:03) complex                        
  
 executed on          Linux-UFHPC date 2016.02.09  17:26:45
 running on    8 total cores
 distrk:  each k-point on    8 cores,    1 groups
 distr:  one band on NCORES_PER_BAND=   2 cores,    4 groups


--------------------------------------------------------------------------------------------------------


 INCAR:
 POTCAR:    PAW_PBE P 17Jan2003                   
 POTCAR:   PAW_PBE Si 05Jan2001                   

 ----------------------------------------------------------------------------- 
|                                                                             |
|  ADVICE TO THIS USER RUNNING 'VASP/VAMP'   (HEAR YOUR MASTER'S VOICE ...):  |
|                                                                             |
|      You have switched on vdW-DFT.                                          |
|      This routine was written and supplied by Jiri Klimes.                  |
|      We recommed that you carefully read and cite the following             |
|      publication                                                            |
|      J. Klimes, D.R. Bowler, A. Michelides                                  |
|        J. Phys.: Cond Matt. 22 022201 (2010)                                |
|      J. Klimes, D.R. Bowler, A. Michelides                                  |
|        Phys. Rev. B. 83, 195131 (2011)                                      |
|      and references therein.                                                |
|                                                                             |
 ----------------------------------------------------------------------------- 

 POTCAR:    PAW_PBE P 17Jan2003                   
   VRHFIN =P : s2p3                                                             
   LEXCH  = PE                                                                  
   EATOM  =   176.0430 eV,   12.9388 Ry                                         
                                                                                
   TITEL  = PAW_PBE P 17Jan2003                                                 
   LULTRA =        F    use ultrasoft PP ?                                      
   IUNSCR =        1    unscreen: 0-lin 1-nonlin 2-no                           
   RPACOR =    1.500    partial core radius                                     
   POMASS =   30.974; ZVAL   =    5.000    mass and valenz                      
   RCORE  =    1.900    outmost cutoff radius                                   
   RWIGS  =    2.330; RWIGS  =    1.233    wigner-seitz radius (au A)           
   ENMAX  =  270.000; ENMIN  =  191.280 eV                                      
   ICORE  =        2    local potential                                         
   LCOR   =        T    correct aug charges                                     
   LPAW   =        T    paw PP                                                  
   EAUG   =  342.924                                                            
   DEXC   =    -.002                                                            
   RMAX   =    2.887    core radius for proj-oper                               
   RAUG   =    1.300    factor for augmentation sphere                          
   RDEP   =    1.931    radius for radial grids                                 
   QCUT   =   -4.330; QGAM   =    8.659    optimization parameters              
                                                                                
   Description                                                                  
     l     E      TYP  RCUT    TYP  RCUT                                        
     0   .000     23  1.900                                                     
     0   .000     23  1.900                                                     
     1   .000     23  1.900                                                     
     1   .000     23  1.900                                                     
     2   .000     23  1.900                                                     
  local pseudopotential read in
  partial core-charges read in
  atomic valenz-charges read in
  non local Contribution for L=           0  read in
    real space projection operators read in
  non local Contribution for L=           0  read in
    real space projection operators read in
  non local Contribution for L=           1  read in
    real space projection operators read in
  non local Contribution for L=           1  read in
    real space projection operators read in
    PAW grid and wavefunctions read in
 
   number of l-projection  operators is LMAX  =           4
   number of lm-projection operators is LMMAX =           8
 
 POTCAR:   PAW_PBE Si 05Jan2001                   
   VRHFIN =Si: s2p2                                                             
   LEXCH  = PE                                                                  
   EATOM  =   103.0669 eV,    7.5752 Ry                                         
                                                                                
   TITEL  = PAW_PBE Si 05Jan2001                                                
   LULTRA =        F    use ultrasoft PP ?                                      
   IUNSCR =        1    unscreen: 0-lin 1-nonlin 2-no                           
   RPACOR =    1.500    partial core radius                                     
   POMASS =   28.085; ZVAL   =    4.000    mass and valenz                      
   RCORE  =    1.900    outmost cutoff radius                                   
   RWIGS  =    2.480; RWIGS  =    1.312    wigner-seitz radius (au A)           
   ENMAX  =  245.345; ENMIN  =  184.009 eV                                      
   ICORE  =        2    local potential                                         
   LCOR   =        T    correct aug charges                                     
   LPAW   =        T    paw PP                                                  
   EAUG   =  322.069                                                            
   DEXC   =    -.007                                                            
   RMAX   =    2.944    core radius for proj-oper                               
   RAUG   =    1.300    factor for augmentation sphere                          
   RDEP   =    1.993    radius for radial grids                                 
   QCUT   =   -4.246; QGAM   =    8.493    optimization parameters              
                                                                                
   Description                                                                  
     l     E      TYP  RCUT    TYP  RCUT                                        
     0   .000     23  1.900                                                     
     0   .000     23  1.900                                                     
     1   .000     23  1.900                                                     
     1   .000     23  1.900                                                     
     2   .000      7  1.900                                                     
  local pseudopotential read in
  partial core-charges read in
  atomic valenz-charges read in
  non local Contribution for L=           0  read in
    real space projection operators read in
  non local Contribution for L=           0  read in
    real space projection operators read in
  non local Contribution for L=           1  read in
    real space projection operators read in
  non local Contribution for L=           1  read in
    real space projection operators read in
    PAW grid and wavefunctions read in
 
   number of l-projection  operators is LMAX  =           4
   number of lm-projection operators is LMMAX =           8
 
 Optimization of the real space projectors (new method)

 maximal supplied QI-value         = 19.84
 optimisation between [QCUT,QGAM] = [  8.73, 17.66] = [ 21.34, 87.33] Ry 
 Optimized for a Real-space Cutoff    1.50 Angstroem

   l    n(q)    QCUT    max X(q) W(low)/X(q) W(high)/X(q)  e(spline) 
   0      8     8.731     6.651    0.16E-04    0.15E-04    0.77E-08
   0      8     8.731    90.285    0.16E-03    0.90E-04    0.16E-06
   1      7     8.731     4.328    0.47E-04    0.36E-04    0.45E-07
   1      7     8.731    54.583    0.13E-03    0.39E-03    0.20E-06
 Optimization of the real space projectors (new method)

 maximal supplied QI-value         = 19.84
 optimisation between [QCUT,QGAM] = [  8.73, 17.66] = [ 21.34, 87.33] Ry 
 Optimized for a Real-space Cutoff    1.46 Angstroem

   l    n(q)    QCUT    max X(q) W(low)/X(q) W(high)/X(q)  e(spline) 
   0      8     8.731     8.708    0.16E-04    0.11E-04    0.68E-08
   0      8     8.731   106.241    0.24E-03    0.77E-04    0.13E-06
   1      7     8.731     5.901    0.34E-04    0.38E-04    0.36E-07
   1      7     8.731    73.241    0.12E-03    0.39E-03    0.15E-06

 ----------------------------------------------------------------------------- 
|                                                                             |
|  ADVICE TO THIS USER RUNNING 'VASP/VAMP'   (HEAR YOUR MASTER'S VOICE ...):  |
|                                                                             |
|      You enforced a specific xc-type in the INCAR file,                     |
|      a different type was found on the POTCAR file                          |
|          I HOPE YOU KNOW, WHAT YOU ARE  DOING                               |
|                                                                             |
 ----------------------------------------------------------------------------- 

  PAW_PBE P 17Jan2003                   :
 energy of atom  1       EATOM= -176.0430
 kinetic energy error for atom=    0.0040 (will be added to EATOM!!)
 PAW_PBE Si 05Jan2001                   :
 energy of atom  2       EATOM= -103.0669
 kinetic energy error for atom=    0.0021 (will be added to EATOM!!)
 
 
 POSCAR: Si12                                    
  positions in direct lattice
  No initial velocities read in
 exchange correlation table for  LEXCH =       42
   RHO(1)=    0.500       N(1)  =     2000
   RHO(2)=  100.500       N(2)  =     4000
 


--------------------------------------------------------------------------------------------------------


 ion  position               nearest neighbor table
   1  0.114  0.228  0.233-  15 2.28  21 2.29  21 2.29
   2  0.314  0.228  0.515-  16 2.28  22 2.29  22 2.29
   3  0.458  0.916  0.209-  21 2.28  13 2.30  13 2.30
   4  0.658  0.916  0.491-  22 2.28  14 2.30  14 2.30
   5  0.311  0.622  0.084-  17 2.28  23 2.30  23 2.30
   6  0.311  0.622  0.366-  24 1.81  18 2.28  24 2.88
   7  0.999  0.998  0.086-  19 2.29  19 2.29  13 2.32
   8  0.999  0.998  0.368-  20 2.29  20 2.29  14 2.42
   9  0.655  0.310  0.060-  19 2.28  17 2.29  17 2.29
  10  0.655  0.310  0.342-  20 2.28  18 2.29  18 2.29
  11  0.770  0.539  0.207-  15 2.29  15 2.29  23 2.32
  12  0.970  0.539  0.489-  16 2.29  16 2.29  24 2.32
  13  0.940  0.879  0.158-   3 2.30   3 2.30   7 2.32  23 2.35
  14  0.140  0.879  0.440-   4 2.30   4 2.30  24 2.35   8 2.42  20 3.09
  15  0.205  0.410  0.186-   1 2.28  11 2.29  11 2.29  17 2.37
  16  0.405  0.410  0.468-   2 2.28  12 2.29  12 2.29  18 2.47
  17  0.202  0.404  0.100-   5 2.28   9 2.29   9 2.29  15 2.37
  18  0.202  0.404  0.382-   6 2.28  10 2.29  10 2.29  16 2.47  24 3.00
  19  0.564  0.128  0.108-   9 2.28   7 2.29   7 2.29  21 2.37
  20  0.564  0.128  0.390-  10 2.28   8 2.29   8 2.29  22 2.47  14 3.09
  21  0.567  0.134  0.194-   3 2.28   1 2.29   1 2.29  19 2.37
  22  0.767  0.134  0.476-   4 2.28   2 2.29   2 2.29  20 2.47
  23  0.829  0.658  0.136-   5 2.30   5 2.30  11 2.32  13 2.35
  24  0.029  0.658  0.418-   6 1.81  12 2.32  14 2.35   6 2.88  18 3.00
 
  LATTYP: Found a base centered orthorhombic cell.
 ALAT       =     3.5404000000
 B/A-ratio  =     5.8153587165
 C/A-ratio  =     7.7678875268
  
  Lattice vectors:
  
 A1 = (   1.7702000000,  10.2943480000,   0.0000000000)
 A2 = (   1.7702000000, -10.2943480000,   0.0000000000)
 A3 = (   0.0000000000,   0.0000000000, -27.5014290000)


Analysis of symmetry for initial positions (statically):
=====================================================================
 Subroutine PRICEL returns:
 Original cell was already a primitive cell.
 

 Routine SETGRP: Setting up the symmetry group for a 
 base centered orthorhombic supercell.


 Subroutine GETGRP returns: Found  1 space group operations
 (whereof  1 operations were pure point group operations)
 out of a pool of  8 trial point group operations.


The static configuration has the point symmetry C_1 .


Analysis of symmetry for dynamics (positions and initial velocities):
=====================================================================
 Subroutine PRICEL returns:
 Original cell was already a primitive cell.
 

 Routine SETGRP: Setting up the symmetry group for a 
 base centered orthorhombic supercell.


 Subroutine GETGRP returns: Found  1 space group operations
 (whereof  1 operations were pure point group operations)
 out of a pool of  8 trial point group operations.


The dynamic configuration has the point symmetry C_1 .
 
 
 KPOINTS: pymatgen generated KPOINTS with grid den

Automatic generation of k-mesh.
Space group operators:
 irot       det(A)        alpha          n_x          n_y          n_z        tau_x        tau_y        tau_z
    1     1.000000     0.000000     1.000000     0.000000     0.000000     0.000000     0.000000     0.000000
 
 Subroutine IBZKPT returns following result:
 ===========================================
 
 Found     54 irreducible k-points:
 
 Following reciprocal coordinates:
            Coordinates               Weight
  0.000000  0.000000  0.000000      1.000000
  0.076923 -0.000000  0.000000      2.000000
  0.153846 -0.000000  0.000000      2.000000
  0.230769 -0.000000  0.000000      2.000000
  0.307692 -0.000000  0.000000      2.000000
  0.384615 -0.000000  0.000000      2.000000
  0.461538 -0.000000  0.000000      2.000000
  0.000000  0.250000  0.000000      2.000000
  0.076923  0.250000  0.000000      2.000000
  0.153846  0.250000  0.000000      2.000000
  0.230769  0.250000  0.000000      2.000000
  0.307692  0.250000  0.000000      2.000000
  0.384615  0.250000  0.000000      2.000000
  0.461538  0.250000  0.000000      2.000000
 -0.461538  0.250000  0.000000      2.000000
 -0.384615  0.250000  0.000000      2.000000
 -0.307692  0.250000  0.000000      2.000000
 -0.230769  0.250000  0.000000      2.000000
 -0.153846  0.250000  0.000000      2.000000
 -0.076923  0.250000  0.000000      2.000000
  0.000000  0.500000  0.000000      1.000000
  0.076923  0.500000  0.000000      2.000000
  0.153846  0.500000  0.000000      2.000000
  0.230769  0.500000  0.000000      2.000000
  0.307692  0.500000  0.000000      2.000000
  0.384615  0.500000  0.000000      2.000000
  0.461538  0.500000  0.000000      2.000000
  0.000000  0.000000  0.500000      1.000000
  0.076923 -0.000000  0.500000      2.000000
  0.153846 -0.000000  0.500000      2.000000
  0.230769 -0.000000  0.500000      2.000000
  0.307692 -0.000000  0.500000      2.000000
  0.384615 -0.000000  0.500000      2.000000
  0.461538 -0.000000  0.500000      2.000000
  0.000000  0.250000  0.500000      2.000000
  0.076923  0.250000  0.500000      2.000000
  0.153846  0.250000  0.500000      2.000000
  0.230769  0.250000  0.500000      2.000000
  0.307692  0.250000  0.500000      2.000000
  0.384615  0.250000  0.500000      2.000000
  0.461538  0.250000  0.500000      2.000000
 -0.461538  0.250000  0.500000      2.000000
 -0.384615  0.250000  0.500000      2.000000
 -0.307692  0.250000  0.500000      2.000000
 -0.230769  0.250000  0.500000      2.000000
 -0.153846  0.250000  0.500000      2.000000
 -0.076923  0.250000  0.500000      2.000000
  0.000000  0.500000  0.500000      1.000000
  0.076923  0.500000  0.500000      2.000000
  0.153846  0.500000  0.500000      2.000000
  0.230769  0.500000  0.500000      2.000000
  0.307692  0.500000  0.500000      2.000000
  0.384615  0.500000  0.500000      2.000000
  0.461538  0.500000  0.500000      2.000000
 
 Following cartesian coordinates:
            Coordinates               Weight
  0.000000  0.000000  0.000000      1.000000
  0.021727  0.003736  0.000000      2.000000
  0.043454  0.007472  0.000000      2.000000
  0.065182  0.011209  0.000000      2.000000
  0.086909  0.014945  0.000000      2.000000
  0.108636  0.018681  0.000000      2.000000
  0.130363  0.022417  0.000000      2.000000
  0.000000  0.024285  0.000000      2.000000
  0.021727  0.028021  0.000000      2.000000
  0.043454  0.031758  0.000000      2.000000
  0.065182  0.035494  0.000000      2.000000
  0.086909  0.039230  0.000000      2.000000
  0.108636  0.042966  0.000000      2.000000
  0.130363  0.046702  0.000000      2.000000
 -0.130363  0.001868  0.000000      2.000000
 -0.108636  0.005604  0.000000      2.000000
 -0.086909  0.009340  0.000000      2.000000
 -0.065182  0.013077  0.000000      2.000000
 -0.043454  0.016813  0.000000      2.000000
 -0.021727  0.020549  0.000000      2.000000
  0.000000  0.048570  0.000000      1.000000
  0.021727  0.052307  0.000000      2.000000
  0.043454  0.056043  0.000000      2.000000
  0.065182  0.059779  0.000000      2.000000
  0.086909  0.063515  0.000000      2.000000
  0.108636  0.067251  0.000000      2.000000
  0.130363  0.070987  0.000000      2.000000
  0.000000  0.000000  0.018181      1.000000
  0.021727  0.003736  0.018181      2.000000
  0.043454  0.007472  0.018181      2.000000
  0.065182  0.011209  0.018181      2.000000
  0.086909  0.014945  0.018181      2.000000
  0.108636  0.018681  0.018181      2.000000
  0.130363  0.022417  0.018181      2.000000
  0.000000  0.024285  0.018181      2.000000
  0.021727  0.028021  0.018181      2.000000
  0.043454  0.031758  0.018181      2.000000
  0.065182  0.035494  0.018181      2.000000
  0.086909  0.039230  0.018181      2.000000
  0.108636  0.042966  0.018181      2.000000
  0.130363  0.046702  0.018181      2.000000
 -0.130363  0.001868  0.018181      2.000000
 -0.108636  0.005604  0.018181      2.000000
 -0.086909  0.009340  0.018181      2.000000
 -0.065182  0.013077  0.018181      2.000000
 -0.043454  0.016813  0.018181      2.000000
 -0.021727  0.020549  0.018181      2.000000
  0.000000  0.048570  0.018181      1.000000
  0.021727  0.052307  0.018181      2.000000
  0.043454  0.056043  0.018181      2.000000
  0.065182  0.059779  0.018181      2.000000
  0.086909  0.063515  0.018181      2.000000
  0.108636  0.067251  0.018181      2.000000
  0.130363  0.070987  0.018181      2.000000
 


--------------------------------------------------------------------------------------------------------




 Dimension of arrays:
   k-points           NKPTS =     54   k-points in BZ     NKDIM =     54   number of bands    NBANDS=     68
   number of dos      NEDOS =    301   number of ions     NIONS =     24
   non local maximal  LDIM  =      4   non local SUM 2l+1 LMDIM =      8
   total plane-waves  NPLWV = 192000
   max r-space proj   IRMAX =   2772   max aug-charges    IRDMAX=   6603
   dimension x,y,z NGX =    20 NGY =   60 NGZ =  160
   dimension x,y,z NGXF=    40 NGYF=  120 NGZF=  320
   support grid    NGXF=    40 NGYF=  120 NGZF=  320
   ions per type =              12  12
 NGX,Y,Z   is equivalent  to a cutoff of   9.39,  9.55,  9.67 a.u.
 NGXF,Y,Z  is equivalent  to a cutoff of  18.78, 19.10, 19.34 a.u.


 I would recommend the setting:
   dimension x,y,z NGX =    20 NGY =   59 NGZ =  155
 SYSTEM =  unknown system                          
 POSCAR =  Si12                                    

 Startparameter for this run:
   NWRITE =      2    write-flag & timer
   PREC   = accura    normal or accurate (medium, high low for compatibility)
   ISTART =      0    job   : 0-new  1-cont  2-samecut
   ICHARG =      2    charge: 1-file 2-atom 10-const
   ISPIN  =      1    spin polarized calculation?
   LNONCOLLINEAR =      F non collinear calculations
   LSORBIT =      F    spin-orbit coupling
   INIWAV =      1    electr: 0-lowe 1-rand  2-diag
   LASPH  =      F    aspherical Exc in radial PAW
   METAGGA=      F    non-selfconsistent MetaGGA calc.

 Electronic Relaxation 1
   ENCUT  =  300.0 eV  22.05 Ry    4.70 a.u.   5.00 14.75 38.84*2*pi/ulx,y,z
   ENINI  =  300.0     initial cutoff
   ENAUG  =  342.9 eV  augmentation charge cutoff
   NELM   =     60;   NELMIN=  2; NELMDL= -5     # of ELM steps 
   EDIFF  = 0.1E-05   stopping-criterion for ELM
   LREAL  =      T    real-space projection
   NLSPLINE    = F    spline interpolate recip. space projectors
   LCOMPAT=      F    compatible to vasp.4.4
   GGA_COMPAT  = T    GGA compatible to vasp.4.4-vasp.4.6
   LMAXPAW     = -100 max onsite density
   LMAXMIX     =    2 max onsite mixed and CHGCAR
   VOSKOWN=      0    Vosko Wilk Nusair interpolation
   ROPT   =   -0.00025  -0.00025
 Ionic relaxation
   EDIFFG = 0.1E-04   stopping-criterion for IOM
   NSW    =      0    number of steps for IOM
   NBLOCK =      1;   KBLOCK =      1    inner block; outer block 
   IBRION =     -1    ionic relax: 0-MD 1-quasi-New 2-CG
   NFREE  =      1    steps in history (QN), initial steepest desc. (CG)
   ISIF   =      3    stress and relaxation
   IWAVPR =     10    prediction:  0-non 1-charg 2-wave 3-comb
   ISYM   =      2    0-nonsym 1-usesym 2-fastsym
   LCORR  =      T    Harris-Foulkes like correction to forces

   POTIM  = 0.5000    time-step for ionic-motion
   TEIN   =    0.0    initial temperature
   TEBEG  =    0.0;   TEEND  =   0.0 temperature during run
   SMASS  =  -3.00    Nose mass-parameter (am)
   estimated Nose-frequenzy (Omega)   =  0.10E-29 period in steps =****** mass=  -0.286E-27a.u.
   SCALEE = 1.0000    scale energy and forces
   NPACO  =    256;   APACO  = 16.0  distance and # of slots for P.C.
   PSTRESS=    0.0 pullay stress

  Mass of Ions in am
   POMASS =  30.97 28.09
  Ionic Valenz
   ZVAL   =   5.00  4.00
  Atomic Wigner-Seitz radii
   RWIGS  =  -1.00 -1.00
  virtual crystal weights 
   VCA    =   1.00  1.00
   NELECT =     108.0000    total number of electrons
   NUPDOWN=      -1.0000    fix difference up-down

 DOS related values:
   EMIN   =  10.00;   EMAX   =-10.00  energy-range for DOS
   EFERMI =   0.00
   ISMEAR =     0;   SIGMA  =   0.10  broadening in eV -4-tet -1-fermi 0-gaus

 Electronic relaxation 2 (details)
   IALGO  =     38    algorithm
   LDIAG  =      T    sub-space diagonalisation (order eigenvalues)
   LSUBROT=      F    optimize rotation matrix (better conditioning)
   TURBO    =      0    0=normal 1=particle mesh
   IRESTART =      0    0=no restart 2=restart with 2 vectors
   NREBOOT  =      0    no. of reboots
   NMIN     =      0    reboot dimension
   EREF     =   0.00    reference energy to select bands
   IMIX   =      4    mixing-type and parameters
     AMIX     =   0.40;   BMIX     =  1.00
     AMIX_MAG =   1.60;   BMIX_MAG =  1.00
     AMIN     =   0.10
     WC   =   100.;   INIMIX=   1;  MIXPRE=   1;  MAXMIX= -45

 Intra band minimization:
   WEIMIN = 0.0000     energy-eigenvalue tresh-hold
   EBREAK =  0.37E-08  absolut break condition
   DEPER  =   0.30     relativ break condition  

   TIME   =   0.40     timestep for ELM

  volume/ion in A,a.u.               =      41.76       281.83
  Fermi-wavevector in a.u.,A,eV,Ry     =   0.779018  1.472130  8.256946  0.606868
  Thomas-Fermi vector in A             =   1.882034
 
 Write flags
   LWAVE  =      F    write WAVECAR
   LCHARG =      F    write CHGCAR
   LVTOT  =      F    write LOCPOT, total local potential
   LVHAR  =      F    write LOCPOT, Hartree potential only
   LELF   =      F    write electronic localiz. function (ELF)
   LORBIT =      0    0 simple, 1 ext, 2 COOP (PROOUT)


 Dipole corrections
   LMONO  =      F    monopole corrections only (constant potential shift)
   LDIPOL =      F    correct potential (dipole corrections)
   IDIPOL =      0    1-x, 2-y, 3-z, 4-all directions 
   EPSILON=  1.0000000 bulk dielectric constant

 Exchange correlation treatment:
   GGA     =    BO    GGA type
   LEXCH   =    42    internal setting for exchange type
   VOSKOWN=      0    Vosko Wilk Nusair interpolation
   LHFCALC =     F    Hartree Fock is set to
   LHFONE  =     F    Hartree Fock one center treatment
   AEXX    =    0.0000 exact exchange contribution

 vdW DFT:
   LUSE_VDW   =     T    switch on vdW DFT
   Zab_VDW    =-.8491    correlation parameter
   PARAM1     =0.1833
   PARAM2     =0.2200
   PARAM3     =0.0000

 Linear response parameters
   LEPSILON=     F    determine dielectric tensor
   LRPA    =     F    only Hartree local field effects (RPA)
   LNABLA  =     F    use nabla operator in PAW spheres
   LVEL    =     F    velocity operator in full k-point grid
   LINTERFAST=   F  fast interpolation
   KINTER  =     0    interpolate to denser k-point grid
   CSHIFT  =0.1000    complex shift for real part using Kramers Kronig
   OMEGAMAX=  -1.0    maximum frequency
   DEG_THRESHOLD= 0.2000000E-02 threshold for treating states as degnerate
   RTIME   =    0.100 relaxation time in fs

 Orbital magnetization related:
   ORBITALMAG=     F  switch on orbital magnetization
   LCHIMAG   =     F  perturbation theory with respect to B field
   DQ        =  0.001000  dq finite difference perturbation B field



--------------------------------------------------------------------------------------------------------


 Static calculation
 charge density and potential will be updated during run
 non-spin polarized calculation
 Variant of blocked Davidson
 Davidson routine will perform the subspace rotation
 perform sub-space diagonalisation
    after iterative eigenvector-optimisation
 modified Broyden-mixing scheme, WC =      100.0
 initial mixing is a Kerker type mixing with AMIX =  0.4000 and BMIX =      1.0000
 Hartree-type preconditioning will be used
 using additional bands           14
 real space projection scheme for non local part
 use partial core corrections
 calculate Harris-corrections to forces 
   (improved forces if not selfconsistent)
 use gradient corrections 
 use of overlap-Matrix (Vanderbilt PP)
 Gauss-broadening in eV      SIGMA  =   0.10


--------------------------------------------------------------------------------------------------------


  energy-cutoff  :      300.00
  volume of cell :     1002.32
      direct lattice vectors                 reciprocal lattice vectors
     3.540400000  0.000000000  0.000000000     0.282453960  0.048570342  0.000000000
    -1.770200000 10.294348000  0.000000000     0.000000000  0.097140683  0.000000000
     0.000000000  0.000000000 27.501429000     0.000000000  0.000000000  0.036361747

  length of vectors
     3.540400000 10.445439617 27.501429000     0.286599577  0.097140683  0.036361747


 
 k-points in units of 2pi/SCALE and weight: pymatgen generated KPOINTS with grid den
   0.00000000  0.00000000  0.00000000       0.010
   0.02172723  0.00373618  0.00000000       0.019
   0.04345446  0.00747236  0.00000000       0.019
   0.06518168  0.01120854  0.00000000       0.019
   0.08690891  0.01494472  0.00000000       0.019
   0.10863614  0.01868090  0.00000000       0.019
   0.13036337  0.02241708  0.00000000       0.019
   0.00000000  0.02428517  0.00000000       0.019
   0.02172723  0.02802135  0.00000000       0.019
   0.04345446  0.03175753  0.00000000       0.019
   0.06518168  0.03549371  0.00000000       0.019
   0.08690891  0.03922989  0.00000000       0.019
   0.10863614  0.04296607  0.00000000       0.019
   0.13036337  0.04670225  0.00000000       0.019
  -0.13036337  0.00186809  0.00000000       0.019
  -0.10863614  0.00560427  0.00000000       0.019
  -0.08690891  0.00934045  0.00000000       0.019
  -0.06518168  0.01307663  0.00000000       0.019
  -0.04345446  0.01681281  0.00000000       0.019
  -0.02172723  0.02054899  0.00000000       0.019
   0.00000000  0.04857034  0.00000000       0.010
   0.02172723  0.05230652  0.00000000       0.019
   0.04345446  0.05604270  0.00000000       0.019
   0.06518168  0.05977888  0.00000000       0.019
   0.08690891  0.06351506  0.00000000       0.019
   0.10863614  0.06725124  0.00000000       0.019
   0.13036337  0.07098742  0.00000000       0.019
   0.00000000  0.00000000  0.01818087       0.010
   0.02172723  0.00373618  0.01818087       0.019
   0.04345446  0.00747236  0.01818087       0.019
   0.06518168  0.01120854  0.01818087       0.019
   0.08690891  0.01494472  0.01818087       0.019
   0.10863614  0.01868090  0.01818087       0.019
   0.13036337  0.02241708  0.01818087       0.019
   0.00000000  0.02428517  0.01818087       0.019
   0.02172723  0.02802135  0.01818087       0.019
   0.04345446  0.03175753  0.01818087       0.019
   0.06518168  0.03549371  0.01818087       0.019
   0.08690891  0.03922989  0.01818087       0.019
   0.10863614  0.04296607  0.01818087       0.019
   0.13036337  0.04670225  0.01818087       0.019
  -0.13036337  0.00186809  0.01818087       0.019
  -0.10863614  0.00560427  0.01818087       0.019
  -0.08690891  0.00934045  0.01818087       0.019
  -0.06518168  0.01307663  0.01818087       0.019
  -0.04345446  0.01681281  0.01818087       0.019
  -0.02172723  0.02054899  0.01818087       0.019
   0.00000000  0.04857034  0.01818087       0.010
   0.02172723  0.05230652  0.01818087       0.019
   0.04345446  0.05604270  0.01818087       0.019
   0.06518168  0.05977888  0.01818087       0.019
   0.08690891  0.06351506  0.01818087       0.019
   0.10863614  0.06725124  0.01818087       0.019
   0.13036337  0.07098742  0.01818087       0.019
 
 k-points in reciprocal lattice and weights: pymatgen generated KPOINTS with grid den
   0.00000000  0.00000000  0.00000000       0.010
   0.07692308 -0.00000000  0.00000000       0.019
   0.15384615 -0.00000000  0.00000000       0.019
   0.23076923 -0.00000000  0.00000000       0.019
   0.30769231 -0.00000000  0.00000000       0.019
   0.38461538 -0.00000000  0.00000000       0.019
   0.46153846 -0.00000000  0.00000000       0.019
   0.00000000  0.25000000  0.00000000       0.019
   0.07692308  0.25000000  0.00000000       0.019
   0.15384615  0.25000000  0.00000000       0.019
   0.23076923  0.25000000  0.00000000       0.019
   0.30769231  0.25000000  0.00000000       0.019
   0.38461538  0.25000000  0.00000000       0.019
   0.46153846  0.25000000  0.00000000       0.019
  -0.46153846  0.25000000  0.00000000       0.019
  -0.38461538  0.25000000  0.00000000       0.019
  -0.30769231  0.25000000  0.00000000       0.019
  -0.23076923  0.25000000  0.00000000       0.019
  -0.15384615  0.25000000  0.00000000       0.019
  -0.07692308  0.25000000  0.00000000       0.019
   0.00000000  0.50000000  0.00000000       0.010
   0.07692308  0.50000000  0.00000000       0.019
   0.15384615  0.50000000  0.00000000       0.019
   0.23076923  0.50000000  0.00000000       0.019
   0.30769231  0.50000000  0.00000000       0.019
   0.38461538  0.50000000  0.00000000       0.019
   0.46153846  0.50000000  0.00000000       0.019
   0.00000000  0.00000000  0.50000000       0.010
   0.07692308 -0.00000000  0.50000000       0.019
   0.15384615 -0.00000000  0.50000000       0.019
   0.23076923 -0.00000000  0.50000000       0.019
   0.30769231 -0.00000000  0.50000000       0.019
   0.38461538 -0.00000000  0.50000000       0.019
   0.46153846 -0.00000000  0.50000000       0.019
   0.00000000  0.25000000  0.50000000       0.019
   0.07692308  0.25000000  0.50000000       0.019
   0.15384615  0.25000000  0.50000000       0.019
   0.23076923  0.25000000  0.50000000       0.019
   0.30769231  0.25000000  0.50000000       0.019
   0.38461538  0.25000000  0.50000000       0.019
   0.46153846  0.25000000  0.50000000       0.019
  -0.46153846  0.25000000  0.50000000       0.019
  -0.38461538  0.25000000  0.50000000       0.019
  -0.30769231  0.25000000  0.50000000       0.019
  -0.23076923  0.25000000  0.50000000       0.019
  -0.15384615  0.25000000  0.50000000       0.019
  -0.07692308  0.25000000  0.50000000       0.019
   0.00000000  0.50000000  0.50000000       0.010
   0.07692308  0.50000000  0.50000000       0.019
   0.15384615  0.50000000  0.50000000       0.019
   0.23076923  0.50000000  0.50000000       0.019
   0.30769231  0.50000000  0.50000000       0.019
   0.38461538  0.50000000  0.50000000       0.019
   0.46153846  0.50000000  0.50000000       0.019
 
 position of ions in fractional coordinates (direct lattice) 
   0.11402300  0.22804500  0.23316207
   0.31402300  0.22804500  0.51499159
   0.45808900  0.91617900  0.20939482
   0.65808900  0.91617900  0.49122434
   0.31085400  0.62170900  0.08414979
   0.31085400  0.62170900  0.36597930
   0.99923000  0.99846000  0.08631254
   0.99923000  0.99846000  0.36814206
   0.65492700  0.30985400  0.06041748
   0.65492700  0.30985400  0.34224700
   0.76973800  0.53947500  0.20725292
   0.96973800  0.53947500  0.48908244
   0.93971600  0.87943300  0.15783749
   0.13971600  0.87943300  0.43966701
   0.20515200  0.41030300  0.18578822
   0.40515200  0.41030300  0.46761774
   0.20184900  0.40369900  0.09969156
   0.20184900  0.40369900  0.38152107
   0.56380500  0.12761000  0.10779021
   0.56380500  0.12761000  0.38961973
   0.56710600  0.13421200  0.19387616
   0.76710600  0.13421200  0.47570568
   0.82923400  0.65846800  0.13571444
   0.02923400  0.65846800  0.41754396
 
 position of ions in cartesian coordinates  (Angst):
   0.00000177  2.34757459  6.41229012
   0.70808177  2.34757459 14.16300462
  -0.00000177  9.43146546  5.75865686
   0.70807823  9.43146546 13.50937136
  -0.00000177  6.40008880  2.31423934
  -0.00000177  6.40008880 10.06495384
   1.77020000 10.27849470  2.37371832
   1.77020000 10.27849470 10.12443282
   1.77020000  3.18974491  1.66156717
   1.77020000  3.18974491  9.41228167
   1.77020177  5.55354339  5.69975143
   2.47828177  5.55354339 13.45046593
   1.77019823  9.05318934  4.34075665
  -1.06212177  9.05318934 12.09147115
   0.00000177  4.22380187  5.10944151
   0.70808177  4.22380187 12.86015601
  -0.00000177  4.15581799  2.74166024
  -0.00000177  4.15581799 10.49237474
   1.77020000  1.31366175  2.96438477
   1.77020000  1.31366175 10.71509927
   1.77020000  1.38162503  5.33187152
   2.47828000  1.38162503 13.08258602
   1.77020000  6.77849874  3.73234107
  -1.06212000  6.77849874 11.48305557
 


--------------------------------------------------------------------------------------------------------


 k-point  1 :   0.0000 0.0000 0.0000  plane waves:   11717
 k-point  2 :   0.0769-0.0000 0.0000  plane waves:   11762
 k-point  3 :   0.1538-0.0000 0.0000  plane waves:   11805
 k-point  4 :   0.2308-0.0000 0.0000  plane waves:   11824
 k-point  5 :   0.3077-0.0000 0.0000  plane waves:   11875
 k-point  6 :   0.3846-0.0000 0.0000  plane waves:   11864
 k-point  7 :   0.4615-0.0000 0.0000  plane waves:   11883
 k-point  8 :   0.0000 0.2500 0.0000  plane waves:   11683
 k-point  9 :   0.0769 0.2500 0.0000  plane waves:   11756
 k-point 10 :   0.1538 0.2500 0.0000  plane waves:   11807
 k-point 11 :   0.2308 0.2500 0.0000  plane waves:   11853
 k-point 12 :   0.3077 0.2500 0.0000  plane waves:   11866
 k-point 13 :   0.3846 0.2500 0.0000  plane waves:   11889
 k-point 14 :   0.4615 0.2500 0.0000  plane waves:   11885
 k-point 15 :  -0.4615 0.2500 0.0000  plane waves:   11886
 k-point 16 :  -0.3846 0.2500 0.0000  plane waves:   11867
 k-point 17 :  -0.3077 0.2500 0.0000  plane waves:   11849
 k-point 18 :  -0.2308 0.2500 0.0000  plane waves:   11827
 k-point 19 :  -0.1538 0.2500 0.0000  plane waves:   11801
 k-point 20 :  -0.0769 0.2500 0.0000  plane waves:   11757
 k-point 21 :   0.0000 0.5000 0.0000  plane waves:   11710
 k-point 22 :   0.0769 0.5000 0.0000  plane waves:   11762
 k-point 23 :   0.1538 0.5000 0.0000  plane waves:   11782
 k-point 24 :   0.2308 0.5000 0.0000  plane waves:   11841
 k-point 25 :   0.3077 0.5000 0.0000  plane waves:   11876
 k-point 26 :   0.3846 0.5000 0.0000  plane waves:   11889
 k-point 27 :   0.4615 0.5000 0.0000  plane waves:   11881
 k-point 28 :   0.0000 0.0000 0.5000  plane waves:   11698
 k-point 29 :   0.0769-0.0000 0.5000  plane waves:   11752
 k-point 30 :   0.1538-0.0000 0.5000  plane waves:   11800
 k-point 31 :   0.2308-0.0000 0.5000  plane waves:   11834
 k-point 32 :   0.3077-0.0000 0.5000  plane waves:   11850
 k-point 33 :   0.3846-0.0000 0.5000  plane waves:   11888
 k-point 34 :   0.4615-0.0000 0.5000  plane waves:   11896
 k-point 35 :   0.0000 0.2500 0.5000  plane waves:   11714
 k-point 36 :   0.0769 0.2500 0.5000  plane waves:   11754
 k-point 37 :   0.1538 0.2500 0.5000  plane waves:   11802
 k-point 38 :   0.2308 0.2500 0.5000  plane waves:   11840
 k-point 39 :   0.3077 0.2500 0.5000  plane waves:   11858
 k-point 40 :   0.3846 0.2500 0.5000  plane waves:   11896
 k-point 41 :   0.4615 0.2500 0.5000  plane waves:   11886
 k-point 42 :  -0.4615 0.2500 0.5000  plane waves:   11852
 k-point 43 :  -0.3846 0.2500 0.5000  plane waves:   11838
 k-point 44 :  -0.3077 0.2500 0.5000  plane waves:   11842
 k-point 45 :  -0.2308 0.2500 0.5000  plane waves:   11840
 k-point 46 :  -0.1538 0.2500 0.5000  plane waves:   11804
 k-point 47 :  -0.0769 0.2500 0.5000  plane waves:   11748
 k-point 48 :   0.0000 0.5000 0.5000  plane waves:   11724
 k-point 49 :   0.0769 0.5000 0.5000  plane waves:   11748
 k-point 50 :   0.1538 0.5000 0.5000  plane waves:   11814
 k-point 51 :   0.2308 0.5000 0.5000  plane waves:   11832
 k-point 52 :   0.3077 0.5000 0.5000  plane waves:   11868
 k-point 53 :   0.3846 0.5000 0.5000  plane waves:   11892
 k-point 54 :   0.4615 0.5000 0.5000  plane waves:   11878

 maximum and minimum number of plane-waves per node :      5964     5832

 maximum number of plane-waves:     11896
 maximum index in each direction: 
   IXMAX=    5   IYMAX=   14   IZMAX=   38
   IXMIN=   -5   IYMIN=  -15   IZMIN=  -39

 WARNING: aliasing errors must be expected set NGX to  22 to avoid them
 NGY is ok and might be reduce to  60
 NGZ is ok and might be reduce to 156
 aliasing errors are usually negligible using standard VASP settings
 and one can safely disregard these warnings

 real space projection operators:
  total allocation   :       3793.25 KBytes
  max/ min on nodes  :       1899.38       1893.88


 parallel 3D FFT for wavefunctions:
    minimum data exchange during FFTs selected (reduces bandwidth)
 parallel 3D FFT for charge:
    minimum data exchange during FFTs selected (reduces bandwidth)


 total amount of memory used by VASP on root node   146493. kBytes
========================================================================

   base      :      30000. kBytes
   nonlr-proj:       3452. kBytes
   fftplans  :       9347. kBytes
   grid      :      14649. kBytes
   one-center:         36. kBytes
   wavefun   :      89009. kBytes
 
     INWAV:  cpu time    0.00: real time    0.00
 Broyden mixing: mesh for mixing (old mesh)
   NGX =  9   NGY = 29   NGZ = 77
  (NGX  = 40   NGY  =120   NGZ  =320)
  gives a total of  20097 points

 initial charge density was supplied:
 charge density of overlapping atoms calculated
 number of electron     108.0000000 magnetization 
 keeping initial charge density in first step


--------------------------------------------------------------------------------------------------------


 Maximum index for non-local projection operator         1333
 Maximum index for augmentation-charges          822 (set IRDMAX)


--------------------------------------------------------------------------------------------------------


 First call to EWALD:  gamma=   0.177
 Maximum number of real-space cells 7x 3x 1
 Maximum number of reciprocal cells 1x 3x 7

 FEWALD executed in parallel
    FEWALD:  cpu time    0.00: real time    0.00


----------------------------------------- Iteration    1(   1)  ---------------------------------------


vdW kernel read from vdw_kernel.bindat
  0.0000  0.2424  0.5071  0.7962  1.1119  1.4567  1.8333  2.2446  2.6937  3.1842
  3.7199  4.3049  4.9438  5.6415  6.4036  7.2358  8.1446  9.1372 10.2212 11.4050
 12.6979 14.1099 15.6519 17.3360 19.1751 21.1837 23.3773 25.7729 28.3892 31.2465
 34.3669 37.7748 41.4965 45.5611 50.0000
 
    POTLOK:  cpu time   16.07: real time   16.08
    SETDIJ:  cpu time    0.01: real time    0.01
     EDDAV:  cpu time   66.70: real time   66.78
       DOS:  cpu time    0.01: real time    0.01
    --------------------------------------------
      LOOP:  cpu time   82.80: real time   82.89

 eigenvalue-minimisations  :  7360
 total energy-change (2. order) : 0.4865440E+03  (-0.2864160E+04)
 number of electron     108.0000000 magnetization 
 augmentation part      108.0000000 magnetization 

 Free energy of the ion-electron system (eV)
  ---------------------------------------------------
  alpha Z        PSCENC =        36.80884744
  Ewald energy   TEWEN  =     11895.04193001
  -Hartree energ DENC   =    -14948.11811130
  -exchange      EXHF   =         0.00000000
  -V(xc)+E(xc)   XCENC  =       -88.16086242
  PAW double counting   =      1056.43050070     -732.41190547
  entropy T*S    EENTRO =        -0.03715518
  eigenvalues    EBANDS =       -87.05053333
  atomic energy  EATOM  =      3354.04126044
  ---------------------------------------------------
  free energy    TOTEN  =       486.54397090 eV

  energy without entropy =      486.58112608  energy(sigma->0) =      486.56254849


--------------------------------------------------------------------------------------------------------




----------------------------------------- Iteration    1(   2)  ---------------------------------------


     EDDAV:  cpu time   83.62: real time   83.64
       DOS:  cpu time    0.01: real time    0.01
    --------------------------------------------
      LOOP:  cpu time   83.63: real time   83.66

 eigenvalue-minimisations  :  9784
 total energy-change (2. order) :-0.5593173E+03  (-0.5447283E+03)
 number of electron     108.0000000 magnetization 
 augmentation part      108.0000000 magnetization 

 Free energy of the ion-electron system (eV)
  ---------------------------------------------------
  alpha Z        PSCENC =        36.80884744
  Ewald energy   TEWEN  =     11895.04193001
  -Hartree energ DENC   =    -14948.11811130
  -exchange      EXHF   =         0.00000000
  -V(xc)+E(xc)   XCENC  =       -88.16086242
  PAW double counting   =      1056.43050070     -732.41190547
  entropy T*S    EENTRO =        -0.00131144
  eigenvalues    EBANDS =      -646.40364544
  atomic energy  EATOM  =      3354.04126044
  ---------------------------------------------------
  free energy    TOTEN  =       -72.77329747 eV

  energy without entropy =      -72.77198603  energy(sigma->0) =      -72.77264175


--------------------------------------------------------------------------------------------------------




----------------------------------------- Iteration    1(   3)  ---------------------------------------


     EDDAV:  cpu time   76.53: real time   76.56
       DOS:  cpu time    0.01: real time    0.01
    --------------------------------------------
      LOOP:  cpu time   76.54: real time   76.57

 eigenvalue-minimisations  :  8784
 total energy-change (2. order) :-0.5553977E+02  (-0.5491626E+02)
 number of electron     108.0000000 magnetization 
 augmentation part      108.0000000 magnetization 

 Free energy of the ion-electron system (eV)
  ---------------------------------------------------
  alpha Z        PSCENC =        36.80884744
  Ewald energy   TEWEN  =     11895.04193001
  -Hartree energ DENC   =    -14948.11811130
  -exchange      EXHF   =         0.00000000
  -V(xc)+E(xc)   XCENC  =       -88.16086242
  PAW double counting   =      1056.43050070     -732.41190547
  entropy T*S    EENTRO =        -0.00000000
  eigenvalues    EBANDS =      -701.94472936
  atomic energy  EATOM  =      3354.04126044
  ---------------------------------------------------
  free energy    TOTEN  =      -128.31306995 eV

  energy without entropy =     -128.31306995  energy(sigma->0) =     -128.31306995


--------------------------------------------------------------------------------------------------------




----------------------------------------- Iteration    1(   4)  ---------------------------------------


     EDDAV:  cpu time   91.21: real time   91.24
       DOS:  cpu time    0.01: real time    0.01
    --------------------------------------------
      LOOP:  cpu time   91.22: real time   91.25

 eigenvalue-minimisations  : 10960
 total energy-change (2. order) :-0.2418521E+01  (-0.2408074E+01)
 number of electron     108.0000000 magnetization 
 augmentation part      108.0000000 magnetization 

 Free energy of the ion-electron system (eV)
  ---------------------------------------------------
  alpha Z        PSCENC =        36.80884744
  Ewald energy   TEWEN  =     11895.04193001
  -Hartree energ DENC   =    -14948.11811130
  -exchange      EXHF   =         0.00000000
  -V(xc)+E(xc)   XCENC  =       -88.16086242
  PAW double counting   =      1056.43050070     -732.41190547
  entropy T*S    EENTRO =        -0.00000000
  eigenvalues    EBANDS =      -704.36325015
  atomic energy  EATOM  =      3354.04126044
  ---------------------------------------------------
  free energy    TOTEN  =      -130.73159074 eV

  energy without entropy =     -130.73159074  energy(sigma->0) =     -130.73159074


--------------------------------------------------------------------------------------------------------




----------------------------------------- Iteration    1(   5)  ---------------------------------------


     EDDAV:  cpu time   84.71: real time   84.73
       DOS:  cpu time    0.00: real time    0.01
    CHARGE:  cpu time    4.62: real time    4.62
    MIXING:  cpu time    0.01: real time    0.01
    --------------------------------------------
      LOOP:  cpu time   89.34: real time   89.37

 eigenvalue-minimisations  : 10064
 total energy-change (2. order) :-0.5741231E-01  (-0.5735855E-01)
 number of electron     107.9999995 magnetization 
 augmentation part       -9.5435346 magnetization 

 Broyden mixing:
  rms(total) = 0.10545E+01    rms(broyden)= 0.10543E+01
  rms(prec ) = 0.11148E+01
  weight for this iteration     100.00

 Free energy of the ion-electron system (eV)
  ---------------------------------------------------
  alpha Z        PSCENC =        36.80884744
  Ewald energy   TEWEN  =     11895.04193001
  -Hartree energ DENC   =    -14948.11811130
  -exchange      EXHF   =         0.00000000
  -V(xc)+E(xc)   XCENC  =       -88.16086242
  PAW double counting   =      1056.43050070     -732.41190547
  entropy T*S    EENTRO =        -0.00000000
  eigenvalues    EBANDS =      -704.42066246
  atomic energy  EATOM  =      3354.04126044
  ---------------------------------------------------
  free energy    TOTEN  =      -130.78900305 eV

  energy without entropy =     -130.78900305  energy(sigma->0) =     -130.78900305


--------------------------------------------------------------------------------------------------------




----------------------------------------- Iteration    1(   6)  ---------------------------------------


    POTLOK:  cpu time   14.62: real time   14.63
    SETDIJ:  cpu time    0.01: real time    0.01
     EDDAV:  cpu time   76.51: real time   76.53
       DOS:  cpu time    0.00: real time    0.01
    CHARGE:  cpu time    4.31: real time    4.32
    MIXING:  cpu time    0.01: real time    0.01
    --------------------------------------------
      LOOP:  cpu time   95.48: real time   95.51

 eigenvalue-minimisations  :  8808
 total energy-change (2. order) : 0.2162422E+01  (-0.3820517E+00)
 number of electron     107.9999995 magnetization 
 augmentation part       -9.3916898 magnetization 

 Broyden mixing:
  rms(total) = 0.59147E+00    rms(broyden)= 0.59145E+00
  rms(prec ) = 0.62044E+00
  weight for this iteration     100.00

 eigenvalues of (default mixing * dielectric matrix)
  average eigenvalue GAMMA=   2.0552
  2.0552

 Free energy of the ion-electron system (eV)
  ---------------------------------------------------
  alpha Z        PSCENC =        36.80884744
  Ewald energy   TEWEN  =     11895.04193001
  -Hartree energ DENC   =    -14985.73237590
  -exchange      EXHF   =         0.00000000
  -V(xc)+E(xc)   XCENC  =       -84.85014051
  PAW double counting   =      1119.67943316     -797.36377341
  entropy T*S    EENTRO =        -0.00000000
  eigenvalues    EBANDS =      -666.25176264
  atomic energy  EATOM  =      3354.04126044
  ---------------------------------------------------
  free energy    TOTEN  =      -128.62658141 eV

  energy without entropy =     -128.62658141  energy(sigma->0) =     -128.62658141


--------------------------------------------------------------------------------------------------------




----------------------------------------- Iteration    1(   7)  ---------------------------------------


    POTLOK:  cpu time   14.56: real time   14.57
    SETDIJ:  cpu time    0.01: real time    0.01
     EDDAV:  cpu time   76.15: real time   76.17
       DOS:  cpu time    0.01: real time    0.01
    CHARGE:  cpu time    4.38: real time    4.38
    MIXING:  cpu time    0.01: real time    0.01
    --------------------------------------------
      LOOP:  cpu time   95.12: real time   95.15

 eigenvalue-minimisations  :  8768
 total energy-change (2. order) : 0.2544050E+00  (-0.3920905E+00)
 number of electron     107.9999995 magnetization 
 augmentation part       -9.2398490 magnetization 

 Broyden mixing:
  rms(total) = 0.16289E+00    rms(broyden)= 0.16284E+00
  rms(prec ) = 0.17159E+00
  weight for this iteration     100.00

 eigenvalues of (default mixing * dielectric matrix)
  average eigenvalue GAMMA=   1.8699
  1.5948  2.1451

 Free energy of the ion-electron system (eV)
  ---------------------------------------------------
  alpha Z        PSCENC =        36.80884744
  Ewald energy   TEWEN  =     11895.04193001
  -Hartree energ DENC   =    -15025.96590994
  -exchange      EXHF   =         0.00000000
  -V(xc)+E(xc)   XCENC  =       -80.93059909
  PAW double counting   =      1175.55984886     -854.79743284
  entropy T*S    EENTRO =        -0.00000000
  eigenvalues    EBANDS =      -628.13012134
  atomic energy  EATOM  =      3354.04126044
  ---------------------------------------------------
  free energy    TOTEN  =      -128.37217644 eV

  energy without entropy =     -128.37217644  energy(sigma->0) =     -128.37217644


--------------------------------------------------------------------------------------------------------




----------------------------------------- Iteration    1(   8)  ---------------------------------------


    POTLOK:  cpu time   14.60: real time   14.60
    SETDIJ:  cpu time    0.01: real time    0.01
     EDDAV:  cpu time   77.70: real time   77.72
       DOS:  cpu time    0.00: real time    0.01
    CHARGE:  cpu time    4.52: real time    4.52
    MIXING:  cpu time    0.01: real time    0.01
    --------------------------------------------
      LOOP:  cpu time   96.85: real time   96.88

 eigenvalue-minimisations  :  8992
 total energy-change (2. order) : 0.5182793E-01  (-0.4867283E-01)
 number of electron     107.9999995 magnetization 
 augmentation part       -9.2713717 magnetization 

 Broyden mixing:
  rms(total) = 0.58320E-01    rms(broyden)= 0.58310E-01
  rms(prec ) = 0.61573E-01
  weight for this iteration     100.00

 eigenvalues of (default mixing * dielectric matrix)
  average eigenvalue GAMMA=   1.7641
  2.5976  1.3474  1.3474

 Free energy of the ion-electron system (eV)
  ---------------------------------------------------
  alpha Z        PSCENC =        36.80884744
  Ewald energy   TEWEN  =     11895.04193001
  -Hartree energ DENC   =    -15028.36260421
  -exchange      EXHF   =         0.00000000
  -V(xc)+E(xc)   XCENC  =       -80.49407480
  PAW double counting   =      1167.37679043     -846.42592893
  entropy T*S    EENTRO =        -0.00000000
  eigenvalues    EBANDS =      -626.30656890
  atomic energy  EATOM  =      3354.04126044
  ---------------------------------------------------
  free energy    TOTEN  =      -128.32034851 eV

  energy without entropy =     -128.32034851  energy(sigma->0) =     -128.32034851


--------------------------------------------------------------------------------------------------------




----------------------------------------- Iteration    1(   9)  ---------------------------------------


    POTLOK:  cpu time   14.57: real time   14.58
    SETDIJ:  cpu time    0.01: real time    0.01
     EDDAV:  cpu time   76.44: real time   76.46
       DOS:  cpu time    0.01: real time    0.01
    CHARGE:  cpu time    4.61: real time    4.61
    MIXING:  cpu time    0.01: real time    0.01
    --------------------------------------------
      LOOP:  cpu time   95.66: real time   95.68

 eigenvalue-minimisations  :  8824
 total energy-change (2. order) : 0.1839628E-02  (-0.9827056E-02)
 number of electron     107.9999995 magnetization 
 augmentation part       -9.2705525 magnetization 

 Broyden mixing:
  rms(total) = 0.20906E-01    rms(broyden)= 0.20901E-01
  rms(prec ) = 0.22765E-01
  weight for this iteration     100.00

 eigenvalues of (default mixing * dielectric matrix)
  average eigenvalue GAMMA=   1.6699
  2.5087  1.5547  1.3082  1.3082

 Free energy of the ion-electron system (eV)
  ---------------------------------------------------
  alpha Z        PSCENC =        36.80884744
  Ewald energy   TEWEN  =     11895.04193001
  -Hartree energ DENC   =    -15033.59086042
  -exchange      EXHF   =         0.00000000
  -V(xc)+E(xc)   XCENC  =       -80.09415956
  PAW double counting   =      1168.57410103     -847.64796029
  entropy T*S    EENTRO =        -0.00000000
  eigenvalues    EBANDS =      -621.45166754
  atomic energy  EATOM  =      3354.04126044
  ---------------------------------------------------
  free energy    TOTEN  =      -128.31850888 eV

  energy without entropy =     -128.31850888  energy(sigma->0) =     -128.31850888


--------------------------------------------------------------------------------------------------------




----------------------------------------- Iteration    1(  10)  ---------------------------------------


    POTLOK:  cpu time   14.59: real time   14.59
    SETDIJ:  cpu time    0.01: real time    0.01
     EDDAV:  cpu time   80.40: real time   80.43
       DOS:  cpu time    0.00: real time    0.01
    CHARGE:  cpu time    4.46: real time    4.46
    MIXING:  cpu time    0.01: real time    0.01
    --------------------------------------------
      LOOP:  cpu time   99.49: real time   99.52

 eigenvalue-minimisations  :  9384
 total energy-change (2. order) : 0.1081004E-01  (-0.9138557E-03)
 number of electron     107.9999995 magnetization 
 augmentation part       -9.2706935 magnetization 

 Broyden mixing:
  rms(total) = 0.94078E-02    rms(broyden)= 0.94067E-02
  rms(prec ) = 0.10631E-01
  weight for this iteration     100.00

 eigenvalues of (default mixing * dielectric matrix)
  average eigenvalue GAMMA=   1.6657
  2.6891  2.0012  1.0181  1.3101  1.3101

 Free energy of the ion-electron system (eV)
  ---------------------------------------------------
  alpha Z        PSCENC =        36.80884744
  Ewald energy   TEWEN  =     11895.04193001
  -Hartree energ DENC   =    -15034.45986435
  -exchange      EXHF   =         0.00000000
  -V(xc)+E(xc)   XCENC  =       -80.08999150
  PAW double counting   =      1167.03649572     -846.06449896
  entropy T*S    EENTRO =        -0.00000000
  eigenvalues    EBANDS =      -620.62187764
  atomic energy  EATOM  =      3354.04126044
  ---------------------------------------------------
  free energy    TOTEN  =      -128.30769884 eV

  energy without entropy =     -128.30769884  energy(sigma->0) =     -128.30769884


--------------------------------------------------------------------------------------------------------




----------------------------------------- Iteration    1(  11)  ---------------------------------------


    POTLOK:  cpu time   14.58: real time   14.59
    SETDIJ:  cpu time    0.01: real time    0.01
     EDDAV:  cpu time   78.08: real time   78.10
       DOS:  cpu time    0.01: real time    0.01
    CHARGE:  cpu time    4.42: real time    4.43
    MIXING:  cpu time    0.01: real time    0.01
    --------------------------------------------
      LOOP:  cpu time   97.13: real time   97.17

 eigenvalue-minimisations  :  9048
 total energy-change (2. order) : 0.6782784E-02  (-0.3210867E-03)
 number of electron     107.9999995 magnetization 
 augmentation part       -9.2701134 magnetization 

 Broyden mixing:
  rms(total) = 0.40007E-02    rms(broyden)= 0.39991E-02
  rms(prec ) = 0.52121E-02
  weight for this iteration     100.00

 eigenvalues of (default mixing * dielectric matrix)
  average eigenvalue GAMMA=   1.5921
  2.7017  2.0034  1.4648  0.9164  1.2331  1.2331

 Free energy of the ion-electron system (eV)
  ---------------------------------------------------
  alpha Z        PSCENC =        36.80884744
  Ewald energy   TEWEN  =     11895.04193001
  -Hartree energ DENC   =    -15035.68524624
  -exchange      EXHF   =         0.00000000
  -V(xc)+E(xc)   XCENC  =       -80.05617392
  PAW double counting   =      1165.91450726     -844.91235947
  entropy T*S    EENTRO =        -0.00000000
  eigenvalues    EBANDS =      -619.45368160
  atomic energy  EATOM  =      3354.04126044
  ---------------------------------------------------
  free energy    TOTEN  =      -128.30091606 eV

  energy without entropy =     -128.30091606  energy(sigma->0) =     -128.30091606


--------------------------------------------------------------------------------------------------------




----------------------------------------- Iteration    1(  12)  ---------------------------------------


    POTLOK:  cpu time   14.61: real time   14.61
    SETDIJ:  cpu time    0.01: real time    0.01
     EDDAV:  cpu time   80.78: real time   80.80
       DOS:  cpu time    0.00: real time    0.01
    CHARGE:  cpu time    4.61: real time    4.62
    MIXING:  cpu time    0.01: real time    0.01
    --------------------------------------------
      LOOP:  cpu time  100.04: real time  100.07

 eigenvalue-minimisations  :  9456
 total energy-change (2. order) : 0.1867703E-02  (-0.4332691E-04)
 number of electron     107.9999995 magnetization 
 augmentation part       -9.2699455 magnetization 

 Broyden mixing:
  rms(total) = 0.22319E-02    rms(broyden)= 0.22316E-02
  rms(prec ) = 0.32990E-02
  weight for this iteration     100.00

 eigenvalues of (default mixing * dielectric matrix)
  average eigenvalue GAMMA=   1.6501
  2.8136  2.4577  0.9975  1.3510  1.3510  1.2901  1.2901

 Free energy of the ion-electron system (eV)
  ---------------------------------------------------
  alpha Z        PSCENC =        36.80884744
  Ewald energy   TEWEN  =     11895.04193001
  -Hartree energ DENC   =    -15036.49728843
  -exchange      EXHF   =         0.00000000
  -V(xc)+E(xc)   XCENC  =       -80.05128750
  PAW double counting   =      1165.68046946     -844.67204260
  entropy T*S    EENTRO =        -0.00000000
  eigenvalues    EBANDS =      -618.65093718
  atomic energy  EATOM  =      3354.04126044
  ---------------------------------------------------
  free energy    TOTEN  =      -128.29904836 eV

  energy without entropy =     -128.29904836  energy(sigma->0) =     -128.29904836


--------------------------------------------------------------------------------------------------------




----------------------------------------- Iteration    1(  13)  ---------------------------------------


    POTLOK:  cpu time   14.58: real time   14.58
    SETDIJ:  cpu time    0.01: real time    0.01
     EDDAV:  cpu time   79.48: real time   79.50
       DOS:  cpu time    0.01: real time    0.01
    CHARGE:  cpu time    4.44: real time    4.44
    MIXING:  cpu time    0.01: real time    0.01
    --------------------------------------------
      LOOP:  cpu time   98.53: real time   98.56

 eigenvalue-minimisations  :  9264
 total energy-change (2. order) : 0.2291642E-02  (-0.2227331E-04)
 number of electron     107.9999995 magnetization 
 augmentation part       -9.2698548 magnetization 

 Broyden mixing:
  rms(total) = 0.12788E-02    rms(broyden)= 0.12787E-02
  rms(prec ) = 0.20370E-02
  weight for this iteration     100.00

 eigenvalues of (default mixing * dielectric matrix)
  average eigenvalue GAMMA=   1.5808
  2.8680  2.4662  1.4893  1.4893  1.2323  1.2323  1.0436  0.8249

 Free energy of the ion-electron system (eV)
  ---------------------------------------------------
  alpha Z        PSCENC =        36.80884744
  Ewald energy   TEWEN  =     11895.04193001
  -Hartree energ DENC   =    -15037.47915908
  -exchange      EXHF   =         0.00000000
  -V(xc)+E(xc)   XCENC  =       -80.04570550
  PAW double counting   =      1165.30257639     -844.28440427
  entropy T*S    EENTRO =        -0.00000000
  eigenvalues    EBANDS =      -617.68210216
  atomic energy  EATOM  =      3354.04126044
  ---------------------------------------------------
  free energy    TOTEN  =      -128.29675671 eV

  energy without entropy =     -128.29675671  energy(sigma->0) =     -128.29675671


--------------------------------------------------------------------------------------------------------




----------------------------------------- Iteration    1(  14)  ---------------------------------------


    POTLOK:  cpu time   14.61: real time   14.61
    SETDIJ:  cpu time    0.01: real time    0.01
     EDDAV:  cpu time   78.66: real time   78.68
       DOS:  cpu time    0.01: real time    0.01
    CHARGE:  cpu time    4.57: real time    4.57
    MIXING:  cpu time    0.01: real time    0.01
    --------------------------------------------
      LOOP:  cpu time   97.88: real time   97.91

 eigenvalue-minimisations  :  9128
 total energy-change (2. order) : 0.2284665E-03  (-0.3288229E-05)
 number of electron     107.9999995 magnetization 
 augmentation part       -9.2697721 magnetization 

 Broyden mixing:
  rms(total) = 0.85682E-03    rms(broyden)= 0.85677E-03
  rms(prec ) = 0.14796E-02
  weight for this iteration     100.00

 eigenvalues of (default mixing * dielectric matrix)
  average eigenvalue GAMMA=   1.6327
  3.0866  2.4961  1.7368  1.7368  1.3145  1.3145  1.1272  0.9406  0.9406

 Free energy of the ion-electron system (eV)
  ---------------------------------------------------
  alpha Z        PSCENC =        36.80884744
  Ewald energy   TEWEN  =     11895.04193001
  -Hartree energ DENC   =    -15037.95103500
  -exchange      EXHF   =         0.00000000
  -V(xc)+E(xc)   XCENC  =       -80.04215228
  PAW double counting   =      1165.27365879     -844.25495007
  entropy T*S    EENTRO =        -0.00000000
  eigenvalues    EBANDS =      -617.21408759
  atomic energy  EATOM  =      3354.04126044
  ---------------------------------------------------
  free energy    TOTEN  =      -128.29652825 eV

  energy without entropy =     -128.29652825  energy(sigma->0) =     -128.29652825


--------------------------------------------------------------------------------------------------------




----------------------------------------- Iteration    1(  15)  ---------------------------------------


    POTLOK:  cpu time   14.61: real time   14.62
    SETDIJ:  cpu time    0.01: real time    0.01
     EDDAV:  cpu time   72.66: real time   72.68
       DOS:  cpu time    0.01: real time    0.01
    CHARGE:  cpu time    4.52: real time    4.53
    MIXING:  cpu time    0.01: real time    0.01
    --------------------------------------------
      LOOP:  cpu time   91.84: real time   91.86

 eigenvalue-minimisations  :  8272
 total energy-change (2. order) :-0.7513925E-04  (-0.6648072E-05)
 number of electron     107.9999995 magnetization 
 augmentation part       -9.2695972 magnetization 

 Broyden mixing:
  rms(total) = 0.50505E-03    rms(broyden)= 0.50500E-03
  rms(prec ) = 0.85595E-03
  weight for this iteration     100.00

 eigenvalues of (default mixing * dielectric matrix)
  average eigenvalue GAMMA=   1.7500
  4.0113  2.7183  2.3487  1.6054  1.2601  1.2601  1.2225  0.9635  1.0553  1.0553

 Free energy of the ion-electron system (eV)
  ---------------------------------------------------
  alpha Z        PSCENC =        36.80884744
  Ewald energy   TEWEN  =     11895.04193001
  -Hartree energ DENC   =    -15038.70141256
  -exchange      EXHF   =         0.00000000
  -V(xc)+E(xc)   XCENC  =       -80.03734456
  PAW double counting   =      1165.25847146     -844.23957533
  entropy T*S    EENTRO =        -0.00000000
  eigenvalues    EBANDS =      -616.46878029
  atomic energy  EATOM  =      3354.04126044
  ---------------------------------------------------
  free energy    TOTEN  =      -128.29660339 eV

  energy without entropy =     -128.29660339  energy(sigma->0) =     -128.29660339


--------------------------------------------------------------------------------------------------------




----------------------------------------- Iteration    1(  16)  ---------------------------------------


    POTLOK:  cpu time   14.65: real time   14.65
    SETDIJ:  cpu time    0.01: real time    0.01
     EDDAV:  cpu time   73.76: real time   73.78
       DOS:  cpu time    0.01: real time    0.01
    CHARGE:  cpu time    4.43: real time    4.43
    MIXING:  cpu time    0.01: real time    0.02
    --------------------------------------------
      LOOP:  cpu time   92.88: real time   92.90

 eigenvalue-minimisations  :  8432
 total energy-change (2. order) :-0.5145536E-03  (-0.1598814E-04)
 number of electron     107.9999995 magnetization 
 augmentation part       -9.2695304 magnetization 

 Broyden mixing:
  rms(total) = 0.30488E-03    rms(broyden)= 0.30485E-03
  rms(prec ) = 0.47247E-03
  weight for this iteration     100.00

 eigenvalues of (default mixing * dielectric matrix)
  average eigenvalue GAMMA=   1.8630
  5.2409  2.8074  2.3846  1.6601  1.6601  1.2831  1.2831  0.9215  1.0767  1.0880
  1.0880

 Free energy of the ion-electron system (eV)
  ---------------------------------------------------
  alpha Z        PSCENC =        36.80884744
  Ewald energy   TEWEN  =     11895.04193001
  -Hartree energ DENC   =    -15039.25690692
  -exchange      EXHF   =         0.00000000
  -V(xc)+E(xc)   XCENC  =       -80.03500927
  PAW double counting   =      1165.27522559     -844.25681634
  entropy T*S    EENTRO =        -0.00000000
  eigenvalues    EBANDS =      -615.91564891
  atomic energy  EATOM  =      3354.04126044
  ---------------------------------------------------
  free energy    TOTEN  =      -128.29711794 eV

  energy without entropy =     -128.29711794  energy(sigma->0) =     -128.29711794


--------------------------------------------------------------------------------------------------------




----------------------------------------- Iteration    1(  17)  ---------------------------------------


    POTLOK:  cpu time   14.62: real time   14.63
    SETDIJ:  cpu time    0.01: real time    0.01
     EDDAV:  cpu time   70.61: real time   70.63
       DOS:  cpu time    0.01: real time    0.01
    CHARGE:  cpu time    4.27: real time    4.28
    MIXING:  cpu time    0.01: real time    0.01
    --------------------------------------------
      LOOP:  cpu time   89.54: real time   89.56

 eigenvalue-minimisations  :  7976
 total energy-change (2. order) :-0.1612652E-03  (-0.7961348E-05)
 number of electron     107.9999995 magnetization 
 augmentation part       -9.2695087 magnetization 

 Broyden mixing:
  rms(total) = 0.16361E-03    rms(broyden)= 0.16360E-03
  rms(prec ) = 0.27827E-03
  weight for this iteration     100.00

 eigenvalues of (default mixing * dielectric matrix)
  average eigenvalue GAMMA=   1.9552
  6.2755  2.8760  2.6199  2.1220  1.2785  1.2785  1.5386  1.2126  1.2126  0.9544
  1.0469  1.0469

 Free energy of the ion-electron system (eV)
  ---------------------------------------------------
  alpha Z        PSCENC =        36.80884744
  Ewald energy   TEWEN  =     11895.04193001
  -Hartree energ DENC   =    -15039.50525771
  -exchange      EXHF   =         0.00000000
  -V(xc)+E(xc)   XCENC  =       -80.03406598
  PAW double counting   =      1165.28407223     -844.26578328
  entropy T*S    EENTRO =        -0.00000000
  eigenvalues    EBANDS =      -615.66828236
  atomic energy  EATOM  =      3354.04126044
  ---------------------------------------------------
  free energy    TOTEN  =      -128.29727920 eV

  energy without entropy =     -128.29727920  energy(sigma->0) =     -128.29727920


--------------------------------------------------------------------------------------------------------




----------------------------------------- Iteration    1(  18)  ---------------------------------------


    POTLOK:  cpu time   14.61: real time   14.61
    SETDIJ:  cpu time    0.01: real time    0.01
     EDDAV:  cpu time   60.34: real time   60.36
       DOS:  cpu time    0.01: real time    0.01
    CHARGE:  cpu time    4.52: real time    4.52
    MIXING:  cpu time    0.01: real time    0.02
    --------------------------------------------
      LOOP:  cpu time   79.50: real time   79.53

 eigenvalue-minimisations  :  6456
 total energy-change (2. order) :-0.5894188E-04  (-0.1650992E-05)
 number of electron     107.9999995 magnetization 
 augmentation part       -9.2695117 magnetization 

 Broyden mixing:
  rms(total) = 0.10029E-03    rms(broyden)= 0.10027E-03
  rms(prec ) = 0.17327E-03
  weight for this iteration     100.00

 eigenvalues of (default mixing * dielectric matrix)
  average eigenvalue GAMMA=   1.9585
  6.5375  2.9621  2.6973  1.9615  1.6943  1.6943  1.2905  1.2905  1.1281  1.1281
  1.1828  0.9470  0.9470

 Free energy of the ion-electron system (eV)
  ---------------------------------------------------
  alpha Z        PSCENC =        36.80884744
  Ewald energy   TEWEN  =     11895.04193001
  -Hartree energ DENC   =    -15039.64450194
  -exchange      EXHF   =         0.00000000
  -V(xc)+E(xc)   XCENC  =       -80.03349524
  PAW double counting   =      1165.28948178     -844.27123925
  entropy T*S    EENTRO =        -0.00000000
  eigenvalues    EBANDS =      -615.52962139
  atomic energy  EATOM  =      3354.04126044
  ---------------------------------------------------
  free energy    TOTEN  =      -128.29733815 eV

  energy without entropy =     -128.29733815  energy(sigma->0) =     -128.29733815


--------------------------------------------------------------------------------------------------------




----------------------------------------- Iteration    1(  19)  ---------------------------------------


    POTLOK:  cpu time   14.59: real time   14.59
    SETDIJ:  cpu time    0.01: real time    0.01
     EDDAV:  cpu time   59.97: real time   59.98
       DOS:  cpu time    0.01: real time    0.01
    CHARGE:  cpu time    4.68: real time    4.68
    MIXING:  cpu time    0.02: real time    0.02
    --------------------------------------------
      LOOP:  cpu time   79.27: real time   79.29

 eigenvalue-minimisations  :  6432
 total energy-change (2. order) :-0.2630040E-04  (-0.7458512E-06)
 number of electron     107.9999995 magnetization 
 augmentation part       -9.2695144 magnetization 

 Broyden mixing:
  rms(total) = 0.67238E-04    rms(broyden)= 0.67235E-04
  rms(prec ) = 0.11363E-03
  weight for this iteration     100.00

 eigenvalues of (default mixing * dielectric matrix)
  average eigenvalue GAMMA=   2.0671
  7.0950  3.7775  2.7962  2.4916  1.9935  1.2871  1.2871  1.4515  1.4515  1.1419
  1.1419  0.9335  1.0453  1.0453

 Free energy of the ion-electron system (eV)
  ---------------------------------------------------
  alpha Z        PSCENC =        36.80884744
  Ewald energy   TEWEN  =     11895.04193001
  -Hartree energ DENC   =    -15039.68221973
  -exchange      EXHF   =         0.00000000
  -V(xc)+E(xc)   XCENC  =       -80.03349921
  PAW double counting   =      1165.28955645     -844.27131192
  entropy T*S    EENTRO =        -0.00000000
  eigenvalues    EBANDS =      -615.49192793
  atomic energy  EATOM  =      3354.04126044
  ---------------------------------------------------
  free energy    TOTEN  =      -128.29736445 eV

  energy without entropy =     -128.29736445  energy(sigma->0) =     -128.29736445


--------------------------------------------------------------------------------------------------------




----------------------------------------- Iteration    1(  20)  ---------------------------------------


    POTLOK:  cpu time   14.63: real time   14.64
    SETDIJ:  cpu time    0.01: real time    0.01
     EDDAV:  cpu time   65.45: real time   65.48
       DOS:  cpu time    0.01: real time    0.01
    CHARGE:  cpu time    4.43: real time    4.44
    MIXING:  cpu time    0.02: real time    0.02
    --------------------------------------------
      LOOP:  cpu time   84.56: real time   84.59

 eigenvalue-minimisations  :  7240
 total energy-change (2. order) : 0.9053558E-04  (-0.2601910E-05)
 number of electron     107.9999995 magnetization 
 augmentation part       -9.2695086 magnetization 

 Broyden mixing:
  rms(total) = 0.48513E-04    rms(broyden)= 0.48510E-04
  rms(prec ) = 0.60787E-04
  weight for this iteration     100.00

 eigenvalues of (default mixing * dielectric matrix)
  average eigenvalue GAMMA=   2.1021
  7.0793  4.7404  2.8333  2.6245  1.8482  1.8482  1.2923  1.2923  1.4636  1.4636
  1.1064  1.1064  0.9395  0.9395  0.9542

 Free energy of the ion-electron system (eV)
  ---------------------------------------------------
  alpha Z        PSCENC =        36.80884744
  Ewald energy   TEWEN  =     11895.04193001
  -Hartree energ DENC   =    -15039.74215084
  -exchange      EXHF   =         0.00000000
  -V(xc)+E(xc)   XCENC  =       -80.03345783
  PAW double counting   =      1165.28541836     -844.26705258
  entropy T*S    EENTRO =        -0.00000000
  eigenvalues    EBANDS =      -615.43206892
  atomic energy  EATOM  =      3354.04126044
  ---------------------------------------------------
  free energy    TOTEN  =      -128.29727391 eV

  energy without entropy =     -128.29727391  energy(sigma->0) =     -128.29727391


--------------------------------------------------------------------------------------------------------




----------------------------------------- Iteration    1(  21)  ---------------------------------------


    POTLOK:  cpu time   14.59: real time   14.60
    SETDIJ:  cpu time    0.01: real time    0.01
     EDDAV:  cpu time   59.31: real time   59.33
       DOS:  cpu time    0.00: real time    0.01
    CHARGE:  cpu time    4.49: real time    4.49
    MIXING:  cpu time    0.02: real time    0.02
    --------------------------------------------
      LOOP:  cpu time   78.43: real time   78.46

 eigenvalue-minimisations  :  6292
 total energy-change (2. order) : 0.1069652E-04  (-0.1116214E-05)
 number of electron     107.9999995 magnetization 
 augmentation part       -9.2695124 magnetization 

 Broyden mixing:
  rms(total) = 0.29560E-04    rms(broyden)= 0.29558E-04
  rms(prec ) = 0.35396E-04
  weight for this iteration     100.00

 eigenvalues of (default mixing * dielectric matrix)
  average eigenvalue GAMMA=   2.2484
  8.3498  5.9075  2.9768  2.5476  2.3044  1.8886  1.5663  1.5663  1.2936  1.2936
  1.1565  1.1565  1.0507  0.9954  0.9954  0.9259

 Free energy of the ion-electron system (eV)
  ---------------------------------------------------
  alpha Z        PSCENC =        36.80884744
  Ewald energy   TEWEN  =     11895.04193001
  -Hartree energ DENC   =    -15039.73181791
  -exchange      EXHF   =         0.00000000
  -V(xc)+E(xc)   XCENC  =       -80.03366159
  PAW double counting   =      1165.28297497     -844.26456106
  entropy T*S    EENTRO =        -0.00000000
  eigenvalues    EBANDS =      -615.44223552
  atomic energy  EATOM  =      3354.04126044
  ---------------------------------------------------
  free energy    TOTEN  =      -128.29726321 eV

  energy without entropy =     -128.29726321  energy(sigma->0) =     -128.29726321


--------------------------------------------------------------------------------------------------------




----------------------------------------- Iteration    1(  22)  ---------------------------------------


    POTLOK:  cpu time   14.61: real time   14.61
    SETDIJ:  cpu time    0.01: real time    0.01
     EDDAV:  cpu time   62.33: real time   62.35
       DOS:  cpu time    0.00: real time    0.01
    CHARGE:  cpu time    4.50: real time    4.51
    MIXING:  cpu time    0.02: real time    0.02
    --------------------------------------------
      LOOP:  cpu time   81.48: real time   81.51

 eigenvalue-minimisations  :  6720
 total energy-change (2. order) : 0.3822699E-04  (-0.8244321E-06)
 number of electron     107.9999995 magnetization 
 augmentation part       -9.2695128 magnetization 

 Broyden mixing:
  rms(total) = 0.15058E-04    rms(broyden)= 0.15054E-04
  rms(prec ) = 0.17452E-04
  weight for this iteration     100.00

 eigenvalues of (default mixing * dielectric matrix)
  average eigenvalue GAMMA=   2.2281
  8.4368  6.5099  2.9837  2.6788  2.3391  1.6964  1.6964  1.2957  1.2957  1.4465
  1.4465  1.1197  1.1197  0.9760  0.9760  0.9303  0.9303

 Free energy of the ion-electron system (eV)
  ---------------------------------------------------
  alpha Z        PSCENC =        36.80884744
  Ewald energy   TEWEN  =     11895.04193001
  -Hartree energ DENC   =    -15039.73901321
  -exchange      EXHF   =         0.00000000
  -V(xc)+E(xc)   XCENC  =       -80.03362771
  PAW double counting   =      1165.28345353     -844.26507295
  entropy T*S    EENTRO =        -0.00000000
  eigenvalues    EBANDS =      -615.43500256
  atomic energy  EATOM  =      3354.04126044
  ---------------------------------------------------
  free energy    TOTEN  =      -128.29722499 eV

  energy without entropy =     -128.29722499  energy(sigma->0) =     -128.29722499


--------------------------------------------------------------------------------------------------------




----------------------------------------- Iteration    1(  23)  ---------------------------------------


    POTLOK:  cpu time   14.59: real time   14.59
    SETDIJ:  cpu time    0.01: real time    0.01
     EDDAV:  cpu time   56.61: real time   56.62
       DOS:  cpu time    0.00: real time    0.01
    CHARGE:  cpu time    4.39: real time    4.39
    MIXING:  cpu time    0.02: real time    0.02
    --------------------------------------------
      LOOP:  cpu time   75.62: real time   75.64

 eigenvalue-minimisations  :  5848
 total energy-change (2. order) : 0.6764628E-05  (-0.4617502E-06)
 number of electron     107.9999995 magnetization 
 augmentation part       -9.2695122 magnetization 

 Broyden mixing:
  rms(total) = 0.67606E-05    rms(broyden)= 0.67591E-05
  rms(prec ) = 0.78781E-05
  weight for this iteration     100.00

 eigenvalues of (default mixing * dielectric matrix)
  average eigenvalue GAMMA=   2.2729
  9.0426  6.7086  3.1137  2.6733  2.2580  2.2580  1.5912  1.5912  1.2978  1.2978
  1.4502  1.4502  1.1479  1.1479  0.9896  0.9896  0.9383  0.9661

 Free energy of the ion-electron system (eV)
  ---------------------------------------------------
  alpha Z        PSCENC =        36.80884744
  Ewald energy   TEWEN  =     11895.04193001
  -Hartree energ DENC   =    -15039.73716297
  -exchange      EXHF   =         0.00000000
  -V(xc)+E(xc)   XCENC  =       -80.03364055
  PAW double counting   =      1165.28394153     -844.26557375
  entropy T*S    EENTRO =        -0.00000000
  eigenvalues    EBANDS =      -615.43682039
  atomic energy  EATOM  =      3354.04126044
  ---------------------------------------------------
  free energy    TOTEN  =      -128.29721822 eV

  energy without entropy =     -128.29721822  energy(sigma->0) =     -128.29721822


[...]
     31      -4.0176      2.00000
     32      -3.9258      2.00000
     33      -3.8118      2.00000
     34      -3.6625      2.00000
     35      -3.3189      2.00000
     36      -3.2514      2.00000
     37      -3.1586      2.00000
     38      -2.9932      2.00000
     39      -2.9297      2.00000
     40      -2.7331      2.00000
     41      -2.6487      2.00000
     42      -2.5721      2.00000
     43      -2.4692      2.00000
     44      -2.3601      2.00000
     45      -2.0991      2.00000
     46      -1.9396      2.00000
     47      -1.9040      2.00000
     48      -1.7508      2.00000
     49      -1.6930      2.00000
     50      -1.5096      2.00000
     51      -1.3210      2.00000
     52      -1.2457      2.00000
     53      -1.0179      2.00000
     54      -0.5603      2.00000
     55       1.2226      0.00000
     56       1.3064      0.00000
     57       1.5182      0.00000
     58       1.6531      0.00000
     59       1.7326      0.00000
     60       2.1295      0.00000
     61       2.3271      0.00000
     62       2.3737      0.00000
     63       2.6290      0.00000
     64       2.7734      0.00000
     65       2.9188      0.00000
     66       3.0125      0.00000
     67       3.1166      0.00000
     68       3.2518      0.00000

 k-point    52 :       0.3077    0.5000    0.5000
  band No.  band energies     occupation 
      1     -12.7408      2.00000
      2     -12.4379      2.00000
      3     -12.3396      2.00000
      4     -12.0935      2.00000
      5     -11.6372      2.00000
      6     -11.5516      2.00000
      7     -11.2705      2.00000
      8     -10.9444      2.00000
      9     -10.7704      2.00000
     10     -10.7396      2.00000
     11     -10.4477      2.00000
     12     -10.3222      2.00000
     13      -8.8512      2.00000
     14      -8.8199      2.00000
     15      -7.7024      2.00000
     16      -7.4902      2.00000
     17      -7.1330      2.00000
     18      -6.9967      2.00000
     19      -6.9700      2.00000
     20      -6.8921      2.00000
     21      -6.1203      2.00000
     22      -6.0484      2.00000
     23      -5.8546      2.00000
     24      -5.8124      2.00000
     25      -5.3028      2.00000
     26      -5.2720      2.00000
     27      -4.9078      2.00000
     28      -4.8237      2.00000
     29      -4.5113      2.00000
     30      -4.3864      2.00000
     31      -4.3453      2.00000
     32      -4.2514      2.00000
     33      -4.1349      2.00000
     34      -4.0108      2.00000
     35      -3.3436      2.00000
     36      -3.1967      2.00000
     37      -3.0839      2.00000
     38      -3.0386      2.00000
     39      -2.9903      2.00000
     40      -2.8924      2.00000
     41      -2.8191      2.00000
     42      -2.5988      2.00000
     43      -2.4884      2.00000
     44      -2.3821      2.00000
     45      -2.2193      2.00000
     46      -2.1562      2.00000
     47      -1.9475      2.00000
     48      -1.8705      2.00000
     49      -1.8265      2.00000
     50      -1.7054      2.00000
     51      -1.6594      2.00000
     52      -1.5815      2.00000
     53      -1.2341      2.00000
     54      -0.8646      2.00000
     55       0.8722      0.00000
     56       1.1372      0.00000
     57       1.3603      0.00000
     58       1.3839      0.00000
     59       1.5320      0.00000
     60       1.9921      0.00000
     61       2.1652      0.00000
     62       2.2439      0.00000
     63       2.3499      0.00000
     64       2.5195      0.00000
     65       2.6080      0.00000
     66       2.6315      0.00000
     67       2.8180      0.00000
     68       3.0337      0.00000

 k-point    53 :       0.3846    0.5000    0.5000
  band No.  band energies     occupation 
      1     -12.4250      2.00000
      2     -11.9620      2.00000
      3     -11.8733      2.00000
      4     -11.5966      2.00000
      5     -11.2304      2.00000
      6     -11.1598      2.00000
      7     -11.0261      2.00000
      8     -10.6993      2.00000
      9     -10.5494      2.00000
     10     -10.5294      2.00000
     11     -10.3896      2.00000
     12     -10.3459      2.00000
     13      -8.9659      2.00000
     14      -8.8350      2.00000
     15      -8.1778      2.00000
     16      -8.0168      2.00000
     17      -7.6104      2.00000
     18      -7.5438      2.00000
     19      -7.4264      2.00000
     20      -7.3106      2.00000
     21      -6.7199      2.00000
     22      -6.6488      2.00000
     23      -6.5862      2.00000
     24      -6.1022      2.00000
     25      -5.3053      2.00000
     26      -5.2269      2.00000
     27      -4.7440      2.00000
     28      -4.6035      2.00000
     29      -4.5461      2.00000
     30      -4.3904      2.00000
     31      -4.2106      2.00000
     32      -4.1068      2.00000
     33      -4.0441      2.00000
     34      -3.9660      2.00000
     35      -3.5811      2.00000
     36      -3.4607      2.00000
     37      -3.2517      2.00000
     38      -3.1247      2.00000
     39      -3.0656      2.00000
     40      -3.0066      2.00000
     41      -2.8775      2.00000
     42      -2.8000      2.00000
     43      -2.5941      2.00000
     44      -2.4505      2.00000
     45      -2.3863      2.00000
     46      -2.2327      2.00000
     47      -2.0563      2.00000
     48      -2.0293      2.00000
     49      -1.9948      2.00000
     50      -1.8366      2.00000
     51      -1.7555      2.00000
     52      -1.7371      2.00000
     53      -1.3436      2.00000
     54      -1.0974      2.00000
     55       0.7467      0.00000
     56       0.9874      0.00000
     57       1.3209      0.00000
     58       1.3619      0.00000
     59       1.6071      0.00000
     60       1.7896      0.00000
     61       1.9149      0.00000
     62       2.0400      0.00000
     63       2.1013      0.00000
     64       2.2330      0.00000
     65       2.3275      0.00000
     66       2.4043      0.00000
     67       2.6948      0.00000
     68       2.8010      0.00000

 k-point    54 :       0.4615    0.5000    0.5000
  band No.  band energies     occupation 
      1     -12.2066      2.00000
      2     -11.4198      2.00000
      3     -11.3773      2.00000
      4     -11.0979      2.00000
      5     -10.9899      2.00000
      6     -10.8784      2.00000
      7     -10.8483      2.00000
      8     -10.7761      2.00000
      9     -10.6500      2.00000
     10     -10.5506      2.00000
     11     -10.5132      2.00000
     12     -10.4266      2.00000
     13      -8.8190      2.00000
     14      -8.5949      2.00000
     15      -8.4557      2.00000
     16      -8.3673      2.00000
     17      -8.0466      2.00000
     18      -8.0039      2.00000
     19      -7.6134      2.00000
     20      -7.4884      2.00000
     21      -7.2956      2.00000
     22      -7.2173      2.00000
     23      -7.0996      2.00000
     24      -6.3513      2.00000
     25      -5.0556      2.00000
     26      -4.8755      2.00000
     27      -4.5409      2.00000
     28      -4.4164      2.00000
     29      -4.3225      2.00000
     30      -4.1969      2.00000
     31      -4.0994      2.00000
     32      -4.0200      2.00000
     33      -3.9320      2.00000
     34      -3.8682      2.00000
     35      -3.8260      2.00000
     36      -3.6998      2.00000
     37      -3.5484      2.00000
     38      -3.4745      2.00000
     39      -3.1888      2.00000
     40      -3.1405      2.00000
     41      -3.0664      2.00000
     42      -2.9438      2.00000
     43      -2.6465      2.00000
     44      -2.6186      2.00000
     45      -2.5037      2.00000
     46      -2.3036      2.00000
     47      -2.1348      2.00000
     48      -2.0495      2.00000
     49      -2.0402      2.00000
     50      -1.8129      2.00000
     51      -1.7200      2.00000
     52      -1.6064      2.00000
     53      -1.4430      2.00000
     54      -1.1993      2.00000
     55       0.6710      0.00000
     56       0.9536      0.00000
     57       1.2744      0.00000
     58       1.4223      0.00000
     59       1.6200      0.00000
     60       1.6858      0.00000
     61       1.7986      0.00000
     62       1.9136      0.00000
     63       2.0059      0.00000
     64       2.0984      0.00000
     65       2.1852      0.00000
     66       2.3882      0.00000
     67       2.5159      0.00000
     68       2.5814      0.00000


--------------------------------------------------------------------------------------------------------


 soft charge-density along one line, spin component           1
         0         1         2         3         4         5         6         7         8         9
 total charge-density along one line
 
 pseudopotential strength for first ion, spin component:           1
 29.756   0.008  -0.001  -0.024  -0.000  -0.000  -0.001   0.000
  0.008   0.009  -0.000  -0.000   0.000   0.000   0.000  -0.000
 -0.001  -0.000   6.545  -0.001   0.000  -0.003   0.000  -0.000
 -0.024  -0.000  -0.001   6.540  -0.000   0.000  -0.002   0.000
 -0.000   0.000   0.000  -0.000   6.546  -0.000   0.000  -0.003
 -0.000   0.000  -0.003   0.000  -0.000   0.015  -0.000   0.000
 -0.001   0.000   0.000  -0.002   0.000  -0.000   0.015   0.000
  0.000  -0.000  -0.000   0.000  -0.003   0.000   0.000   0.015
 total augmentation occupancy for first ion, spin component:           1
  1.816  -0.358   0.007   0.260  -0.000   0.003   0.111  -0.001
 -0.358   1.301   0.026   0.865  -0.001   0.004  -0.434  -0.000
  0.007   0.026   1.141   0.015   0.000  -0.506   0.014  -0.000
  0.260   0.865   0.015   1.299   0.000   0.014  -0.422  -0.001
 -0.000  -0.001   0.000   0.000   1.143  -0.000  -0.000  -0.529
  0.003   0.004  -0.506   0.014  -0.000   0.294  -0.015   0.000
  0.111  -0.434   0.014  -0.422  -0.000  -0.015   0.229   0.000
 -0.001  -0.000  -0.000  -0.001  -0.529   0.000   0.000   0.327


------------------------ aborting loop because EDIFF is reached ----------------------------------------


    CHARGE:  cpu time    5.09: real time    5.09
    FORLOC:  cpu time    0.06: real time    0.06
    FORNL :  cpu time   22.83: real time   23.14
    STRESS:  cpu time   58.48: real time   58.50
    FORCOR:  cpu time   14.58: real time   14.58
    FORHAR:  cpu time    0.13: real time    0.13
    MIXING:  cpu time    0.01: real time    0.02
    OFIELD:  cpu time    0.00: real time    0.00

  FORCE on cell =-STRESS in cart. coord.  units (eV):
  Direction    XX          YY          ZZ          XY          YZ          ZX
  --------------------------------------------------------------------------------------
  Alpha Z    36.80885    36.80885    36.80885
  Ewald   14357.29150 13958.60059-16420.85765   -24.39721    -2.90942   -23.83959
  Hartree 14873.95103 14596.68481-14430.89681    -6.34437    -1.66842    -4.18782
  E(xc)    -357.16993  -357.19223  -355.71769     0.02746    -0.25946     0.40448
  Local  -30773.26547-30112.04226 29258.93908    31.97738     0.49566    27.54533
  n-local  1147.74494  1148.65261  1148.22605    -3.53141     4.73137    -7.70675
  augment  -199.64999  -200.92127  -204.11712     0.42379    -0.69788     1.05564
  Kinetic   919.06006   930.94159   977.33576    -2.02988     5.53338   -12.49031
  Fock        0.00000     0.00000     0.00000     0.00000     0.00000     0.00000
  -------------------------------------------------------------------------------------
  Total       4.77099     1.53268     9.72046    -3.87425     5.22523   -19.21903
  in kB       7.62627     2.44995    15.53785    -6.19287     8.35237   -30.72101
  external pressure =        8.54 kB  Pullay stress =        0.00 kB


 VOLUME and BASIS-vectors are now :
 -----------------------------------------------------------------------------
  energy-cutoff  :      300.00
  volume of cell :     1002.32
      direct lattice vectors                 reciprocal lattice vectors
     3.540400000  0.000000000  0.000000000     0.282453960  0.048570342  0.000000000
    -1.770200000 10.294348000  0.000000000     0.000000000  0.097140683  0.000000000
     0.000000000  0.000000000 27.501429000     0.000000000  0.000000000  0.036361747

  length of vectors
     3.540400000 10.445439617 27.501429000     0.286599577  0.097140683  0.036361747


 FORCES acting on ions
    electron-ion (+dipol)            ewald-force                    non-local-force                 convergence-correction
 -----------------------------------------------------------------------------------------------
   0.500E-01 0.823E+01 0.268E+02   -.128E-03 -.802E+01 -.220E+02   -.159E-01 -.264E+00 -.490E+01   -.445E-08 0.735E-06 0.540E-06
   0.766E-01 -.196E+01 -.572E+03   -.246E+00 0.215E+01 0.577E+03   -.130E+00 -.711E-01 -.452E+01   -.165E-06 -.506E-05 0.384E-05
   -.208E-02 0.622E+02 0.492E+02   0.499E-02 -.637E+02 -.450E+02   -.979E-04 0.154E+01 -.417E+01   -.739E-08 -.791E-06 0.127E-05
   -.102E+00 0.572E+02 -.526E+03   -.965E-01 -.586E+02 0.531E+03   0.510E-01 0.145E+01 -.420E+01   -.198E-06 0.867E-06 0.124E-05
   -.877E-03 -.572E+02 0.526E+03   0.103E-03 0.587E+02 -.531E+03   0.406E-03 -.154E+01 0.429E+01   -.223E-08 -.208E-05 -.529E-05
   -.306E+02 -.558E+02 -.257E+02   0.289E+02 0.581E+02 0.253E+02   0.873E+01 -.467E+01 -.806E+01   0.611E-06 0.164E-05 -.167E-05
   0.519E-02 0.537E+02 0.526E+03   0.651E-05 -.556E+02 -.530E+03   -.185E-02 0.190E+01 0.417E+01   0.333E-07 0.771E-06 -.333E-05
   0.572E+01 0.659E+02 -.632E+02   -.439E+01 -.678E+02 0.583E+02   -.503E-02 0.156E+01 0.474E+01   0.358E-06 -.478E-06 0.231E-05
   0.204E-03 0.182E+01 0.572E+03   -.876E-04 -.202E+01 -.577E+03   0.142E-02 0.210E+00 0.478E+01   -.435E-08 0.286E-05 -.104E-04
   0.160E+00 -.832E+01 -.266E+02   0.107E+00 0.801E+01 0.219E+02   0.118E+00 0.300E+00 0.456E+01   -.187E-06 -.301E-06 0.202E-05
   0.442E-02 -.631E+02 0.595E+02   -.604E-02 0.650E+02 -.554E+02   0.238E-02 -.190E+01 -.403E+01   -.368E-07 -.550E-06 -.394E-06
   0.885E+00 -.537E+02 -.527E+03   -.142E+01 0.558E+02 0.531E+03   -.317E-01 -.192E+01 -.379E+01   -.517E-06 0.111E-05 0.141E-05
   -.892E-02 0.306E+02 0.209E+03   -.409E-03 -.327E+02 -.209E+03   0.115E-01 0.209E+01 0.341E+00   0.132E-08 0.198E-06 0.212E-05
   -.436E+01 0.284E+02 -.250E+03   0.334E+01 -.314E+02 0.251E+03   -.730E-01 0.313E+01 -.614E+00   0.475E-07 0.237E-05 0.281E-06
   -.120E-02 -.117E+02 0.138E+03   0.759E-03 0.120E+02 -.141E+03   -.565E-03 -.257E+00 0.255E+01   0.635E-08 0.768E-06 0.495E-06
   -.483E+01 -.102E+02 -.331E+03   0.369E+01 0.104E+02 0.329E+03   0.437E+00 -.125E+00 0.130E+01   0.203E-06 -.503E-06 -.146E-05
   -.190E-02 -.507E+01 0.346E+03   0.839E-04 0.553E+01 -.343E+03   0.126E-02 -.470E+00 -.253E+01   -.172E-08 0.846E-06 -.258E-05
   0.261E+01 -.991E+01 -.129E+03   -.138E+01 0.988E+01 0.131E+03   -.378E+00 0.862E-02 -.116E+01   0.415E-07 -.179E-05 -.143E-05
   0.430E-02 0.966E+01 0.335E+03   0.194E-05 -.992E+01 -.332E+03   -.188E-02 0.235E+00 -.258E+01   -.426E-08 0.134E-05 -.118E-05
   0.313E+01 0.112E+02 -.142E+03   -.230E+01 -.114E+02 0.144E+03   -.266E+00 0.274E+00 -.115E+01   -.198E-06 -.181E-05 -.291E-06
   -.495E-01 0.108E+02 0.126E+03   0.443E-03 -.112E+02 -.129E+03   0.429E-01 0.373E+00 0.253E+01   0.194E-07 0.572E-06 0.140E-05
   -.435E+01 0.503E+01 -.342E+03   0.304E+01 -.544E+01 0.340E+03   0.534E+00 0.428E+00 0.124E+01   0.174E-06 -.432E-05 -.274E-06
   0.133E-02 -.312E+02 0.254E+03   -.270E-03 0.334E+02 -.254E+03   0.137E-02 -.215E+01 -.353E+00   0.940E-09 -.237E-05 0.580E-06
   0.358E+02 -.386E+02 -.233E+03   -.293E+02 0.391E+02 0.229E+03   -.132E+02 0.181E+01 0.126E+02   -.726E-06 0.267E-05 -.806E-06
 -----------------------------------------------------------------------------------------------
   0.416E+01 -.194E+01 -.103E+01   -.142E-13 0.000E+00 0.171E-12   -.416E+01 0.194E+01 0.103E+01   -.555E-06 -.331E-05 -.117E-04
 
 
 POSITION                                       TOTAL-FORCE (eV/Angst)
 -----------------------------------------------------------------------------------
      0.00000      2.34757      6.41229         0.033754     -0.059335     -0.032312
      0.70808      2.34757     14.16300        -0.299563      0.120435      0.236928
     -0.00000      9.43147      5.75866         0.002570     -0.019464      0.077333
      0.70808      9.43147     13.50937        -0.147265      0.043523      0.145386
     -0.00000      6.40009      2.31424        -0.000607     -0.010544      0.016832
     -0.00000      6.40009     10.06495         7.067697     -2.343613     -8.478262
      1.77020     10.27849      2.37372         0.003112     -0.002956     -0.005553
      1.77020     10.27849     10.12443         1.326447     -0.358562     -0.091070
      1.77020      3.18974      1.66157         0.001294      0.003171      0.005290
      1.77020      3.18974      9.41228         0.384857     -0.014212     -0.183130
      1.77020      5.55354      5.69975         0.000516      0.006001      0.086712
      2.47828      5.55354     13.45047        -0.572128      0.181623      0.277594
      1.77020      9.05319      4.34076         0.001977      0.008782      0.006982
     -1.06212      9.05319     12.09147        -1.092164      0.140514     -0.247637
      0.00000      4.22380      5.10944        -0.001242     -0.003348      0.043070
      0.70808      4.22380     12.86016        -0.705514      0.004998     -0.527408
     -0.00000      4.15582      2.74166        -0.000795     -0.003278     -0.021822
     -0.00000      4.15582     10.49237         0.851567     -0.018171      0.452413
      1.77020      1.31366      2.96438         0.002180     -0.020543      0.001612
      1.77020      1.31366     10.71510         0.563848      0.065606      0.366788
      1.77020      1.38163      5.33187        -0.006419     -0.012357     -0.023895
      2.47828      1.38163     13.08259        -0.773648      0.018205     -0.477934
      1.77020      6.77850      3.73234         0.002196      0.023955     -0.002509
     -1.06212      6.77850     11.48306        -6.642669      2.249570      8.374592
 -----------------------------------------------------------------------------------
    total drift:                                0.005756     -0.000131      0.002898


--------------------------------------------------------------------------------------------------------



  FREE ENERGIE OF THE ION-ELECTRON SYSTEM (eV)
  ---------------------------------------------------
  free  energy   TOTEN  =      -128.29720198 eV

  energy  without entropy=     -128.29720198  energy(sigma->0) =     -128.29720198
 


--------------------------------------------------------------------------------------------------------


    POTLOK:  cpu time   14.56: real time   14.56


--------------------------------------------------------------------------------------------------------


     LOOP+:  cpu time 2478.04: real time 2479.19
    4ORBIT:  cpu time    0.00: real time    0.00

 total amount of memory used by VASP on root node   146493. kBytes
========================================================================

   base      :      30000. kBytes
   nonlr-proj:       3452. kBytes
   fftplans  :       9347. kBytes
   grid      :      14649. kBytes
   one-center:         36. kBytes
   wavefun   :      89009. kBytes
 
  
  
 General timing and accounting informations for this job:
 ========================================================
  
                  Total CPU time used (sec):     2493.952
                            User time (sec):     2460.608
                          System time (sec):       33.344
                         Elapsed time (sec):     2496.955
  
                   Maximum memory used (kb):      335216.
                   Average memory used (kb):           0.
  
                          Minor page faults:      7851221
                          Major page faults:            9
                 Voluntary context switches:         1671
