   24   24    1    1
  0.4176334E+02  0.3540400E-09  0.1044544E-08  0.2750143E-08  0.5000000E-15
  1.000000000000000E-004
  CAR 
 unknown system                          
    108     54     68
 
  0.0000000E+00  0.0000000E+00  0.0000000E+00  0.9615385E-02
    1      -14.765396
    2      -13.561292
    3      -12.823966
    4      -12.799706
    5      -12.507121
    6      -12.211380
    7      -12.167696
    8      -12.082089
    9      -11.454096
   10      -11.319731
   11      -11.013198
   12      -10.024352
   13       -8.611046
   14       -8.054086
   15       -7.848592
   16       -7.488935
   17       -6.940196
   18       -6.846925
   19       -6.513285
   20       -6.425405
   21       -5.848551
   22       -5.637950
   23       -4.801149
   24       -4.648665
   25       -4.149025
   26       -3.843655
   27       -3.715851
   28       -3.575339
   29       -3.536549
   30       -3.344020
   31       -3.074835
   32       -2.974263
   33       -2.868199
   34       -2.675239
   35       -2.532343
   36       -2.477894
   37       -2.420565
   38       -2.402622
   39       -2.224474
   40       -2.038756
   41       -1.934292
   42       -1.880069
   43       -1.751749
   44       -1.689883
   45       -1.661023
   46       -1.604251
   47       -1.453077
   48       -1.369426
   49       -1.146030
   50       -1.030088
   51       -0.981525
   52       -0.403720
   53       -0.112157
   54        0.225414
   55        0.546080
   56        1.063826
   57        1.154208
   58        1.296193
   59        1.334377
   60        1.648596
   61        1.698136
   62        1.809056
   63        1.964435
   64        2.036001
   65        2.127564
   66        2.409385
   67        2.427308
   68        2.580003
 
  0.7692308E-01 -0.1387779E-16  0.0000000E+00  0.1923077E-01
    1      -14.709775
    2      -13.499934
    3      -12.771831
    4      -12.745191
    5      -12.451492
    6      -12.161087
    7      -12.108930
    8      -12.021517
    9      -11.405225
   10      -11.274445
   11      -10.964791
   12       -9.992428
   13       -8.585476
   14       -8.090989
   15       -7.811480
   16       -7.517098
   17       -6.902501
   18       -6.811646
   19       -6.507299
   20       -6.409707
   21       -5.814851
   22       -5.645796
   23       -4.827166
   24       -4.719911
   25       -4.249873
   26       -4.014667
   27       -3.760972
   28       -3.711602
   29       -3.570888
   30       -3.506058
   31       -3.352334
   32       -3.268356
   33       -3.077483
   34       -2.920889
   35       -2.759969
   36       -2.681769
   37       -2.498310
   38       -2.425776
   39       -2.286529
   40       -2.231142
   41       -2.199149
   42       -2.062499
   43       -1.989961
   44       -1.962289
   45       -1.850875
   46       -1.758392
   47       -1.534403
   48       -1.304459
   49       -1.109778
   50       -1.045531
   51       -0.943358
   52       -0.309127
   53       -0.117200
   54        0.220285
   55        0.761138
   56        0.940136
   57        1.454344
   58        1.560914
   59        1.688390
   60        1.753377
   61        2.030058
   62        2.114752
   63        2.207394
   64        2.261536
   65        2.320090
   66        2.462494
   67        2.594841
   68        2.748086
 
  0.1538462E+00 -0.2775558E-16  0.0000000E+00  0.1923077E-01
    1      -14.545258
    2      -13.316926
    3      -12.616139
    4      -12.583889
    5      -12.286626
    6      -12.013150
    7      -11.937869
    8      -11.843127
    9      -11.263449
   10      -11.144481
   11      -10.825896
   12       -9.906310
   13       -8.528659
   14       -8.187617
   15       -7.769269
   16       -7.627035
   17       -6.833701
   18       -6.734242
   19       -6.519057
   20       -6.387646
   21       -5.772737
   22       -5.734939
   23       -5.175452
   24       -4.888297
   25       -4.500852
   26       -4.238702
   27       -4.108314
   28       -4.091003
   29       -3.992027
   30       -3.826962
   31       -3.760680
   32       -3.656584
   33       -3.442920
   34       -3.327986
   35       -3.174382
   36       -3.100608
   37       -2.991347
   38       -2.981636
   39       -2.754044
   40       -2.676277
   41       -2.407617
   42       -2.273005
   43       -2.211582
   44       -2.154537
   45       -1.948703
   46       -1.787208
   47       -1.675964
   48       -1.303693
   49       -1.188863
   50       -1.110378
   51       -0.948077
   52       -0.331556
   53       -0.016302
   54        0.252242
   55        0.502420
   56        1.100809
   57        1.516305
   58        1.688596
   59        1.916307
   60        1.960980
   61        2.235420
   62        2.407150
   63        2.589822
   64        2.648958
   65        2.811452
   66        2.874505
   67        2.951500
   68        3.030746
 
  0.2307692E+00 -0.4163336E-16  0.0000000E+00  0.1923077E-01
    1      -14.280203
    2      -13.015844
    3      -12.359976
    4      -12.324186
    5      -12.019725
    6      -11.782471
    7      -11.668210
    8      -11.559701
    9      -11.046977
   10      -10.951838
   11      -10.622636
   12       -9.799793
   13       -8.552353
   14       -8.379292
   15       -7.843204
   16       -7.806437
   17       -6.907093
   18       -6.713347
   19       -6.652934
   20       -6.440392
   21       -6.077623
   22       -5.760793
   23       -5.454965
   24       -5.358596
   25       -4.896274
   26       -4.825176
   27       -4.626943
   28       -4.536863
   29       -4.462634
   30       -4.214162
   31       -4.164337
   32       -4.040586
   33       -3.804975
   34       -3.658886
   35       -3.490717
   36       -3.455891
   37       -3.230263
   38       -3.046059
   39       -2.960647
   40       -2.740052
   41       -2.577494
   42       -2.464860
   43       -2.351587
   44       -2.308461
   45       -1.932108
   46       -1.850611
   47       -1.759483
   48       -1.500677
   49       -1.431885
   50       -1.169150
   51       -1.100192
   52       -0.722317
   53       -0.284942
   54        0.089692
   55        0.281051
   56        1.146467
   57        1.363725
   58        1.728660
   59        1.864999
   60        1.972866
   61        2.108631
   62        2.232072
   63        2.362717
   64        2.475641
   65        2.653398
   66        2.851021
   67        2.925391
   68        2.943448
 
  0.3076923E+00 -0.5551115E-16  0.0000000E+00  0.1923077E-01
    1      -13.934201
    2      -12.603988
    3      -12.011925
    4      -11.989262
    5      -11.667745
    6      -11.511869
    7      -11.322424
    8      -11.204636
    9      -10.803250
   10      -10.748962
   11      -10.436434
   12       -9.738046
   13       -8.837557
   14       -8.674594
   15       -8.103912
   16       -7.818287
   17       -7.243967
   18       -7.014852
   19       -6.921117
   20       -6.751042
   21       -6.446332
   22       -6.187982
   23       -5.981416
   24       -5.789861
   25       -5.235457
   26       -5.090750
   27       -4.870381
   28       -4.815800
   29       -4.721306
   30       -4.494913
   31       -4.329793
   32       -4.236567
   33       -4.128872
   34       -3.630595
   35       -3.458156
   36       -3.398821
   37       -3.191053
   38       -3.103444
   39       -3.011506
   40       -2.863271
   41       -2.689548
   42       -2.648900
   43       -2.502724
   44       -2.356487
   45       -2.080992
   46       -1.915760
   47       -1.906230
   48       -1.767619
   49       -1.722397
   50       -1.421612
   51       -1.324273
   52       -0.968102
   53       -0.645032
   54       -0.132699
   55       -0.023058
   56        0.957346
   57        1.229641
   58        1.533748
   59        1.571219
   60        1.777627
   61        1.966460
   62        2.096105
   63        2.213133
   64        2.342461
   65        2.397837
   66        2.628422
   67        2.685106
   68        2.823826
 
  0.3846154E+00 -0.8326673E-16  0.0000000E+00  0.1923077E-01
    1      -13.554257
    2      -12.095552
    3      -11.666960
    4      -11.592605
    5      -11.285243
    6      -11.257744
    7      -10.944331
    8      -10.862646
    9      -10.649256
   10      -10.625205
   11      -10.476160
   12       -9.755665
   13       -9.158757
   14       -8.851389
   15       -8.396479
   16       -7.766540
   17       -7.567723
   18       -7.480011
   19       -7.431827
   20       -7.239011
   21       -6.868210
   22       -6.783647
   23       -6.676958
   24       -6.340891
   25       -5.235951
   26       -5.054060
   27       -4.773978
   28       -4.676767
   29       -4.546414
   30       -4.437002
   31       -4.251866
   32       -4.109003
   33       -4.076593
   34       -3.679618
   35       -3.641754
   36       -3.456290
   37       -3.291921
   38       -3.212398
   39       -3.159161
   40       -3.027486
   41       -2.824170
   42       -2.666611
   43       -2.496578
   44       -2.393958
   45       -2.285479
   46       -2.113095
   47       -2.052533
   48       -1.991713
   49       -1.855092
   50       -1.727492
   51       -1.425167
   52       -1.143723
   53       -0.852088
   54       -0.429657
   55       -0.224044
   56        0.687172
   57        1.028382
   58        1.368560
   59        1.436755
   60        1.680083
   61        1.720039
   62        2.006559
   63        2.088285
   64        2.201470
   65        2.278542
   66        2.315649
   67        2.623607
   68        2.777439
 
  0.4615385E+00 -0.8326673E-16  0.0000000E+00  0.1923077E-01
    1      -13.260544
    2      -11.587833
    3      -11.521021
    4      -11.170610
    5      -11.012737
    6      -10.961670
    7      -10.865826
    8      -10.752198
    9      -10.678262
   10      -10.653819
   11      -10.608151
   12       -9.769424
   13       -9.358936
   14       -8.710330
   15       -8.458694
   16       -8.100268
   17       -7.874603
   18       -7.769687
   19       -7.588084
   20       -7.376341
   21       -7.303498
   22       -7.206134
   23       -7.117619
   24       -6.795800
   25       -4.953007
   26       -4.917843
   27       -4.603613
   28       -4.524665
   29       -4.365796
   30       -4.245821
   31       -4.075701
   32       -3.973060
   33       -3.916484
   34       -3.853860
   35       -3.707921
   36       -3.634312
   37       -3.555081
   38       -3.380778
   39       -3.277738
   40       -3.117200
   41       -3.020735
   42       -2.763585
   43       -2.679657
   44       -2.384514
   45       -2.332096
   46       -2.206446
   47       -2.135517
   48       -2.090460
   49       -1.838478
   50       -1.705706
   51       -1.529878
   52       -1.202224
   53       -0.927919
   54       -0.737125
   55       -0.252866
   56        0.461431
   57        0.844059
   58        1.342054
   59        1.397375
   60        1.551681
   61        1.647202
   62        1.828613
   63        1.946395
   64        2.061411
   65        2.227808
   66        2.376222
   67        2.490093
   68        2.681174
 
  0.0000000E+00  0.2500000E+00  0.0000000E+00  0.1923077E-01
    1      -14.762846
    2      -13.505620
    3      -12.997762
    4      -12.850728
    5      -12.505709
    6      -12.206875
    7      -12.067472
    8      -11.887752
    9      -11.499170
   10      -11.352372
   11      -11.021542
   12       -9.982123
   13       -8.693322
   14       -8.536202
   15       -7.694068
   16       -7.402360
   17       -6.743510
   18       -6.687474
   19       -6.614756
   20       -6.366652
   21       -5.771289
   22       -5.537549
   23       -4.693275
   24       -4.540797
   25       -4.122603
   26       -4.031852
   27       -3.836201
   28       -3.757858
   29       -3.485114
   30       -3.347360
   31       -3.147875
   32       -3.087708
   33       -2.892906
   34       -2.732080
   35       -2.567449
   36       -2.414373
   37       -2.401149
   38       -2.330337
   39       -2.280644
   40       -2.161838
   41       -2.013620
   42       -1.943915
   43       -1.897496
   44       -1.719553
   45       -1.647211
   46       -1.516672
   47       -1.384608
   48       -1.317069
   49       -1.150124
   50       -1.009133
   51       -0.966319
   52       -0.231479
   53       -0.077936
   54        0.288083
   55        0.664599
   56        1.102203
   57        1.180863
   58        1.331557
   59        1.406051
   60        1.623757
   61        1.729624
   62        1.807312
   63        1.895871
   64        2.089454
   65        2.237612
   66        2.456166
   67        2.546669
   68        2.627555
 
  0.7692308E-01  0.2500000E+00  0.0000000E+00  0.1923077E-01
    1      -14.706734
    2      -13.428633
    3      -12.978754
    4      -12.805858
    5      -12.448593
    6      -12.149662
    7      -11.999236
    8      -11.788970
    9      -11.457772
   10      -11.313460
   11      -10.977127
   12       -9.944746
   13       -8.669127
   14       -8.593682
   15       -7.758275
   16       -7.353322
   17       -6.717021
   18       -6.694098
   19       -6.546043
   20       -6.259589
   21       -5.723169
   22       -5.554327
   23       -4.771827
   24       -4.668587
   25       -4.249735
   26       -4.121906
   27       -4.005747
   28       -3.761130
   29       -3.630807
   30       -3.465725
   31       -3.402161
   32       -3.162858
   33       -3.050735
   34       -3.022253
   35       -2.800540
   36       -2.721266
   37       -2.530457
   38       -2.441349
   39       -2.409369
   40       -2.310332
   41       -2.210156
   42       -2.152142
   43       -2.033367
   44       -1.929977
   45       -1.851434
   46       -1.771674
   47       -1.455578
   48       -1.287986
   49       -1.103139
   50       -0.986847
   51       -0.931452
   52       -0.208559
   53       -0.074318
   54        0.283725
   55        0.833977
   56        1.026434
   57        1.397969
   58        1.582253
   59        1.763618
   60        1.886358
   61        1.917948
   62        2.062872
   63        2.214488
   64        2.326966
   65        2.491933
   66        2.522417
   67        2.638555
   68        2.880323
 
  0.1538462E+00  0.2500000E+00  0.0000000E+00  0.1923077E-01
    1      -14.541976
    2      -13.231901
    3      -12.842378
    4      -12.650372
    5      -12.282143
    6      -11.986621
    7      -11.836393
    8      -11.591774
    9      -11.318268
   10      -11.186746
   11      -10.835784
   12       -9.865050
   13       -8.663517
   14       -8.579360
   15       -7.848933
   16       -7.322378
   17       -6.720819
   18       -6.676903
   19       -6.518314
   20       -6.149029
   21       -5.771220
   22       -5.671407
   23       -5.133175
   24       -4.858767
   25       -4.544888
   26       -4.401480
   27       -4.315337
   28       -4.167528
   29       -4.006306
   30       -3.805185
   31       -3.723696
   32       -3.599262
   33       -3.401164
   34       -3.295808
   35       -3.094106
   36       -3.071192
   37       -2.984726
   38       -2.844938
   39       -2.753931
   40       -2.698470
   41       -2.624050
   42       -2.432040
   43       -2.321269
   44       -2.112862
   45       -1.972323
   46       -1.903832
   47       -1.526450
   48       -1.359937
   49       -1.164315
   50       -1.043564
   51       -0.928686
   52       -0.331440
   53       -0.041430
   54        0.259317
   55        0.610056
   56        1.114541
   57        1.379268
   58        1.650025
   59        1.773279
   60        2.035853
   61        2.106726
   62        2.316855
   63        2.584616
   64        2.724288
   65        2.848203
   66        2.985674
   67        3.045708
   68        3.102632
 
  0.2307692E+00  0.2500000E+00  0.0000000E+00  0.1923077E-01
    1      -14.277036
    2      -12.920277
    3      -12.591176
    4      -12.392334
    5      -12.014193
    6      -11.727822
    7      -11.597486
    8      -11.315805
    9      -11.096415
   10      -10.993034
   11      -10.618381
   12       -9.777091
   13       -8.793218
   14       -8.553966
   15       -7.957360
   16       -7.410499
   17       -6.905821
   18       -6.716022
   19       -6.666635
   20       -6.279355
   21       -6.070133
   22       -5.843455
   23       -5.456101
   24       -5.226598
   25       -5.051690
   26       -4.835485
   27       -4.687515
   28       -4.576925
   29       -4.486343
   30       -4.337078
   31       -4.096473
   32       -4.025617
   33       -3.765094
   34       -3.579181
   35       -3.329551
   36       -3.233919
   37       -3.187432
   38       -3.112984
   39       -2.944479
   40       -2.713559
   41       -2.613674
   42       -2.551648
   43       -2.389927
   44       -2.257193
   45       -2.011895
   46       -1.932712
   47       -1.794936
   48       -1.507539
   49       -1.410601
   50       -1.166804
   51       -1.076995
   52       -0.746455
   53       -0.297836
   54        0.043762
   55        0.086472
   56        1.028465
   57        1.300510
   58        1.451995
   59        1.574732
   60        1.778815
   61        2.020664
   62        2.209366
   63        2.483795
   64        2.603371
   65        2.691024
   66        2.945173
   67        3.026300
   68        3.160229
 
  0.3076923E+00  0.2500000E+00  0.0000000E+00  0.1923077E-01
    1      -13.931535
    2      -12.503297
    3      -12.232344
    4      -12.053540
    5      -11.662335
    6      -11.411879
    7      -11.316579
    8      -11.003004
    9      -10.832669
   10      -10.778835
   11      -10.412734
   12       -9.736408
   13       -8.991804
   14       -8.823865
   15       -7.852928
   16       -7.725613
   17       -7.292261
   18       -7.134955
   19       -6.981185
   20       -6.716594
   21       -6.387770
   22       -6.214740
   23       -5.944651
   24       -5.916827
   25       -5.403623
   26       -5.067033
   27       -4.961253
   28       -4.780093
   29       -4.547514
   30       -4.434638
   31       -4.350015
   32       -4.210807
   33       -4.033927
   34       -3.637584
   35       -3.363961
   36       -3.271509
   37       -3.148445
   38       -3.022660
   39       -2.935173
   40       -2.887810
   41       -2.642989
   42       -2.540026
   43       -2.445750
   44       -2.378536
   45       -2.269233
   46       -1.987004
   47       -1.919775
   48       -1.774277
   49       -1.738692
   50       -1.429910
   51       -1.330093
   52       -1.001722
   53       -0.673365
   54       -0.399861
   55       -0.185439
   56        0.735287
   57        1.148100
   58        1.208602
   59        1.295657
   60        1.546236
   61        1.908219
   62        2.148209
   63        2.286641
   64        2.422603
   65        2.516931
   66        2.601059
   67        2.832724
   68        2.952120
 
  0.3846154E+00  0.2500000E+00  0.0000000E+00  0.1923077E-01
    1      -13.552584
    2      -11.999578
    3      -11.782587
    4      -11.708547
    5      -11.266655
    6      -11.202387
    7      -10.974203
    8      -10.746284
    9      -10.622474
   10      -10.615018
   11      -10.489046
   12       -9.759201
   13       -9.143873
   14       -8.981585
   15       -8.131002
   16       -7.802568
   17       -7.745260
   18       -7.653900
   19       -7.375660
   20       -7.112217
   21       -6.864455
   22       -6.712883
   23       -6.682889
   24       -6.495086
   25       -5.367084
   26       -5.093702
   27       -4.809937
   28       -4.716882
   29       -4.533038
   30       -4.422686
   31       -4.140298
   32       -4.053542
   33       -3.881119
   34       -3.621748
   35       -3.393941
   36       -3.375806
   37       -3.300061
   38       -3.179429
   39       -3.151455
   40       -2.996693
   41       -2.933834
   42       -2.757192
   43       -2.556888
   44       -2.339539
   45       -2.283128
   46       -2.114908
   47       -2.084204
   48       -1.925934
   49       -1.851053
   50       -1.626917
   51       -1.480936
   52       -1.287925
   53       -0.841825
   54       -0.734644
   55       -0.292308
   56        0.549678
   57        0.910969
   58        1.169983
   59        1.318988
   60        1.423766
   61        1.791187
   62        1.944396
   63        2.020141
   64        2.144228
   65        2.287496
   66        2.556488
   67        2.627487
   68        2.776497
 
  0.4615385E+00  0.2500000E+00  0.0000000E+00  0.1923077E-01
    1      -13.260091
    2      -11.591414
    3      -11.449333
    4      -11.287750
    5      -11.012673
    6      -10.975017
    7      -10.885997
    8      -10.723629
    9      -10.692807
   10      -10.599658
   11      -10.587020
   12       -9.773704
   13       -9.345197
   14       -8.576437
   15       -8.420764
   16       -8.347639
   17       -7.904203
   18       -7.811317
   19       -7.533629
   20       -7.336633
   21       -7.303724
   22       -7.166164
   23       -7.083240
   24       -6.834368
   25       -5.043210
   26       -4.937290
   27       -4.612842
   28       -4.491105
   29       -4.370581
   30       -4.209211
   31       -4.157383
   32       -3.965570
   33       -3.927704
   34       -3.747297
   35       -3.686034
   36       -3.594178
   37       -3.513400
   38       -3.327168
   39       -3.274851
   40       -3.125011
   41       -3.008678
   42       -2.742265
   43       -2.642711
   44       -2.597677
   45       -2.296956
   46       -2.150797
   47       -2.113283
   48       -2.056828
   49       -1.776455
   50       -1.700114
   51       -1.556103
   52       -1.321765
   53       -0.938235
   54       -0.778854
   55       -0.298259
   56        0.488229
   57        0.876216
   58        1.340233
   59        1.409556
   60        1.496425
   61        1.543290
   62        1.750487
   63        1.989660
   64        2.081518
   65        2.196872
   66        2.400777
   67        2.451224
   68        2.586334
 
 -0.4615385E+00  0.2500000E+00  0.0000000E+00  0.1923077E-01
    1      -13.261041
    2      -11.587653
    3      -11.554351
    4      -11.094335
    5      -11.000477
    6      -10.948224
    7      -10.830577
    8      -10.776633
    9      -10.726865
   10      -10.682805
   11      -10.614265
   12       -9.765114
   13       -9.365237
   14       -8.778704
   15       -8.452584
   16       -7.965890
   17       -7.889265
   18       -7.751475
   19       -7.621478
   20       -7.504185
   21       -7.301500
   22       -7.241110
   23       -7.070857
   24       -6.640974
   25       -4.907076
   26       -4.758026
   27       -4.602400
   28       -4.570305
   29       -4.394774
   30       -4.285197
   31       -4.227725
   32       -4.029267
   33       -4.011371
   34       -3.908870
   35       -3.806552
   36       -3.672040
   37       -3.521872
   38       -3.386135
   39       -3.298028
   40       -3.104876
   41       -2.830695
   42       -2.732231
   43       -2.679145
   44       -2.408535
   45       -2.323084
   46       -2.196296
   47       -2.151713
   48       -2.049854
   49       -1.898124
   50       -1.689721
   51       -1.510365
   52       -1.212894
   53       -0.890162
   54       -0.606898
   55       -0.285371
   56        0.626645
   57        1.021338
   58        1.335162
   59        1.367795
   60        1.629497
   61        1.745679
   62        1.766728
   63        2.046419
   64        2.139797
   65        2.230497
   66        2.330737
   67        2.381968
   68        2.571140
 
 -0.3846154E+00  0.2500000E+00  0.0000000E+00  0.1923077E-01
    1      -13.555120
    2      -12.122252
    3      -11.645402
    4      -11.508293
    5      -11.301967
    6      -11.260164
    7      -10.974809
    8      -10.922804
    9      -10.652518
   10      -10.617689
   11      -10.471581
   12       -9.728422
   13       -9.198801
   14       -8.763347
   15       -8.510130
   16       -7.775601
   17       -7.596374
   18       -7.456427
   19       -7.349925
   20       -7.227268
   21       -6.835727
   22       -6.825668
   23       -6.680773
   24       -6.243528
   25       -5.088656
   26       -5.051480
   27       -4.868736
   28       -4.831984
   29       -4.437988
   30       -4.382719
   31       -4.277135
   32       -4.145820
   33       -4.087101
   34       -3.801433
   35       -3.744552
   36       -3.523364
   37       -3.428352
   38       -3.265135
   39       -3.183956
   40       -2.927640
   41       -2.784561
   42       -2.640750
   43       -2.496190
   44       -2.398969
   45       -2.259021
   46       -2.104611
   47       -1.989016
   48       -1.957188
   49       -1.855954
   50       -1.793819
   51       -1.406254
   52       -1.057287
   53       -0.706209
   54       -0.383599
   55       -0.202216
   56        0.874049
   57        1.122361
   58        1.345423
   59        1.469470
   60        1.762995
   61        1.876948
   62        2.009859
   63        2.106947
   64        2.180988
   65        2.255888
   66        2.341703
   67        2.436851
   68        2.594269
 
 -0.3076923E+00  0.2500000E+00  0.0000000E+00  0.1923077E-01
    1      -13.934762
    2      -12.616350
    3      -11.975174
    4      -11.969841
    5      -11.667304
    6      -11.524261
    7      -11.338739
    8      -11.246226
    9      -10.795057
   10      -10.741409
   11      -10.442582
   12       -9.723063
   13       -8.883826
   14       -8.575466
   15       -8.206831
   16       -7.727043
   17       -7.317803
   18       -7.020454
   19       -6.890896
   20       -6.763138
   21       -6.407959
   22       -6.180595
   23       -5.990625
   24       -5.721483
   25       -5.174376
   26       -5.107193
   27       -4.945903
   28       -4.897141
   29       -4.666913
   30       -4.450365
   31       -4.327540
   32       -4.262305
   33       -4.123769
   34       -3.769835
   35       -3.490442
   36       -3.426587
   37       -3.174182
   38       -3.104397
   39       -3.039662
   40       -2.848963
   41       -2.710222
   42       -2.636743
   43       -2.524094
   44       -2.325834
   45       -2.046332
   46       -1.901658
   47       -1.891350
   48       -1.782951
   49       -1.706938
   50       -1.460695
   51       -1.306211
   52       -0.859074
   53       -0.482971
   54       -0.203265
   55        0.007851
   56        0.987689
   57        1.200935
   58        1.609230
   59        1.650460
   60        1.914791
   61        1.960403
   62        2.006355
   63        2.223816
   64        2.301102
   65        2.372453
   66        2.521103
   67        2.654820
   68        2.742733
 
 -0.2307692E+00  0.2500000E+00  0.0000000E+00  0.1923077E-01
    1      -14.280067
    2      -13.011589
    3      -12.374539
    4      -12.328301
    5      -12.019767
    6      -11.777031
    7      -11.665387
    8      -11.544210
    9      -11.050700
   10      -10.953591
   11      -10.621194
   12       -9.794930
   13       -8.602297
   14       -8.419249
   15       -7.801810
   16       -7.675170
   17       -7.047951
   18       -6.720409
   19       -6.656166
   20       -6.485408
   21       -5.957738
   22       -5.762176
   23       -5.389538
   24       -5.349940
   25       -4.906075
   26       -4.843451
   27       -4.617741
   28       -4.546489
   29       -4.504455
   30       -4.220152
   31       -4.162469
   32       -4.122672
   33       -3.810249
   34       -3.686321
   35       -3.468403
   36       -3.420696
   37       -3.204847
   38       -3.024480
   39       -2.881661
   40       -2.744554
   41       -2.612721
   42       -2.539049
   43       -2.447251
   44       -2.237541
   45       -1.924725
   46       -1.855660
   47       -1.768915
   48       -1.497864
   49       -1.455784
   50       -1.122598
   51       -1.055366
   52       -0.588145
   53       -0.246633
   54        0.009018
   55        0.281414
   56        0.986935
   57        1.353949
   58        1.709443
   59        1.819034
   60        1.968146
   61        2.065184
   62        2.223478
   63        2.357864
   64        2.605266
   65        2.689501
   66        2.805074
   67        2.893343
   68        2.957274
 
 -0.1538462E+00  0.2500000E+00  0.0000000E+00  0.1923077E-01
    1      -14.544273
    2      -13.295333
    3      -12.689672
    4      -12.605955
    5      -12.286667
    6      -12.005496
    7      -11.899969
    8      -11.762675
    9      -11.282841
   10      -11.157521
   11      -10.823703
   12       -9.893101
   13       -8.577899
   14       -8.399052
   15       -7.597347
   16       -7.551810
   17       -6.867152
   18       -6.702285
   19       -6.572380
   20       -6.418618
   21       -5.716287
   22       -5.611818
   23       -5.165459
   24       -4.863472
   25       -4.472282
   26       -4.302395
   27       -4.187718
   28       -4.101859
   29       -3.970561
   30       -3.860140
   31       -3.789034
   32       -3.716949
   33       -3.480324
   34       -3.298757
   35       -3.166434
   36       -3.037967
   37       -2.937205
   38       -2.913537
   39       -2.786311
   40       -2.656607
   41       -2.522134
   42       -2.368513
   43       -2.230308
   44       -2.140326
   45       -1.945283
   46       -1.795669
   47       -1.636808
   48       -1.373705
   49       -1.212439
   50       -0.984239
   51       -0.912467
   52       -0.207227
   53       -0.003257
   54        0.311161
   55        0.394456
   56        1.004125
   57        1.369719
   58        1.711552
   59        1.815489
   60        2.053712
   61        2.184090
   62        2.432821
   63        2.638230
   64        2.725400
   65        2.776458
   66        2.866163
   67        2.994007
   68        3.126450
 
 -0.7692308E-01  0.2500000E+00  0.0000000E+00  0.1923077E-01
    1      -14.707958
    2      -13.461027
    3      -12.900126
    4      -12.783149
    5      -12.451081