 running on    8 total cores
 distrk:  each k-point on    8 cores,    1 groups
 distr:  one band on    2 cores,    4 groups
 using from now: INCAR     
 vasp.5.3.5 31Mar14 (build Oct 29 2014 16:16:03) complex                        
  
 POSCAR found type information on POSCAR  P  Si
 POSCAR found :  2 types and      24 ions
 scaLAPACK will be used

 ----------------------------------------------------------------------------- 
|                                                                             |
|  ADVICE TO THIS USER RUNNING 'VASP/VAMP'   (HEAR YOUR MASTER'S VOICE ...):  |
|                                                                             |
|      You have switched on vdW-DFT.                                          |
|      This routine was written and supplied by Jiri Klimes.                  |
|      We recommed that you carefully read and cite the following             |
|      publication                                                            |
|      J. Klimes, D.R. Bowler, A. Michelides                                  |
|        J. Phys.: Cond Matt. 22 022201 (2010)                                |
|      J. Klimes, D.R. Bowler, A. Michelides                                  |
|        Phys. Rev. B. 83, 195131 (2011)                                      |
|      and references therein.                                                |
|                                                                             |
 ----------------------------------------------------------------------------- 


 ----------------------------------------------------------------------------- 
|                                                                             |
|  ADVICE TO THIS USER RUNNING 'VASP/VAMP'   (HEAR YOUR MASTER'S VOICE ...):  |
|                                                                             |
|      You enforced a specific xc-type in the INCAR file,                     |
|      a different type was found on the POTCAR file                          |
|          I HOPE YOU KNOW, WHAT YOU ARE  DOING                               |
|                                                                             |
 ----------------------------------------------------------------------------- 

 LDA part: xc-table for Pade appr. of Perdew


 VERY BAD NEWS! internal error in subroutine IBZKPT:
 Reciprocal lattice and k-lattice belong to different class of lattices. Often results are still useful...      96


 VERY BAD NEWS! internal error in subroutine IBZKPT:
 Reciprocal lattice and k-lattice belong to different class of lattices. Often results are still useful...      96


 VERY BAD NEWS! internal error in subroutine IBZKPT:
 Reciprocal lattice and k-lattice belong to different class of lattices. Often results are still useful...      96


 VERY BAD NEWS! internal error in subroutine IBZKPT:
 Reciprocal lattice and k-lattice belong to different class of lattices. Often results are still useful...      96


 VERY BAD NEWS! internal error in subroutine IBZKPT:
 Reciprocal lattice and k-lattice belong to different class of lattices. Often results are still useful...      96


 VERY BAD NEWS! internal error in subroutine IBZKPT:
 Reciprocal lattice and k-lattice belong to different class of lattices. Often results are still useful...      96


 VERY BAD NEWS! internal error in subroutine IBZKPT:
 Reciprocal lattice and k-lattice belong to different class of lattices. Often results are still useful...      96


 VERY BAD NEWS! internal error in subroutine IBZKPT:
 Reciprocal lattice and k-lattice belong to different class of lattices. Often results are still useful...      96
 POSCAR, INCAR and KPOINTS ok, starting setup
 WARNING: small aliasing (wrap around) errors must be expected
 FFT: planning ...
 WAVECAR not read
 entering main loop
       N       E                     dE             d eps       ncg     rms          rms(c)
Total vdW correction in eV:     15.9144736
DAV:   1     0.490611599938E+03    0.49061E+03   -0.28657E+04  7368   0.790E+02
DAV:   2    -0.666450006814E+02   -0.55726E+03   -0.54202E+03  9740   0.189E+02
DAV:   3    -0.122454099876E+03   -0.55809E+02   -0.55029E+02  8776   0.620E+01
DAV:   4    -0.125017004164E+03   -0.25629E+01   -0.25451E+01 10952   0.141E+01
DAV:   5    -0.125077479679E+03   -0.60476E-01   -0.60408E-01 10008   0.213E+00    0.104E+01
Total vdW correction in eV:     16.3034710
DAV:   6    -0.122476759533E+03    0.26007E+01   -0.91487E+00  8792   0.736E+00    0.568E+00
Total vdW correction in eV:     16.7086749
DAV:   7    -0.122260938194E+03    0.21582E+00   -0.45771E+00  8720   0.545E+00    0.247E+00
Total vdW correction in eV:     16.9129612
DAV:   8    -0.122279421818E+03   -0.18484E-01   -0.10395E+00  9224   0.279E+00    0.105E+00
Total vdW correction in eV:     16.9873765
DAV:   9    -0.122255208927E+03    0.24213E-01   -0.15869E-01  9000   0.129E+00    0.490E-01
Total vdW correction in eV:     17.0320184
DAV:  10    -0.122236824876E+03    0.18384E-01   -0.46876E-02  8752   0.634E-01    0.156E-01
Total vdW correction in eV:     17.0431081
DAV:  11    -0.122231039863E+03    0.57850E-02   -0.70797E-03  9000   0.272E-01    0.799E-02
Total vdW correction in eV:     17.0503808
DAV:  12    -0.122224953056E+03    0.60868E-02   -0.19979E-03  9192   0.122E-01    0.408E-02
Total vdW correction in eV:     17.0551004
DAV:  13    -0.122221862396E+03    0.30907E-02   -0.32849E-04  9136   0.575E-02    0.200E-02
Total vdW correction in eV:     17.0597939
DAV:  14    -0.122219996231E+03    0.18662E-02   -0.13348E-04  9264   0.319E-02    0.108E-02
Total vdW correction in eV:     17.0633702
DAV:  15    -0.122219599181E+03    0.39705E-03   -0.59197E-05  8528   0.222E-02    0.654E-03
Total vdW correction in eV:     17.0655743
DAV:  16    -0.122220100945E+03   -0.50176E-03   -0.95355E-05  8152   0.214E-02    0.381E-03
Total vdW correction in eV:     17.0661816
DAV:  17    -0.122220423375E+03   -0.32243E-03   -0.15228E-04  7728   0.205E-02    0.204E-03
Total vdW correction in eV:     17.0659269
DAV:  18    -0.122220533754E+03   -0.11038E-03   -0.49491E-05  7488   0.128E-02    0.135E-03
Total vdW correction in eV:     17.0657192
DAV:  19    -0.122220562337E+03   -0.28583E-04   -0.75847E-06  6160   0.664E-03    0.871E-04
Total vdW correction in eV:     17.0654813
DAV:  20    -0.122220573070E+03   -0.10733E-04   -0.37445E-05  7296   0.101E-02    0.626E-04
Total vdW correction in eV:     17.0653788
DAV:  21    -0.122220551565E+03    0.21505E-04   -0.15165E-05  6344   0.100E-02    0.337E-04
Total vdW correction in eV:     17.0653363
DAV:  22    -0.122220466257E+03    0.85308E-04   -0.19772E-05  6832   0.861E-03    0.182E-04
Total vdW correction in eV:     17.0653352
DAV:  23    -0.122220461435E+03    0.48223E-05   -0.10300E-05  6136   0.854E-03    0.108E-04
Total vdW correction in eV:     17.0653340
DAV:  24    -0.122220433468E+03    0.27967E-04   -0.82500E-06  6888   0.770E-03    0.475E-05
Total vdW correction in eV:     17.0653362
DAV:  25    -0.122220431220E+03    0.22486E-05   -0.39320E-06  5808   0.585E-03    0.269E-05
Total vdW correction in eV:     17.0653354
DAV:  26    -0.122220427219E+03    0.40009E-05   -0.13230E-06  5376   0.451E-03    0.130E-05
Total vdW correction in eV:     17.0653356
DAV:  27    -0.122220426788E+03    0.43074E-06   -0.11730E-06  5992   0.387E-03
Total vdW correction in eV:     17.0653360
Total vdW correction in eV:     17.0653361
   1 F= -.12222043E+03 E0= -.12221045E+03  d E =-.199579E-01
