 vasp.5.3.5 31Mar14 (build Oct 29 2014 16:16:03) complex                        
  
 executed on          Linux-UFHPC date 2016.02.09  18:50:07
 running on    8 total cores
 distrk:  each k-point on    8 cores,    1 groups
 distr:  one band on NCORES_PER_BAND=   2 cores,    4 groups


--------------------------------------------------------------------------------------------------------


 INCAR:
 POTCAR:    PAW_PBE P 17Jan2003                   
 POTCAR:   PAW_PBE Si 05Jan2001                   

 ----------------------------------------------------------------------------- 
|                                                                             |
|  ADVICE TO THIS USER RUNNING 'VASP/VAMP'   (HEAR YOUR MASTER'S VOICE ...):  |
|                                                                             |
|      You have switched on vdW-DFT.                                          |
|      This routine was written and supplied by Jiri Klimes.                  |
|      We recommed that you carefully read and cite the following             |
|      publication                                                            |
|      J. Klimes, D.R. Bowler, A. Michelides                                  |
|        J. Phys.: Cond Matt. 22 022201 (2010)                                |
|      J. Klimes, D.R. Bowler, A. Michelides                                  |
|        Phys. Rev. B. 83, 195131 (2011)                                      |
|      and references therein.                                                |
|                                                                             |
 ----------------------------------------------------------------------------- 

 POTCAR:    PAW_PBE P 17Jan2003                   
   VRHFIN =P : s2p3                                                             
   LEXCH  = PE                                                                  
   EATOM  =   176.0430 eV,   12.9388 Ry                                         
                                                                                
   TITEL  = PAW_PBE P 17Jan2003                                                 
   LULTRA =        F    use ultrasoft PP ?                                      
   IUNSCR =        1    unscreen: 0-lin 1-nonlin 2-no                           
   RPACOR =    1.500    partial core radius                                     
   POMASS =   30.974; ZVAL   =    5.000    mass and valenz                      
   RCORE  =    1.900    outmost cutoff radius                                   
   RWIGS  =    2.330; RWIGS  =    1.233    wigner-seitz radius (au A)           
   ENMAX  =  270.000; ENMIN  =  191.280 eV                                      
   ICORE  =        2    local potential                                         
   LCOR   =        T    correct aug charges                                     
   LPAW   =        T    paw PP                                                  
   EAUG   =  342.924                                                            
   DEXC   =    -.002                                                            
   RMAX   =    2.887    core radius for proj-oper                               
   RAUG   =    1.300    factor for augmentation sphere                          
   RDEP   =    1.931    radius for radial grids                                 
   QCUT   =   -4.330; QGAM   =    8.659    optimization parameters              
                                                                                
   Description                                                                  
     l     E      TYP  RCUT    TYP  RCUT                                        
     0   .000     23  1.900                                                     
     0   .000     23  1.900                                                     
     1   .000     23  1.900                                                     
     1   .000     23  1.900                                                     
     2   .000     23  1.900                                                     
  local pseudopotential read in
  partial core-charges read in
  atomic valenz-charges read in
  non local Contribution for L=           0  read in
    real space projection operators read in
  non local Contribution for L=           0  read in
    real space projection operators read in
  non local Contribution for L=           1  read in
    real space projection operators read in
  non local Contribution for L=           1  read in
    real space projection operators read in
    PAW grid and wavefunctions read in
 
   number of l-projection  operators is LMAX  =           4
   number of lm-projection operators is LMMAX =           8
 
 POTCAR:   PAW_PBE Si 05Jan2001                   
   VRHFIN =Si: s2p2                                                             
   LEXCH  = PE                                                                  
   EATOM  =   103.0669 eV,    7.5752 Ry                                         
                                                                                
   TITEL  = PAW_PBE Si 05Jan2001                                                
   LULTRA =        F    use ultrasoft PP ?                                      
   IUNSCR =        1    unscreen: 0-lin 1-nonlin 2-no                           
   RPACOR =    1.500    partial core radius                                     
   POMASS =   28.085; ZVAL   =    4.000    mass and valenz                      
   RCORE  =    1.900    outmost cutoff radius                                   
   RWIGS  =    2.480; RWIGS  =    1.312    wigner-seitz radius (au A)           
   ENMAX  =  245.345; ENMIN  =  184.009 eV                                      
   ICORE  =        2    local potential                                         
   LCOR   =        T    correct aug charges                                     
   LPAW   =        T    paw PP                                                  
   EAUG   =  322.069                                                            
   DEXC   =    -.007                                                            
   RMAX   =    2.944    core radius for proj-oper                               
   RAUG   =    1.300    factor for augmentation sphere                          
   RDEP   =    1.993    radius for radial grids                                 
   QCUT   =   -4.246; QGAM   =    8.493    optimization parameters              
                                                                                
   Description                                                                  
     l     E      TYP  RCUT    TYP  RCUT                                        
     0   .000     23  1.900                                                     
     0   .000     23  1.900                                                     
     1   .000     23  1.900                                                     
     1   .000     23  1.900                                                     
     2   .000      7  1.900                                                     
  local pseudopotential read in
  partial core-charges read in
  atomic valenz-charges read in
  non local Contribution for L=           0  read in
    real space projection operators read in
  non local Contribution for L=           0  read in
    real space projection operators read in
  non local Contribution for L=           1  read in
    real space projection operators read in
  non local Contribution for L=           1  read in
    real space projection operators read in
    PAW grid and wavefunctions read in
 
   number of l-projection  operators is LMAX  =           4
   number of lm-projection operators is LMMAX =           8
 
 Optimization of the real space projectors (new method)

 maximal supplied QI-value         = 19.84
 optimisation between [QCUT,QGAM] = [  8.73, 17.66] = [ 21.34, 87.33] Ry 
 Optimized for a Real-space Cutoff    1.50 Angstroem

   l    n(q)    QCUT    max X(q) W(low)/X(q) W(high)/X(q)  e(spline) 
   0      8     8.731     6.651    0.16E-04    0.15E-04    0.77E-08
   0      8     8.731    90.285    0.16E-03    0.90E-04    0.16E-06
   1      7     8.731     4.328    0.47E-04    0.36E-04    0.45E-07
   1      7     8.731    54.583    0.13E-03    0.39E-03    0.20E-06
 Optimization of the real space projectors (new method)

 maximal supplied QI-value         = 19.84
 optimisation between [QCUT,QGAM] = [  8.73, 17.66] = [ 21.34, 87.33] Ry 
 Optimized for a Real-space Cutoff    1.46 Angstroem

   l    n(q)    QCUT    max X(q) W(low)/X(q) W(high)/X(q)  e(spline) 
   0      8     8.731     8.708    0.16E-04    0.11E-04    0.68E-08
   0      8     8.731   106.241    0.24E-03    0.77E-04    0.13E-06
   1      7     8.731     5.901    0.34E-04    0.38E-04    0.36E-07
   1      7     8.731    73.241    0.12E-03    0.39E-03    0.15E-06

 ----------------------------------------------------------------------------- 
|                                                                             |
|  ADVICE TO THIS USER RUNNING 'VASP/VAMP'   (HEAR YOUR MASTER'S VOICE ...):  |
|                                                                             |
|      You enforced a specific xc-type in the INCAR file,                     |
|      a different type was found on the POTCAR file                          |
|          I HOPE YOU KNOW, WHAT YOU ARE  DOING                               |
|                                                                             |
 ----------------------------------------------------------------------------- 

  PAW_PBE P 17Jan2003                   :
 energy of atom  1       EATOM= -176.0430
 kinetic energy error for atom=    0.0040 (will be added to EATOM!!)
 PAW_PBE Si 05Jan2001                   :
 energy of atom  2       EATOM= -103.0669
 kinetic energy error for atom=    0.0021 (will be added to EATOM!!)
 
 
 POSCAR: Si12                                    
  positions in direct lattice
  No initial velocities read in
 exchange correlation table for  LEXCH =       42
   RHO(1)=    0.500       N(1)  =     2000
   RHO(2)=  100.500       N(2)  =     4000
 


--------------------------------------------------------------------------------------------------------


 ion  position               nearest neighbor table
   1  0.114  0.228  0.233-  15 2.28  21 2.29  21 2.29
   2  0.014  0.428  0.515-  16 2.28  22 2.29  22 2.29
   3  0.458  0.916  0.209-  21 2.28  13 2.30  13 2.30
   4  0.358  0.116  0.491-  22 2.28  14 2.30  14 2.30  20 2.88
   5  0.311  0.622  0.084-  17 2.28  23 2.30  23 2.30
   6  0.311  0.622  0.366-  18 2.28  16 2.89  24 3.01
   7  0.999  0.998  0.086-  19 2.29  19 2.29  13 2.32
   8  0.999  0.998  0.368-  24 2.10  14 2.25  20 2.29  20 2.29
   9  0.655  0.310  0.060-  19 2.28  17 2.29  17 2.29
  10  0.655  0.310  0.342-  20 2.28  18 2.29  18 2.29
  11  0.770  0.539  0.207-  15 2.29  15 2.29  23 2.32
  12  0.670  0.739  0.489-  16 2.29  16 2.29  24 2.32
  13  0.940  0.879  0.158-   3 2.30   3 2.30   7 2.32  23 2.35
  14  0.840  0.079  0.440-  20 1.81   8 2.25   4 2.30   4 2.30  24 2.35  20 2.88
  15  0.205  0.410  0.186-   1 2.28  11 2.29  11 2.29  17 2.37
  16  0.105  0.610  0.468-   2 2.28  12 2.29  12 2.29   6 2.89
  17  0.202  0.404  0.100-   5 2.28   9 2.29   9 2.29  15 2.37
  18  0.202  0.404  0.382-   6 2.28  10 2.29  10 2.29  22 2.89
  19  0.564  0.128  0.108-   9 2.28   7 2.29   7 2.29  21 2.37
  20  0.564  0.128  0.390-  14 1.81  10 2.28   8 2.29   8 2.29  14 2.88   4 2.88  24 3.07
  21  0.567  0.134  0.194-   3 2.28   1 2.29   1 2.29  19 2.37
  22  0.467  0.334  0.476-   4 2.28   2 2.29   2 2.29  18 2.89
  23  0.829  0.658  0.136-   5 2.30   5 2.30  11 2.32  13 2.35
  24  0.729  0.858  0.418-   8 2.10  12 2.32  14 2.35   6 3.01  20 3.07
 
  LATTYP: Found a base centered orthorhombic cell.
 ALAT       =     3.5404000000
 B/A-ratio  =     5.8153587165
 C/A-ratio  =     7.7678875268
  
  Lattice vectors:
  
 A1 = (   1.7702000000,  10.2943480000,   0.0000000000)
 A2 = (   1.7702000000, -10.2943480000,   0.0000000000)
 A3 = (   0.0000000000,   0.0000000000, -27.5014290000)


Analysis of symmetry for initial positions (statically):
=====================================================================
 Subroutine PRICEL returns:
 Original cell was already a primitive cell.
 

 Routine SETGRP: Setting up the symmetry group for a 
 base centered orthorhombic supercell.


 Subroutine GETGRP returns: Found  1 space group operations
 (whereof  1 operations were pure point group operations)
 out of a pool of  8 trial point group operations.


The static configuration has the point symmetry C_1 .


Analysis of symmetry for dynamics (positions and initial velocities):
=====================================================================
 Subroutine PRICEL returns:
 Original cell was already a primitive cell.
 

 Routine SETGRP: Setting up the symmetry group for a 
 base centered orthorhombic supercell.


 Subroutine GETGRP returns: Found  1 space group operations
 (whereof  1 operations were pure point group operations)
 out of a pool of  8 trial point group operations.


The dynamic configuration has the point symmetry C_1 .
 
 
 KPOINTS: pymatgen generated KPOINTS with grid den

Automatic generation of k-mesh.
Space group operators:
 irot       det(A)        alpha          n_x          n_y          n_z        tau_x        tau_y        tau_z
    1     1.000000     0.000000     1.000000     0.000000     0.000000     0.000000     0.000000     0.000000
 
 Subroutine IBZKPT returns following result:
 ===========================================
 
 Found     54 irreducible k-points:
 
 Following reciprocal coordinates:
            Coordinates               Weight
  0.000000  0.000000  0.000000      1.000000
  0.076923 -0.000000  0.000000      2.000000
  0.153846 -0.000000  0.000000      2.000000
  0.230769 -0.000000  0.000000      2.000000
  0.307692 -0.000000  0.000000      2.000000
  0.384615 -0.000000  0.000000      2.000000
  0.461538 -0.000000  0.000000      2.000000
  0.000000  0.250000  0.000000      2.000000
  0.076923  0.250000  0.000000      2.000000
  0.153846  0.250000  0.000000      2.000000
  0.230769  0.250000  0.000000      2.000000
  0.307692  0.250000  0.000000      2.000000
  0.384615  0.250000  0.000000      2.000000
  0.461538  0.250000  0.000000      2.000000
 -0.461538  0.250000  0.000000      2.000000
 -0.384615  0.250000  0.000000      2.000000
 -0.307692  0.250000  0.000000      2.000000
 -0.230769  0.250000  0.000000      2.000000
 -0.153846  0.250000  0.000000      2.000000
 -0.076923  0.250000  0.000000      2.000000
  0.000000  0.500000  0.000000      1.000000
  0.076923  0.500000  0.000000      2.000000
  0.153846  0.500000  0.000000      2.000000
  0.230769  0.500000  0.000000      2.000000
  0.307692  0.500000  0.000000      2.000000
  0.384615  0.500000  0.000000      2.000000
  0.461538  0.500000  0.000000      2.000000
  0.000000  0.000000  0.500000      1.000000
  0.076923 -0.000000  0.500000      2.000000
  0.153846 -0.000000  0.500000      2.000000
  0.230769 -0.000000  0.500000      2.000000
  0.307692 -0.000000  0.500000      2.000000
  0.384615 -0.000000  0.500000      2.000000
  0.461538 -0.000000  0.500000      2.000000
  0.000000  0.250000  0.500000      2.000000
  0.076923  0.250000  0.500000      2.000000
  0.153846  0.250000  0.500000      2.000000
  0.230769  0.250000  0.500000      2.000000
  0.307692  0.250000  0.500000      2.000000
  0.384615  0.250000  0.500000      2.000000
  0.461538  0.250000  0.500000      2.000000
 -0.461538  0.250000  0.500000      2.000000
 -0.384615  0.250000  0.500000      2.000000
 -0.307692  0.250000  0.500000      2.000000
 -0.230769  0.250000  0.500000      2.000000
 -0.153846  0.250000  0.500000      2.000000
 -0.076923  0.250000  0.500000      2.000000
  0.000000  0.500000  0.500000      1.000000
  0.076923  0.500000  0.500000      2.000000
  0.153846  0.500000  0.500000      2.000000
  0.230769  0.500000  0.500000      2.000000
  0.307692  0.500000  0.500000      2.000000
  0.384615  0.500000  0.500000      2.000000
  0.461538  0.500000  0.500000      2.000000
 
 Following cartesian coordinates:
            Coordinates               Weight
  0.000000  0.000000  0.000000      1.000000
  0.021727  0.003736  0.000000      2.000000
  0.043454  0.007472  0.000000      2.000000
  0.065182  0.011209  0.000000      2.000000
  0.086909  0.014945  0.000000      2.000000
  0.108636  0.018681  0.000000      2.000000
  0.130363  0.022417  0.000000      2.000000
  0.000000  0.024285  0.000000      2.000000
  0.021727  0.028021  0.000000      2.000000
  0.043454  0.031758  0.000000      2.000000
  0.065182  0.035494  0.000000      2.000000
  0.086909  0.039230  0.000000      2.000000
  0.108636  0.042966  0.000000      2.000000
  0.130363  0.046702  0.000000      2.000000
 -0.130363  0.001868  0.000000      2.000000
 -0.108636  0.005604  0.000000      2.000000
 -0.086909  0.009340  0.000000      2.000000
 -0.065182  0.013077  0.000000      2.000000
 -0.043454  0.016813  0.000000      2.000000
 -0.021727  0.020549  0.000000      2.000000
  0.000000  0.048570  0.000000      1.000000
  0.021727  0.052307  0.000000      2.000000
  0.043454  0.056043  0.000000      2.000000
  0.065182  0.059779  0.000000      2.000000
  0.086909  0.063515  0.000000      2.000000
  0.108636  0.067251  0.000000      2.000000
  0.130363  0.070987  0.000000      2.000000
  0.000000  0.000000  0.018181      1.000000
  0.021727  0.003736  0.018181      2.000000
  0.043454  0.007472  0.018181      2.000000
  0.065182  0.011209  0.018181      2.000000
  0.086909  0.014945  0.018181      2.000000
  0.108636  0.018681  0.018181      2.000000
  0.130363  0.022417  0.018181      2.000000
  0.000000  0.024285  0.018181      2.000000
  0.021727  0.028021  0.018181      2.000000
  0.043454  0.031758  0.018181      2.000000
  0.065182  0.035494  0.018181      2.000000
  0.086909  0.039230  0.018181      2.000000
  0.108636  0.042966  0.018181      2.000000
  0.130363  0.046702  0.018181      2.000000
 -0.130363  0.001868  0.018181      2.000000
 -0.108636  0.005604  0.018181      2.000000
 -0.086909  0.009340  0.018181      2.000000
 -0.065182  0.013077  0.018181      2.000000
 -0.043454  0.016813  0.018181      2.000000
 -0.021727  0.020549  0.018181      2.000000
  0.000000  0.048570  0.018181      1.000000
  0.021727  0.052307  0.018181      2.000000
  0.043454  0.056043  0.018181      2.000000
  0.065182  0.059779  0.018181      2.000000
  0.086909  0.063515  0.018181      2.000000
  0.108636  0.067251  0.018181      2.000000
  0.130363  0.070987  0.018181      2.000000
 


--------------------------------------------------------------------------------------------------------




 Dimension of arrays:
   k-points           NKPTS =     54   k-points in BZ     NKDIM =     54   number of bands    NBANDS=     68
   number of dos      NEDOS =    301   number of ions     NIONS =     24
   non local maximal  LDIM  =      4   non local SUM 2l+1 LMDIM =      8
   total plane-waves  NPLWV = 192000
   max r-space proj   IRMAX =   2772   max aug-charges    IRDMAX=   6603
   dimension x,y,z NGX =    20 NGY =   60 NGZ =  160
   dimension x,y,z NGXF=    40 NGYF=  120 NGZF=  320
   support grid    NGXF=    40 NGYF=  120 NGZF=  320
   ions per type =              12  12
 NGX,Y,Z   is equivalent  to a cutoff of   9.39,  9.55,  9.67 a.u.
 NGXF,Y,Z  is equivalent  to a cutoff of  18.78, 19.10, 19.34 a.u.


 I would recommend the setting:
   dimension x,y,z NGX =    20 NGY =   59 NGZ =  155
 SYSTEM =  unknown system                          
 POSCAR =  Si12                                    

 Startparameter for this run:
   NWRITE =      2    write-flag & timer
   PREC   = accura    normal or accurate (medium, high low for compatibility)
   ISTART =      0    job   : 0-new  1-cont  2-samecut
   ICHARG =      2    charge: 1-file 2-atom 10-const
   ISPIN  =      1    spin polarized calculation?
   LNONCOLLINEAR =      F non collinear calculations
   LSORBIT =      F    spin-orbit coupling
   INIWAV =      1    electr: 0-lowe 1-rand  2-diag
   LASPH  =      F    aspherical Exc in radial PAW
   METAGGA=      F    non-selfconsistent MetaGGA calc.

 Electronic Relaxation 1
   ENCUT  =  300.0 eV  22.05 Ry    4.70 a.u.   5.00 14.75 38.84*2*pi/ulx,y,z
   ENINI  =  300.0     initial cutoff
   ENAUG  =  342.9 eV  augmentation charge cutoff
   NELM   =     60;   NELMIN=  2; NELMDL= -5     # of ELM steps 
   EDIFF  = 0.1E-05   stopping-criterion for ELM
   LREAL  =      T    real-space projection
   NLSPLINE    = F    spline interpolate recip. space projectors
   LCOMPAT=      F    compatible to vasp.4.4
   GGA_COMPAT  = T    GGA compatible to vasp.4.4-vasp.4.6
   LMAXPAW     = -100 max onsite density
   LMAXMIX     =    2 max onsite mixed and CHGCAR
   VOSKOWN=      0    Vosko Wilk Nusair interpolation
   ROPT   =   -0.00025  -0.00025
 Ionic relaxation
   EDIFFG = 0.1E-04   stopping-criterion for IOM
   NSW    =      0    number of steps for IOM
   NBLOCK =      1;   KBLOCK =      1    inner block; outer block 
   IBRION =     -1    ionic relax: 0-MD 1-quasi-New 2-CG
   NFREE  =      1    steps in history (QN), initial steepest desc. (CG)
   ISIF   =      3    stress and relaxation
   IWAVPR =     10    prediction:  0-non 1-charg 2-wave 3-comb
   ISYM   =      2    0-nonsym 1-usesym 2-fastsym
   LCORR  =      T    Harris-Foulkes like correction to forces

   POTIM  = 0.5000    time-step for ionic-motion
   TEIN   =    0.0    initial temperature
   TEBEG  =    0.0;   TEEND  =   0.0 temperature during run
   SMASS  =  -3.00    Nose mass-parameter (am)
   estimated Nose-frequenzy (Omega)   =  0.10E-29 period in steps =****** mass=  -0.286E-27a.u.
   SCALEE = 1.0000    scale energy and forces
   NPACO  =    256;   APACO  = 16.0  distance and # of slots for P.C.
   PSTRESS=    0.0 pullay stress

  Mass of Ions in am
   POMASS =  30.97 28.09
  Ionic Valenz
   ZVAL   =   5.00  4.00
  Atomic Wigner-Seitz radii
   RWIGS  =  -1.00 -1.00
  virtual crystal weights 
   VCA    =   1.00  1.00
   NELECT =     108.0000    total number of electrons
   NUPDOWN=      -1.0000    fix difference up-down

 DOS related values:
   EMIN   =  10.00;   EMAX   =-10.00  energy-range for DOS
   EFERMI =   0.00
   ISMEAR =     0;   SIGMA  =   0.10  broadening in eV -4-tet -1-fermi 0-gaus

 Electronic relaxation 2 (details)
   IALGO  =     38    algorithm
   LDIAG  =      T    sub-space diagonalisation (order eigenvalues)
   LSUBROT=      F    optimize rotation matrix (better conditioning)
   TURBO    =      0    0=normal 1=particle mesh
   IRESTART =      0    0=no restart 2=restart with 2 vectors
   NREBOOT  =      0    no. of reboots
   NMIN     =      0    reboot dimension
   EREF     =   0.00    reference energy to select bands
   IMIX   =      4    mixing-type and parameters
     AMIX     =   0.40;   BMIX     =  1.00
     AMIX_MAG =   1.60;   BMIX_MAG =  1.00
     AMIN     =   0.10
     WC   =   100.;   INIMIX=   1;  MIXPRE=   1;  MAXMIX= -45

 Intra band minimization:
   WEIMIN = 0.0000     energy-eigenvalue tresh-hold
   EBREAK =  0.37E-08  absolut break condition
   DEPER  =   0.30     relativ break condition  

   TIME   =   0.40     timestep for ELM

  volume/ion in A,a.u.               =      41.76       281.83
  Fermi-wavevector in a.u.,A,eV,Ry     =   0.779018  1.472130  8.256946  0.606868
  Thomas-Fermi vector in A             =   1.882034
 
 Write flags
   LWAVE  =      F    write WAVECAR
   LCHARG =      F    write CHGCAR
   LVTOT  =      F    write LOCPOT, total local potential
   LVHAR  =      F    write LOCPOT, Hartree potential only
   LELF   =      F    write electronic localiz. function (ELF)
   LORBIT =      0    0 simple, 1 ext, 2 COOP (PROOUT)


 Dipole corrections
   LMONO  =      F    monopole corrections only (constant potential shift)
   LDIPOL =      F    correct potential (dipole corrections)
   IDIPOL =      0    1-x, 2-y, 3-z, 4-all directions 
   EPSILON=  1.0000000 bulk dielectric constant

 Exchange correlation treatment:
   GGA     =    BO    GGA type
   LEXCH   =    42    internal setting for exchange type
   VOSKOWN=      0    Vosko Wilk Nusair interpolation
   LHFCALC =     F    Hartree Fock is set to
   LHFONE  =     F    Hartree Fock one center treatment
   AEXX    =    0.0000 exact exchange contribution

 vdW DFT:
   LUSE_VDW   =     T    switch on vdW DFT
   Zab_VDW    =-.8491    correlation parameter
   PARAM1     =0.1833
   PARAM2     =0.2200
   PARAM3     =0.0000

 Linear response parameters
   LEPSILON=     F    determine dielectric tensor
   LRPA    =     F    only Hartree local field effects (RPA)
   LNABLA  =     F    use nabla operator in PAW spheres
   LVEL    =     F    velocity operator in full k-point grid
   LINTERFAST=   F  fast interpolation
   KINTER  =     0    interpolate to denser k-point grid
   CSHIFT  =0.1000    complex shift for real part using Kramers Kronig
   OMEGAMAX=  -1.0    maximum frequency
   DEG_THRESHOLD= 0.2000000E-02 threshold for treating states as degnerate
   RTIME   =    0.100 relaxation time in fs

 Orbital magnetization related:
   ORBITALMAG=     F  switch on orbital magnetization
   LCHIMAG   =     F  perturbation theory with respect to B field
   DQ        =  0.001000  dq finite difference perturbation B field



--------------------------------------------------------------------------------------------------------


 Static calculation
 charge density and potential will be updated during run
 non-spin polarized calculation
 Variant of blocked Davidson
 Davidson routine will perform the subspace rotation
 perform sub-space diagonalisation
    after iterative eigenvector-optimisation
 modified Broyden-mixing scheme, WC =      100.0
 initial mixing is a Kerker type mixing with AMIX =  0.4000 and BMIX =      1.0000
 Hartree-type preconditioning will be used
 using additional bands           14
 real space projection scheme for non local part
 use partial core corrections
 calculate Harris-corrections to forces 
   (improved forces if not selfconsistent)
 use gradient corrections 
 use of overlap-Matrix (Vanderbilt PP)
 Gauss-broadening in eV      SIGMA  =   0.10


--------------------------------------------------------------------------------------------------------


  energy-cutoff  :      300.00
  volume of cell :     1002.32
      direct lattice vectors                 reciprocal lattice vectors
     3.540400000  0.000000000  0.000000000     0.282453960  0.048570342  0.000000000
    -1.770200000 10.294348000  0.000000000     0.000000000  0.097140683  0.000000000
     0.000000000  0.000000000 27.501429000     0.000000000  0.000000000  0.036361747

  length of vectors
     3.540400000 10.445439617 27.501429000     0.286599577  0.097140683  0.036361747


 
 k-points in units of 2pi/SCALE and weight: pymatgen generated KPOINTS with grid den
   0.00000000  0.00000000  0.00000000       0.010
   0.02172723  0.00373618  0.00000000       0.019
   0.04345446  0.00747236  0.00000000       0.019
   0.06518168  0.01120854  0.00000000       0.019
   0.08690891  0.01494472  0.00000000       0.019
   0.10863614  0.01868090  0.00000000       0.019
   0.13036337  0.02241708  0.00000000       0.019
   0.00000000  0.02428517  0.00000000       0.019
   0.02172723  0.02802135  0.00000000       0.019
   0.04345446  0.03175753  0.00000000       0.019
   0.06518168  0.03549371  0.00000000       0.019
   0.08690891  0.03922989  0.00000000       0.019
   0.10863614  0.04296607  0.00000000       0.019
   0.13036337  0.04670225  0.00000000       0.019
  -0.13036337  0.00186809  0.00000000       0.019
  -0.10863614  0.00560427  0.00000000       0.019
  -0.08690891  0.00934045  0.00000000       0.019
  -0.06518168  0.01307663  0.00000000       0.019
  -0.04345446  0.01681281  0.00000000       0.019
  -0.02172723  0.02054899  0.00000000       0.019
   0.00000000  0.04857034  0.00000000       0.010
   0.02172723  0.05230652  0.00000000       0.019
   0.04345446  0.05604270  0.00000000       0.019
   0.06518168  0.05977888  0.00000000       0.019
   0.08690891  0.06351506  0.00000000       0.019
   0.10863614  0.06725124  0.00000000       0.019
   0.13036337  0.07098742  0.00000000       0.019
   0.00000000  0.00000000  0.01818087       0.010
   0.02172723  0.00373618  0.01818087       0.019
   0.04345446  0.00747236  0.01818087       0.019
   0.06518168  0.01120854  0.01818087       0.019
   0.08690891  0.01494472  0.01818087       0.019
   0.10863614  0.01868090  0.01818087       0.019
   0.13036337  0.02241708  0.01818087       0.019
   0.00000000  0.02428517  0.01818087       0.019
   0.02172723  0.02802135  0.01818087       0.019
   0.04345446  0.03175753  0.01818087       0.019
   0.06518168  0.03549371  0.01818087       0.019
   0.08690891  0.03922989  0.01818087       0.019
   0.10863614  0.04296607  0.01818087       0.019
   0.13036337  0.04670225  0.01818087       0.019
  -0.13036337  0.00186809  0.01818087       0.019
  -0.10863614  0.00560427  0.01818087       0.019
  -0.08690891  0.00934045  0.01818087       0.019
  -0.06518168  0.01307663  0.01818087       0.019
  -0.04345446  0.01681281  0.01818087       0.019
  -0.02172723  0.02054899  0.01818087       0.019
   0.00000000  0.04857034  0.01818087       0.010
   0.02172723  0.05230652  0.01818087       0.019
   0.04345446  0.05604270  0.01818087       0.019
   0.06518168  0.05977888  0.01818087       0.019
   0.08690891  0.06351506  0.01818087       0.019
   0.10863614  0.06725124  0.01818087       0.019
   0.13036337  0.07098742  0.01818087       0.019
 
 k-points in reciprocal lattice and weights: pymatgen generated KPOINTS with grid den
   0.00000000  0.00000000  0.00000000       0.010
   0.07692308 -0.00000000  0.00000000       0.019
   0.15384615 -0.00000000  0.00000000       0.019
   0.23076923 -0.00000000  0.00000000       0.019
   0.30769231 -0.00000000  0.00000000       0.019
   0.38461538 -0.00000000  0.00000000       0.019
   0.46153846 -0.00000000  0.00000000       0.019
   0.00000000  0.25000000  0.00000000       0.019
   0.07692308  0.25000000  0.00000000       0.019
   0.15384615  0.25000000  0.00000000       0.019
   0.23076923  0.25000000  0.00000000       0.019
   0.30769231  0.25000000  0.00000000       0.019
   0.38461538  0.25000000  0.00000000       0.019
   0.46153846  0.25000000  0.00000000       0.019
  -0.46153846  0.25000000  0.00000000       0.019
  -0.38461538  0.25000000  0.00000000       0.019
  -0.30769231  0.25000000  0.00000000       0.019
  -0.23076923  0.25000000  0.00000000       0.019
  -0.15384615  0.25000000  0.00000000       0.019
  -0.07692308  0.25000000  0.00000000       0.019
   0.00000000  0.50000000  0.00000000       0.010
   0.07692308  0.50000000  0.00000000       0.019
   0.15384615  0.50000000  0.00000000       0.019
   0.23076923  0.50000000  0.00000000       0.019
   0.30769231  0.50000000  0.00000000       0.019
   0.38461538  0.50000000  0.00000000       0.019
   0.46153846  0.50000000  0.00000000       0.019
   0.00000000  0.00000000  0.50000000       0.010
   0.07692308 -0.00000000  0.50000000       0.019
   0.15384615 -0.00000000  0.50000000       0.019
   0.23076923 -0.00000000  0.50000000       0.019
   0.30769231 -0.00000000  0.50000000       0.019
   0.38461538 -0.00000000  0.50000000       0.019
   0.46153846 -0.00000000  0.50000000       0.019
   0.00000000  0.25000000  0.50000000       0.019
   0.07692308  0.25000000  0.50000000       0.019
   0.15384615  0.25000000  0.50000000       0.019
   0.23076923  0.25000000  0.50000000       0.019
   0.30769231  0.25000000  0.50000000       0.019
   0.38461538  0.25000000  0.50000000       0.019
   0.46153846  0.25000000  0.50000000       0.019
  -0.46153846  0.25000000  0.50000000       0.019
  -0.38461538  0.25000000  0.50000000       0.019
  -0.30769231  0.25000000  0.50000000       0.019
  -0.23076923  0.25000000  0.50000000       0.019
  -0.15384615  0.25000000  0.50000000       0.019
  -0.07692308  0.25000000  0.50000000       0.019
   0.00000000  0.50000000  0.50000000       0.010
   0.07692308  0.50000000  0.50000000       0.019
   0.15384615  0.50000000  0.50000000       0.019
   0.23076923  0.50000000  0.50000000       0.019
   0.30769231  0.50000000  0.50000000       0.019
   0.38461538  0.50000000  0.50000000       0.019
   0.46153846  0.50000000  0.50000000       0.019
 
 position of ions in fractional coordinates (direct lattice) 
   0.11402300  0.22804500  0.23316207
   0.01402300  0.42804500  0.51499159
   0.45808900  0.91617900  0.20939482
   0.35808900  0.11617900  0.49122434
   0.31085400  0.62170900  0.08414979
   0.31085400  0.62170900  0.36597930
   0.99923000  0.99846000  0.08631254
   0.99923000  0.99846000  0.36814206
   0.65492700  0.30985400  0.06041748
   0.65492700  0.30985400  0.34224700
   0.76973800  0.53947500  0.20725292
   0.66973800  0.73947500  0.48908244
   0.93971600  0.87943300  0.15783749
   0.83971600  0.07943300  0.43966701
   0.20515200  0.41030300  0.18578822
   0.10515200  0.61030300  0.46761774
   0.20184900  0.40369900  0.09969156
   0.20184900  0.40369900  0.38152107
   0.56380500  0.12761000  0.10779021
   0.56380500  0.12761000  0.38961973
   0.56710600  0.13421200  0.19387616
   0.46710600  0.33421200  0.47570568
   0.82923400  0.65846800  0.13571444
   0.72923400  0.85846800  0.41754396
 
 position of ions in cartesian coordinates  (Angst):
   0.00000177  2.34757459  6.41229012
  -0.70807823  4.40644419 14.16300462
  -0.00000177  9.43146546  5.75865686
   1.06211823  1.19598706 13.50937136
  -0.00000177  6.40008880  2.31423934
  -0.00000177  6.40008880 10.06495384
   1.77020000 10.27849470  2.37371832
   1.77020000 10.27849470 10.12443282
   1.77020000  3.18974491  1.66156717
   1.77020000  3.18974491  9.41228167
   1.77020177  5.55354339  5.69975143
   1.06212177  7.61241299 13.45046593
   1.77019823  9.05318934  4.34075665
   2.83231823  0.81771094 12.09147115
   0.00000177  4.22380187  5.10944151
  -0.70807823  6.28267147 12.86015601
  -0.00000177  4.15581799  2.74166024
  -0.00000177  4.15581799 10.49237474
   1.77020000  1.31366175  2.96438477
   1.77020000  1.31366175 10.71509927
   1.77020000  1.38162503  5.33187152
   1.06212000  3.44049463 13.08258602
   1.77020000  6.77849874  3.73234107
   1.06212000  8.83736834 11.48305557
 


--------------------------------------------------------------------------------------------------------


 k-point  1 :   0.0000 0.0000 0.0000  plane waves:   11717
 k-point  2 :   0.0769-0.0000 0.0000  plane waves:   11762
 k-point  3 :   0.1538-0.0000 0.0000  plane waves:   11805
 k-point  4 :   0.2308-0.0000 0.0000  plane waves:   11824
 k-point  5 :   0.3077-0.0000 0.0000  plane waves:   11875
 k-point  6 :   0.3846-0.0000 0.0000  plane waves:   11864
 k-point  7 :   0.4615-0.0000 0.0000  plane waves:   11883
 k-point  8 :   0.0000 0.2500 0.0000  plane waves:   11683
 k-point  9 :   0.0769 0.2500 0.0000  plane waves:   11756
 k-point 10 :   0.1538 0.2500 0.0000  plane waves:   11807
 k-point 11 :   0.2308 0.2500 0.0000  plane waves:   11853
 k-point 12 :   0.3077 0.2500 0.0000  plane waves:   11866
 k-point 13 :   0.3846 0.2500 0.0000  plane waves:   11889
 k-point 14 :   0.4615 0.2500 0.0000  plane waves:   11885
 k-point 15 :  -0.4615 0.2500 0.0000  plane waves:   11886
 k-point 16 :  -0.3846 0.2500 0.0000  plane waves:   11867
 k-point 17 :  -0.3077 0.2500 0.0000  plane waves:   11849
 k-point 18 :  -0.2308 0.2500 0.0000  plane waves:   11827
 k-point 19 :  -0.1538 0.2500 0.0000  plane waves:   11801
 k-point 20 :  -0.0769 0.2500 0.0000  plane waves:   11757
 k-point 21 :   0.0000 0.5000 0.0000  plane waves:   11710
 k-point 22 :   0.0769 0.5000 0.0000  plane waves:   11762
 k-point 23 :   0.1538 0.5000 0.0000  plane waves:   11782
 k-point 24 :   0.2308 0.5000 0.0000  plane waves:   11841
 k-point 25 :   0.3077 0.5000 0.0000  plane waves:   11876
 k-point 26 :   0.3846 0.5000 0.0000  plane waves:   11889
 k-point 27 :   0.4615 0.5000 0.0000  plane waves:   11881
 k-point 28 :   0.0000 0.0000 0.5000  plane waves:   11698
 k-point 29 :   0.0769-0.0000 0.5000  plane waves:   11752
 k-point 30 :   0.1538-0.0000 0.5000  plane waves:   11800
 k-point 31 :   0.2308-0.0000 0.5000  plane waves:   11834
 k-point 32 :   0.3077-0.0000 0.5000  plane waves:   11850
 k-point 33 :   0.3846-0.0000 0.5000  plane waves:   11888
 k-point 34 :   0.4615-0.0000 0.5000  plane waves:   11896
 k-point 35 :   0.0000 0.2500 0.5000  plane waves:   11714
 k-point 36 :   0.0769 0.2500 0.5000  plane waves:   11754
 k-point 37 :   0.1538 0.2500 0.5000  plane waves:   11802
 k-point 38 :   0.2308 0.2500 0.5000  plane waves:   11840
 k-point 39 :   0.3077 0.2500 0.5000  plane waves:   11858
 k-point 40 :   0.3846 0.2500 0.5000  plane waves:   11896
 k-point 41 :   0.4615 0.2500 0.5000  plane waves:   11886
 k-point 42 :  -0.4615 0.2500 0.5000  plane waves:   11852
 k-point 43 :  -0.3846 0.2500 0.5000  plane waves:   11838
 k-point 44 :  -0.3077 0.2500 0.5000  plane waves:   11842
 k-point 45 :  -0.2308 0.2500 0.5000  plane waves:   11840
 k-point 46 :  -0.1538 0.2500 0.5000  plane waves:   11804
 k-point 47 :  -0.0769 0.2500 0.5000  plane waves:   11748
 k-point 48 :   0.0000 0.5000 0.5000  plane waves:   11724
 k-point 49 :   0.0769 0.5000 0.5000  plane waves:   11748
 k-point 50 :   0.1538 0.5000 0.5000  plane waves:   11814
 k-point 51 :   0.2308 0.5000 0.5000  plane waves:   11832
 k-point 52 :   0.3077 0.5000 0.5000  plane waves:   11868
 k-point 53 :   0.3846 0.5000 0.5000  plane waves:   11892
 k-point 54 :   0.4615 0.5000 0.5000  plane waves:   11878

 maximum and minimum number of plane-waves per node :      5964     5832

 maximum number of plane-waves:     11896
 maximum index in each direction: 
   IXMAX=    5   IYMAX=   14   IZMAX=   38
   IXMIN=   -5   IYMIN=  -15   IZMIN=  -39

 WARNING: aliasing errors must be expected set NGX to  22 to avoid them
 NGY is ok and might be reduce to  60
 NGZ is ok and might be reduce to 156
 aliasing errors are usually negligible using standard VASP settings
 and one can safely disregard these warnings

 real space projection operators:
  total allocation   :       3793.25 KBytes
  max/ min on nodes  :       1899.38       1893.88


 parallel 3D FFT for wavefunctions:
    minimum data exchange during FFTs selected (reduces bandwidth)
 parallel 3D FFT for charge:
    minimum data exchange during FFTs selected (reduces bandwidth)


 total amount of memory used by VASP on root node   146493. kBytes
========================================================================

   base      :      30000. kBytes
   nonlr-proj:       3452. kBytes
   fftplans  :       9347. kBytes
   grid      :      14649. kBytes
   one-center:         36. kBytes
   wavefun   :      89009. kBytes
 
     INWAV:  cpu time    0.00: real time    0.00
 Broyden mixing: mesh for mixing (old mesh)
   NGX =  9   NGY = 29   NGZ = 77
  (NGX  = 40   NGY  =120   NGZ  =320)
  gives a total of  20097 points

 initial charge density was supplied:
 charge density of overlapping atoms calculated
 number of electron     108.0000000 magnetization 
 keeping initial charge density in first step


--------------------------------------------------------------------------------------------------------


 Maximum index for non-local projection operator         1333
 Maximum index for augmentation-charges          822 (set IRDMAX)


--------------------------------------------------------------------------------------------------------


 First call to EWALD:  gamma=   0.177
 Maximum number of real-space cells 7x 3x 1
 Maximum number of reciprocal cells 1x 3x 7

 FEWALD executed in parallel
    FEWALD:  cpu time    0.00: real time    0.00


----------------------------------------- Iteration    1(   1)  ---------------------------------------


vdW kernel read from vdw_kernel.bindat
  0.0000  0.2424  0.5071  0.7962  1.1119  1.4567  1.8333  2.2446  2.6937  3.1842
  3.7199  4.3049  4.9438  5.6415  6.4036  7.2358  8.1446  9.1372 10.2212 11.4050
 12.6979 14.1099 15.6519 17.3360 19.1751 21.1837 23.3773 25.7729 28.3892 31.2465
 34.3669 37.7748 41.4965 45.5611 50.0000
 
    POTLOK:  cpu time   15.87: real time   15.89
    SETDIJ:  cpu time    0.01: real time    0.01
     EDDAV:  cpu time   61.33: real time   61.35
       DOS:  cpu time    0.01: real time    0.01
    --------------------------------------------
      LOOP:  cpu time   77.22: real time   77.27

 eigenvalue-minimisations  :  7368
 total energy-change (2. order) : 0.4906116E+03  (-0.2865731E+04)
 number of electron     108.0000000 magnetization 
 augmentation part      108.0000000 magnetization 

 Free energy of the ion-electron system (eV)
  ---------------------------------------------------
  alpha Z        PSCENC =        36.80884744
  Ewald energy   TEWEN  =     11928.13424606
  -Hartree energ DENC   =    -14975.15194805
  -exchange      EXHF   =         0.00000000
  -V(xc)+E(xc)   XCENC  =       -87.89975899
  PAW double counting   =      1056.43050070     -732.41190547
  entropy T*S    EENTRO =        -0.04447672
  eigenvalues    EBANDS =       -89.29516548
  atomic energy  EATOM  =      3354.04126044
  ---------------------------------------------------
  free energy    TOTEN  =       490.61159994 eV

  energy without entropy =      490.65607666  energy(sigma->0) =      490.63383830


--------------------------------------------------------------------------------------------------------




----------------------------------------- Iteration    1(   2)  ---------------------------------------


     EDDAV:  cpu time   74.30: real time   74.32
       DOS:  cpu time    0.01: real time    0.01
    --------------------------------------------
      LOOP:  cpu time   74.32: real time   74.33

 eigenvalue-minimisations  :  9740
 total energy-change (2. order) :-0.5572566E+03  (-0.5420177E+03)
 number of electron     108.0000000 magnetization 
 augmentation part      108.0000000 magnetization 

 Free energy of the ion-electron system (eV)
  ---------------------------------------------------
  alpha Z        PSCENC =        36.80884744
  Ewald energy   TEWEN  =     11928.13424606
  -Hartree energ DENC   =    -14975.15194805
  -exchange      EXHF   =         0.00000000
  -V(xc)+E(xc)   XCENC  =       -87.89975899
  PAW double counting   =      1056.43050070     -732.41190547
  entropy T*S    EENTRO =        -0.01963775
  eigenvalues    EBANDS =      -646.57660507
  atomic energy  EATOM  =      3354.04126044
  ---------------------------------------------------
  free energy    TOTEN  =       -66.64500068 eV

  energy without entropy =      -66.62536293  energy(sigma->0) =      -66.63518180


--------------------------------------------------------------------------------------------------------




----------------------------------------- Iteration    1(   3)  ---------------------------------------


     EDDAV:  cpu time   67.77: real time   67.80
       DOS:  cpu time    0.01: real time    0.01
    --------------------------------------------
      LOOP:  cpu time   67.78: real time   67.81

 eigenvalue-minimisations  :  8776
 total energy-change (2. order) :-0.5580910E+02  (-0.5502931E+02)
 number of electron     108.0000000 magnetization 
 augmentation part      108.0000000 magnetization 

 Free energy of the ion-electron system (eV)
  ---------------------------------------------------
  alpha Z        PSCENC =        36.80884744
  Ewald energy   TEWEN  =     11928.13424606
  -Hartree energ DENC   =    -14975.15194805
  -exchange      EXHF   =         0.00000000
  -V(xc)+E(xc)   XCENC  =       -87.89975899
  PAW double counting   =      1056.43050070     -732.41190547
  entropy T*S    EENTRO =        -0.02917282
  eigenvalues    EBANDS =      -702.37616919
  atomic energy  EATOM  =      3354.04126044
  ---------------------------------------------------
  free energy    TOTEN  =      -122.45409988 eV

  energy without entropy =     -122.42492705  energy(sigma->0) =     -122.43951346


--------------------------------------------------------------------------------------------------------




----------------------------------------- Iteration    1(   4)  ---------------------------------------


     EDDAV:  cpu time   81.98: real time   82.06
       DOS:  cpu time    0.01: real time    0.01
    --------------------------------------------
      LOOP:  cpu time   82.00: real time   82.08

 eigenvalue-minimisations  : 10952
 total energy-change (2. order) :-0.2562904E+01  (-0.2545082E+01)
 number of electron     108.0000000 magnetization 
 augmentation part      108.0000000 magnetization 

 Free energy of the ion-electron system (eV)
  ---------------------------------------------------
  alpha Z        PSCENC =        36.80884744
  Ewald energy   TEWEN  =     11928.13424606
  -Hartree energ DENC   =    -14975.15194805
  -exchange      EXHF   =         0.00000000
  -V(xc)+E(xc)   XCENC  =       -87.89975899
  PAW double counting   =      1056.43050070     -732.41190547
  entropy T*S    EENTRO =        -0.02928037
  eigenvalues    EBANDS =      -704.93896593
  atomic energy  EATOM  =      3354.04126044
  ---------------------------------------------------
  free energy    TOTEN  =      -125.01700416 eV

  energy without entropy =     -124.98772379  energy(sigma->0) =     -125.00236398


--------------------------------------------------------------------------------------------------------




----------------------------------------- Iteration    1(   5)  ---------------------------------------


     EDDAV:  cpu time   77.18: real time   77.22
       DOS:  cpu time    0.01: real time    0.01
    CHARGE:  cpu time    4.11: real time    4.11
    MIXING:  cpu time    0.01: real time    0.01
    --------------------------------------------
      LOOP:  cpu time   81.30: real time   81.35

 eigenvalue-minimisations  : 10008
 total energy-change (2. order) :-0.6047552E-01  (-0.6040774E-01)
 number of electron     107.9999995 magnetization 
 augmentation part       -9.5672870 magnetization 

 Broyden mixing:
  rms(total) = 0.10420E+01    rms(broyden)= 0.10418E+01
  rms(prec ) = 0.11214E+01
  weight for this iteration     100.00

 Free energy of the ion-electron system (eV)
  ---------------------------------------------------
  alpha Z        PSCENC =        36.80884744
  Ewald energy   TEWEN  =     11928.13424606
  -Hartree energ DENC   =    -14975.15194805
  -exchange      EXHF   =         0.00000000
  -V(xc)+E(xc)   XCENC  =       -87.89975899
  PAW double counting   =      1056.43050070     -732.41190547
  entropy T*S    EENTRO =        -0.02937999
  eigenvalues    EBANDS =      -704.99934183
  atomic energy  EATOM  =      3354.04126044
  ---------------------------------------------------
  free energy    TOTEN  =      -125.07747968 eV

  energy without entropy =     -125.04809969  energy(sigma->0) =     -125.06278968


--------------------------------------------------------------------------------------------------------




----------------------------------------- Iteration    1(   6)  ---------------------------------------


    POTLOK:  cpu time   14.50: real time   14.51
    SETDIJ:  cpu time    0.01: real time    0.01
     EDDAV:  cpu time   70.39: real time   70.42
       DOS:  cpu time    0.01: real time    0.01
    CHARGE:  cpu time    5.76: real time    5.76
    MIXING:  cpu time    0.01: real time    0.01
    --------------------------------------------
      LOOP:  cpu time   90.69: real time   90.72

 eigenvalue-minimisations  :  8792
 total energy-change (2. order) : 0.2600720E+01  (-0.9148680E+00)
 number of electron     107.9999995 magnetization 
 augmentation part       -9.4289696 magnetization 

 Broyden mixing:
  rms(total) = 0.56767E+00    rms(broyden)= 0.56765E+00
  rms(prec ) = 0.60238E+00
  weight for this iteration     100.00

 eigenvalues of (default mixing * dielectric matrix)
  average eigenvalue GAMMA=   1.7245
  1.7245

 Free energy of the ion-electron system (eV)
  ---------------------------------------------------
  alpha Z        PSCENC =        36.80884744
  Ewald energy   TEWEN  =     11928.13424606
  -Hartree energ DENC   =    -15015.20848348
  -exchange      EXHF   =         0.00000000
  -V(xc)+E(xc)   XCENC  =       -84.86350257
  PAW double counting   =      1114.94011762     -792.56596154
  entropy T*S    EENTRO =        -0.01415617
  eigenvalues    EBANDS =      -663.74912735
  atomic energy  EATOM  =      3354.04126044
  ---------------------------------------------------
  free energy    TOTEN  =      -122.47675953 eV

  energy without entropy =     -122.46260336  energy(sigma->0) =     -122.46968145


--------------------------------------------------------------------------------------------------------




----------------------------------------- Iteration    1(   7)  ---------------------------------------


    POTLOK:  cpu time   14.94: real time   14.94
    SETDIJ:  cpu time    0.01: real time    0.01
     EDDAV:  cpu time   84.11: real time   84.12
       DOS:  cpu time    0.01: real time    0.01
    CHARGE:  cpu time    6.60: real time    6.61
    MIXING:  cpu time    0.01: real time    0.01
    --------------------------------------------
      LOOP:  cpu time  105.69: real time  105.71

 eigenvalue-minimisations  :  8720
 total energy-change (2. order) : 0.2158213E+00  (-0.4577140E+00)
 number of electron     107.9999995 magnetization 
 augmentation part       -9.3461052 magnetization 

 Broyden mixing:
  rms(total) = 0.24657E+00    rms(broyden)= 0.24656E+00
  rms(prec ) = 0.26886E+00
  weight for this iteration     100.00

 eigenvalues of (default mixing * dielectric matrix)
  average eigenvalue GAMMA=   1.4880
  0.8554  2.1206

 Free energy of the ion-electron system (eV)
  ---------------------------------------------------
  alpha Z        PSCENC =        36.80884744
  Ewald energy   TEWEN  =     11928.13424606
  -Hartree energ DENC   =    -15044.60118238
  -exchange      EXHF   =         0.00000000
  -V(xc)+E(xc)   XCENC  =       -82.23416634
  PAW double counting   =      1154.71693444     -833.47288002
  entropy T*S    EENTRO =        -0.02372865
  eigenvalues    EBANDS =      -635.63026920
  atomic energy  EATOM  =      3354.04126044
  ---------------------------------------------------
  free energy    TOTEN  =      -122.26093819 eV

  energy without entropy =     -122.23720954  energy(sigma->0) =     -122.24907387


--------------------------------------------------------------------------------------------------------




----------------------------------------- Iteration    1(   8)  ---------------------------------------


    POTLOK:  cpu time   15.02: real time   15.05
    SETDIJ:  cpu time    0.01: real time    0.01
     EDDAV:  cpu time   89.12: real time   89.14
       DOS:  cpu time    0.01: real time    0.01
    CHARGE:  cpu time    4.11: real time    4.11
    MIXING:  cpu time    0.01: real time    0.01
    --------------------------------------------
      LOOP:  cpu time  108.29: real time  108.34

 eigenvalue-minimisations  :  9224
 total energy-change (2. order) :-0.1848362E-01  (-0.1039504E+00)
 number of electron     107.9999995 magnetization 
 augmentation part       -9.3201133 magnetization 

 Broyden mixing:
  rms(total) = 0.10480E+00    rms(broyden)= 0.10479E+00
  rms(prec ) = 0.11457E+00
  weight for this iteration     100.00

 eigenvalues of (default mixing * dielectric matrix)
  average eigenvalue GAMMA=   1.4489
  2.3063  1.3180  0.7224

 Free energy of the ion-electron system (eV)
  ---------------------------------------------------
  alpha Z        PSCENC =        36.80884744
  Ewald energy   TEWEN  =     11928.13424606
  -Hartree energ DENC   =    -15054.01188840
  -exchange      EXHF   =         0.00000000
  -V(xc)+E(xc)   XCENC  =       -80.97792268
  PAW double counting   =      1167.25579465     -846.39122155
  entropy T*S    EENTRO =        -0.01939157
  eigenvalues    EBANDS =      -627.11914623
  atomic energy  EATOM  =      3354.04126044
  ---------------------------------------------------
  free energy    TOTEN  =      -122.27942182 eV

  energy without entropy =     -122.26003025  energy(sigma->0) =     -122.26972603


--------------------------------------------------------------------------------------------------------




----------------------------------------- Iteration    1(   9)  ---------------------------------------


    POTLOK:  cpu time   14.54: real time   14.55
    SETDIJ:  cpu time    0.01: real time    0.01
     EDDAV:  cpu time   69.86: real time   69.87
       DOS:  cpu time    0.01: real time    0.01
    CHARGE:  cpu time    4.15: real time    4.15
    MIXING:  cpu time    0.01: real time    0.01
    --------------------------------------------
      LOOP:  cpu time   88.59: real time   88.61

 eigenvalue-minimisations  :  9000
 total energy-change (2. order) : 0.2421289E-01  (-0.1586923E-01)
 number of electron     107.9999995 magnetization 
 augmentation part       -9.3222086 magnetization 

 Broyden mixing:
  rms(total) = 0.49013E-01    rms(broyden)= 0.49011E-01
  rms(prec ) = 0.52495E-01
  weight for this iteration     100.00

 eigenvalues of (default mixing * dielectric matrix)
  average eigenvalue GAMMA=   1.4628
  2.5424  1.7277  0.8877  0.6932

 Free energy of the ion-electron system (eV)
  ---------------------------------------------------
  alpha Z        PSCENC =        36.80884744
  Ewald energy   TEWEN  =     11928.13424606
  -Hartree energ DENC   =    -15060.20112504
  -exchange      EXHF   =         0.00000000
  -V(xc)+E(xc)   XCENC  =       -80.62976014
  PAW double counting   =      1165.91999904     -845.02822864
  entropy T*S    EENTRO =        -0.01984871
  eigenvalues    EBANDS =      -621.28059939
  atomic energy  EATOM  =      3354.04126044
  ---------------------------------------------------
  free energy    TOTEN  =      -122.25520893 eV

  energy without entropy =     -122.23536021  energy(sigma->0) =     -122.24528457


--------------------------------------------------------------------------------------------------------




----------------------------------------- Iteration    1(  10)  ---------------------------------------


    POTLOK:  cpu time   14.47: real time   14.50
    SETDIJ:  cpu time    0.01: real time    0.01
     EDDAV:  cpu time   67.98: real time   68.06
       DOS:  cpu time    0.01: real time    0.01
    CHARGE:  cpu time    4.15: real time    4.15
    MIXING:  cpu time    0.01: real time    0.01
    --------------------------------------------
      LOOP:  cpu time   86.65: real time   86.75

 eigenvalue-minimisations  :  8752
 total energy-change (2. order) : 0.1838405E-01  (-0.4687574E-02)
 number of electron     107.9999995 magnetization 
 augmentation part       -9.3271553 magnetization 

 Broyden mixing:
  rms(total) = 0.15573E-01    rms(broyden)= 0.15571E-01
  rms(prec ) = 0.17578E-01
  weight for this iteration     100.00

 eigenvalues of (default mixing * dielectric matrix)
  average eigenvalue GAMMA=   1.3946
  2.6073  1.5842  1.1922  0.6893  0.9002

 Free energy of the ion-electron system (eV)
  ---------------------------------------------------
  alpha Z        PSCENC =        36.80884744
  Ewald energy   TEWEN  =     11928.13424606
  -Hartree energ DENC   =    -15061.93085425
  -exchange      EXHF   =         0.00000000
  -V(xc)+E(xc)   XCENC  =       -80.46119778
  PAW double counting   =      1162.92755988     -841.95696484
  entropy T*S    EENTRO =        -0.01972735
  eigenvalues    EBANDS =      -619.77999448
  atomic energy  EATOM  =      3354.04126044
  ---------------------------------------------------
  free energy    TOTEN  =      -122.23682488 eV

  energy without entropy =     -122.21709753  energy(sigma->0) =     -122.22696120


--------------------------------------------------------------------------------------------------------




----------------------------------------- Iteration    1(  11)  ---------------------------------------


    POTLOK:  cpu time   14.44: real time   14.46
    SETDIJ:  cpu time    0.01: real time    0.01
     EDDAV:  cpu time   71.37: real time   71.38
       DOS:  cpu time    0.01: real time    0.01
    CHARGE:  cpu time    4.43: real time    4.43
    MIXING:  cpu time    0.01: real time    0.01
    --------------------------------------------
      LOOP:  cpu time   90.27: real time   90.31

 eigenvalue-minimisations  :  9000
 total energy-change (2. order) : 0.5785013E-02  (-0.7079720E-03)
 number of electron     107.9999995 magnetization 
 augmentation part       -9.3262439 magnetization 

 Broyden mixing:
  rms(total) = 0.79942E-02    rms(broyden)= 0.79933E-02
  rms(prec ) = 0.93247E-02
  weight for this iteration     100.00

 eigenvalues of (default mixing * dielectric matrix)
  average eigenvalue GAMMA=   1.4029
  2.6196  1.6217  1.6217  0.6893  0.9325  0.9325

 Free energy of the ion-electron system (eV)
  ---------------------------------------------------
  alpha Z        PSCENC =        36.80884744
  Ewald energy   TEWEN  =     11928.13424606
  -Hartree energ DENC   =    -15062.98413893
  -exchange      EXHF   =         0.00000000
  -V(xc)+E(xc)   XCENC  =       -80.42579188
  PAW double counting   =      1162.28081955     -841.29173233
  entropy T*S    EENTRO =        -0.01997734
  eigenvalues    EBANDS =      -618.77457288
  atomic energy  EATOM  =      3354.04126044
  ---------------------------------------------------
  free energy    TOTEN  =      -122.23103986 eV

  energy without entropy =     -122.21106252  energy(sigma->0) =     -122.22105119


--------------------------------------------------------------------------------------------------------




----------------------------------------- Iteration    1(  12)  ---------------------------------------


    POTLOK:  cpu time   14.60: real time   14.61
    SETDIJ:  cpu time    0.01: real time    0.01
     EDDAV:  cpu time   70.77: real time   70.79
       DOS:  cpu time    0.01: real time    0.01
    CHARGE:  cpu time    4.24: real time    4.24
    MIXING:  cpu time    0.01: real time    0.01
    --------------------------------------------
      LOOP:  cpu time   89.65: real time   89.68

 eigenvalue-minimisations  :  9192
 total energy-change (2. order) : 0.6086807E-02  (-0.1997948E-03)
 number of electron     107.9999995 magnetization 
 augmentation part       -9.3264532 magnetization 

 Broyden mixing:
  rms(total) = 0.40778E-02    rms(broyden)= 0.40771E-02
  rms(prec ) = 0.52703E-02
  weight for this iteration     100.00

 eigenvalues of (default mixing * dielectric matrix)
  average eigenvalue GAMMA=   1.4021
  2.6983  2.0256  1.2237  1.2237  0.6976  0.9285  1.0170

 Free energy of the ion-electron system (eV)
  ---------------------------------------------------
  alpha Z        PSCENC =        36.80884744
  Ewald energy   TEWEN  =     11928.13424606
  -Hartree energ DENC   =    -15064.11819976
  -exchange      EXHF   =         0.00000000
  -V(xc)+E(xc)   XCENC  =       -80.41600216
  PAW double counting   =      1161.43063471     -840.41802951
  entropy T*S    EENTRO =        -0.02004916
  eigenvalues    EBANDS =      -617.66766114
  atomic energy  EATOM  =      3354.04126044
  ---------------------------------------------------
  free energy    TOTEN  =      -122.22495306 eV

  energy without entropy =     -122.20490390  energy(sigma->0) =     -122.21492848


--------------------------------------------------------------------------------------------------------




----------------------------------------- Iteration    1(  13)  ---------------------------------------


    POTLOK:  cpu time   14.50: real time   14.50
    SETDIJ:  cpu time    0.01: real time    0.01
     EDDAV:  cpu time   70.79: real time   70.81
       DOS:  cpu time    0.01: real time    0.01
    CHARGE:  cpu time    4.03: real time    4.03
    MIXING:  cpu time    0.01: real time    0.01
    --------------------------------------------
      LOOP:  cpu time   89.35: real time   89.38

 eigenvalue-minimisations  :  9136
 total energy-change (2. order) : 0.3090660E-02  (-0.3284882E-04)
 number of electron     107.9999995 magnetization 
 augmentation part       -9.3265989 magnetization 

 Broyden mixing:
  rms(total) = 0.19952E-02    rms(broyden)= 0.19951E-02
  rms(prec ) = 0.31233E-02
  weight for this iteration     100.00

 eigenvalues of (default mixing * dielectric matrix)
  average eigenvalue GAMMA=   1.4460
  2.7357  2.3568  1.5156  0.6989  1.1228  1.1228  1.1516  0.8635

 Free energy of the ion-electron system (eV)
  ---------------------------------------------------
  alpha Z        PSCENC =        36.80884744
  Ewald energy   TEWEN  =     11928.13424606
  -Hartree energ DENC   =    -15064.83648571
  -exchange      EXHF   =         0.00000000
  -V(xc)+E(xc)   XCENC  =       -80.41083029
  PAW double counting   =      1160.95175650     -839.92676059
  entropy T*S    EENTRO =        -0.01993650
  eigenvalues    EBANDS =      -616.96395976
  atomic energy  EATOM  =      3354.04126044
  ---------------------------------------------------
  free energy    TOTEN  =      -122.22186240 eV

  energy without entropy =     -122.20192589  energy(sigma->0) =     -122.21189414


--------------------------------------------------------------------------------------------------------




----------------------------------------- Iteration    1(  14)  ---------------------------------------


    POTLOK:  cpu time   14.51: real time   14.52
    SETDIJ:  cpu time    0.01: real time    0.01
     EDDAV:  cpu time   72.12: real time   72.15
       DOS:  cpu time    0.01: real time    0.01
    CHARGE:  cpu time    4.31: real time    4.31
    MIXING:  cpu time    0.01: real time    0.01
    --------------------------------------------
      LOOP:  cpu time   90.98: real time   91.02

 eigenvalue-minimisations  :  9264
 total energy-change (2. order) : 0.1866165E-02  (-0.1334839E-04)
 number of electron     107.9999995 magnetization 
 augmentation part       -9.3263822 magnetization 

 Broyden mixing:
  rms(total) = 0.10807E-02    rms(broyden)= 0.10806E-02
  rms(prec ) = 0.19269E-02
  weight for this iteration     100.00

 eigenvalues of (default mixing * dielectric matrix)
  average eigenvalue GAMMA=   1.4953
  2.9964  2.5122  1.7455  0.6985  1.1710  1.1710  1.2725  0.8989  0.9917

 Free energy of the ion-electron system (eV)
  ---------------------------------------------------
  alpha Z        PSCENC =        36.80884744
  Ewald energy   TEWEN  =     11928.13424606
  -Hartree energ DENC   =    -15065.78083364
  -exchange      EXHF   =         0.00000000
  -V(xc)+E(xc)   XCENC  =       -80.40542539
  PAW double counting   =      1160.69858778     -839.66723163
  entropy T*S    EENTRO =        -0.01995039
  eigenvalues    EBANDS =      -616.02949691
  atomic energy  EATOM  =      3354.04126044
  ---------------------------------------------------
  free energy    TOTEN  =      -122.21999623 eV

  energy without entropy =     -122.20004584  energy(sigma->0) =     -122.21002104


--------------------------------------------------------------------------------------------------------




----------------------------------------- Iteration    1(  15)  ---------------------------------------


    POTLOK:  cpu time   14.46: real time   14.47
    SETDIJ:  cpu time    0.01: real time    0.01
     EDDAV:  cpu time   67.41: real time   67.42
       DOS:  cpu time    0.01: real time    0.01
    CHARGE:  cpu time    4.15: real time    4.15
    MIXING:  cpu time    0.01: real time    0.01
    --------------------------------------------
      LOOP:  cpu time   86.06: real time   86.08

 eigenvalue-minimisations  :  8528
 total energy-change (2. order) : 0.3970493E-03  (-0.5919723E-05)
 number of electron     107.9999995 magnetization 
 augmentation part       -9.3262171 magnetization 

 Broyden mixing:
  rms(total) = 0.65411E-03    rms(broyden)= 0.65408E-03
  rms(prec ) = 0.11851E-02
  weight for this iteration     100.00

 eigenvalues of (default mixing * dielectric matrix)
  average eigenvalue GAMMA=   1.5858
  3.4805  2.6918  2.0810  1.6780  1.1328  1.1328  0.6987  0.8686  1.0470  1.0470

 Free energy of the ion-electron system (eV)
  ---------------------------------------------------
  alpha Z        PSCENC =        36.80884744
  Ewald energy   TEWEN  =     11928.13424606
  -Hartree energ DENC   =    -15066.60488939
  -exchange      EXHF   =         0.00000000
  -V(xc)+E(xc)   XCENC  =       -80.39966869
  PAW double counting   =      1160.63039472     -839.59756321
  entropy T*S    EENTRO =        -0.01995765
  eigenvalues    EBANDS =      -615.21226890
  atomic energy  EATOM  =      3354.04126044
  ---------------------------------------------------
  free energy    TOTEN  =      -122.21959918 eV

  energy without entropy =     -122.19964153  energy(sigma->0) =     -122.20962035


--------------------------------------------------------------------------------------------------------




----------------------------------------- Iteration    1(  16)  ---------------------------------------


    POTLOK:  cpu time   14.44: real time   14.45
    SETDIJ:  cpu time    0.01: real time    0.01
     EDDAV:  cpu time   68.07: real time   68.10
       DOS:  cpu time    0.01: real time    0.01
    CHARGE:  cpu time    4.22: real time    4.22
    MIXING:  cpu time    0.01: real time    0.01
    --------------------------------------------
      LOOP:  cpu time   86.77: real time   86.85

 eigenvalue-minimisations  :  8152
 total energy-change (2. order) :-0.5017637E-03  (-0.9535537E-05)
 number of electron     107.9999995 magnetization 
 augmentation part       -9.3261330 magnetization 

 Broyden mixing:
  rms(total) = 0.38112E-03    rms(broyden)= 0.38109E-03
  rms(prec ) = 0.65024E-03
  weight for this iteration     100.00

 eigenvalues of (default mixing * dielectric matrix)
  average eigenvalue GAMMA=   1.7035
  4.6527  2.7266  2.2921  1.6126  1.6126  1.1571  1.1571  0.6987  0.8699  0.9793
  0.9793

 Free energy of the ion-electron system (eV)
  ---------------------------------------------------
  alpha Z        PSCENC =        36.80884744
  Ewald energy   TEWEN  =     11928.13424606
  -Hartree energ DENC   =    -15067.31408336
  -exchange      EXHF   =         0.00000000
  -V(xc)+E(xc)   XCENC  =       -80.39610278
  PAW double counting   =      1160.64215217     -839.60977705
  entropy T*S    EENTRO =        -0.01995906
  eigenvalues    EBANDS =      -614.50668481
  atomic energy  EATOM  =      3354.04126044
  ---------------------------------------------------
  free energy    TOTEN  =      -122.22010095 eV

  energy without entropy =     -122.20014188  energy(sigma->0) =     -122.21012142


--------------------------------------------------------------------------------------------------------




----------------------------------------- Iteration    1(  17)  ---------------------------------------


    POTLOK:  cpu time   14.53: real time   14.53
    SETDIJ:  cpu time    0.01: real time    0.01
     EDDAV:  cpu time   86.97: real time   87.00
       DOS:  cpu time    0.01: real time    0.01
    CHARGE:  cpu time    4.26: real time    4.26
    MIXING:  cpu time    0.01: real time    0.01
    --------------------------------------------
      LOOP:  cpu time  105.80: real time  105.84

 eigenvalue-minimisations  :  7728
 total energy-change (2. order) :-0.3224300E-03  (-0.1522759E-04)
 number of electron     107.9999995 magnetization 
 augmentation part       -9.3260691 magnetization 

 Broyden mixing:
  rms(total) = 0.20426E-03    rms(broyden)= 0.20424E-03
  rms(prec ) = 0.36369E-03
  weight for this iteration     100.00

 eigenvalues of (default mixing * dielectric matrix)
  average eigenvalue GAMMA=   1.8126
  5.8261  2.8491  2.4509  1.9479  1.6408  1.1578  1.1578  0.6987  1.1517  0.8661
  1.0022  1.0022

 Free energy of the ion-electron system (eV)
  ---------------------------------------------------
  alpha Z        PSCENC =        36.80884744
  Ewald energy   TEWEN  =     11928.13424606
  -Hartree energ DENC   =    -15067.72783788
  -exchange      EXHF   =         0.00000000
  -V(xc)+E(xc)   XCENC  =       -80.39397467
  PAW double counting   =      1160.66082242     -839.62883764
  entropy T*S    EENTRO =        -0.01995622
  eigenvalues    EBANDS =      -614.09499333
  atomic energy  EATOM  =      3354.04126044
  ---------------------------------------------------
  free energy    TOTEN  =      -122.22042338 eV

  energy without entropy =     -122.20046716  energy(sigma->0) =     -122.21044527


--------------------------------------------------------------------------------------------------------




----------------------------------------- Iteration    1(  18)  ---------------------------------------


    POTLOK:  cpu time   15.13: real time   15.15
    SETDIJ:  cpu time    0.01: real time    0.01
     EDDAV:  cpu time  101.37: real time  101.44
       DOS:  cpu time    0.01: real time    0.01
    CHARGE:  cpu time    5.66: real time    5.67
    MIXING:  cpu time    0.02: real time    0.02
    --------------------------------------------
      LOOP:  cpu time  122.22: real time  122.30

 eigenvalue-minimisations  :  7488
 total energy-change (2. order) :-0.1103790E-03  (-0.4949132E-05)
 number of electron     107.9999995 magnetization 
 augmentation part       -9.3260668 magnetization 

 Broyden mixing:
  rms(total) = 0.13497E-03    rms(broyden)= 0.13496E-03
  rms(prec ) = 0.23570E-03
  weight for this iteration     100.00

 eigenvalues of (default mixing * dielectric matrix)
  average eigenvalue GAMMA=   1.8281
  6.2002  2.9044  2.6113  2.0383  1.5611  1.5611  1.1712  1.1712  0.6987  0.8717
  1.0018  1.0018  0.9730

 Free energy of the ion-electron system (eV)
  ---------------------------------------------------
  alpha Z        PSCENC =        36.80884744
  Ewald energy   TEWEN  =     11928.13424606
  -Hartree energ DENC   =    -15067.93625353
  -exchange      EXHF   =         0.00000000
  -V(xc)+E(xc)   XCENC  =       -80.39336462
  PAW double counting   =      1160.66712492     -839.63516815
  entropy T*S    EENTRO =        -0.01995599
  eigenvalues    EBANDS =      -613.88727032
  atomic energy  EATOM  =      3354.04126044
  ---------------------------------------------------
  free energy    TOTEN  =      -122.22053375 eV

  energy without entropy =     -122.20057776  energy(sigma->0) =     -122.21055576


--------------------------------------------------------------------------------------------------------




----------------------------------------- Iteration    1(  19)  ---------------------------------------


    POTLOK:  cpu time   15.23: real time   15.24
    SETDIJ:  cpu time    0.01: real time    0.02
     EDDAV:  cpu time   60.16: real time   60.18
       DOS:  cpu time    0.01: real time    0.01
    CHARGE:  cpu time    4.63: real time    4.63
    MIXING:  cpu time    0.01: real time    0.02
    --------------------------------------------
      LOOP:  cpu time   80.07: real time   80.17

 eigenvalue-minimisations  :  6160
 total energy-change (2. order) :-0.2858257E-04  (-0.7584747E-06)
 number of electron     107.9999995 magnetization 
 augmentation part       -9.3260683 magnetization 

 Broyden mixing:
  rms(total) = 0.87088E-04    rms(broyden)= 0.87086E-04
  rms(prec ) = 0.15992E-03
  weight for this iteration     100.00

 eigenvalues of (default mixing * dielectric matrix)
  average eigenvalue GAMMA=   1.8887
  6.6981  3.2512  2.6694  2.2881  1.7808  1.7808  1.1735  1.1735  0.6987  0.8737
  1.0480  1.0480  0.9786  0.9786

 Free energy of the ion-electron system (eV)
  ---------------------------------------------------
  alpha Z        PSCENC =        36.80884744
  Ewald energy   TEWEN  =     11928.13424606
  -Hartree energ DENC   =    -15068.00272499
  -exchange      EXHF   =         0.00000000
  -V(xc)+E(xc)   XCENC  =       -80.39315327
  PAW double counting   =      1160.66754392     -839.63556376
  entropy T*S    EENTRO =        -0.01995773
  eigenvalues    EBANDS =      -613.82106046
  atomic energy  EATOM  =      3354.04126044
  ---------------------------------------------------
  free energy    TOTEN  =      -122.22056234 eV

  energy without entropy =     -122.20060461  energy(sigma->0) =     -122.21058347


--------------------------------------------------------------------------------------------------------




----------------------------------------- Iteration    1(  20)  ---------------------------------------


    POTLOK:  cpu time   14.77: real time   14.77
    SETDIJ:  cpu time    0.01: real time    0.01
     EDDAV:  cpu time   63.94: real time   63.95
       DOS:  cpu time    0.01: real time    0.01
    CHARGE:  cpu time    4.12: real time    4.13
    MIXING:  cpu time    0.02: real time    0.02
    --------------------------------------------
      LOOP:  cpu time   82.88: real time   82.90

 eigenvalue-minimisations  :  7296
 total energy-change (2. order) :-0.1073319E-04  (-0.3744483E-05)
 number of electron     107.9999995 magnetization 
 augmentation part       -9.3260670 magnetization 

 Broyden mixing:
  rms(total) = 0.62571E-04    rms(broyden)= 0.62568E-04
  rms(prec ) = 0.96681E-04
  weight for this iteration     100.00

 eigenvalues of (default mixing * dielectric matrix)
  average eigenvalue GAMMA=   1.9286
  6.9390  3.6009  2.7832  2.4469  1.8559  1.6731  1.6731  1.1782  1.1782  0.6987
  1.0139  1.0139  0.8792  1.0358  0.9589

 Free energy of the ion-electron system (eV)
  ---------------------------------------------------
  alpha Z        PSCENC =        36.80884744
  Ewald energy   TEWEN  =     11928.13424606
  -Hartree energ DENC   =    -15068.06659840
  -exchange      EXHF   =         0.00000000
  -V(xc)+E(xc)   XCENC  =       -80.39316837
  PAW double counting   =      1160.66430298     -839.63223795
  entropy T*S    EENTRO =        -0.01995846
  eigenvalues    EBANDS =      -613.75726682
  atomic energy  EATOM  =      3354.04126044
  ---------------------------------------------------
  free energy    TOTEN  =      -122.22057307 eV

  energy without entropy =     -122.20061461  energy(sigma->0) =     -122.21059384


--------------------------------------------------------------------------------------------------------




----------------------------------------- Iteration    1(  21)  ---------------------------------------


    POTLOK:  cpu time   14.66: real time   14.67
    SETDIJ:  cpu time    0.01: real time    0.01
     EDDAV:  cpu time   56.53: real time   56.55
       DOS:  cpu time    0.01: real time    0.01
    CHARGE:  cpu time    4.17: real time    4.17
    MIXING:  cpu time    0.02: real time    0.02
    --------------------------------------------
      LOOP:  cpu time   75.40: real time   75.43

 eigenvalue-minimisations  :  6344
 total energy-change (2. order) : 0.2150472E-04  (-0.1516488E-05)
 number of electron     107.9999995 magnetization 
 augmentation part       -9.3260665 magnetization 

 Broyden mixing:
  rms(total) = 0.33727E-04    rms(broyden)= 0.33726E-04
  rms(prec ) = 0.50826E-04
  weight for this iteration     100.00

 eigenvalues of (default mixing * dielectric matrix)
  average eigenvalue GAMMA=   2.0802
  7.6317  5.4496  2.8905  2.5919  2.0627  1.9198  1.1824  1.1824  1.3997  1.3997
  0.6987  0.8787  0.9909  0.9909  1.0707  0.9431

 Free energy of the ion-electron system (eV)
  ---------------------------------------------------
  alpha Z        PSCENC =        36.80884744
  Ewald energy   TEWEN  =     11928.13424606
  -Hartree energ DENC   =    -15068.07730234
  -exchange      EXHF   =         0.00000000
  -V(xc)+E(xc)   XCENC  =       -80.39328892
  PAW double counting   =      1160.66267158     -839.63058848
  entropy T*S    EENTRO =        -0.01995777
  eigenvalues    EBANDS =      -613.74643958
  atomic energy  EATOM  =      3354.04126044
  ---------------------------------------------------
  free energy    TOTEN  =      -122.22055157 eV

  energy without entropy =     -122.20059379  energy(sigma->0) =     -122.21057268


--------------------------------------------------------------------------------------------------------




----------------------------------------- Iteration    1(  22)  ---------------------------------------


    POTLOK:  cpu time   14.63: real time   14.64
    SETDIJ:  cpu time    0.01: real time    0.01
     EDDAV:  cpu time   61.87: real time   61.90
       DOS:  cpu time    0.01: real time    0.01
    CHARGE:  cpu time    4.70: real time    4.70
    MIXING:  cpu time    0.02: real time    0.02
    --------------------------------------------
      LOOP:  cpu time   81.24: real time   81.29

 eigenvalue-minimisations  :  6832
 total energy-change (2. order) : 0.8530800E-04  (-0.1977201E-05)
 number of electron     107.9999995 magnetization 
 augmentation part       -9.3260665 magnetization 

 Broyden mixing:
  rms(total) = 0.18189E-04    rms(broyden)= 0.18186E-04
  rms(prec ) = 0.23135E-04
  weight for this iteration     100.00

 eigenvalues of (default mixing * dielectric matrix)
  average eigenvalue GAMMA=   2.0834
  7.6064  6.1550  2.9569  2.6675  2.2139  1.8341  1.5825  1.5825  1.1791  1.1791
  0.6987  1.0765  1.0050  1.0050  0.8658  0.9048  0.9048

 Free energy of the ion-electron system (eV)
  ---------------------------------------------------
  alpha Z        PSCENC =        36.80884744
  Ewald energy   TEWEN  =     11928.13424606
  -Hartree energ DENC   =    -15068.10061286
  -exchange      EXHF   =         0.00000000
  -V(xc)+E(xc)   XCENC  =       -80.39326083
  PAW double counting   =      1160.66152930     -839.62943258
  entropy T*S    EENTRO =        -0.01995825
  eigenvalues    EBANDS =      -613.72308500
  atomic energy  EATOM  =      3354.04126044
  ---------------------------------------------------
  free energy    TOTEN  =      -122.22046626 eV

  energy without entropy =     -122.20050801  energy(sigma->0) =     -122.21048713


--------------------------------------------------------------------------------------------------------




----------------------------------------- Iteration    1(  23)  ---------------------------------------


    POTLOK:  cpu time   14.80: real time   14.80
    SETDIJ:  cpu time    0.01: real time    0.01
     EDDAV:  cpu time   54.91: real time   54.93
       DOS:  cpu time    0.01: real time    0.01
    CHARGE:  cpu time    3.95: real time    3.95
    MIXING:  cpu time    0.02: real time    0.02
    --------------------------------------------
      LOOP:  cpu time   73.70: real time   73.74

 eigenvalue-minimisations  :  6136
 total energy-change (2. order) : 0.4822299E-05  (-0.1030007E-05)
 number of electron     107.9999995 magnetization 
 augmentation part       -9.3260671 magnetization 

 Broyden mixing:
  rms(total) = 0.10834E-04    rms(broyden)= 0.10832E-04
  rms(prec ) = 0.13162E-04
  weight for this iteration     100.00

 eigenvalues of (default mixing * dielectric matrix)
  average eigenvalue GAMMA=   2.1753
  8.8091  6.6311  3.1768  2.6919  2.3747  1.8630  1.8630  1.3620  1.3620  1.1861
  1.1861  0.6987  1.1468  0.9959  0.9959  0.8783  0.9302  1.0030

 Free energy of the ion-electron system (eV)
  ---------------------------------------------------
  alpha Z        PSCENC =        36.80884744
  Ewald energy   TEWEN  =     11928.13424606
  -Hartree energ DENC   =    -15068.09409184
  -exchange      EXHF   =         0.00000000
  -V(xc)+E(xc)   XCENC  =       -80.39331033
  PAW double counting   =      1160.66159899     -839.62950618
  entropy T*S    EENTRO =        -0.01995819
  eigenvalues    EBANDS =      -613.72954783
  atomic energy  EATOM  =      3354.04126044
  ---------------------------------------------------
  free energy    TOTEN  =      -122.22046143 eV

  energy without entropy =     -122.20050325  energy(sigma->0) =     -122.21048234


[...]
     31      -4.1190      2.00000
     32      -4.0103      2.00000
     33      -3.7657      2.00000
     34      -3.6423      2.00000
     35      -3.3502      2.00000
     36      -3.2510      2.00000
     37      -3.1948      2.00000
     38      -3.0845      2.00000
     39      -2.7660      2.00000
     40      -2.6780      2.00000
     41      -2.6271      2.00000
     42      -2.5636      2.00000
     43      -2.5088      2.00000
     44      -2.2605      2.00000
     45      -2.0260      2.00000
     46      -1.9357      2.00000
     47      -1.7920      2.00000
     48      -1.5487      2.00000
     49      -1.4052      2.00000
     50      -1.1030      2.00000
     51      -1.0290      2.00000
     52      -0.5968      2.00000
     53      -0.3296      2.00000
     54      -0.0785      1.95472
     55       0.1542      0.19773
     56       0.9004      0.00000
     57       1.2854      0.00000
     58       1.4661      0.00000
     59       1.5510      0.00000
     60       1.7065      0.00000
     61       2.0517      0.00000
     62       2.2490      0.00000
     63       2.4809      0.00000
     64       2.6072      0.00000
     65       2.6938      0.00000
     66       2.8828      0.00000
     67       3.0283      0.00000
     68       3.2231      0.00000

 k-point    52 :       0.3077    0.5000    0.5000
  band No.  band energies     occupation 
      1     -13.9321      2.00000
      2     -12.5294      2.00000
      3     -12.1876      2.00000
      4     -12.0426      2.00000
      5     -11.6636      2.00000
      6     -11.4162      2.00000
      7     -11.3332      2.00000
      8     -11.0362      2.00000
      9     -10.8306      2.00000
     10     -10.7717      2.00000
     11     -10.4158      2.00000
     12      -9.7205      2.00000
     13      -8.9439      2.00000
     14      -8.8713      2.00000
     15      -7.7944      2.00000
     16      -7.7653      2.00000
     17      -7.3605      2.00000
     18      -7.0868      2.00000
     19      -6.9869      2.00000
     20      -6.6991      2.00000
     21      -6.3974      2.00000
     22      -6.2102      2.00000
     23      -5.9464      2.00000
     24      -5.8578      2.00000
     25      -5.3811      2.00000
     26      -5.0548      2.00000
     27      -4.9252      2.00000
     28      -4.8299      2.00000
     29      -4.5263      2.00000
     30      -4.4582      2.00000
     31      -4.3699      2.00000
     32      -4.2349      2.00000
     33      -4.1036      2.00000
     34      -3.7447      2.00000
     35      -3.3069      2.00000
     36      -3.2596      2.00000
     37      -3.1237      2.00000
     38      -3.0503      2.00000
     39      -2.9691      2.00000
     40      -2.9152      2.00000
     41      -2.6610      2.00000
     42      -2.5541      2.00000
     43      -2.4630      2.00000
     44      -2.3646      2.00000
     45      -2.2218      2.00000
     46      -1.9716      2.00000
     47      -1.9221      2.00000
     48      -1.7889      2.00000
     49      -1.7468      2.00000
     50      -1.4269      2.00000
     51      -1.2926      2.00000
     52      -0.8239      2.00000
     53      -0.5831      2.00000
     54      -0.4905      2.00000
     55      -0.1430      1.99643
     56       0.7463      0.00000
     57       1.1161      0.00000
     58       1.2750      0.00000
     59       1.3571      0.00000
     60       1.5883      0.00000
     61       1.9212      0.00000
     62       2.1575      0.00000
     63       2.2343      0.00000
     64       2.4304      0.00000
     65       2.5259      0.00000
     66       2.5924      0.00000
     67       2.6499      0.00000
     68       2.9560      0.00000

 k-point    53 :       0.3846    0.5000    0.5000
  band No.  band energies     occupation 
      1     -13.5535      2.00000
      2     -12.0532      2.00000
      3     -11.6940      2.00000
      4     -11.6884      2.00000
      5     -11.2678      2.00000
      6     -11.2200      2.00000
      7     -10.9834      2.00000
      8     -10.7919      2.00000
      9     -10.6398      2.00000
     10     -10.6101      2.00000
     11     -10.4825      2.00000
     12      -9.7327      2.00000
     13      -9.1834      2.00000
     14      -8.9278      2.00000
     15      -8.2701      2.00000
     16      -7.7540      2.00000
     17      -7.6797      2.00000
     18      -7.6348      2.00000
     19      -7.4017      2.00000
     20      -7.0799      2.00000
     21      -6.8801      2.00000
     22      -6.7422      2.00000
     23      -6.6780      2.00000
     24      -6.3793      2.00000
     25      -5.3226      2.00000
     26      -5.0810      2.00000
     27      -4.7763      2.00000
     28      -4.6946      2.00000
     29      -4.5357      2.00000
     30      -4.3927      2.00000
     31      -4.1743      2.00000
     32      -4.1285      2.00000
     33      -4.0583      2.00000
     34      -3.7700      2.00000
     35      -3.5559      2.00000
     36      -3.5225      2.00000
     37      -3.2136      2.00000
     38      -3.1662      2.00000
     39      -3.1147      2.00000
     40      -2.9046      2.00000
     41      -2.8893      2.00000
     42      -2.7058      2.00000
     43      -2.4992      2.00000
     44      -2.3412      2.00000
     45      -2.2762      2.00000
     46      -2.1219      2.00000
     47      -2.0834      2.00000
     48      -1.9521      2.00000
     49      -1.8428      2.00000
     50      -1.7408      2.00000
     51      -1.4524      2.00000
     52      -1.1517      2.00000
     53      -0.8217      2.00000
     54      -0.5709      2.00000
     55      -0.2667      2.00000
     56       0.7014      0.00000
     57       0.9971      0.00000
     58       1.2493      0.00000
     59       1.4264      0.00000
     60       1.5232      0.00000
     61       1.8067      0.00000
     62       1.9621      0.00000
     63       2.0697      0.00000
     64       2.1364      0.00000
     65       2.2446      0.00000
     66       2.3186      0.00000
     67       2.4443      0.00000
     68       2.6235      0.00000

 k-point    54 :       0.4615    0.5000    0.5000
  band No.  band energies     occupation 
      1     -13.2606      2.00000
      2     -11.5908      2.00000
      3     -11.5097      2.00000
      4     -11.1925      2.00000
      5     -11.0003      2.00000
      6     -10.9648      2.00000
      7     -10.8716      2.00000
      8     -10.7457      2.00000
      9     -10.7002      2.00000
     10     -10.6410      2.00000
     11     -10.5927      2.00000
     12      -9.7695      2.00000
     13      -9.3512      2.00000
     14      -8.6873      2.00000
     15      -8.4594      2.00000
     16      -8.1403      2.00000
     17      -7.9122      2.00000
     18      -7.8125      2.00000
     19      -7.5776      2.00000
     20      -7.4391      2.00000
     21      -7.3076      2.00000
     22      -7.1951      2.00000
     23      -7.0307      2.00000
     24      -6.6704      2.00000
     25      -4.9697      2.00000
     26      -4.8893      2.00000
     27      -4.6420      2.00000
     28      -4.5021      2.00000
     29      -4.3359      2.00000
     30      -4.2988      2.00000
     31      -4.1581      2.00000
     32      -4.0948      2.00000
     33      -3.9672      2.00000
     34      -3.8277      2.00000
     35      -3.7912      2.00000
     36      -3.5932      2.00000
     37      -3.5503      2.00000
     38      -3.2960      2.00000
     39      -3.2801      2.00000
     40      -3.0983      2.00000
     41      -3.0312      2.00000
     42      -2.7306      2.00000
     43      -2.6611      2.00000
     44      -2.3995      2.00000
     45      -2.2882      2.00000
     46      -2.1704      2.00000
     47      -2.1237      2.00000
     48      -1.9591      2.00000
     49      -1.8480      2.00000
     50      -1.7127      2.00000
     51      -1.5476      2.00000
     52      -1.3815      2.00000
     53      -0.9750      2.00000
     54      -0.5355      2.00000
     55      -0.3158      2.00000
     56       0.6731      0.00000
     57       1.0308      0.00000
     58       1.2937      0.00000
     59       1.3587      0.00000
     60       1.5790      0.00000
     61       1.6320      0.00000
     62       1.8545      0.00000
     63       1.9584      0.00000
     64       2.0077      0.00000
     65       2.1086      0.00000
     66       2.2960      0.00000
     67       2.3459      0.00000
     68       2.4360      0.00000


--------------------------------------------------------------------------------------------------------


 soft charge-density along one line, spin component           1
         0         1         2         3         4         5         6         7         8         9
 total charge-density along one line
 
 pseudopotential strength for first ion, spin component:           1
 29.777   0.008  -0.000  -0.023  -0.000  -0.000  -0.001   0.000
  0.008   0.009  -0.000  -0.000   0.000   0.000   0.000  -0.000
 -0.000  -0.000   6.548  -0.001   0.000  -0.003   0.000  -0.000
 -0.023  -0.000  -0.001   6.543  -0.000   0.000  -0.002  -0.000
 -0.000   0.000   0.000  -0.000   6.549  -0.000  -0.000  -0.003
 -0.000   0.000  -0.003   0.000  -0.000   0.015  -0.000   0.000
 -0.001   0.000   0.000  -0.002  -0.000  -0.000   0.015   0.000
  0.000  -0.000  -0.000  -0.000  -0.003   0.000   0.000   0.015
 total augmentation occupancy for first ion, spin component:           1
  1.817  -0.350   0.006   0.257  -0.000   0.005   0.114  -0.001
 -0.350   1.304   0.025   0.864  -0.000   0.003  -0.433  -0.000
  0.006   0.025   1.141   0.012   0.000  -0.504   0.015  -0.000
  0.257   0.864   0.012   1.290   0.000   0.015  -0.419  -0.001
 -0.000  -0.000   0.000   0.000   1.143  -0.000  -0.000  -0.527
  0.005   0.003  -0.504   0.015  -0.000   0.292  -0.016   0.000
  0.114  -0.433   0.015  -0.419  -0.000  -0.016   0.227   0.000
 -0.001  -0.000  -0.000  -0.001  -0.527   0.000   0.000   0.325


------------------------ aborting loop because EDIFF is reached ----------------------------------------


    CHARGE:  cpu time    4.23: real time    4.23
    FORLOC:  cpu time    0.05: real time    0.06
    FORNL :  cpu time   18.29: real time   18.29
    STRESS:  cpu time   57.97: real time   57.98
    FORCOR:  cpu time   14.72: real time   14.72
    FORHAR:  cpu time    0.14: real time    0.14
    MIXING:  cpu time    0.02: real time    0.02
    OFIELD:  cpu time    0.00: real time    0.00

  FORCE on cell =-STRESS in cart. coord.  units (eV):
  Direction    XX          YY          ZZ          XY          YZ          ZX
  --------------------------------------------------------------------------------------
  Alpha Z    36.80885    36.80885    36.80885
  Ewald   14378.69293 13967.75654-16418.32269    -3.83695   -35.75360    -2.63454
  Hartree 14903.19388 14594.41108-14429.50770    -0.54522    -3.63081    -4.85977
  E(xc)    -357.11853  -356.74155  -355.44915     0.11658    -0.00213    -0.43095
  Local  -30829.98885-30120.11581 29263.39697     3.43170    33.87580     6.50162
  n-local  1153.46868  1155.47090  1148.57474    -1.21185    -6.69417     8.74206
  augment  -201.57548  -202.64826  -204.70183     0.14175    -0.26692    -0.40041
  Kinetic   926.39412   928.67930   975.71946    -3.56311    12.26568    -1.70594
  Fock        0.00000     0.00000     0.00000     0.00000     0.00000     0.00000
  -------------------------------------------------------------------------------------
  Total       9.87560     3.62104    16.51865    -5.46710    -0.20614     5.21207
  in kB      15.78583     5.78812    26.40454    -8.73898    -0.32950     8.33133
  external pressure =       15.99 kB  Pullay stress =        0.00 kB


 VOLUME and BASIS-vectors are now :
 -----------------------------------------------------------------------------
  energy-cutoff  :      300.00
  volume of cell :     1002.32
      direct lattice vectors                 reciprocal lattice vectors
     3.540400000  0.000000000  0.000000000     0.282453960  0.048570342  0.000000000
    -1.770200000 10.294348000  0.000000000     0.000000000  0.097140683  0.000000000
     0.000000000  0.000000000 27.501429000     0.000000000  0.000000000  0.036361747

  length of vectors
     3.540400000 10.445439617 27.501429000     0.286599577  0.097140683  0.036361747


 FORCES acting on ions
    electron-ion (+dipol)            ewald-force                    non-local-force                 convergence-correction
 -----------------------------------------------------------------------------------------------
   0.426E-01 0.447E+01 0.290E+02   0.716E-02 -.434E+01 -.243E+02   -.213E-01 -.183E+00 -.469E+01   0.141E-06 -.127E-05 -.752E-05
   0.273E+00 -.142E+02 -.566E+03   -.373E+00 0.147E+02 0.570E+03   -.660E-02 -.115E+00 -.370E+01   0.865E-07 -.106E-05 0.293E-04
   0.195E-01 0.646E+02 0.510E+02   -.940E-02 -.661E+02 -.468E+02   -.879E-02 0.149E+01 -.409E+01   -.253E-07 0.304E-05 -.755E-05
   0.195E+01 0.485E+02 -.557E+03   -.151E+01 -.497E+02 0.561E+03   -.128E+01 0.158E+01 -.309E+01   0.513E-06 -.758E-06 0.206E-04
   -.168E-02 -.570E+02 0.526E+03   0.790E-04 0.586E+02 -.530E+03   0.740E-03 -.154E+01 0.429E+01   -.691E-07 -.120E-05 -.163E-04
   -.648E+00 -.550E+02 -.764E+02   -.515E+00 0.567E+02 0.732E+02   0.405E+00 -.229E+01 0.457E+01   0.577E-07 -.479E-05 -.104E-05
   0.528E-02 0.539E+02 0.526E+03   0.337E-04 -.558E+02 -.531E+03   -.225E-03 0.190E+01 0.417E+01   -.102E-07 0.402E-06 -.157E-04
   -.182E+02 0.767E+02 -.273E+02   0.182E+02 -.773E+02 0.250E+02   0.201E+01 0.398E+00 -.113E+01   -.479E-08 0.938E-05 0.793E-06
   -.634E-03 0.158E+01 0.572E+03   -.874E-04 -.179E+01 -.577E+03   0.184E-02 0.205E+00 0.478E+01   -.265E-07 0.259E-05 -.220E-04
   0.314E+00 -.309E+02 -.232E+02   -.117E+00 0.312E+02 0.193E+02   0.867E-01 -.637E+00 0.353E+01   -.805E-06 -.497E-05 0.148E-05
   -.669E-02 -.637E+02 0.566E+02   0.119E-02 0.656E+02 -.525E+02   0.454E-02 -.191E+01 -.403E+01   -.303E-07 -.329E-05 -.782E-05
   0.177E+00 -.360E+02 -.506E+03   0.516E+00 0.377E+02 0.511E+03   0.146E+00 -.146E+01 -.463E+01   0.663E-06 0.291E-05 0.204E-04
   -.750E-02 0.315E+02 0.209E+03   0.532E-03 -.336E+02 -.210E+03   0.104E-01 0.214E+01 0.377E+00   -.109E-08 0.586E-06 -.776E-05
   -.190E+02 0.232E+02 -.326E+03   0.150E+02 -.229E+02 0.322E+03   0.114E+02 -.340E+01 0.156E+02   -.200E-05 0.382E-05 0.828E-05
   0.313E-02 -.131E+02 0.138E+03   0.526E-04 0.133E+02 -.140E+03   -.412E-02 -.264E+00 0.255E+01   0.237E-07 -.267E-05 -.589E-05
   0.279E+01 -.136E+02 -.301E+03   -.281E+01 0.140E+02 0.302E+03   0.162E+00 -.644E-01 -.204E+01   -.343E-06 -.139E-05 0.149E-04
   -.179E-02 -.539E+01 0.345E+03   0.724E-04 0.586E+01 -.343E+03   0.528E-03 -.470E+00 -.252E+01   -.852E-08 0.108E-05 -.119E-04
   0.137E+01 -.365E+02 -.143E+03   -.831E+00 0.383E+02 0.142E+03   0.457E+00 -.152E+01 0.161E+01   -.260E-06 -.356E-05 0.181E-06
   0.352E-02 0.950E+01 0.335E+03   -.324E-04 -.976E+01 -.333E+03   -.213E-02 0.234E+00 -.256E+01   -.882E-09 0.731E-06 -.104E-04
   0.249E+02 -.880E+01 -.107E+03   -.213E+02 0.785E+01 0.112E+03   -.111E+02 0.535E+01 -.158E+02   0.521E-06 0.639E-05 0.336E-05
   -.543E-01 0.101E+02 0.128E+03   -.161E-02 -.104E+02 -.130E+03   0.507E-01 0.328E+00 0.250E+01   -.255E-07 0.251E-05 -.281E-05
   -.200E+01 -.157E+02 -.334E+03   0.110E+01 0.152E+02 0.333E+03   0.180E-01 0.679E+00 0.486E-01   -.338E-07 0.464E-06 0.162E-04
   0.396E-03 -.309E+02 0.254E+03   0.544E-05 0.330E+02 -.253E+03   0.187E-02 -.212E+01 -.370E+00   0.192E-07 -.115E-05 -.112E-04
   0.281E+01 0.631E+02 -.202E+03   -.735E+01 -.604E+02 0.200E+03   0.301E+01 -.488E+01 0.230E+01   0.167E-06 -.126E-06 0.116E-04
 -----------------------------------------------------------------------------------------------
   -.528E+01 0.654E+01 0.238E+01   -.213E-13 0.497E-13 -.568E-13   0.528E+01 -.654E+01 -.237E+01   -.145E-05 0.765E-05 -.879E-06
 
 
 POSITION                                       TOTAL-FORCE (eV/Angst)
 -----------------------------------------------------------------------------------
      0.00000      2.34757      6.41229         0.028270     -0.055895      0.014097
     -0.70808      4.40644     14.16300        -0.106168      0.345810      0.117966
     -0.00000      9.43147      5.75866         0.001060     -0.008636      0.081865
      1.06212      1.19599     13.50937        -0.845635      0.424866      1.329961
     -0.00000      6.40009      2.31424        -0.001067     -0.002428      0.006372
     -0.00000      6.40009     10.06495        -0.758450     -0.538102      1.432805
      1.77020     10.27849      2.37372         0.004886     -0.008266     -0.001213
      1.77020     10.27849     10.12443         2.019795     -0.209925     -3.396386
      1.77020      3.18974      1.66157         0.000911     -0.000552      0.013519
      1.77020      3.18974      9.41228         0.283623     -0.296091     -0.299969
      1.77020      5.55354      5.69975        -0.001168      0.007793      0.092824
      1.06212      7.61241     13.45047         0.838529      0.285594      0.236471
      1.77020      9.05319      4.34076         0.003255     -0.003510      0.002341
      2.83232      0.81771     12.09147         7.302455     -3.084987     11.890079
      0.00000      4.22380      5.10944        -0.001144      0.006207      0.063212
     -0.70808      6.28267     12.86016         0.136760      0.398525     -1.223992
     -0.00000      4.15582      2.74166        -0.001393      0.000587     -0.022240
     -0.00000      4.15582     10.49237         0.999029      0.293858      0.657890
      1.77020      1.31366      2.96438         0.001152     -0.018353     -0.001720
      1.77020      1.31366     10.71510        -7.499044      4.408853    -11.264930
      1.77020      1.38163      5.33187        -0.005448     -0.001448     -0.013505
      1.06212      3.44049     13.08259        -0.883740      0.189440     -0.816066
      1.77020      6.77850      3.73234         0.002068      0.007412     -0.001743
      1.06212      8.83737     11.48306        -1.518537     -2.140752      1.102363
 -----------------------------------------------------------------------------------
    total drift:                                0.004884      0.000489      0.002979


--------------------------------------------------------------------------------------------------------



  FREE ENERGIE OF THE ION-ELECTRON SYSTEM (eV)
  ---------------------------------------------------
  free  energy   TOTEN  =      -122.22042679 eV

  energy  without entropy=     -122.20046893  energy(sigma->0) =     -122.21044786
 


--------------------------------------------------------------------------------------------------------


    POTLOK:  cpu time   14.81: real time   14.81


--------------------------------------------------------------------------------------------------------


     LOOP+:  cpu time 2409.34: real time 2410.51
    4ORBIT:  cpu time    0.00: real time    0.00

 total amount of memory used by VASP on root node   146493. kBytes
========================================================================

   base      :      30000. kBytes
   nonlr-proj:       3452. kBytes
   fftplans  :       9347. kBytes
   grid      :      14649. kBytes
   one-center:         36. kBytes
   wavefun   :      89009. kBytes
 
  
  
 General timing and accounting informations for this job:
 ========================================================
  
                  Total CPU time used (sec):     2424.945
                            User time (sec):     2392.074
                          System time (sec):       32.871
                         Elapsed time (sec):     2427.229
  
                   Maximum memory used (kb):      335156.
                   Average memory used (kb):           0.
  
                          Minor page faults:      7879932
                          Major page faults:            6
                 Voluntary context switches:         1140
