   24   24    1    1
  0.4176334E+02  0.3540400E-09  0.1044544E-08  0.2750143E-08  0.5000000E-15
  1.000000000000000E-004
  CAR 
 unknown system                          
    108     54     68
 
  0.0000000E+00  0.0000000E+00  0.0000000E+00  0.9615385E-02
    1      -15.069695
    2      -13.628541
    3      -13.230150
    4      -12.887485
    5      -12.637394
    6      -12.562467
    7      -12.174574
    8      -11.864014
    9      -11.521393
   10      -11.393210
   11      -11.077727
   12      -10.107501
   13       -9.361109
   14       -8.121825
   15       -7.918223
   16       -7.124112
   17       -7.057845
   18       -6.865801
   19       -6.582358
   20       -6.313896
   21       -5.912114
   22       -5.256798
   23       -5.066488
   24       -4.824870
   25       -4.417922
   26       -4.073090
   27       -3.799808
   28       -3.684410
   29       -3.573353
   30       -3.247014
   31       -3.145012
   32       -2.999402
   33       -2.930060
   34       -2.815470
   35       -2.720046
   36       -2.535245
   37       -2.484487
   38       -2.419993
   39       -2.376985
   40       -2.260759
   41       -2.064216
   42       -1.965120
   43       -1.835150
   44       -1.812159
   45       -1.731445
   46       -1.667676
   47       -1.650578
   48       -1.519617
   49       -1.455079
   50       -1.261246
   51       -1.096512
   52       -0.992478
   53        0.198476
   54        0.329300
   55        0.955929
   56        0.987425
   57        1.073832
   58        1.193253
   59        1.244367
   60        1.412754
   61        1.628944
   62        1.724748
   63        1.889723
   64        1.942493
   65        2.086567
   66        2.343457
   67        2.422386
   68        2.558937
 
  0.7692308E-01 -0.1387779E-16  0.0000000E+00  0.1923077E-01
    1      -15.015568
    2      -13.567193
    3      -13.175092
    4      -12.835325
    5      -12.579697
    6      -12.506585
    7      -12.112354
    8      -11.814827
    9      -11.472433
   10      -11.340181
   11      -11.029374
   12      -10.087287
   13       -9.344399
   14       -8.158411
   15       -7.881289
   16       -7.118452
   17       -7.041040
   18       -6.845577
   19       -6.576779
   20       -6.299648
   21       -5.878944
   22       -5.524324
   23       -5.154033
   24       -4.830505
   25       -4.554350
   26       -4.049843
   27       -3.839211
   28       -3.738860
   29       -3.654030
   30       -3.519013
   31       -3.355122
   32       -3.304886
   33       -3.249698
   34       -2.924324
   35       -2.822190
   36       -2.735147
   37       -2.620111
   38       -2.560737
   39       -2.441056
   40       -2.325681
   41       -2.276508
   42       -2.094715
   43       -2.050894
   44       -1.930931
   45       -1.912978
   46       -1.825495
   47       -1.603117
   48       -1.551222
   49       -1.480316
   50       -1.246128
   51       -1.064743
   52       -1.004753
   53        0.201724
   54        0.363009
   55        0.924084
   56        1.138662
   57        1.223540
   58        1.456979
   59        1.598847
   60        1.677852
   61        1.697102
   62        2.043141
   63        2.128797
   64        2.179942
   65        2.238056
   66        2.527810
   67        2.618642
   68        2.692638
 
  0.1538462E+00 -0.2775558E-16  0.0000000E+00  0.1923077E-01
    1      -14.855581
    2      -13.384220
    3      -13.012161
    4      -12.679561
    5      -12.409345
    6      -12.341051
    7      -11.929964
    8      -11.670695
    9      -11.330382
   10      -11.186089
   11      -10.890650
   12      -10.042287
   13       -9.305083
   14       -8.254554
   15       -7.838991
   16       -7.249037
   17       -7.015358
   18       -6.798739
   19       -6.589291
   20       -6.309740
   21       -6.062369
   22       -5.802792
   23       -5.252862
   24       -4.959098
   25       -4.868674
   26       -4.305095
   27       -4.180604
   28       -4.121123
   29       -4.044653
   30       -3.980695
   31       -3.779453
   32       -3.687364
   33       -3.493453
   34       -3.334656
   35       -3.242970
   36       -3.089787
   37       -3.050181
   38       -3.011028
   39       -2.779934
   40       -2.645912
   41       -2.467789
   42       -2.382539
   43       -2.261284
   44       -2.210392
   45       -2.015667
   46       -1.856027
   47       -1.737503
   48       -1.535260
   49       -1.312063
   50       -1.105857
   51       -1.024926
   52       -0.745435
   53        0.044930
   54        0.215516
   55        0.642817
   56        1.048569
   57        1.323054
   58        1.642045
   59        1.859551
   60        2.111091
   61        2.190728
   62        2.321255
   63        2.366007
   64        2.544509
   65        2.612795
   66        2.844431
   67        2.893264
   68        2.982874
 
  0.2307692E+00 -0.4163336E-16  0.0000000E+00  0.1923077E-01
    1      -14.598427
    2      -13.083206
    3      -12.749611
    4      -12.423266
    5      -12.136077
    6      -12.073693
    7      -11.642279
    8      -11.444943
    9      -11.113414
   10      -10.950294
   11      -10.687734
   12      -10.027818
   13       -9.272615
   14       -8.445927
   15       -7.912472
   16       -7.787784
   17       -7.040961
   18       -6.781281
   19       -6.722156
   20       -6.491971
   21       -6.182866
   22       -5.824106
   23       -5.666707
   24       -5.426058
   25       -5.287023
   26       -4.896885
   27       -4.698432
   28       -4.605840
   29       -4.475242
   30       -4.345599
   31       -4.257901
   32       -3.890370
   33       -3.821641
   34       -3.615450
   35       -3.556469
   36       -3.436493
   37       -3.260268
   38       -3.083061
   39       -3.062254
   40       -2.723689
   41       -2.640622
   42       -2.532720
   43       -2.439952
   44       -2.276647
   45       -1.992297
   46       -1.911244
   47       -1.816209
   48       -1.576880
   49       -1.529234
   50       -1.219336
   51       -1.086208
   52       -0.414963
   53       -0.283682
   54       -0.236966
   55        0.526992
   56        1.075400
   57        1.338343
   58        1.614781
   59        1.772860
   60        1.929924
   61        1.983061
   62        2.199792
   63        2.264657
   64        2.337033
   65        2.593371
   66        2.796203
   67        2.887227
   68        2.927379
 
  0.3076923E+00 -0.5551115E-16  0.0000000E+00  0.1923077E-01
    1      -14.264339
    2      -12.671491
    3      -12.409573
    4      -12.074900
    5      -11.784885
    6      -11.724160
    7      -11.284218
    8      -11.174155
    9      -10.868909
   10      -10.691412
   11      -10.502206
   12      -10.110629
   13       -9.275890
   14       -8.740788
   15       -8.404525
   16       -8.172110
   17       -7.248539
   18       -7.083908
   19       -6.987946
   20       -6.890143
   21       -6.378217
   22       -6.247695
   23       -6.054641
   24       -6.023312
   25       -5.545168
   26       -5.296003
   27       -4.952534
   28       -4.840343
   29       -4.779921
   30       -4.497195
   31       -4.392545
   32       -4.302573
   33       -4.007499
   34       -3.662501
   35       -3.497838
   36       -3.466058
   37       -3.219704
   38       -3.153724
   39       -3.027555
   40       -2.848011
   41       -2.759712
   42       -2.682322
   43       -2.536277
   44       -2.365782
   45       -2.143936
   46       -1.979056
   47       -1.954205
   48       -1.800260
   49       -1.586543
   50       -1.419895
   51       -1.168993
   52       -0.881555
   53       -0.629685
   54       -0.310783
   55        0.337382
   56        0.994558
   57        1.295330
   58        1.454951
   59        1.590320
   60        1.727015
   61        1.834563
   62        1.937892
   63        2.071341
   64        2.176451
   65        2.311591
   66        2.607616
   67        2.710197
   68        2.769388
 
  0.3846154E+00 -0.8326673E-16  0.0000000E+00  0.1923077E-01
    1      -13.901127
    2      -12.163762
    3      -12.059556
    4      -11.655644
    5      -11.438649
    6      -11.333958
    7      -10.949428
    8      -10.934665
    9      -10.713976
   10      -10.570423
   11      -10.541664
   12      -10.116969
   13       -9.372372
   14       -8.917115
   15       -8.879813
   16       -8.464541
   17       -7.612556
   18       -7.545487
   19       -7.503321
   20       -7.234752
   21       -6.870577
   22       -6.845576
   23       -6.748437
   24       -6.337262
   25       -5.461091
   26       -5.299224
   27       -4.996727
   28       -4.719056
   29       -4.613567
   30       -4.483585
   31       -4.310280
   32       -4.168403
   33       -4.124801
   34       -3.744417
   35       -3.585422
   36       -3.473061
   37       -3.353118
   38       -3.241416
   39       -3.152030
   40       -2.897377
   41       -2.853883
   42       -2.681122
   43       -2.560517
   44       -2.409021
   45       -2.363104
   46       -2.198446
   47       -2.111051
   48       -1.938038
   49       -1.702960
   50       -1.524467
   51       -1.376951
   52       -1.107207
   53       -0.873921
   54       -0.362892
   55        0.134676
   56        0.865913
   57        1.202018
   58        1.306523
   59        1.440811
   60        1.621406
   61        1.661221
   62        1.724921
   63        1.867826
   64        2.017726
   65        2.176788
   66        2.252060
   67        2.604336
   68        2.717037
 
  0.4615385E+00 -0.8326673E-16  0.0000000E+00  0.1923077E-01
    1      -13.625710
    2      -11.885080
    3      -11.588708
    4      -11.235381
    5      -11.231457
    6      -11.036158
    7      -10.930500
    8      -10.815589
    9      -10.793057
   10      -10.723683
   11      -10.541530
   12       -9.943315
   13       -9.653730
   14       -9.079401
   15       -8.774643
   16       -8.527339
   17       -8.166172
   18       -7.847204
   19       -7.659097
   20       -7.466132
   21       -7.373594
   22       -7.267015
   23       -7.202412
   24       -6.548483
   25       -5.298933
   26       -5.026781
   27       -4.991650
   28       -4.594880
   29       -4.435908
   30       -4.261357
   31       -4.145525
   32       -4.052480
   33       -3.979660
   34       -3.911124
   35       -3.762191
   36       -3.677890
   37       -3.623387
   38       -3.339995
   39       -3.102735
   40       -3.015962
   41       -2.920837
   42       -2.770866
   43       -2.600277
   44       -2.532068
   45       -2.438247
   46       -2.283856
   47       -2.187699
   48       -1.873424
   49       -1.793394
   50       -1.606675
   51       -1.530114
   52       -1.154162
   53       -0.973119
   54       -0.389695
   55        0.016016
   56        0.829401
   57        1.152429
   58        1.273433
   59        1.292878
   60        1.480370
   61        1.544655
   62        1.628581
   63        1.744923
   64        1.845727
   65        1.997333
   66        2.305412
   67        2.429924
   68        2.607134
 
  0.0000000E+00  0.2500000E+00  0.0000000E+00  0.1923077E-01
    1      -15.068023
    2      -13.573341
    3      -13.264176
    4      -13.061136
    5      -12.587654
    6      -12.526139
    7      -11.999559
    8      -11.944860
    9      -11.566350
   10      -11.296159
   11      -11.086750
   12      -10.091660
   13       -9.440773
   14       -8.603176
   15       -7.488414
   16       -7.123845
   17       -7.012860
   18       -6.758415
   19       -6.683851
   20       -6.216326
   21       -5.834118
   22       -5.336324
   23       -5.071943
   24       -4.727690
   25       -4.240980
   26       -4.131263
   27       -4.035031
   28       -3.694156
   29       -3.508967
   30       -3.375214
   31       -3.216013
   32       -3.004901
   33       -2.874712
   34       -2.796257
   35       -2.696181
   36       -2.589070
   37       -2.480782
   38       -2.432630
   39       -2.382320
   40       -2.276606
   41       -2.168874
   42       -2.047370
   43       -1.971890
   44       -1.946587
   45       -1.716698
   46       -1.626526
   47       -1.492799
   48       -1.449715
   49       -1.368791
   50       -1.223242
   51       -1.075710
   52       -1.018788
   53        0.161697
   54        0.210372
   55        0.954537
   56        1.071802
   57        1.136009
   58        1.220807
   59        1.307029
   60        1.437830
   61        1.639684
   62        1.776015
   63        1.799278
   64        2.087586
   65        2.175317
   66        2.448079
   67        2.506359
   68        2.571861
 
  0.7692308E-01  0.2500000E+00  0.0000000E+00  0.1923077E-01
    1      -15.013616
    2      -13.496568
    3      -13.214868
    4      -13.041974
    5      -12.526504
    6      -12.452896
    7      -11.966061
    8      -11.853817
    9      -11.525069
   10      -11.225261
   11      -11.042489
   12      -10.071973
   13       -9.434147
   14       -8.661624
   15       -7.440535
   16       -7.100462
   17       -7.026683
   18       -6.766878
   19       -6.614864
   20       -6.185615
   21       -5.786677
   22       -5.506291
   23       -5.313750
   24       -4.775507
   25       -4.305959
   26       -4.187847
   27       -4.058110
   28       -3.757018
   29       -3.668425
   30       -3.476847
   31       -3.396334
   32       -3.281355
   33       -3.108609
   34       -3.018367
   35       -2.867684
   36       -2.782653
   37       -2.627579
   38       -2.547228
   39       -2.491870
   40       -2.360928
   41       -2.295769
   42       -2.201863
   43       -2.089935
   44       -1.955831
   45       -1.908487
   46       -1.829468
   47       -1.620749
   48       -1.526884
   49       -1.383945
   50       -1.185435
   51       -1.069813
   52       -0.977846
   53        0.173559
   54        0.220691
   55        1.002651
   56        1.102443
   57        1.294330
   58        1.508694
   59        1.564747
   60        1.705635
   61        1.791850
   62        1.897966
   63        2.151868
   64        2.381710
   65        2.451597
   66        2.572313
   67        2.646710
   68        2.859811
 
  0.1538462E+00  0.2500000E+00  0.0000000E+00  0.1923077E-01
    1      -14.853515
    2      -13.300128
    3      -13.053851
    4      -12.905384
    5      -12.357812
    6      -12.271914
    7      -11.835661
    8      -11.657697
    9      -11.385705
   10      -11.057408
   11      -10.901318
   12      -10.037813
   13       -9.392130
   14       -8.727250
   15       -7.408429
   16       -7.187430
   17       -7.049995
   18       -6.744804
   19       -6.586118
   20       -6.348035
   21       -5.904600
   22       -5.735925
   23       -5.413884
   24       -4.934189
   25       -4.758926
   26       -4.468288
   27       -4.385415
   28       -4.156533
   29       -4.061191
   30       -3.893980
   31       -3.714923
   32       -3.582128
   33       -3.537717
   34       -3.303181
   35       -3.125011
   36       -3.087025
   37       -3.043588
   38       -2.888657
   39       -2.773199
   40       -2.685869
   41       -2.564883
   42       -2.463539
   43       -2.393848
   44       -2.308394
   45       -2.023421
   46       -1.965267
   47       -1.602389
   48       -1.466273
   49       -1.245118
   50       -1.127688
   51       -1.001335
   52       -0.811381
   53        0.060057
   54        0.146299
   55        0.571684
   56        1.051295
   57        1.414625
   58        1.577829
   59        1.655902
   60        2.026804
   61        2.158299
   62        2.283792
   63        2.442882
   64        2.663138
   65        2.808201
   66        2.871637
   67        2.975997
   68        3.065493
 
  0.2307692E+00  0.2500000E+00  0.0000000E+00  0.1923077E-01
    1      -14.596485
    2      -12.988916
    3      -12.788756
    4      -12.653909
    5      -12.088958
    6      -11.998058
    7      -11.611531
    8      -11.381677
    9      -11.164024
   10      -10.810114
   11      -10.684120
   12      -10.051545
   13       -9.338212
   14       -8.858532
   15       -7.747910
   16       -7.480991
   17       -7.068686
   18       -6.784744
   19       -6.732622
   20       -6.588689
   21       -6.022542
   22       -5.903351
   23       -5.653919
   24       -5.362957
   25       -5.292764
   26       -5.113514
   27       -4.756505
   28       -4.643185
   29       -4.560365
   30       -4.267654
   31       -4.102308
   32       -3.900874
   33       -3.814841
   34       -3.592325
   35       -3.363729
   36       -3.302302
   37       -3.220039
   38       -3.175825
   39       -2.925083
   40       -2.735265
   41       -2.665247
   42       -2.613069
   43       -2.468049
   44       -2.366932
   45       -2.072461
   46       -1.973867
   47       -1.861182
   48       -1.531869
   49       -1.472093
   50       -1.194198
   51       -1.094733
   52       -0.443923
   53       -0.325708
   54       -0.150730
   55        0.354735
   56        1.099477
   57        1.238525
   58        1.378715
   59        1.519890
   60        1.666731
   61        1.893676
   62        2.159800
   63        2.262708
   64        2.501625
   65        2.633172
   66        2.825398
   67        2.962484
   68        3.084422
 
  0.3076923E+00  0.2500000E+00  0.0000000E+00  0.1923077E-01
    1      -14.262713
    2      -12.572641
    3      -12.440654
    4      -12.294763
    5      -11.738440
    6      -11.668154
    7      -11.314291
    8      -11.068480
    9      -10.900464
   10      -10.547503
   11      -10.478993
   12      -10.171276
   13       -9.307623
   14       -9.057700
   15       -8.371902
   16       -7.795327
   17       -7.310053
   18       -7.199625
   19       -7.050224
   20       -6.893257
   21       -6.288452
   22       -6.257477
   23       -6.056189
   24       -6.003902
   25       -5.609538
   26       -5.462610
   27       -5.030789
   28       -4.974916
   29       -4.520045
   30       -4.447890
   31       -4.386818
   32       -4.104085
   33       -4.054423
   34       -3.634806
   35       -3.430693
   36       -3.366669
   37       -3.188566
   38       -3.088600
   39       -2.963805
   40       -2.880052
   41       -2.733196
   42       -2.593338
   43       -2.544829
   44       -2.415562
   45       -2.317579
   46       -2.048066
   47       -1.965896
   48       -1.833173
   49       -1.637818
   50       -1.412395
   51       -1.196813
   52       -0.796444
   53       -0.587883
   54       -0.359228
   55        0.225471
   56        0.894717
   57        1.129397
   58        1.163073
   59        1.347602
   60        1.513424
   61        1.714490
   62        1.958677
   63        2.107499
   64        2.231512
   65        2.389847
   66        2.538747
   67        2.660139
   68        2.875251
 
  0.3846154E+00  0.2500000E+00  0.0000000E+00  0.1923077E-01
    1      -13.900157
    2      -12.086056
    3      -12.060079
    4      -11.844651
    5      -11.397406
    6      -11.331607
    7      -10.998226
    8      -10.811301
    9      -10.690057
   10      -10.556453
   11      -10.531753
   12      -10.115090
   13       -9.382806
   14       -9.047772
   15       -8.869945
   16       -8.199463
   17       -7.865973
   18       -7.676842
   19       -7.446359
   20       -7.158501
   21       -6.851622
   22       -6.783189
   23       -6.745193
   24       -6.393659
   25       -5.499747
   26       -5.425113
   27       -4.997295
   28       -4.870735
   29       -4.599878
   30       -4.455381
   31       -4.208148
   32       -4.043706
   33       -3.946576
   34       -3.577164
   35       -3.439161
   36       -3.410218
   37       -3.365461
   38       -3.217467
   39       -3.197403
   40       -3.004682
   41       -2.925322
   42       -2.727992
   43       -2.561822
   44       -2.413183
   45       -2.381759
   46       -2.232139
   47       -2.155937
   48       -1.945349
   49       -1.687483
   50       -1.555219
   51       -1.392280
   52       -1.081275
   53       -0.837298
   54       -0.387431
   55        0.064866
   56        0.778779
   57        1.108337
   58        1.198022
   59        1.223905
   60        1.382589
   61        1.589816
   62        1.735873
   63        1.783744
   64        1.983590
   65        2.132275
   66        2.474867
   67        2.527573
   68        2.615177
 
  0.4615385E+00  0.2500000E+00  0.0000000E+00  0.1923077E-01
    1      -13.625415
    2      -11.888041
    3      -11.518309
    4      -11.349325
    5      -11.230908
    6      -11.048399
    7      -10.951276
    8      -10.804751
    9      -10.785619
   10      -10.669406
   11      -10.527453
   12       -9.935178
   13       -9.655680
   14       -9.095871
   15       -8.641350
   16       -8.486579
   17       -8.415652
   18       -7.857327
   19       -7.605067
   20       -7.405342
   21       -7.378786
   22       -7.258085
   23       -7.221986
   24       -6.578234
   25       -5.303357
   26       -5.108327
   27       -4.984900
   28       -4.564774
   29       -4.465397
   30       -4.260631
   31       -4.213040
   32       -4.023664
   33       -3.889870
   34       -3.826613
   35       -3.744269
   36       -3.588836
   37       -3.548999
   38       -3.344061
   39       -3.110561
   40       -3.052785
   41       -2.971021
   42       -2.735720
   43       -2.690099
   44       -2.564119
   45       -2.521668
   46       -2.251045
   47       -2.203630
   48       -1.816703
   49       -1.752290
   50       -1.638813
   51       -1.532754
   52       -1.145727
   53       -0.956991
   54       -0.359200
   55       -0.042090
   56        0.734574
   57        1.156696
   58        1.230331
   59        1.335812
   60        1.426502
   61        1.487241
   62        1.590310
   63        1.726364
   64        1.787872
   65        2.097932
   66        2.334784
   67        2.390072
   68        2.457255
 
 -0.4615385E+00  0.2500000E+00  0.0000000E+00  0.1923077E-01
    1      -13.625898
    2      -11.887281
    3      -11.622245
    4      -11.220539
    5      -11.156275
    6      -11.022353
    7      -10.895157
    8      -10.844004
    9      -10.808969
   10      -10.791327
   11      -10.528131
   12       -9.965318
   13       -9.636423
   14       -9.102102
   15       -8.843248
   16       -8.521132
   17       -8.031319
   18       -7.805175
   19       -7.692070
   20       -7.476552
   21       -7.367028
   22       -7.307096
   23       -7.202675
   24       -6.564682
   25       -5.262992
   26       -4.997327
   27       -4.826351
   28       -4.667514
   29       -4.481213
   30       -4.345444
   31       -4.134387
   32       -4.075047
   33       -4.031089
   34       -3.967738
   35       -3.766576
   36       -3.718482
   37       -3.600855
   38       -3.436728
   39       -3.052720
   40       -2.892784
   41       -2.876024
   42       -2.765081
   43       -2.650841
   44       -2.587365
   45       -2.468245
   46       -2.255241
   47       -2.214142
   48       -1.861624
   49       -1.779096
   50       -1.583617
   51       -1.445240
   52       -1.163739
   53       -0.963248
   54       -0.329167
   55       -0.035621
   56        0.762400
   57        1.178379
   58        1.274965
   59        1.331814
   60        1.540039
   61        1.579219
   62        1.682880
   63        1.807623
   64        1.916502
   65        2.182308
   66        2.292215
   67        2.469647
   68        2.516079
 
 -0.3846154E+00  0.2500000E+00  0.0000000E+00  0.1923077E-01
    1      -13.901468
    2      -12.190017
    3      -12.058025
    4      -11.570979
    5      -11.438812
    6      -11.331297
    7      -11.019449
    8      -10.945804
    9      -10.716524
   10      -10.556800
   11      -10.536523
   12      -10.139574
   13       -9.374039
   14       -8.892605
   15       -8.828373
   16       -8.578001
   17       -7.545294
   18       -7.528017
   19       -7.416911
   20       -7.263245
   21       -6.894471
   22       -6.867991
   23       -6.753770
   24       -6.360393
   25       -5.431610
   26       -5.159031
   27       -4.984859
   28       -4.870365
   29       -4.521154
   30       -4.459990
   31       -4.343219
   32       -4.240441
   33       -4.176584
   34       -3.812389
   35       -3.603276
   36       -3.493326
   37       -3.368925
   38       -3.255684
   39       -3.160684
   40       -2.996423
   41       -2.793579
   42       -2.640302
   43       -2.598746
   44       -2.485281
   45       -2.325182
   46       -2.187055
   47       -2.030976
   48       -1.913647
   49       -1.634271
   50       -1.502954
   51       -1.379370
   52       -1.077674
   53       -0.879093
   54       -0.317915
   55        0.136167
   56        0.862754
   57        1.191100
   58        1.360196
   59        1.429015
   60        1.638083
   61        1.740974
   62        1.849795
   63        1.976525
   64        2.065093
   65        2.220253
   66        2.355133
   67        2.537357
   68        2.655986
 
 -0.3076923E+00  0.2500000E+00  0.0000000E+00  0.1923077E-01
    1      -14.264514
    2      -12.683733
    3      -12.406678
    4      -12.033402
    5      -11.794792
    6      -11.725023
    7      -11.329560
    8      -11.146679
    9      -10.860714
   10      -10.713057
   11      -10.508213
   12      -10.110706
   13       -9.285964
   14       -8.642354
   15       -8.409921
   16       -8.274212
   17       -7.134658
   18       -7.089792
   19       -6.962080
   20       -6.949236
   21       -6.427431
   22       -6.241675
   23       -6.063530
   24       -5.999856
   25       -5.541675
   26       -5.238509
   27       -4.996793
   28       -4.877114
   29       -4.727994
   30       -4.445461
   31       -4.397923
   32       -4.326789
   33       -4.081487
   34       -3.715520
   35       -3.543841
   36       -3.427503
   37       -3.239465
   38       -3.165756
   39       -3.009498
   40       -2.860085
   41       -2.819323
   42       -2.677428
   43       -2.516672
   44       -2.330202
   45       -2.110602
   46       -1.969172
   47       -1.947794
   48       -1.792608
   49       -1.579150
   50       -1.421665
   51       -1.161182
   52       -0.874669
   53       -0.646923
   54       -0.205841
   55        0.363214
   56        0.991754
   57        1.295557
   58        1.413011
   59        1.586090
   60        1.813843
   61        1.872269
   62        1.952414
   63        2.082575
   64        2.208367
   65        2.322262
   66        2.600092
   67        2.686197
   68        2.838869
 
 -0.2307692E+00  0.2500000E+00  0.0000000E+00  0.1923077E-01
    1      -14.598232
    2      -13.078974
    3      -12.753920
    4      -12.437953
    5      -12.130696
    6      -12.071923
    7      -11.625154
    8      -11.452417
    9      -11.117178
   10      -10.936916
   11      -10.686309
   12      -10.030823
   13       -9.293456
   14       -8.486431
   15       -7.871712
   16       -7.788469
   17       -6.923997
   18       -6.783114
   19       -6.727027
   20       -6.598575
   21       -6.196511
   22       -5.826040
   23       -5.622397
   24       -5.420647
   25       -5.285905
   26       -4.919165
   27       -4.686187
   28       -4.609714
   29       -4.504990
   30       -4.306099
   31       -4.262809
   32       -3.898802
   33       -3.829237
   34       -3.698302
   35       -3.536911
   36       -3.415129
   37       -3.256755
   38       -3.081185
   39       -3.042989
   40       -2.737459
   41       -2.656595
   42       -2.547522
   43       -2.457329
   44       -2.185103
   45       -1.982320
   46       -1.913022
   47       -1.832517
   48       -1.593782
   49       -1.550278
   50       -1.215851
   51       -1.069683
   52       -0.374610
   53       -0.311719
   54       -0.135401
   55        0.537316
   56        1.032336
   57        1.261162
   58        1.549724
   59        1.745376
   60        1.930703
   61        2.042690
   62        2.152340
   63        2.214133
   64        2.402179
   65        2.633690
   66        2.813088
   67        2.867858
   68        2.913204
 
 -0.1538462E+00  0.2500000E+00  0.0000000E+00  0.1923077E-01
    1      -14.854887
    2      -13.362787
    3      -13.026942
    4      -12.753161
    5      -12.385158
    6      -12.331696
    7      -11.842821
    8      -11.717772
    9      -11.349701
   10      -11.139557
   11      -10.888722
   12      -10.039361
   13       -9.345513
   14       -8.466293
   15       -7.629537
   16       -7.260071
   17       -6.937687
   18       -6.750181
   19       -6.642606
   20       -6.361819
   21       -6.046943
   22       -5.777670
   23       -5.235458
   24       -4.936561
   25       -4.865477
   26       -4.375919
   27       -4.251564
   28       -4.115194
   29       -4.010311
   30       -3.931765
   31       -3.790005
   32       -3.749194
   33       -3.507371
   34       -3.330063
   35       -3.203483
   36       -3.100034
   37       -3.026595
   38       -2.984136
   39       -2.800844
   40       -2.620712
   41       -2.570823
   42       -2.429912
   43       -2.272439
   44       -2.156225
   45       -1.998948
   46       -1.863929
   47       -1.699624
   48       -1.531316
   49       -1.308670
   50       -1.118339
   51       -1.009602
   52       -0.705859
   53        0.040315
   54        0.185580
   55        0.667434
   56        1.099180
   57        1.266547
   58        1.659407
   59        1.717667
   60        2.065664
   61        2.159805
   62        2.353884
   63        2.414714
   64        2.604830
   65        2.689200
   66        2.771620
   67        2.908738
   68        3.057755
 
 -0.7692308E-01  0.2500000E+00  0.0000000E+00  0.1923077E-01
    1      -15.014361
    2      -13.528592
    3      -13.200426
    4      -12.963591
    5      -12.539732