       N       E                     dE             d eps       ncg     rms          rms(c)
DAV:   1     0.529203306102E+03    0.52920E+03   -0.28773E+04  7360   0.790E+02
DAV:   2    -0.402229187802E+02   -0.56943E+03   -0.55452E+03  9732   0.191E+02
DAV:   3    -0.997250764763E+02   -0.59502E+02   -0.58484E+02  9020   0.637E+01
DAV:   4    -0.102886225202E+03   -0.31611E+01   -0.31294E+01 11840   0.153E+01
DAV:   5    -0.102933639652E+03   -0.47414E-01   -0.47257E-01 10200   0.198E+00    0.138E+01
DAV:   6    -0.968817848413E+02    0.60519E+01   -0.27991E+01  9112   0.139E+01    0.633E+00
DAV:   7    -0.971533266643E+02   -0.27154E+00   -0.15278E+01  8276   0.876E+00    0.360E+00
DAV:   8    -0.971014054883E+02    0.51921E-01   -0.19180E+00  8872   0.397E+00    0.200E+00
DAV:   9    -0.971173354803E+02   -0.15930E-01   -0.59923E-01  9088   0.209E+00    0.963E-01
DAV:  10    -0.971203478031E+02   -0.30123E-02   -0.25284E-01  9208   0.129E+00    0.385E-01
DAV:  11    -0.971127001133E+02    0.76477E-02   -0.43889E-02  9064   0.626E-01    0.191E-01
DAV:  12    -0.970997810867E+02    0.12919E-01   -0.11226E-02  8928   0.298E-01    0.863E-02
DAV:  13    -0.970952426322E+02    0.45385E-02   -0.18888E-03  9080   0.147E-01    0.411E-02
DAV:  14    -0.970916614425E+02    0.35812E-02   -0.63023E-04  9224   0.721E-02    0.225E-02
DAV:  15    -0.970899354507E+02    0.17260E-02   -0.15352E-04  9056   0.396E-02    0.121E-02
DAV:  16    -0.970896734217E+02    0.26203E-03   -0.66953E-05  8440   0.230E-02    0.765E-03
DAV:  17    -0.970896208390E+02    0.52583E-04   -0.51826E-05  8208   0.181E-02    0.517E-03
DAV:  18    -0.970901385252E+02   -0.51769E-03   -0.11989E-04  8344   0.216E-02    0.283E-03
DAV:  19    -0.970903451386E+02   -0.20661E-03   -0.96582E-05  8104   0.161E-02    0.168E-03
DAV:  20    -0.970904175175E+02   -0.72379E-04   -0.14558E-05  6784   0.885E-03    0.103E-03
DAV:  21    -0.970904381066E+02   -0.20589E-04   -0.15958E-05  6808   0.854E-03    0.818E-04
DAV:  22    -0.970903898278E+02    0.48279E-04   -0.25448E-05  7128   0.958E-03    0.450E-04
DAV:  23    -0.970903536382E+02    0.36190E-04   -0.11322E-05  6312   0.881E-03    0.286E-04
DAV:  24    -0.970902958969E+02    0.57741E-04   -0.66560E-06  6600   0.697E-03    0.129E-04
DAV:  25    -0.970902817951E+02    0.14102E-04   -0.66028E-06  6468   0.802E-03    0.662E-05
DAV:  26    -0.970902715714E+02    0.10224E-04   -0.34403E-06  6552   0.650E-03    0.295E-05
DAV:  27    -0.970902720879E+02   -0.51654E-06   -0.23987E-06  5520   0.575E-03
   1 F= -.97090272E+02 E0= -.97072319E+02  d E =-.359058E-01
