       N       E                     dE             d eps       ncg     rms          rms(c)
DAV:   1     0.554883985283E+03    0.55488E+03   -0.28764E+04  7352   0.790E+02
DAV:   2    -0.115804335512E+02   -0.56646E+03   -0.55167E+03  9760   0.191E+02
DAV:   3    -0.732071348471E+02   -0.61627E+02   -0.60443E+02  9612   0.640E+01
DAV:   4    -0.763404685536E+02   -0.31333E+01   -0.30944E+01 11328   0.148E+01
DAV:   5    -0.764097992393E+02   -0.69331E-01   -0.69069E-01 10488   0.220E+00    0.144E+01
DAV:   6    -0.713260684686E+02    0.50837E+01   -0.43777E+01  9200   0.146E+01    0.726E+00
DAV:   7    -0.703694233374E+02    0.95665E+00   -0.17797E+01  8544   0.986E+00    0.441E+00
DAV:   8    -0.702874654094E+02    0.81958E-01   -0.37297E+00  8544   0.464E+00    0.191E+00
DAV:   9    -0.703454884702E+02   -0.58023E-01   -0.10785E+00  9352   0.217E+00    0.134E+00
DAV:  10    -0.703013716063E+02    0.44117E-01   -0.49069E-01  8916   0.143E+00    0.551E-01
DAV:  11    -0.702925848087E+02    0.87868E-02   -0.49502E-02  8808   0.701E-01    0.207E-01
DAV:  12    -0.702853487091E+02    0.72361E-02   -0.15154E-02  9312   0.336E-01    0.118E-01
DAV:  13    -0.702789301242E+02    0.64186E-02   -0.26195E-03  9256   0.142E-01    0.560E-02
DAV:  14    -0.702744040133E+02    0.45261E-02   -0.57672E-04  9256   0.689E-02    0.276E-02
DAV:  15    -0.702719396246E+02    0.24644E-02   -0.20842E-04  9344   0.390E-02    0.145E-02
DAV:  16    -0.702711254955E+02    0.81413E-03   -0.56689E-05  8968   0.223E-02    0.873E-03
DAV:  17    -0.702711428885E+02   -0.17393E-04   -0.58455E-05  8080   0.193E-02    0.679E-03
DAV:  18    -0.702715718955E+02   -0.42901E-03   -0.12348E-04  8224   0.227E-02    0.378E-03
DAV:  19    -0.702718281540E+02   -0.25626E-03   -0.10784E-04  7672   0.177E-02    0.200E-03
DAV:  20    -0.702719001644E+02   -0.72010E-04   -0.25516E-05  7288   0.109E-02    0.123E-03
DAV:  21    -0.702719481735E+02   -0.48009E-04   -0.97453E-06  6380   0.772E-03    0.912E-04
DAV:  22    -0.702719530652E+02   -0.48917E-05   -0.18150E-05  7076   0.860E-03    0.615E-04
DAV:  23    -0.702719124932E+02    0.40572E-04   -0.18337E-05  7032   0.103E-02    0.382E-04
DAV:  24    -0.702718599805E+02    0.52513E-04   -0.86756E-06  6420   0.836E-03    0.193E-04
DAV:  25    -0.702718377979E+02    0.22183E-04   -0.52763E-06  6320   0.745E-03    0.869E-05
DAV:  26    -0.702718283017E+02    0.94961E-05   -0.42016E-06  6164   0.703E-03    0.532E-05
DAV:  27    -0.702718227523E+02    0.55495E-05   -0.30079E-06  5712   0.613E-03    0.223E-05
DAV:  28    -0.702718201536E+02    0.25987E-05   -0.17167E-06  5828   0.513E-03    0.138E-05
DAV:  29    -0.702718200391E+02    0.11450E-06   -0.12352E-06  5464   0.454E-03
   1 F= -.70271820E+02 E0= -.70242175E+02  d E =-.592908E-01
