 vasp.5.3.5 31Mar14 (build Oct 29 2014 16:16:03) complex                        
  
 executed on          Linux-UFHPC date 2016.02.09  18:23:30
 running on    8 total cores
 distrk:  each k-point on    8 cores,    1 groups
 distr:  one band on NCORES_PER_BAND=   2 cores,    4 groups


--------------------------------------------------------------------------------------------------------


 INCAR:
 POTCAR:    PAW_PBE P 17Jan2003                   
 POTCAR:   PAW_PBE Si 05Jan2001                   

 ----------------------------------------------------------------------------- 
|                                                                             |
|  ADVICE TO THIS USER RUNNING 'VASP/VAMP'   (HEAR YOUR MASTER'S VOICE ...):  |
|                                                                             |
|      You have switched on vdW-DFT.                                          |
|      This routine was written and supplied by Jiri Klimes.                  |
|      We recommed that you carefully read and cite the following             |
|      publication                                                            |
|      J. Klimes, D.R. Bowler, A. Michelides                                  |
|        J. Phys.: Cond Matt. 22 022201 (2010)                                |
|      J. Klimes, D.R. Bowler, A. Michelides                                  |
|        Phys. Rev. B. 83, 195131 (2011)                                      |
|      and references therein.                                                |
|                                                                             |
 ----------------------------------------------------------------------------- 

 POTCAR:    PAW_PBE P 17Jan2003                   
   VRHFIN =P : s2p3                                                             
   LEXCH  = PE                                                                  
   EATOM  =   176.0430 eV,   12.9388 Ry                                         
                                                                                
   TITEL  = PAW_PBE P 17Jan2003                                                 
   LULTRA =        F    use ultrasoft PP ?                                      
   IUNSCR =        1    unscreen: 0-lin 1-nonlin 2-no                           
   RPACOR =    1.500    partial core radius                                     
   POMASS =   30.974; ZVAL   =    5.000    mass and valenz                      
   RCORE  =    1.900    outmost cutoff radius                                   
   RWIGS  =    2.330; RWIGS  =    1.233    wigner-seitz radius (au A)           
   ENMAX  =  270.000; ENMIN  =  191.280 eV                                      
   ICORE  =        2    local potential                                         
   LCOR   =        T    correct aug charges                                     
   LPAW   =        T    paw PP                                                  
   EAUG   =  342.924                                                            
   DEXC   =    -.002                                                            
   RMAX   =    2.887    core radius for proj-oper                               
   RAUG   =    1.300    factor for augmentation sphere                          
   RDEP   =    1.931    radius for radial grids                                 
   QCUT   =   -4.330; QGAM   =    8.659    optimization parameters              
                                                                                
   Description                                                                  
     l     E      TYP  RCUT    TYP  RCUT                                        
     0   .000     23  1.900                                                     
     0   .000     23  1.900                                                     
     1   .000     23  1.900                                                     
     1   .000     23  1.900                                                     
     2   .000     23  1.900                                                     
  local pseudopotential read in
  partial core-charges read in
  atomic valenz-charges read in
  non local Contribution for L=           0  read in
    real space projection operators read in
  non local Contribution for L=           0  read in
    real space projection operators read in
  non local Contribution for L=           1  read in
    real space projection operators read in
  non local Contribution for L=           1  read in
    real space projection operators read in
    PAW grid and wavefunctions read in
 
   number of l-projection  operators is LMAX  =           4
   number of lm-projection operators is LMMAX =           8
 
 POTCAR:   PAW_PBE Si 05Jan2001                   
   VRHFIN =Si: s2p2                                                             
   LEXCH  = PE                                                                  
   EATOM  =   103.0669 eV,    7.5752 Ry                                         
                                                                                
   TITEL  = PAW_PBE Si 05Jan2001                                                
   LULTRA =        F    use ultrasoft PP ?                                      
   IUNSCR =        1    unscreen: 0-lin 1-nonlin 2-no                           
   RPACOR =    1.500    partial core radius                                     
   POMASS =   28.085; ZVAL   =    4.000    mass and valenz                      
   RCORE  =    1.900    outmost cutoff radius                                   
   RWIGS  =    2.480; RWIGS  =    1.312    wigner-seitz radius (au A)           
   ENMAX  =  245.345; ENMIN  =  184.009 eV                                      
   ICORE  =        2    local potential                                         
   LCOR   =        T    correct aug charges                                     
   LPAW   =        T    paw PP                                                  
   EAUG   =  322.069                                                            
   DEXC   =    -.007                                                            
   RMAX   =    2.944    core radius for proj-oper                               
   RAUG   =    1.300    factor for augmentation sphere                          
   RDEP   =    1.993    radius for radial grids                                 
   QCUT   =   -4.246; QGAM   =    8.493    optimization parameters              
                                                                                
   Description                                                                  
     l     E      TYP  RCUT    TYP  RCUT                                        
     0   .000     23  1.900                                                     
     0   .000     23  1.900                                                     
     1   .000     23  1.900                                                     
     1   .000     23  1.900                                                     
     2   .000      7  1.900                                                     
  local pseudopotential read in
  partial core-charges read in
  atomic valenz-charges read in
  non local Contribution for L=           0  read in
    real space projection operators read in
  non local Contribution for L=           0  read in
    real space projection operators read in
  non local Contribution for L=           1  read in
    real space projection operators read in
  non local Contribution for L=           1  read in
    real space projection operators read in
    PAW grid and wavefunctions read in
 
   number of l-projection  operators is LMAX  =           4
   number of lm-projection operators is LMMAX =           8
 
 Optimization of the real space projectors (new method)

 maximal supplied QI-value         = 19.84
 optimisation between [QCUT,QGAM] = [  8.73, 17.66] = [ 21.34, 87.33] Ry 
 Optimized for a Real-space Cutoff    1.50 Angstroem

   l    n(q)    QCUT    max X(q) W(low)/X(q) W(high)/X(q)  e(spline) 
   0      8     8.731     6.651    0.16E-04    0.15E-04    0.77E-08
   0      8     8.731    90.285    0.16E-03    0.90E-04    0.16E-06
   1      7     8.731     4.328    0.47E-04    0.36E-04    0.45E-07
   1      7     8.731    54.583    0.13E-03    0.39E-03    0.20E-06
 Optimization of the real space projectors (new method)

 maximal supplied QI-value         = 19.84
 optimisation between [QCUT,QGAM] = [  8.73, 17.66] = [ 21.34, 87.33] Ry 
 Optimized for a Real-space Cutoff    1.46 Angstroem

   l    n(q)    QCUT    max X(q) W(low)/X(q) W(high)/X(q)  e(spline) 
   0      8     8.731     8.708    0.16E-04    0.11E-04    0.68E-08
   0      8     8.731   106.241    0.24E-03    0.77E-04    0.13E-06
   1      7     8.731     5.901    0.34E-04    0.38E-04    0.36E-07
   1      7     8.731    73.241    0.12E-03    0.39E-03    0.15E-06

 ----------------------------------------------------------------------------- 
|                                                                             |
|  ADVICE TO THIS USER RUNNING 'VASP/VAMP'   (HEAR YOUR MASTER'S VOICE ...):  |
|                                                                             |
|      You enforced a specific xc-type in the INCAR file,                     |
|      a different type was found on the POTCAR file                          |
|          I HOPE YOU KNOW, WHAT YOU ARE  DOING                               |
|                                                                             |
 ----------------------------------------------------------------------------- 

  PAW_PBE P 17Jan2003                   :
 energy of atom  1       EATOM= -176.0430
 kinetic energy error for atom=    0.0040 (will be added to EATOM!!)
 PAW_PBE Si 05Jan2001                   :
 energy of atom  2       EATOM= -103.0669
 kinetic energy error for atom=    0.0021 (will be added to EATOM!!)
 
 
 POSCAR: Si12                                    
  positions in direct lattice
  No initial velocities read in
 exchange correlation table for  LEXCH =       42
   RHO(1)=    0.500       N(1)  =     2000
   RHO(2)=  100.500       N(2)  =     4000
 


--------------------------------------------------------------------------------------------------------


 ion  position               nearest neighbor table
   1  0.114  0.228  0.233-  15 2.28  21 2.29  21 2.29
   2  0.814  0.628  0.515-  16 2.28  22 2.29  22 2.29
   3  0.458  0.916  0.209-  21 2.28  13 2.30  13 2.30
   4  0.158  0.316  0.491-  22 2.28  14 2.30  14 2.30
   5  0.311  0.622  0.084-  17 2.28  23 2.30  23 2.30
   6  0.311  0.622  0.366-  18 2.28
   7  0.999  0.998  0.086-  19 2.29  19 2.29  13 2.32
   8  0.999  0.998  0.368-  20 2.29  20 2.29  24 2.32  24 2.32
   9  0.655  0.310  0.060-  19 2.28  17 2.29  17 2.29
  10  0.655  0.310  0.342-  20 2.28  18 2.29  18 2.29  14 2.70
  11  0.770  0.539  0.207-  15 2.29  15 2.29  23 2.32
  12  0.470  0.939  0.489-  16 2.29  16 2.29  24 2.32
  13  0.940  0.879  0.158-   3 2.30   3 2.30   7 2.32  23 2.35
  14  0.640  0.279  0.440-  20 2.08   4 2.30   4 2.30  24 2.35  10 2.70  18 2.71  18 2.71
  15  0.205  0.410  0.186-   1 2.28  11 2.29  11 2.29  17 2.37
  16  0.905  0.810  0.468-   2 2.28  12 2.29  12 2.29
  17  0.202  0.404  0.100-   5 2.28   9 2.29   9 2.29  15 2.37
  18  0.202  0.404  0.382-   6 2.28  10 2.29  10 2.29  14 2.71  14 2.71  22 2.92
  19  0.564  0.128  0.108-   9 2.28   7 2.29   7 2.29  21 2.37
  20  0.564  0.128  0.390-  24 1.05  14 2.08  10 2.28   8 2.29   8 2.29
  21  0.567  0.134  0.194-   3 2.28   1 2.29   1 2.29  19 2.37
  22  0.267  0.534  0.476-   4 2.28   2 2.29   2 2.29  18 2.92
  23  0.829  0.658  0.136-   5 2.30   5 2.30  11 2.32  13 2.35
  24  0.529  0.058  0.418-  20 1.05   8 2.32   8 2.32  12 2.32  14 2.35
 

 ----------------------------------------------------------------------------- 
|                                                                             |
|           W    W    AA    RRRRR   N    N  II  N    N   GGGG   !!!           |
|           W    W   A  A   R    R  NN   N  II  NN   N  G    G  !!!           |
|           W    W  A    A  R    R  N N  N  II  N N  N  G       !!!           |
|           W WW W  AAAAAA  RRRRR   N  N N  II  N  N N  G  GGG   !            |
|           WW  WW  A    A  R   R   N   NN  II  N   NN  G    G                |
|           W    W  A    A  R    R  N    N  II  N    N   GGGG   !!!           |
|                                                                             |
|      The distance between some ions is very small                           |
|      please check the nearest neigbor list in the OUTCAR file               |
|          I HOPE YOU KNOW, WHAT YOU ARE  DOING                               |
|                                                                             |
 ----------------------------------------------------------------------------- 

  LATTYP: Found a base centered orthorhombic cell.
 ALAT       =     3.5404000000
 B/A-ratio  =     5.8153587165
 C/A-ratio  =     7.7678875268
  
  Lattice vectors:
  
 A1 = (   1.7702000000,  10.2943480000,   0.0000000000)
 A2 = (   1.7702000000, -10.2943480000,   0.0000000000)
 A3 = (   0.0000000000,   0.0000000000, -27.5014290000)


Analysis of symmetry for initial positions (statically):
=====================================================================
 Subroutine PRICEL returns:
 Original cell was already a primitive cell.
 

 Routine SETGRP: Setting up the symmetry group for a 
 base centered orthorhombic supercell.


 Subroutine GETGRP returns: Found  2 space group operations
 (whereof  2 operations were pure point group operations)
 out of a pool of  8 trial point group operations.


The static configuration has the point symmetry C_1h.


Analysis of symmetry for dynamics (positions and initial velocities):
=====================================================================
 Subroutine PRICEL returns:
 Original cell was already a primitive cell.
 

 Routine SETGRP: Setting up the symmetry group for a 
 base centered orthorhombic supercell.


 Subroutine GETGRP returns: Found  2 space group operations
 (whereof  2 operations were pure point group operations)
 out of a pool of  8 trial point group operations.


The dynamic configuration has the point symmetry C_1h.
 
 
 KPOINTS: pymatgen generated KPOINTS with grid den

Automatic generation of k-mesh.
Space group operators:
 irot       det(A)        alpha          n_x          n_y          n_z        tau_x        tau_y        tau_z
    1     1.000000     0.000000     1.000000     0.000000     0.000000     0.000000     0.000000     0.000000
    2    -1.000000   180.000000     1.000000     0.000000     0.000000     0.000000     0.000000     0.000000
 
 Subroutine IBZKPT returns following result:
 ===========================================
 
 Found     54 irreducible k-points:
 
 Following reciprocal coordinates:
            Coordinates               Weight
  0.000000  0.000000  0.000000      1.000000
  0.076923 -0.000000  0.000000      2.000000
  0.153846 -0.000000  0.000000      2.000000
  0.230769 -0.000000  0.000000      2.000000
  0.307692 -0.000000  0.000000      2.000000
  0.384615 -0.000000  0.000000      2.000000
  0.461538 -0.000000  0.000000      2.000000
  0.000000  0.250000  0.000000      2.000000
  0.076923  0.250000  0.000000      2.000000
  0.153846  0.250000  0.000000      2.000000
  0.230769  0.250000  0.000000      2.000000
  0.307692  0.250000  0.000000      2.000000
  0.384615  0.250000  0.000000      2.000000
  0.461538  0.250000  0.000000      2.000000
 -0.461538  0.250000  0.000000      2.000000
 -0.384615  0.250000  0.000000      2.000000
 -0.307692  0.250000  0.000000      2.000000
 -0.230769  0.250000  0.000000      2.000000
 -0.153846  0.250000  0.000000      2.000000
 -0.076923  0.250000  0.000000      2.000000
  0.000000  0.500000  0.000000      1.000000
  0.076923  0.500000  0.000000      2.000000
  0.153846  0.500000  0.000000      2.000000
  0.230769  0.500000  0.000000      2.000000
  0.307692  0.500000  0.000000      2.000000
  0.384615  0.500000  0.000000      2.000000
  0.461538  0.500000  0.000000      2.000000
  0.000000  0.000000  0.500000      1.000000
  0.076923 -0.000000  0.500000      2.000000
  0.153846 -0.000000  0.500000      2.000000
  0.230769 -0.000000  0.500000      2.000000
  0.307692 -0.000000  0.500000      2.000000
  0.384615 -0.000000  0.500000      2.000000
  0.461538 -0.000000  0.500000      2.000000
  0.000000  0.250000  0.500000      2.000000
  0.076923  0.250000  0.500000      2.000000
  0.153846  0.250000  0.500000      2.000000
  0.230769  0.250000  0.500000      2.000000
  0.307692  0.250000  0.500000      2.000000
  0.384615  0.250000  0.500000      2.000000
  0.461538  0.250000  0.500000      2.000000
 -0.461538  0.250000  0.500000      2.000000
 -0.384615  0.250000  0.500000      2.000000
 -0.307692  0.250000  0.500000      2.000000
 -0.230769  0.250000  0.500000      2.000000
 -0.153846  0.250000  0.500000      2.000000
 -0.076923  0.250000  0.500000      2.000000
  0.000000  0.500000  0.500000      1.000000
  0.076923  0.500000  0.500000      2.000000
  0.153846  0.500000  0.500000      2.000000
  0.230769  0.500000  0.500000      2.000000
  0.307692  0.500000  0.500000      2.000000
  0.384615  0.500000  0.500000      2.000000
  0.461538  0.500000  0.500000      2.000000
 
 Following cartesian coordinates:
            Coordinates               Weight
  0.000000  0.000000  0.000000      1.000000
  0.021727  0.003736  0.000000      2.000000
  0.043454  0.007472  0.000000      2.000000
  0.065182  0.011209  0.000000      2.000000
  0.086909  0.014945  0.000000      2.000000
  0.108636  0.018681  0.000000      2.000000
  0.130363  0.022417  0.000000      2.000000
  0.000000  0.024285  0.000000      2.000000
  0.021727  0.028021  0.000000      2.000000
  0.043454  0.031758  0.000000      2.000000
  0.065182  0.035494  0.000000      2.000000
  0.086909  0.039230  0.000000      2.000000
  0.108636  0.042966  0.000000      2.000000
  0.130363  0.046702  0.000000      2.000000
 -0.130363  0.001868  0.000000      2.000000
 -0.108636  0.005604  0.000000      2.000000
 -0.086909  0.009340  0.000000      2.000000
 -0.065182  0.013077  0.000000      2.000000
 -0.043454  0.016813  0.000000      2.000000
 -0.021727  0.020549  0.000000      2.000000
  0.000000  0.048570  0.000000      1.000000
  0.021727  0.052307  0.000000      2.000000
  0.043454  0.056043  0.000000      2.000000
  0.065182  0.059779  0.000000      2.000000
  0.086909  0.063515  0.000000      2.000000
  0.108636  0.067251  0.000000      2.000000
  0.130363  0.070987  0.000000      2.000000
  0.000000  0.000000  0.018181      1.000000
  0.021727  0.003736  0.018181      2.000000
  0.043454  0.007472  0.018181      2.000000
  0.065182  0.011209  0.018181      2.000000
  0.086909  0.014945  0.018181      2.000000
  0.108636  0.018681  0.018181      2.000000
  0.130363  0.022417  0.018181      2.000000
  0.000000  0.024285  0.018181      2.000000
  0.021727  0.028021  0.018181      2.000000
  0.043454  0.031758  0.018181      2.000000
  0.065182  0.035494  0.018181      2.000000
  0.086909  0.039230  0.018181      2.000000
  0.108636  0.042966  0.018181      2.000000
  0.130363  0.046702  0.018181      2.000000
 -0.130363  0.001868  0.018181      2.000000
 -0.108636  0.005604  0.018181      2.000000
 -0.086909  0.009340  0.018181      2.000000
 -0.065182  0.013077  0.018181      2.000000
 -0.043454  0.016813  0.018181      2.000000
 -0.021727  0.020549  0.018181      2.000000
  0.000000  0.048570  0.018181      1.000000
  0.021727  0.052307  0.018181      2.000000
  0.043454  0.056043  0.018181      2.000000
  0.065182  0.059779  0.018181      2.000000
  0.086909  0.063515  0.018181      2.000000
  0.108636  0.067251  0.018181      2.000000
  0.130363  0.070987  0.018181      2.000000
 


--------------------------------------------------------------------------------------------------------




 Dimension of arrays:
   k-points           NKPTS =     54   k-points in BZ     NKDIM =     54   number of bands    NBANDS=     68
   number of dos      NEDOS =    301   number of ions     NIONS =     24
   non local maximal  LDIM  =      4   non local SUM 2l+1 LMDIM =      8
   total plane-waves  NPLWV = 192000
   max r-space proj   IRMAX =   2772   max aug-charges    IRDMAX=   6603
   dimension x,y,z NGX =    20 NGY =   60 NGZ =  160
   dimension x,y,z NGXF=    40 NGYF=  120 NGZF=  320
   support grid    NGXF=    40 NGYF=  120 NGZF=  320
   ions per type =              12  12
 NGX,Y,Z   is equivalent  to a cutoff of   9.39,  9.55,  9.67 a.u.
 NGXF,Y,Z  is equivalent  to a cutoff of  18.78, 19.10, 19.34 a.u.


 I would recommend the setting:
   dimension x,y,z NGX =    20 NGY =   59 NGZ =  155
 SYSTEM =  unknown system                          
 POSCAR =  Si12                                    

 Startparameter for this run:
   NWRITE =      2    write-flag & timer
   PREC   = accura    normal or accurate (medium, high low for compatibility)
   ISTART =      0    job   : 0-new  1-cont  2-samecut
   ICHARG =      2    charge: 1-file 2-atom 10-const
   ISPIN  =      1    spin polarized calculation?
   LNONCOLLINEAR =      F non collinear calculations
   LSORBIT =      F    spin-orbit coupling
   INIWAV =      1    electr: 0-lowe 1-rand  2-diag
   LASPH  =      F    aspherical Exc in radial PAW
   METAGGA=      F    non-selfconsistent MetaGGA calc.

 Electronic Relaxation 1
   ENCUT  =  300.0 eV  22.05 Ry    4.70 a.u.   5.00 14.75 38.84*2*pi/ulx,y,z
   ENINI  =  300.0     initial cutoff
   ENAUG  =  342.9 eV  augmentation charge cutoff
   NELM   =     60;   NELMIN=  2; NELMDL= -5     # of ELM steps 
   EDIFF  = 0.1E-05   stopping-criterion for ELM
   LREAL  =      T    real-space projection
   NLSPLINE    = F    spline interpolate recip. space projectors
   LCOMPAT=      F    compatible to vasp.4.4
   GGA_COMPAT  = T    GGA compatible to vasp.4.4-vasp.4.6
   LMAXPAW     = -100 max onsite density
   LMAXMIX     =    2 max onsite mixed and CHGCAR
   VOSKOWN=      0    Vosko Wilk Nusair interpolation
   ROPT   =   -0.00025  -0.00025
 Ionic relaxation
   EDIFFG = 0.1E-04   stopping-criterion for IOM
   NSW    =      0    number of steps for IOM
   NBLOCK =      1;   KBLOCK =      1    inner block; outer block 
   IBRION =     -1    ionic relax: 0-MD 1-quasi-New 2-CG
   NFREE  =      1    steps in history (QN), initial steepest desc. (CG)
   ISIF   =      3    stress and relaxation
   IWAVPR =     10    prediction:  0-non 1-charg 2-wave 3-comb
   ISYM   =      2    0-nonsym 1-usesym 2-fastsym
   LCORR  =      T    Harris-Foulkes like correction to forces

   POTIM  = 0.5000    time-step for ionic-motion
   TEIN   =    0.0    initial temperature
   TEBEG  =    0.0;   TEEND  =   0.0 temperature during run
   SMASS  =  -3.00    Nose mass-parameter (am)
   estimated Nose-frequenzy (Omega)   =  0.10E-29 period in steps =****** mass=  -0.286E-27a.u.
   SCALEE = 1.0000    scale energy and forces
   NPACO  =    256;   APACO  = 16.0  distance and # of slots for P.C.
   PSTRESS=    0.0 pullay stress

  Mass of Ions in am
   POMASS =  30.97 28.09
  Ionic Valenz
   ZVAL   =   5.00  4.00
  Atomic Wigner-Seitz radii
   RWIGS  =  -1.00 -1.00
  virtual crystal weights 
   VCA    =   1.00  1.00
   NELECT =     108.0000    total number of electrons
   NUPDOWN=      -1.0000    fix difference up-down

 DOS related values:
   EMIN   =  10.00;   EMAX   =-10.00  energy-range for DOS
   EFERMI =   0.00
   ISMEAR =     0;   SIGMA  =   0.10  broadening in eV -4-tet -1-fermi 0-gaus

 Electronic relaxation 2 (details)
   IALGO  =     38    algorithm
   LDIAG  =      T    sub-space diagonalisation (order eigenvalues)
   LSUBROT=      F    optimize rotation matrix (better conditioning)
   TURBO    =      0    0=normal 1=particle mesh
   IRESTART =      0    0=no restart 2=restart with 2 vectors
   NREBOOT  =      0    no. of reboots
   NMIN     =      0    reboot dimension
   EREF     =   0.00    reference energy to select bands
   IMIX   =      4    mixing-type and parameters
     AMIX     =   0.40;   BMIX     =  1.00
     AMIX_MAG =   1.60;   BMIX_MAG =  1.00
     AMIN     =   0.10
     WC   =   100.;   INIMIX=   1;  MIXPRE=   1;  MAXMIX= -45

 Intra band minimization:
   WEIMIN = 0.0000     energy-eigenvalue tresh-hold
   EBREAK =  0.37E-08  absolut break condition
   DEPER  =   0.30     relativ break condition  

   TIME   =   0.40     timestep for ELM

  volume/ion in A,a.u.               =      41.76       281.83
  Fermi-wavevector in a.u.,A,eV,Ry     =   0.779018  1.472130  8.256946  0.606868
  Thomas-Fermi vector in A             =   1.882034
 
 Write flags
   LWAVE  =      F    write WAVECAR
   LCHARG =      F    write CHGCAR
   LVTOT  =      F    write LOCPOT, total local potential
   LVHAR  =      F    write LOCPOT, Hartree potential only
   LELF   =      F    write electronic localiz. function (ELF)
   LORBIT =      0    0 simple, 1 ext, 2 COOP (PROOUT)


 Dipole corrections
   LMONO  =      F    monopole corrections only (constant potential shift)
   LDIPOL =      F    correct potential (dipole corrections)
   IDIPOL =      0    1-x, 2-y, 3-z, 4-all directions 
   EPSILON=  1.0000000 bulk dielectric constant

 Exchange correlation treatment:
   GGA     =    BO    GGA type
   LEXCH   =    42    internal setting for exchange type
   VOSKOWN=      0    Vosko Wilk Nusair interpolation
   LHFCALC =     F    Hartree Fock is set to
   LHFONE  =     F    Hartree Fock one center treatment
   AEXX    =    0.0000 exact exchange contribution

 vdW DFT:
   LUSE_VDW   =     T    switch on vdW DFT
   Zab_VDW    =-.8491    correlation parameter
   PARAM1     =0.1833
   PARAM2     =0.2200
   PARAM3     =0.0000

 Linear response parameters
   LEPSILON=     F    determine dielectric tensor
   LRPA    =     F    only Hartree local field effects (RPA)
   LNABLA  =     F    use nabla operator in PAW spheres
   LVEL    =     F    velocity operator in full k-point grid
   LINTERFAST=   F  fast interpolation
   KINTER  =     0    interpolate to denser k-point grid
   CSHIFT  =0.1000    complex shift for real part using Kramers Kronig
   OMEGAMAX=  -1.0    maximum frequency
   DEG_THRESHOLD= 0.2000000E-02 threshold for treating states as degnerate
   RTIME   =    0.100 relaxation time in fs

 Orbital magnetization related:
   ORBITALMAG=     F  switch on orbital magnetization
   LCHIMAG   =     F  perturbation theory with respect to B field
   DQ        =  0.001000  dq finite difference perturbation B field



--------------------------------------------------------------------------------------------------------


 Static calculation
 charge density and potential will be updated during run
 non-spin polarized calculation
 Variant of blocked Davidson
 Davidson routine will perform the subspace rotation
 perform sub-space diagonalisation
    after iterative eigenvector-optimisation
 modified Broyden-mixing scheme, WC =      100.0
 initial mixing is a Kerker type mixing with AMIX =  0.4000 and BMIX =      1.0000
 Hartree-type preconditioning will be used
 using additional bands           14
 real space projection scheme for non local part
 use partial core corrections
 calculate Harris-corrections to forces 
   (improved forces if not selfconsistent)
 use gradient corrections 
 use of overlap-Matrix (Vanderbilt PP)
 Gauss-broadening in eV      SIGMA  =   0.10


--------------------------------------------------------------------------------------------------------


  energy-cutoff  :      300.00
  volume of cell :     1002.32
      direct lattice vectors                 reciprocal lattice vectors
     3.540400000  0.000000000  0.000000000     0.282453960  0.048570342  0.000000000
    -1.770200000 10.294348000  0.000000000     0.000000000  0.097140683  0.000000000
     0.000000000  0.000000000 27.501429000     0.000000000  0.000000000  0.036361747

  length of vectors
     3.540400000 10.445439617 27.501429000     0.286599577  0.097140683  0.036361747


 
 k-points in units of 2pi/SCALE and weight: pymatgen generated KPOINTS with grid den
   0.00000000  0.00000000  0.00000000       0.010
   0.02172723  0.00373618  0.00000000       0.019
   0.04345446  0.00747236  0.00000000       0.019
   0.06518168  0.01120854  0.00000000       0.019
   0.08690891  0.01494472  0.00000000       0.019
   0.10863614  0.01868090  0.00000000       0.019
   0.13036337  0.02241708  0.00000000       0.019
   0.00000000  0.02428517  0.00000000       0.019
   0.02172723  0.02802135  0.00000000       0.019
   0.04345446  0.03175753  0.00000000       0.019
   0.06518168  0.03549371  0.00000000       0.019
   0.08690891  0.03922989  0.00000000       0.019
   0.10863614  0.04296607  0.00000000       0.019
   0.13036337  0.04670225  0.00000000       0.019
  -0.13036337  0.00186809  0.00000000       0.019
  -0.10863614  0.00560427  0.00000000       0.019
  -0.08690891  0.00934045  0.00000000       0.019
  -0.06518168  0.01307663  0.00000000       0.019
  -0.04345446  0.01681281  0.00000000       0.019
  -0.02172723  0.02054899  0.00000000       0.019
   0.00000000  0.04857034  0.00000000       0.010
   0.02172723  0.05230652  0.00000000       0.019
   0.04345446  0.05604270  0.00000000       0.019
   0.06518168  0.05977888  0.00000000       0.019
   0.08690891  0.06351506  0.00000000       0.019
   0.10863614  0.06725124  0.00000000       0.019
   0.13036337  0.07098742  0.00000000       0.019
   0.00000000  0.00000000  0.01818087       0.010
   0.02172723  0.00373618  0.01818087       0.019
   0.04345446  0.00747236  0.01818087       0.019
   0.06518168  0.01120854  0.01818087       0.019
   0.08690891  0.01494472  0.01818087       0.019
   0.10863614  0.01868090  0.01818087       0.019
   0.13036337  0.02241708  0.01818087       0.019
   0.00000000  0.02428517  0.01818087       0.019
   0.02172723  0.02802135  0.01818087       0.019
   0.04345446  0.03175753  0.01818087       0.019
   0.06518168  0.03549371  0.01818087       0.019
   0.08690891  0.03922989  0.01818087       0.019
   0.10863614  0.04296607  0.01818087       0.019
   0.13036337  0.04670225  0.01818087       0.019
  -0.13036337  0.00186809  0.01818087       0.019
  -0.10863614  0.00560427  0.01818087       0.019
  -0.08690891  0.00934045  0.01818087       0.019
  -0.06518168  0.01307663  0.01818087       0.019
  -0.04345446  0.01681281  0.01818087       0.019
  -0.02172723  0.02054899  0.01818087       0.019
   0.00000000  0.04857034  0.01818087       0.010
   0.02172723  0.05230652  0.01818087       0.019
   0.04345446  0.05604270  0.01818087       0.019
   0.06518168  0.05977888  0.01818087       0.019
   0.08690891  0.06351506  0.01818087       0.019
   0.10863614  0.06725124  0.01818087       0.019
   0.13036337  0.07098742  0.01818087       0.019
 
 k-points in reciprocal lattice and weights: pymatgen generated KPOINTS with grid den
   0.00000000  0.00000000  0.00000000       0.010
   0.07692308 -0.00000000  0.00000000       0.019
   0.15384615 -0.00000000  0.00000000       0.019
   0.23076923 -0.00000000  0.00000000       0.019
   0.30769231 -0.00000000  0.00000000       0.019
   0.38461538 -0.00000000  0.00000000       0.019
   0.46153846 -0.00000000  0.00000000       0.019
   0.00000000  0.25000000  0.00000000       0.019
   0.07692308  0.25000000  0.00000000       0.019
   0.15384615  0.25000000  0.00000000       0.019
   0.23076923  0.25000000  0.00000000       0.019
   0.30769231  0.25000000  0.00000000       0.019
   0.38461538  0.25000000  0.00000000       0.019
   0.46153846  0.25000000  0.00000000       0.019
  -0.46153846  0.25000000  0.00000000       0.019
  -0.38461538  0.25000000  0.00000000       0.019
  -0.30769231  0.25000000  0.00000000       0.019
  -0.23076923  0.25000000  0.00000000       0.019
  -0.15384615  0.25000000  0.00000000       0.019
  -0.07692308  0.25000000  0.00000000       0.019
   0.00000000  0.50000000  0.00000000       0.010
   0.07692308  0.50000000  0.00000000       0.019
   0.15384615  0.50000000  0.00000000       0.019
   0.23076923  0.50000000  0.00000000       0.019
   0.30769231  0.50000000  0.00000000       0.019
   0.38461538  0.50000000  0.00000000       0.019
   0.46153846  0.50000000  0.00000000       0.019
   0.00000000  0.00000000  0.50000000       0.010
   0.07692308 -0.00000000  0.50000000       0.019
   0.15384615 -0.00000000  0.50000000       0.019
   0.23076923 -0.00000000  0.50000000       0.019
   0.30769231 -0.00000000  0.50000000       0.019
   0.38461538 -0.00000000  0.50000000       0.019
   0.46153846 -0.00000000  0.50000000       0.019
   0.00000000  0.25000000  0.50000000       0.019
   0.07692308  0.25000000  0.50000000       0.019
   0.15384615  0.25000000  0.50000000       0.019
   0.23076923  0.25000000  0.50000000       0.019
   0.30769231  0.25000000  0.50000000       0.019
   0.38461538  0.25000000  0.50000000       0.019
   0.46153846  0.25000000  0.50000000       0.019
  -0.46153846  0.25000000  0.50000000       0.019
  -0.38461538  0.25000000  0.50000000       0.019
  -0.30769231  0.25000000  0.50000000       0.019
  -0.23076923  0.25000000  0.50000000       0.019
  -0.15384615  0.25000000  0.50000000       0.019
  -0.07692308  0.25000000  0.50000000       0.019
   0.00000000  0.50000000  0.50000000       0.010
   0.07692308  0.50000000  0.50000000       0.019
   0.15384615  0.50000000  0.50000000       0.019
   0.23076923  0.50000000  0.50000000       0.019
   0.30769231  0.50000000  0.50000000       0.019
   0.38461538  0.50000000  0.50000000       0.019
   0.46153846  0.50000000  0.50000000       0.019
 
 position of ions in fractional coordinates (direct lattice) 
   0.11402300  0.22804500  0.23316207
   0.81402300  0.62804500  0.51499159
   0.45808900  0.91617900  0.20939482
   0.15808900  0.31617900  0.49122434
   0.31085400  0.62170900  0.08414979
   0.31085400  0.62170900  0.36597930
   0.99923000  0.99846000  0.08631254
   0.99923000  0.99846000  0.36814206
   0.65492700  0.30985400  0.06041748
   0.65492700  0.30985400  0.34224700
   0.76973800  0.53947500  0.20725292
   0.46973800  0.93947500  0.48908244
   0.93971600  0.87943300  0.15783749
   0.63971600  0.27943300  0.43966701
   0.20515200  0.41030300  0.18578822
   0.90515200  0.81030300  0.46761774
   0.20184900  0.40369900  0.09969156
   0.20184900  0.40369900  0.38152107
   0.56380500  0.12761000  0.10779021
   0.56380500  0.12761000  0.38961973
   0.56710600  0.13421200  0.19387616
   0.26710600  0.53421200  0.47570568
   0.82923400  0.65846800  0.13571444
   0.52923400  0.05846800  0.41754396
 
 position of ions in cartesian coordinates  (Angst):
   0.00000177  2.34757459  6.41229012
   1.77020177  6.46531379 14.16300462
  -0.00000177  9.43146546  5.75865686
  -0.00000177  3.25485666 13.50937136
  -0.00000177  6.40008880  2.31423934
  -0.00000177  6.40008880 10.06495384
   1.77020000 10.27849470  2.37371832
   1.77020000 10.27849470 10.12443282
   1.77020000  3.18974491  1.66156717
   1.77020000  3.18974491  9.41228167
   1.77020177  5.55354339  5.69975143
   0.00000177  9.67128259 13.45046593
   1.77019823  9.05318934  4.34075665
   1.77019823  2.87658054 12.09147115
   0.00000177  4.22380187  5.10944151
   1.77020177  8.34154107 12.86015601
  -0.00000177  4.15581799  2.74166024
  -0.00000177  4.15581799 10.49237474
   1.77020000  1.31366175  2.96438477
   1.77020000  1.31366175 10.71509927
   1.77020000  1.38162503  5.33187152
   0.00000000  5.49936423 13.08258602
   1.77020000  6.77849874  3.73234107
   1.77020000  0.60188994 11.48305557
 


--------------------------------------------------------------------------------------------------------


 k-point  1 :   0.0000 0.0000 0.0000  plane waves:   11717
 k-point  2 :   0.0769-0.0000 0.0000  plane waves:   11762
 k-point  3 :   0.1538-0.0000 0.0000  plane waves:   11805
 k-point  4 :   0.2308-0.0000 0.0000  plane waves:   11824
 k-point  5 :   0.3077-0.0000 0.0000  plane waves:   11875
 k-point  6 :   0.3846-0.0000 0.0000  plane waves:   11864
 k-point  7 :   0.4615-0.0000 0.0000  plane waves:   11883
 k-point  8 :   0.0000 0.2500 0.0000  plane waves:   11683
 k-point  9 :   0.0769 0.2500 0.0000  plane waves:   11756
 k-point 10 :   0.1538 0.2500 0.0000  plane waves:   11807
 k-point 11 :   0.2308 0.2500 0.0000  plane waves:   11853
 k-point 12 :   0.3077 0.2500 0.0000  plane waves:   11866
 k-point 13 :   0.3846 0.2500 0.0000  plane waves:   11889
 k-point 14 :   0.4615 0.2500 0.0000  plane waves:   11885
 k-point 15 :  -0.4615 0.2500 0.0000  plane waves:   11886
 k-point 16 :  -0.3846 0.2500 0.0000  plane waves:   11867
 k-point 17 :  -0.3077 0.2500 0.0000  plane waves:   11849
 k-point 18 :  -0.2308 0.2500 0.0000  plane waves:   11827
 k-point 19 :  -0.1538 0.2500 0.0000  plane waves:   11801
 k-point 20 :  -0.0769 0.2500 0.0000  plane waves:   11757
 k-point 21 :   0.0000 0.5000 0.0000  plane waves:   11710
 k-point 22 :   0.0769 0.5000 0.0000  plane waves:   11762
 k-point 23 :   0.1538 0.5000 0.0000  plane waves:   11782
 k-point 24 :   0.2308 0.5000 0.0000  plane waves:   11841
 k-point 25 :   0.3077 0.5000 0.0000  plane waves:   11876
 k-point 26 :   0.3846 0.5000 0.0000  plane waves:   11889
 k-point 27 :   0.4615 0.5000 0.0000  plane waves:   11881
 k-point 28 :   0.0000 0.0000 0.5000  plane waves:   11698
 k-point 29 :   0.0769-0.0000 0.5000  plane waves:   11752
 k-point 30 :   0.1538-0.0000 0.5000  plane waves:   11800
 k-point 31 :   0.2308-0.0000 0.5000  plane waves:   11834
 k-point 32 :   0.3077-0.0000 0.5000  plane waves:   11850
 k-point 33 :   0.3846-0.0000 0.5000  plane waves:   11888
 k-point 34 :   0.4615-0.0000 0.5000  plane waves:   11896
 k-point 35 :   0.0000 0.2500 0.5000  plane waves:   11714
 k-point 36 :   0.0769 0.2500 0.5000  plane waves:   11754
 k-point 37 :   0.1538 0.2500 0.5000  plane waves:   11802
 k-point 38 :   0.2308 0.2500 0.5000  plane waves:   11840
 k-point 39 :   0.3077 0.2500 0.5000  plane waves:   11858
 k-point 40 :   0.3846 0.2500 0.5000  plane waves:   11896
 k-point 41 :   0.4615 0.2500 0.5000  plane waves:   11886
 k-point 42 :  -0.4615 0.2500 0.5000  plane waves:   11852
 k-point 43 :  -0.3846 0.2500 0.5000  plane waves:   11838
 k-point 44 :  -0.3077 0.2500 0.5000  plane waves:   11842
 k-point 45 :  -0.2308 0.2500 0.5000  plane waves:   11840
 k-point 46 :  -0.1538 0.2500 0.5000  plane waves:   11804
 k-point 47 :  -0.0769 0.2500 0.5000  plane waves:   11748
 k-point 48 :   0.0000 0.5000 0.5000  plane waves:   11724
 k-point 49 :   0.0769 0.5000 0.5000  plane waves:   11748
 k-point 50 :   0.1538 0.5000 0.5000  plane waves:   11814
 k-point 51 :   0.2308 0.5000 0.5000  plane waves:   11832
 k-point 52 :   0.3077 0.5000 0.5000  plane waves:   11868
 k-point 53 :   0.3846 0.5000 0.5000  plane waves:   11892
 k-point 54 :   0.4615 0.5000 0.5000  plane waves:   11878

 maximum and minimum number of plane-waves per node :      5964     5832

 maximum number of plane-waves:     11896
 maximum index in each direction: 
   IXMAX=    5   IYMAX=   14   IZMAX=   38
   IXMIN=   -5   IYMIN=  -15   IZMIN=  -39

 WARNING: aliasing errors must be expected set NGX to  22 to avoid them
 NGY is ok and might be reduce to  60
 NGZ is ok and might be reduce to 156
 aliasing errors are usually negligible using standard VASP settings
 and one can safely disregard these warnings

 real space projection operators:
  total allocation   :       3793.25 KBytes
  max/ min on nodes  :       1899.38       1893.88


 parallel 3D FFT for wavefunctions:
    minimum data exchange during FFTs selected (reduces bandwidth)
 parallel 3D FFT for charge:
    minimum data exchange during FFTs selected (reduces bandwidth)


 total amount of memory used by VASP on root node   146493. kBytes
========================================================================

   base      :      30000. kBytes
   nonlr-proj:       3452. kBytes
   fftplans  :       9347. kBytes
   grid      :      14649. kBytes
   one-center:         36. kBytes
   wavefun   :      89009. kBytes
 
     INWAV:  cpu time    0.00: real time    0.00
 Broyden mixing: mesh for mixing (old mesh)
   NGX =  9   NGY = 29   NGZ = 77
  (NGX  = 40   NGY  =120   NGZ  =320)
  gives a total of  20097 points

 initial charge density was supplied:
 charge density of overlapping atoms calculated
 number of electron     108.0000000 magnetization 
 keeping initial charge density in first step


--------------------------------------------------------------------------------------------------------


 Maximum index for non-local projection operator         1333
 Maximum index for augmentation-charges          822 (set IRDMAX)


--------------------------------------------------------------------------------------------------------


 First call to EWALD:  gamma=   0.177
 Maximum number of real-space cells 7x 3x 1
 Maximum number of reciprocal cells 1x 3x 7

 FEWALD executed in parallel
    FEWALD:  cpu time    0.00: real time    0.00


----------------------------------------- Iteration    1(   1)  ---------------------------------------


vdW kernel read from vdw_kernel.bindat
  0.0000  0.2424  0.5071  0.7962  1.1119  1.4567  1.8333  2.2446  2.6937  3.1842
  3.7199  4.3049  4.9438  5.6415  6.4036  7.2358  8.1446  9.1372 10.2212 11.4050
 12.6979 14.1099 15.6519 17.3360 19.1751 21.1837 23.3773 25.7729 28.3892 31.2465
 34.3669 37.7748 41.4965 45.5611 50.0000
 
    POTLOK:  cpu time   17.03: real time   17.04
    SETDIJ:  cpu time    0.02: real time    0.02
     EDDAV:  cpu time   83.13: real time   83.20
       DOS:  cpu time    0.01: real time    0.01
    --------------------------------------------
      LOOP:  cpu time  100.19: real time  100.27

 eigenvalue-minimisations  :  7352
 total energy-change (2. order) : 0.5548840E+03  (-0.2876385E+04)
 number of electron     108.0000000 magnetization 
 augmentation part      108.0000000 magnetization 

 Free energy of the ion-electron system (eV)
  ---------------------------------------------------
  alpha Z        PSCENC =        36.80884744
  Ewald energy   TEWEN  =     12072.42120462
  -Hartree energ DENC   =    -15048.75515811
  -exchange      EXHF   =         0.00000000
  -V(xc)+E(xc)   XCENC  =       -87.44915528
  PAW double counting   =      1056.43050070     -732.41190547
  entropy T*S    EENTRO =        -0.04703028
  eigenvalues    EBANDS =       -96.15457878
  atomic energy  EATOM  =      3354.04126044
  ---------------------------------------------------
  free energy    TOTEN  =       554.88398528 eV

  energy without entropy =      554.93101557  energy(sigma->0) =      554.90750043


--------------------------------------------------------------------------------------------------------




----------------------------------------- Iteration    1(   2)  ---------------------------------------


     EDDAV:  cpu time  101.23: real time  101.42
       DOS:  cpu time    0.01: real time    0.01
    --------------------------------------------
      LOOP:  cpu time  101.24: real time  101.44

 eigenvalue-minimisations  :  9760
 total energy-change (2. order) :-0.5664644E+03  (-0.5516687E+03)
 number of electron     108.0000000 magnetization 
 augmentation part      108.0000000 magnetization 

 Free energy of the ion-electron system (eV)
  ---------------------------------------------------
  alpha Z        PSCENC =        36.80884744
  Ewald energy   TEWEN  =     12072.42120462
  -Hartree energ DENC   =    -15048.75515811
  -exchange      EXHF   =         0.00000000
  -V(xc)+E(xc)   XCENC  =       -87.44915528
  PAW double counting   =      1056.43050070     -732.41190547
  entropy T*S    EENTRO =        -0.02975116
  eigenvalues    EBANDS =      -662.63627673
  atomic energy  EATOM  =      3354.04126044
  ---------------------------------------------------
  free energy    TOTEN  =       -11.58043355 eV

  energy without entropy =      -11.55068239  energy(sigma->0) =      -11.56555797


--------------------------------------------------------------------------------------------------------




----------------------------------------- Iteration    1(   3)  ---------------------------------------


     EDDAV:  cpu time  108.29: real time  108.37
       DOS:  cpu time    0.01: real time    0.01
    --------------------------------------------
      LOOP:  cpu time  108.31: real time  108.40

 eigenvalue-minimisations  :  9612
 total energy-change (2. order) :-0.6162670E+02  (-0.6044273E+02)
 number of electron     108.0000000 magnetization 
 augmentation part      108.0000000 magnetization 

 Free energy of the ion-electron system (eV)
  ---------------------------------------------------
  alpha Z        PSCENC =        36.80884744
  Ewald energy   TEWEN  =     12072.42120462
  -Hartree energ DENC   =    -15048.75515811
  -exchange      EXHF   =         0.00000000
  -V(xc)+E(xc)   XCENC  =       -87.44915528
  PAW double counting   =      1056.43050070     -732.41190547
  entropy T*S    EENTRO =        -0.02701722
  eigenvalues    EBANDS =      -724.26571197
  atomic energy  EATOM  =      3354.04126044
  ---------------------------------------------------
  free energy    TOTEN  =       -73.20713485 eV

  energy without entropy =      -73.18011763  energy(sigma->0) =      -73.19362624


--------------------------------------------------------------------------------------------------------




----------------------------------------- Iteration    1(   4)  ---------------------------------------


     EDDAV:  cpu time  110.32: real time  110.50
       DOS:  cpu time    0.01: real time    0.01
    --------------------------------------------
      LOOP:  cpu time  110.33: real time  110.52

 eigenvalue-minimisations  : 11328
 total energy-change (2. order) :-0.3133334E+01  (-0.3094356E+01)
 number of electron     108.0000000 magnetization 
 augmentation part      108.0000000 magnetization 

 Free energy of the ion-electron system (eV)
  ---------------------------------------------------
  alpha Z        PSCENC =        36.80884744
  Ewald energy   TEWEN  =     12072.42120462
  -Hartree energ DENC   =    -15048.75515811
  -exchange      EXHF   =         0.00000000
  -V(xc)+E(xc)   XCENC  =       -87.44915528
  PAW double counting   =      1056.43050070     -732.41190547
  entropy T*S    EENTRO =        -0.02008492
  eigenvalues    EBANDS =      -727.40597797
  atomic energy  EATOM  =      3354.04126044
  ---------------------------------------------------
  free energy    TOTEN  =       -76.34046855 eV

  energy without entropy =      -76.32038363  energy(sigma->0) =      -76.33042609


--------------------------------------------------------------------------------------------------------




----------------------------------------- Iteration    1(   5)  ---------------------------------------


     EDDAV:  cpu time  103.56: real time  103.75
       DOS:  cpu time    0.01: real time    0.01
    CHARGE:  cpu time    4.56: real time    4.56
    MIXING:  cpu time    0.01: real time    0.01
    --------------------------------------------
      LOOP:  cpu time  108.14: real time  108.33

 eigenvalue-minimisations  : 10488
 total energy-change (2. order) :-0.6933069E-01  (-0.6906934E-01)
 number of electron     107.9999995 magnetization 
 augmentation part       -9.7216537 magnetization 

 Broyden mixing:
  rms(total) = 0.14426E+01    rms(broyden)= 0.14406E+01
  rms(prec ) = 0.15876E+01
  weight for this iteration     100.00

 Free energy of the ion-electron system (eV)
  ---------------------------------------------------
  alpha Z        PSCENC =        36.80884744
  Ewald energy   TEWEN  =     12072.42120462
  -Hartree energ DENC   =    -15048.75515811
  -exchange      EXHF   =         0.00000000
  -V(xc)+E(xc)   XCENC  =       -87.44915528
  PAW double counting   =      1056.43050070     -732.41190547
  entropy T*S    EENTRO =        -0.02011321
  eigenvalues    EBANDS =      -727.47528037
  atomic energy  EATOM  =      3354.04126044
  ---------------------------------------------------
  free energy    TOTEN  =       -76.40979924 eV

  energy without entropy =      -76.38968603  energy(sigma->0) =      -76.39974263


--------------------------------------------------------------------------------------------------------




----------------------------------------- Iteration    1(   6)  ---------------------------------------


    POTLOK:  cpu time   14.80: real time   14.82
    SETDIJ:  cpu time    0.02: real time    0.02
     EDDAV:  cpu time   96.80: real time   96.85
       DOS:  cpu time    0.01: real time    0.01
    CHARGE:  cpu time    8.12: real time    8.17
    MIXING:  cpu time    0.02: real time    0.02
    --------------------------------------------
      LOOP:  cpu time  119.77: real time  119.88

 eigenvalue-minimisations  :  9200
 total energy-change (2. order) : 0.5083731E+01  (-0.4377693E+01)
 number of electron     107.9999995 magnetization 
 augmentation part       -9.5196480 magnetization 

 Broyden mixing:
  rms(total) = 0.72629E+00    rms(broyden)= 0.72592E+00
  rms(prec ) = 0.86134E+00
  weight for this iteration     100.00

 eigenvalues of (default mixing * dielectric matrix)
  average eigenvalue GAMMA=   1.0389
  1.0389

 Free energy of the ion-electron system (eV)
  ---------------------------------------------------
  alpha Z        PSCENC =        36.80884744
  Ewald energy   TEWEN  =     12072.42120462
  -Hartree energ DENC   =    -15111.63773225
  -exchange      EXHF   =         0.00000000
  -V(xc)+E(xc)   XCENC  =       -83.98476214
  PAW double counting   =      1126.45330075     -804.62507246
  entropy T*S    EENTRO =        -0.03643537
  eigenvalues    EBANDS =      -660.76667952
  atomic energy  EATOM  =      3354.04126044
  ---------------------------------------------------
  free energy    TOTEN  =       -71.32606847 eV

  energy without entropy =      -71.28963310  energy(sigma->0) =      -71.30785078


--------------------------------------------------------------------------------------------------------




----------------------------------------- Iteration    1(   7)  ---------------------------------------


    POTLOK:  cpu time   15.86: real time   15.89
    SETDIJ:  cpu time    0.01: real time    0.01
     EDDAV:  cpu time   87.80: real time   87.93
       DOS:  cpu time    0.01: real time    0.01
    CHARGE:  cpu time    4.98: real time    4.98
    MIXING:  cpu time    0.02: real time    0.02
    --------------------------------------------
      LOOP:  cpu time  108.68: real time  108.85

 eigenvalue-minimisations  :  8544
 total energy-change (2. order) : 0.9566451E+00  (-0.1779722E+01)
 number of electron     107.9999995 magnetization 
 augmentation part       -9.4936744 magnetization 

 Broyden mixing:
  rms(total) = 0.44114E+00    rms(broyden)= 0.44096E+00
  rms(prec ) = 0.48664E+00
  weight for this iteration     100.00

 eigenvalues of (default mixing * dielectric matrix)
  average eigenvalue GAMMA=   1.1168
  1.6397  0.5939

 Free energy of the ion-electron system (eV)
  ---------------------------------------------------
  alpha Z        PSCENC =        36.80884744
  Ewald energy   TEWEN  =     12072.42120462
  -Hartree energ DENC   =    -15106.98193326
  -exchange      EXHF   =         0.00000000
  -V(xc)+E(xc)   XCENC  =       -82.42405611
  PAW double counting   =      1156.16480480     -835.20979071
  entropy T*S    EENTRO =        -0.04737562
  eigenvalues    EBANDS =      -665.14238494
  atomic energy  EATOM  =      3354.04126044
  ---------------------------------------------------
  free energy    TOTEN  =       -70.36942334 eV

  energy without entropy =      -70.32204771  energy(sigma->0) =      -70.34573553


--------------------------------------------------------------------------------------------------------




----------------------------------------- Iteration    1(   8)  ---------------------------------------


    POTLOK:  cpu time   15.00: real time   15.01
    SETDIJ:  cpu time    0.02: real time    0.02
     EDDAV:  cpu time   90.10: real time   90.13
       DOS:  cpu time    0.01: real time    0.01
    CHARGE:  cpu time    5.59: real time    5.59
    MIXING:  cpu time    0.01: real time    0.01
    --------------------------------------------
      LOOP:  cpu time  110.73: real time  110.79

 eigenvalue-minimisations  :  8544
 total energy-change (2. order) : 0.8195793E-01  (-0.3729736E+00)
 number of electron     107.9999995 magnetization 
 augmentation part       -9.4316999 magnetization 

 Broyden mixing:
  rms(total) = 0.19143E+00    rms(broyden)= 0.19136E+00
  rms(prec ) = 0.20818E+00
  weight for this iteration     100.00

 eigenvalues of (default mixing * dielectric matrix)
  average eigenvalue GAMMA=   1.2176
  2.0550  1.0353  0.5625

 Free energy of the ion-electron system (eV)
  ---------------------------------------------------
  alpha Z        PSCENC =        36.80884744
  Ewald energy   TEWEN  =     12072.42120462
  -Hartree energ DENC   =    -15132.61881280
  -exchange      EXHF   =         0.00000000
  -V(xc)+E(xc)   XCENC  =       -80.45456270
  PAW double counting   =      1187.10092691     -867.06774015
  entropy T*S    EENTRO =        -0.04399028
  eigenvalues    EBANDS =      -640.47459891
  atomic energy  EATOM  =      3354.04126044
  ---------------------------------------------------
  free energy    TOTEN  =       -70.28746541 eV

  energy without entropy =      -70.24347513  energy(sigma->0) =      -70.26547027


--------------------------------------------------------------------------------------------------------




----------------------------------------- Iteration    1(   9)  ---------------------------------------


    POTLOK:  cpu time   14.87: real time   14.91
    SETDIJ:  cpu time    0.01: real time    0.01
     EDDAV:  cpu time   97.27: real time   97.38
       DOS:  cpu time    0.01: real time    0.01
    CHARGE:  cpu time    4.91: real time    4.92
    MIXING:  cpu time    0.01: real time    0.01
    --------------------------------------------
      LOOP:  cpu time  117.09: real time  117.25

 eigenvalue-minimisations  :  9352
 total energy-change (2. order) :-0.5802306E-01  (-0.1078454E+00)
 number of electron     107.9999995 magnetization 
 augmentation part       -9.4280017 magnetization 

 Broyden mixing:
  rms(total) = 0.13411E+00    rms(broyden)= 0.13409E+00
  rms(prec ) = 0.17480E+00
  weight for this iteration     100.00

 eigenvalues of (default mixing * dielectric matrix)
  average eigenvalue GAMMA=   1.1260
  2.2379  1.1152  0.6464  0.5044

 Free energy of the ion-electron system (eV)
  ---------------------------------------------------
  alpha Z        PSCENC =        36.80884744
  Ewald energy   TEWEN  =     12072.42120462
  -Hartree energ DENC   =    -15136.52431728
  -exchange      EXHF   =         0.00000000
  -V(xc)+E(xc)   XCENC  =       -79.65282465
  PAW double counting   =      1194.57808239     -874.79929366
  entropy T*S    EENTRO =        -0.07169551
  eigenvalues    EBANDS =      -637.14675227
  atomic energy  EATOM  =      3354.04126044
  ---------------------------------------------------
  free energy    TOTEN  =       -70.34548847 eV

  energy without entropy =      -70.27379296  energy(sigma->0) =      -70.30964072


--------------------------------------------------------------------------------------------------------




----------------------------------------- Iteration    1(  10)  ---------------------------------------


    POTLOK:  cpu time   14.86: real time   14.88
    SETDIJ:  cpu time    0.01: real time    0.02
     EDDAV:  cpu time   91.87: real time   91.90
       DOS:  cpu time    0.01: real time    0.01
    CHARGE:  cpu time    4.40: real time    4.40
    MIXING:  cpu time    0.01: real time    0.01
    --------------------------------------------
      LOOP:  cpu time  111.17: real time  111.22

 eigenvalue-minimisations  :  8916
 total energy-change (2. order) : 0.4411686E-01  (-0.4906947E-01)
 number of electron     107.9999995 magnetization 
 augmentation part       -9.4298677 magnetization 

 Broyden mixing:
  rms(total) = 0.55094E-01    rms(broyden)= 0.55076E-01
  rms(prec ) = 0.64387E-01
  weight for this iteration     100.00

 eigenvalues of (default mixing * dielectric matrix)
  average eigenvalue GAMMA=   1.1657
  2.4916  1.3123  1.0459  0.5804  0.3985

 Free energy of the ion-electron system (eV)
  ---------------------------------------------------
  alpha Z        PSCENC =        36.80884744
  Ewald energy   TEWEN  =     12072.42120462
  -Hartree energ DENC   =    -15142.17239240
  -exchange      EXHF   =         0.00000000
  -V(xc)+E(xc)   XCENC  =       -79.38980271
  PAW double counting   =      1195.76858007     -876.03423444
  entropy T*S    EENTRO =        -0.05415578
  eigenvalues    EBANDS =      -631.69067885
  atomic energy  EATOM  =      3354.04126044
  ---------------------------------------------------
  free energy    TOTEN  =       -70.30137161 eV

  energy without entropy =      -70.24721582  energy(sigma->0) =      -70.27429371


--------------------------------------------------------------------------------------------------------




----------------------------------------- Iteration    1(  11)  ---------------------------------------


    POTLOK:  cpu time   15.38: real time   15.40
    SETDIJ:  cpu time    0.02: real time    0.02
     EDDAV:  cpu time   92.64: real time   92.67
       DOS:  cpu time    0.01: real time    0.01
    CHARGE:  cpu time    4.73: real time    4.73
    MIXING:  cpu time    0.01: real time    0.01
    --------------------------------------------
      LOOP:  cpu time  112.80: real time  112.85

 eigenvalue-minimisations  :  8808
 total energy-change (2. order) : 0.8786798E-02  (-0.4950229E-02)
 number of electron     107.9999995 magnetization 
 augmentation part       -9.4314949 magnetization 

 Broyden mixing:
  rms(total) = 0.20728E-01    rms(broyden)= 0.20718E-01
  rms(prec ) = 0.24358E-01
  weight for this iteration     100.00

 eigenvalues of (default mixing * dielectric matrix)
  average eigenvalue GAMMA=   1.1851
  2.5667  1.4453  1.1824  0.9312  0.5863  0.3988

 Free energy of the ion-electron system (eV)
  ---------------------------------------------------
  alpha Z        PSCENC =        36.80884744
  Ewald energy   TEWEN  =     12072.42120462
  -Hartree energ DENC   =    -15143.37681693
  -exchange      EXHF   =         0.00000000
  -V(xc)+E(xc)   XCENC  =       -79.20276781
  PAW double counting   =      1194.82747528     -875.08374805
  entropy T*S    EENTRO =        -0.05821582
  eigenvalues    EBANDS =      -630.66982400
  atomic energy  EATOM  =      3354.04126044
  ---------------------------------------------------
  free energy    TOTEN  =       -70.29258481 eV

  energy without entropy =      -70.23436899  energy(sigma->0) =      -70.26347690


--------------------------------------------------------------------------------------------------------




----------------------------------------- Iteration    1(  12)  ---------------------------------------


    POTLOK:  cpu time   15.09: real time   15.10
    SETDIJ:  cpu time    0.01: real time    0.01
     EDDAV:  cpu time   93.72: real time   93.87
       DOS:  cpu time    0.01: real time    0.01
    CHARGE:  cpu time    5.56: real time    5.56
    MIXING:  cpu time    0.01: real time    0.01
    --------------------------------------------
      LOOP:  cpu time  114.41: real time  114.57

 eigenvalue-minimisations  :  9312
 total energy-change (2. order) : 0.7236100E-02  (-0.1515425E-02)
 number of electron     107.9999995 magnetization 
 augmentation part       -9.4333713 magnetization 

 Broyden mixing:
  rms(total) = 0.11844E-01    rms(broyden)= 0.11841E-01
  rms(prec ) = 0.13788E-01
  weight for this iteration     100.00

 eigenvalues of (default mixing * dielectric matrix)
  average eigenvalue GAMMA=   1.1577
  2.6182  1.7204  1.0948  1.0948  0.4008  0.5651  0.6094

 Free energy of the ion-electron system (eV)
  ---------------------------------------------------
  alpha Z        PSCENC =        36.80884744
  Ewald energy   TEWEN  =     12072.42120462
  -Hartree energ DENC   =    -15144.59676059
  -exchange      EXHF   =         0.00000000
  -V(xc)+E(xc)   XCENC  =       -79.16946670
  PAW double counting   =      1193.72231997     -873.95169704
  entropy T*S    EENTRO =        -0.05918403
  eigenvalues    EBANDS =      -629.50187284
  atomic energy  EATOM  =      3354.04126044
  ---------------------------------------------------
  free energy    TOTEN  =       -70.28534871 eV

  energy without entropy =      -70.22616468  energy(sigma->0) =      -70.25575670


--------------------------------------------------------------------------------------------------------




----------------------------------------- Iteration    1(  13)  ---------------------------------------


    POTLOK:  cpu time   14.92: real time   14.94
    SETDIJ:  cpu time    0.01: real time    0.01
     EDDAV:  cpu time   94.35: real time   94.38
       DOS:  cpu time    0.01: real time    0.01
    CHARGE:  cpu time    4.85: real time    4.85
    MIXING:  cpu time    0.01: real time    0.01
    --------------------------------------------
      LOOP:  cpu time  114.15: real time  114.21

 eigenvalue-minimisations  :  9256
 total energy-change (2. order) : 0.6418585E-02  (-0.2619502E-03)
 number of electron     107.9999995 magnetization 
 augmentation part       -9.4335930 magnetization 

 Broyden mixing:
  rms(total) = 0.55975E-02    rms(broyden)= 0.55967E-02
  rms(prec ) = 0.70118E-02
  weight for this iteration     100.00

 eigenvalues of (default mixing * dielectric matrix)
  average eigenvalue GAMMA=   1.1903
  2.6398  2.0083  1.1936  1.1936  0.9070  0.3993  0.5692  0.6117

 Free energy of the ion-electron system (eV)
  ---------------------------------------------------
  alpha Z        PSCENC =        36.80884744
  Ewald energy   TEWEN  =     12072.42120462
  -Hartree energ DENC   =    -15145.36253598
  -exchange      EXHF   =         0.00000000
  -V(xc)+E(xc)   XCENC  =       -79.16170878
  PAW double counting   =      1192.72006526     -872.92428763
  entropy T*S    EENTRO =        -0.05962237
  eigenvalues    EBANDS =      -628.76215314
  atomic energy  EATOM  =      3354.04126044
  ---------------------------------------------------
  free energy    TOTEN  =       -70.27893012 eV

  energy without entropy =      -70.21930776  energy(sigma->0) =      -70.24911894


--------------------------------------------------------------------------------------------------------




----------------------------------------- Iteration    1(  14)  ---------------------------------------


    POTLOK:  cpu time   14.82: real time   14.82
    SETDIJ:  cpu time    0.01: real time    0.01
     EDDAV:  cpu time  101.96: real time  102.01
       DOS:  cpu time    0.01: real time    0.01
    CHARGE:  cpu time    5.71: real time    5.72
    MIXING:  cpu time    0.02: real time    0.02
    --------------------------------------------
      LOOP:  cpu time  122.54: real time  122.59

 eigenvalue-minimisations  :  9256
 total energy-change (2. order) : 0.4526111E-02  (-0.5767195E-04)
 number of electron     107.9999995 magnetization 
 augmentation part       -9.4337413 magnetization 

 Broyden mixing:
  rms(total) = 0.27623E-02    rms(broyden)= 0.27618E-02
  rms(prec ) = 0.38959E-02
  weight for this iteration     100.00

 eigenvalues of (default mixing * dielectric matrix)
  average eigenvalue GAMMA=   1.2445
  2.7216  2.2011  1.4969  1.1513  1.1513  0.9100  0.3996  0.6098  0.5591

 Free energy of the ion-electron system (eV)
  ---------------------------------------------------
  alpha Z        PSCENC =        36.80884744
  Ewald energy   TEWEN  =     12072.42120462
  -Hartree energ DENC   =    -15146.24649962
  -exchange      EXHF   =         0.00000000
  -V(xc)+E(xc)   XCENC  =       -79.15974173
  PAW double counting   =      1192.09804738     -872.28611397
  entropy T*S    EENTRO =        -0.05937769
  eigenvalues    EBANDS =      -627.89203089
  atomic energy  EATOM  =      3354.04126044
  ---------------------------------------------------
  free energy    TOTEN  =       -70.27440401 eV

  energy without entropy =      -70.21502633  energy(sigma->0) =      -70.24471517


--------------------------------------------------------------------------------------------------------




----------------------------------------- Iteration    1(  15)  ---------------------------------------


    POTLOK:  cpu time   15.39: real time   15.39
    SETDIJ:  cpu time    0.04: real time    0.04
     EDDAV:  cpu time   94.49: real time   94.52
       DOS:  cpu time    0.01: real time    0.01
    CHARGE:  cpu time    5.12: real time    5.12
    MIXING:  cpu time    0.01: real time    0.01
    --------------------------------------------
      LOOP:  cpu time  115.07: real time  115.10

 eigenvalue-minimisations  :  9344
 total energy-change (2. order) : 0.2464389E-02  (-0.2084246E-04)
 number of electron     107.9999995 magnetization 
 augmentation part       -9.4333744 magnetization 

 Broyden mixing:
  rms(total) = 0.14518E-02    rms(broyden)= 0.14514E-02
  rms(prec ) = 0.23694E-02
  weight for this iteration     100.00

 eigenvalues of (default mixing * dielectric matrix)
  average eigenvalue GAMMA=   1.2655
  2.8093  2.4139  1.5176  1.1960  1.1960  0.9746  0.9746  0.3996  0.6143  0.5593

 Free energy of the ion-electron system (eV)
  ---------------------------------------------------
  alpha Z        PSCENC =        36.80884744
  Ewald energy   TEWEN  =     12072.42120462
  -Hartree energ DENC   =    -15147.19360499
  -exchange      EXHF   =         0.00000000
  -V(xc)+E(xc)   XCENC  =       -79.15457256
  PAW double counting   =      1191.77851452     -871.95874213
  entropy T*S    EENTRO =        -0.05920583
  eigenvalues    EBANDS =      -626.95564115
  atomic energy  EATOM  =      3354.04126044
  ---------------------------------------------------
  free energy    TOTEN  =       -70.27193962 eV

  energy without entropy =      -70.21273380  energy(sigma->0) =      -70.24233671


--------------------------------------------------------------------------------------------------------




----------------------------------------- Iteration    1(  16)  ---------------------------------------


    POTLOK:  cpu time   14.65: real time   14.66
    SETDIJ:  cpu time    0.01: real time    0.01
     EDDAV:  cpu time   89.33: real time   89.41
       DOS:  cpu time    0.01: real time    0.01
    CHARGE:  cpu time    4.78: real time    4.78
    MIXING:  cpu time    0.01: real time    0.01
    --------------------------------------------
      LOOP:  cpu time  108.79: real time  108.89

 eigenvalue-minimisations  :  8968
 total energy-change (2. order) : 0.8141291E-03  (-0.5668943E-05)
 number of electron     107.9999995 magnetization 
 augmentation part       -9.4333155 magnetization 

 Broyden mixing:
  rms(total) = 0.87308E-03    rms(broyden)= 0.87280E-03
  rms(prec ) = 0.16067E-02
  weight for this iteration     100.00

 eigenvalues of (default mixing * dielectric matrix)
  average eigenvalue GAMMA=   1.3129
  2.9656  2.5641  1.8205  1.2184  1.2184  1.1044  1.1044  0.8727  0.3996  0.6150
  0.5585

 Free energy of the ion-electron system (eV)
  ---------------------------------------------------
  alpha Z        PSCENC =        36.80884744
  Ewald energy   TEWEN  =     12072.42120462
  -Hartree energ DENC   =    -15147.82167425
  -exchange      EXHF   =         0.00000000
  -V(xc)+E(xc)   XCENC  =       -79.15159092
  PAW double counting   =      1191.65566472     -871.83290695
  entropy T*S    EENTRO =        -0.05933334
  eigenvalues    EBANDS =      -626.33259726
  atomic energy  EATOM  =      3354.04126044
  ---------------------------------------------------
  free energy    TOTEN  =       -70.27112550 eV

  energy without entropy =      -70.21179216  energy(sigma->0) =      -70.24145883


--------------------------------------------------------------------------------------------------------




----------------------------------------- Iteration    1(  17)  ---------------------------------------


    POTLOK:  cpu time   14.87: real time   14.87
    SETDIJ:  cpu time    0.01: real time    0.01
     EDDAV:  cpu time   84.45: real time   84.49
       DOS:  cpu time    0.01: real time    0.01
    CHARGE:  cpu time    4.99: real time    4.99
    MIXING:  cpu time    0.04: real time    0.04
    --------------------------------------------
      LOOP:  cpu time  104.38: real time  104.43

 eigenvalue-minimisations  :  8080
 total energy-change (2. order) :-0.1739299E-04  (-0.5845525E-05)
 number of electron     107.9999995 magnetization 
 augmentation part       -9.4331368 magnetization 

 Broyden mixing:
  rms(total) = 0.67906E-03    rms(broyden)= 0.67878E-03
  rms(prec ) = 0.11008E-02
  weight for this iteration     100.00

 eigenvalues of (default mixing * dielectric matrix)
  average eigenvalue GAMMA=   1.4062
  3.7077  2.6619  2.1165  1.6627  1.1660  1.1660  0.9671  0.9671  0.8857  0.3996
  0.6157  0.5584

 Free energy of the ion-electron system (eV)
  ---------------------------------------------------
  alpha Z        PSCENC =        36.80884744
  Ewald energy   TEWEN  =     12072.42120462
  -Hartree energ DENC   =    -15148.55285292
  -exchange      EXHF   =         0.00000000
  -V(xc)+E(xc)   XCENC  =       -79.14726384
  PAW double counting   =      1191.63819188     -871.81511284
  entropy T*S    EENTRO =        -0.05923917
  eigenvalues    EBANDS =      -625.60617851
  atomic energy  EATOM  =      3354.04126044
  ---------------------------------------------------
  free energy    TOTEN  =       -70.27114289 eV

  energy without entropy =      -70.21190372  energy(sigma->0) =      -70.24152331


--------------------------------------------------------------------------------------------------------




----------------------------------------- Iteration    1(  18)  ---------------------------------------


    POTLOK:  cpu time   15.42: real time   15.43
    SETDIJ:  cpu time    0.01: real time    0.02
     EDDAV:  cpu time   91.89: real time   91.95
       DOS:  cpu time    0.01: real time    0.01
    CHARGE:  cpu time    4.57: real time    4.57
    MIXING:  cpu time    0.01: real time    0.01
    --------------------------------------------
      LOOP:  cpu time  111.92: real time  111.99

 eigenvalue-minimisations  :  8224
 total energy-change (2. order) :-0.4290070E-03  (-0.1234762E-04)
 number of electron     107.9999995 magnetization 
 augmentation part       -9.4330767 magnetization 

 Broyden mixing:
  rms(total) = 0.37782E-03    rms(broyden)= 0.37758E-03
  rms(prec ) = 0.59781E-03
  weight for this iteration     100.00

 eigenvalues of (default mixing * dielectric matrix)
  average eigenvalue GAMMA=   1.4957
  4.6799  2.7454  2.2856  1.5259  1.5259  1.1623  1.1623  0.3996  0.5582  0.6157
  1.0524  0.8909  0.8394

 Free energy of the ion-electron system (eV)
  ---------------------------------------------------
  alpha Z        PSCENC =        36.80884744
  Ewald energy   TEWEN  =     12072.42120462
  -Hartree energ DENC   =    -15149.12849757
  -exchange      EXHF   =         0.00000000
  -V(xc)+E(xc)   XCENC  =       -79.14433402
  PAW double counting   =      1191.63356435     -871.81035272
  entropy T*S    EENTRO =        -0.05931110
  eigenvalues    EBANDS =      -625.03395333
  atomic energy  EATOM  =      3354.04126044
  ---------------------------------------------------
  free energy    TOTEN  =       -70.27157190 eV

  energy without entropy =      -70.21226079  energy(sigma->0) =      -70.24191635


--------------------------------------------------------------------------------------------------------




----------------------------------------- Iteration    1(  19)  ---------------------------------------


    POTLOK:  cpu time   15.76: real time   15.77
    SETDIJ:  cpu time    0.01: real time    0.02
     EDDAV:  cpu time   82.77: real time   82.84
       DOS:  cpu time    0.01: real time    0.01
    CHARGE:  cpu time    4.62: real time    4.63
    MIXING:  cpu time    0.01: real time    0.01
    --------------------------------------------
      LOOP:  cpu time  103.20: real time  103.28

 eigenvalue-minimisations  :  7672
 total energy-change (2. order) :-0.2562584E-03  (-0.1078372E-04)
 number of electron     107.9999995 magnetization 
 augmentation part       -9.4330343 magnetization 

 Broyden mixing:
  rms(total) = 0.19960E-03    rms(broyden)= 0.19956E-03
  rms(prec ) = 0.34089E-03
  weight for this iteration     100.00

 eigenvalues of (default mixing * dielectric matrix)
  average eigenvalue GAMMA=   1.5741
  5.6948  2.7776  2.4164  1.8904  1.5429  1.1842  1.1842  0.3996  1.0112  1.0112
  0.5582  0.6157  0.9215  0.8290

 Free energy of the ion-electron system (eV)
  ---------------------------------------------------
  alpha Z        PSCENC =        36.80884744
  Ewald energy   TEWEN  =     12072.42120462
  -Hartree energ DENC   =    -15149.44551756
  -exchange      EXHF   =         0.00000000
  -V(xc)+E(xc)   XCENC  =       -79.14275361
  PAW double counting   =      1191.65215521     -871.82931250
  entropy T*S    EENTRO =        -0.05928738
  eigenvalues    EBANDS =      -624.71842482
  atomic energy  EATOM  =      3354.04126044
  ---------------------------------------------------
  free energy    TOTEN  =       -70.27182815 eV

  energy without entropy =      -70.21254078  energy(sigma->0) =      -70.24218446


--------------------------------------------------------------------------------------------------------




----------------------------------------- Iteration    1(  20)  ---------------------------------------


    POTLOK:  cpu time   14.94: real time   14.97
    SETDIJ:  cpu time    0.01: real time    0.01
     EDDAV:  cpu time   79.49: real time   79.57
       DOS:  cpu time    0.01: real time    0.01
    CHARGE:  cpu time    5.06: real time    5.06
    MIXING:  cpu time    0.01: real time    0.01
    --------------------------------------------
      LOOP:  cpu time   99.54: real time   99.65

 eigenvalue-minimisations  :  7288
 total energy-change (2. order) :-0.7201043E-04  (-0.2551609E-05)
 number of electron     107.9999995 magnetization 
 augmentation part       -9.4330269 magnetization 

 Broyden mixing:
  rms(total) = 0.12265E-03    rms(broyden)= 0.12264E-03
  rms(prec ) = 0.22634E-03
  weight for this iteration     100.00

 eigenvalues of (default mixing * dielectric matrix)
  average eigenvalue GAMMA=   1.6142
  6.2168  2.9127  2.5763  1.9794  0.3996  1.3342  1.3342  1.1976  1.1976  1.0982
  1.0982  0.5582  0.6156  0.8472  0.8472

 Free energy of the ion-electron system (eV)
  ---------------------------------------------------
  alpha Z        PSCENC =        36.80884744
  Ewald energy   TEWEN  =     12072.42120462
  -Hartree energ DENC   =    -15149.59913041
  -exchange      EXHF   =         0.00000000
  -V(xc)+E(xc)   XCENC  =       -79.14194845
  PAW double counting   =      1191.65945954     -871.83673131
  entropy T*S    EENTRO =        -0.05929290
  eigenvalues    EBANDS =      -624.56556914
  atomic energy  EATOM  =      3354.04126044
  ---------------------------------------------------
  free energy    TOTEN  =       -70.27190016 eV

  energy without entropy =      -70.21260726  energy(sigma->0) =      -70.24225371


--------------------------------------------------------------------------------------------------------




----------------------------------------- Iteration    1(  21)  ---------------------------------------


    POTLOK:  cpu time   14.84: real time   14.91
    SETDIJ:  cpu time    0.01: real time    0.02
     EDDAV:  cpu time   71.71: real time   71.73
       DOS:  cpu time    0.01: real time    0.01
    CHARGE:  cpu time    5.61: real time    5.61
    MIXING:  cpu time    0.02: real time    0.02
    --------------------------------------------
      LOOP:  cpu time   92.20: real time   92.30

 eigenvalue-minimisations  :  6380
 total energy-change (2. order) :-0.4800911E-04  (-0.9745303E-06)
 number of electron     107.9999995 magnetization 
 augmentation part       -9.4330194 magnetization 

 Broyden mixing:
  rms(total) = 0.91213E-04    rms(broyden)= 0.91204E-04
  rms(prec ) = 0.16023E-03
  weight for this iteration     100.00

 eigenvalues of (default mixing * dielectric matrix)
  average eigenvalue GAMMA=   1.6537
  6.7133  3.0432  2.6291  2.0328  1.7188  1.5727  1.2058  1.2058  0.3996  1.0329
  1.0329  0.5582  0.6156  0.9788  0.8746  0.8455

 Free energy of the ion-electron system (eV)
  ---------------------------------------------------
  alpha Z        PSCENC =        36.80884744
  Ewald energy   TEWEN  =     12072.42120462
  -Hartree energ DENC   =    -15149.68000159
  -exchange      EXHF   =         0.00000000
  -V(xc)+E(xc)   XCENC  =       -79.14165472
  PAW double counting   =      1191.66411915     -871.84147758
  entropy T*S    EENTRO =        -0.05928734
  eigenvalues    EBANDS =      -624.48495860
  atomic energy  EATOM  =      3354.04126044
  ---------------------------------------------------
  free energy    TOTEN  =       -70.27194817 eV

  energy without entropy =      -70.21266083  energy(sigma->0) =      -70.24230450


--------------------------------------------------------------------------------------------------------




----------------------------------------- Iteration    1(  22)  ---------------------------------------


    POTLOK:  cpu time   15.22: real time   15.24
    SETDIJ:  cpu time    0.01: real time    0.02
     EDDAV:  cpu time   78.73: real time   78.83
       DOS:  cpu time    0.01: real time    0.01
    CHARGE:  cpu time    4.99: real time    4.99
    MIXING:  cpu time    0.02: real time    0.02
    --------------------------------------------
      LOOP:  cpu time   98.99: real time   99.11

 eigenvalue-minimisations  :  7076
 total energy-change (2. order) :-0.4891718E-05  (-0.1814995E-05)
 number of electron     107.9999995 magnetization 
 augmentation part       -9.4330197 magnetization 

 Broyden mixing:
  rms(total) = 0.61483E-04    rms(broyden)= 0.61478E-04
  rms(prec ) = 0.10314E-03
  weight for this iteration     100.00

 eigenvalues of (default mixing * dielectric matrix)
  average eigenvalue GAMMA=   1.7330
  6.9446  3.6936  2.7654  2.4785  1.6197  1.6197  1.4399  1.2320  1.2320  0.3996
  1.0710  1.0710  0.5582  0.6156  0.9941  0.8874  0.8395

 Free energy of the ion-electron system (eV)
  ---------------------------------------------------
  alpha Z        PSCENC =        36.80884744
  Ewald energy   TEWEN  =     12072.42120462
  -Hartree energ DENC   =    -15149.72985341
  -exchange      EXHF   =         0.00000000
  -V(xc)+E(xc)   XCENC  =       -79.14169318
  PAW double counting   =      1191.65983481     -871.83708213
  entropy T*S    EENTRO =        -0.05928753
  eigenvalues    EBANDS =      -624.43518413
  atomic energy  EATOM  =      3354.04126044
  ---------------------------------------------------
  free energy    TOTEN  =       -70.27195307 eV

  energy without entropy =      -70.21266554  energy(sigma->0) =      -70.24230930


--------------------------------------------------------------------------------------------------------




----------------------------------------- Iteration    1(  23)  ---------------------------------------


    POTLOK:  cpu time   14.97: real time   14.98
    SETDIJ:  cpu time    0.01: real time    0.01
     EDDAV:  cpu time   85.42: real time   85.48
       DOS:  cpu time    0.01: real time    0.01
    CHARGE:  cpu time    5.30: real time    5.30
    MIXING:  cpu time    0.02: real time    0.02
    --------------------------------------------
      LOOP:  cpu time  105.74: real time  105.82

 eigenvalue-minimisations  :  7032
 total energy-change (2. order) : 0.4057201E-04  (-0.1833736E-05)
[...]
     31      -4.1932      2.00000
     32      -4.0916      2.00000
     33      -3.8420      2.00000
     34      -3.5863      2.00000
     35      -3.4161      2.00000
     36      -3.3347      2.00000
     37      -3.2515      2.00000
     38      -3.1630      2.00000
     39      -2.9322      2.00000
     40      -2.7657      2.00000
     41      -2.6826      2.00000
     42      -2.6359      2.00000
     43      -2.4769      2.00000
     44      -2.2923      2.00000
     45      -2.1095      2.00000
     46      -1.9875      2.00000
     47      -1.8718      2.00000
     48      -1.5383      2.00000
     49      -1.4931      2.00000
     50      -1.1577      2.00000
     51      -1.0935      2.00000
     52      -0.2652      2.00000
     53      -0.1050      2.00000
     54       0.3550      1.36284
     55       0.5097      0.08623
     56       0.7682      0.00000
     57       1.2186      0.00000
     58       1.3617      0.00000
     59       1.4932      0.00000
     60       1.6455      0.00000
     61       1.7591      0.00000
     62       1.9799      0.00000
     63       2.1870      0.00000
     64       2.3732      0.00000
     65       2.5075      0.00000
     66       2.6432      0.00000
     67       2.9459      0.00000
     68       3.1497      0.00000

 k-point    52 :       0.3077    0.5000    0.5000
  band No.  band energies     occupation 
      1     -13.8218      2.00000
      2     -12.6123      2.00000
      3     -12.4280      2.00000
      4     -12.2639      2.00000
      5     -11.7622      2.00000
      6     -11.7140      2.00000
      7     -11.3579      2.00000
      8     -11.1186      2.00000
      9     -10.9106      2.00000
     10     -10.6941      2.00000
     11     -10.4963      2.00000
     12     -10.2383      2.00000
     13      -9.3125      2.00000
     14      -9.0851      2.00000
     15      -9.0233      2.00000
     16      -7.8786      2.00000
     17      -7.2101      2.00000
     18      -7.1664      2.00000
     19      -7.0703      2.00000
     20      -6.8541      2.00000
     21      -6.6012      2.00000
     22      -6.2875      2.00000
     23      -6.1203      2.00000
     24      -6.0286      2.00000
     25      -5.6800      2.00000
     26      -5.4557      2.00000
     27      -5.0081      2.00000
     28      -4.9516      2.00000
     29      -4.7407      2.00000
     30      -4.5726      2.00000
     31      -4.4197      2.00000
     32      -4.3373      2.00000
     33      -4.1805      2.00000
     34      -3.6833      2.00000
     35      -3.3556      2.00000
     36      -3.2849      2.00000
     37      -3.2427      2.00000
     38      -3.1784      2.00000
     39      -3.0094      2.00000
     40      -2.8417      2.00000
     41      -2.8159      2.00000
     42      -2.6255      2.00000
     43      -2.5043      2.00000
     44      -2.3718      2.00000
     45      -2.3059      2.00000
     46      -2.0526      2.00000
     47      -1.9749      2.00000
     48      -1.8399      2.00000
     49      -1.6675      2.00000
     50      -1.4120      2.00000
     51      -1.0882      2.00000
     52      -0.7194      2.00000
     53      -0.1154      2.00000
     54       0.2029      1.99127
     55       0.3611      1.30028
     56       0.4675      0.26264
     57       1.1252      0.00000
     58       1.1954      0.00000
     59       1.3093      0.00000
     60       1.3749      0.00000
     61       1.6707      0.00000
     62       1.8676      0.00000
     63       2.0913      0.00000
     64       2.1834      0.00000
     65       2.3471      0.00000
     66       2.4348      0.00000
     67       2.4757      0.00000
     68       2.8749      0.00000

 k-point    53 :       0.3846    0.5000    0.5000
  band No.  band energies     occupation 
      1     -13.3971      2.00000
      2     -12.1361      2.00000
      3     -12.0650      2.00000
      4     -11.7671      2.00000
      5     -11.5128      2.00000
      6     -11.3537      2.00000
      7     -11.1148      2.00000
      8     -10.8760      2.00000
      9     -10.7250      2.00000
     10     -10.7183      2.00000
     11     -10.5627      2.00000
     12     -10.0536      2.00000
     13      -9.5324      2.00000
     14      -9.3088      2.00000
     15      -9.0076      2.00000
     16      -8.3525      2.00000
     17      -7.7173      2.00000
     18      -7.6251      2.00000
     19      -7.4865      2.00000
     20      -7.2161      2.00000
     21      -6.9759      2.00000
     22      -6.8204      2.00000
     23      -6.7596      2.00000
     24      -6.5341      2.00000
     25      -5.5971      2.00000
     26      -5.3990      2.00000
     27      -5.1575      2.00000
     28      -4.9031      2.00000
     29      -4.7745      2.00000
     30      -4.5621      2.00000
     31      -4.2416      2.00000
     32      -4.1935      2.00000
     33      -4.1428      2.00000
     34      -3.6885      2.00000
     35      -3.6173      2.00000
     36      -3.3437      2.00000
     37      -3.2940      2.00000
     38      -3.2254      2.00000
     39      -3.1371      2.00000
     40      -2.9717      2.00000
     41      -2.8817      2.00000
     42      -2.6833      2.00000
     43      -2.5423      2.00000
     44      -2.4091      2.00000
     45      -2.3932      2.00000
     46      -2.2267      2.00000
     47      -2.1579      2.00000
     48      -1.9643      2.00000
     49      -1.7688      2.00000
     50      -1.5389      2.00000
     51      -1.2398      2.00000
     52      -1.1164      2.00000
     53      -0.1805      2.00000
     54       0.1641      1.99848
     55       0.2650      1.91886
     56       0.3186      1.67593
     57       1.0917      0.00000
     58       1.1624      0.00000
     59       1.2324      0.00000
     60       1.4213      0.00000
     61       1.5166      0.00000
     62       1.7327      0.00000
     63       1.8481      0.00000
     64       2.0169      0.00000
     65       2.0715      0.00000
     66       2.2397      0.00000
     67       2.4635      0.00000
     68       2.6223      0.00000

 k-point    54 :       0.4615    0.5000    0.5000
  band No.  band energies     occupation 
      1     -13.0013      2.00000
      2     -12.0426      2.00000
      3     -11.5928      2.00000
      4     -11.3207      2.00000
      5     -11.2686      2.00000
      6     -11.0583      2.00000
      7     -11.0053      2.00000
      8     -10.9479      2.00000
      9     -10.8230      2.00000
     10     -10.7231      2.00000
     11     -10.6894      2.00000
     12      -9.8280      2.00000
     13      -9.7264      2.00000
     14      -9.5043      2.00000
     15      -8.7652      2.00000
     16      -8.5426      2.00000
     17      -8.2205      2.00000
     18      -7.8873      2.00000
     19      -7.6626      2.00000
     20      -7.4238      2.00000
     21      -7.3917      2.00000
     22      -7.2765      2.00000
     23      -7.2601      2.00000
     24      -6.8122      2.00000
     25      -5.4817      2.00000
     26      -5.3371      2.00000
     27      -5.0498      2.00000
     28      -4.6120      2.00000
     29      -4.5673      2.00000
     30      -4.3265      2.00000
     31      -4.2103      2.00000
     32      -4.0914      2.00000
     33      -4.0247      2.00000
     34      -3.8685      2.00000
     35      -3.8371      2.00000
     36      -3.6591      2.00000
     37      -3.5690      2.00000
     38      -3.3566      2.00000
     39      -3.1337      2.00000
     40      -2.9029      2.00000
     41      -2.8570      2.00000
     42      -2.7789      2.00000
     43      -2.6776      2.00000
     44      -2.4738      2.00000
     45      -2.3771      2.00000
     46      -2.2878      2.00000
     47      -2.2017      2.00000
     48      -2.0049      2.00000
     49      -1.8114      2.00000
     50      -1.6234      2.00000
     51      -1.4446      2.00000
     52      -1.1820      2.00000
     53      -0.1943      2.00000
     54      -0.0205      2.00000
     55       0.1915      1.99464
     56       0.5112      0.08230
     57       1.0633      0.00000
     58       1.1304      0.00000
     59       1.2428      0.00000
     60       1.4121      0.00000
     61       1.5027      0.00000
     62       1.5665      0.00000
     63       1.7874      0.00000
     64       1.9057      0.00000
     65       1.9899      0.00000
     66       2.2715      0.00000
     67       2.2993      0.00000
     68       2.4012      0.00000


--------------------------------------------------------------------------------------------------------


 soft charge-density along one line, spin component           1
         0         1         2         3         4         5         6         7         8         9
 total charge-density along one line
 
 pseudopotential strength for first ion, spin component:           1
 29.808   0.008  -0.000  -0.022   0.000  -0.000  -0.000  -0.000
  0.008   0.009   0.000  -0.000  -0.000  -0.000   0.000   0.000
 -0.000   0.000   6.553  -0.001  -0.000  -0.003   0.000   0.000
 -0.022  -0.000  -0.001   6.548   0.000   0.000  -0.002  -0.000
  0.000  -0.000  -0.000   0.000   6.554   0.000  -0.000  -0.003
 -0.000  -0.000  -0.003   0.000   0.000   0.015  -0.000  -0.000
 -0.000   0.000   0.000  -0.002  -0.000  -0.000   0.015   0.000
 -0.000   0.000   0.000  -0.000  -0.003  -0.000   0.000   0.015
 total augmentation occupancy for first ion, spin component:           1
  1.809  -0.360   0.002   0.242   0.000   0.003   0.117   0.000
 -0.360   1.258   0.014   0.832   0.000   0.003  -0.433   0.000
  0.002   0.014   1.145   0.009   0.000  -0.501   0.013   0.000
  0.242   0.832   0.009   1.279   0.000   0.013  -0.417   0.000
  0.000   0.000   0.000   0.000   1.149   0.000   0.000  -0.524
  0.003   0.003  -0.501   0.013   0.000   0.289  -0.015   0.000
  0.117  -0.433   0.013  -0.417   0.000  -0.015   0.225   0.000
  0.000   0.000   0.000   0.000  -0.524   0.000   0.000   0.322


------------------------ aborting loop because EDIFF is reached ----------------------------------------


    CHARGE:  cpu time    5.37: real time    5.38
    FORLOC:  cpu time    0.06: real time    0.06
    FORNL :  cpu time   22.26: real time   22.30
    STRESS:  cpu time   71.89: real time   72.01
    FORCOR:  cpu time   15.02: real time   15.03
    FORHAR:  cpu time    0.15: real time    0.15
    MIXING:  cpu time    0.02: real time    0.02
    OFIELD:  cpu time    0.00: real time    0.00

  FORCE on cell =-STRESS in cart. coord.  units (eV):
  Direction    XX          YY          ZZ          XY          YZ          ZX
  --------------------------------------------------------------------------------------
  Alpha Z    36.80885    36.80885    36.80885
  Ewald   14450.03763 13984.44826-16362.07198    -0.00011  -112.79529    -0.00011
  Hartree 14983.61816 14576.00131-14409.85144     0.00001   -19.67347     0.00000
  E(xc)    -360.72022  -361.25497  -359.60712    -0.00000     0.29031     0.00000
  Local  -31038.78318-30097.20643 29224.44953    -0.00010    47.13855     0.00006
  n-local  1182.58001  1187.86085  1168.50923     0.00636     5.23291     0.00246
  augment  -207.13823  -204.29878  -204.72831     0.00016    -4.62425     0.00002
  Kinetic   952.55738   953.49023   996.16768    -0.00292     9.70543    -0.00474
  Fock        0.00000     0.00000     0.00000     0.00000     0.00000     0.00000
  -------------------------------------------------------------------------------------
  Total      -1.03958    75.84931    89.67642     0.00000   -74.72581     0.00000
  in kB      -1.66173   121.24276   143.34495     0.00000  -119.44686     0.00000
  external pressure =       87.64 kB  Pullay stress =        0.00 kB


 VOLUME and BASIS-vectors are now :
 -----------------------------------------------------------------------------
  energy-cutoff  :      300.00
  volume of cell :     1002.32
      direct lattice vectors                 reciprocal lattice vectors
     3.540400000  0.000000000  0.000000000     0.282453960  0.048570342  0.000000000
    -1.770200000 10.294348000  0.000000000     0.000000000  0.097140683  0.000000000
     0.000000000  0.000000000 27.501429000     0.000000000  0.000000000  0.036361747

  length of vectors
     3.540400000 10.445439617 27.501429000     0.286599577  0.097140683  0.036361747


 FORCES acting on ions
    electron-ion (+dipol)            ewald-force                    non-local-force                 convergence-correction
 -----------------------------------------------------------------------------------------------
   -.418E-03 0.537E+01 0.328E+02   -.939E-04 -.529E+01 -.286E+02   0.434E-18 -.383E-01 -.396E+01   -.939E-10 -.145E-05 -.252E-05
   -.422E-03 -.131E+02 -.549E+03   -.918E-04 0.131E+02 0.553E+03   0.347E-17 -.226E+00 -.401E+01   -.874E-10 -.894E-06 0.156E-04
   0.418E-03 0.671E+02 0.492E+02   -.774E-05 -.686E+02 -.450E+02   0.000E+00 0.156E+01 -.417E+01   0.635E-10 0.183E-05 -.417E-05
   0.420E-03 0.264E+02 -.556E+03   -.593E-05 -.280E+02 0.560E+03   0.000E+00 0.111E+01 -.198E+01   0.773E-10 0.122E-06 0.808E-05
   0.428E-03 -.573E+02 0.526E+03   0.869E-04 0.589E+02 -.530E+03   0.000E+00 -.153E+01 0.428E+01   0.957E-10 -.245E-05 -.223E-05
   0.512E-03 -.846E+02 -.883E+02   0.661E-05 0.870E+02 0.860E+02   0.000E+00 -.322E+01 0.361E+01   0.100E-09 -.920E-06 0.290E-05
   -.877E-05 0.542E+02 0.526E+03   0.155E-04 -.562E+02 -.531E+03   -.278E-16 0.193E+01 0.418E+01   0.119E-10 0.203E-05 0.162E-06
   -.315E-05 0.129E+03 -.463E+02   -.259E-05 -.131E+03 0.442E+02   -.139E-16 0.100E+01 0.111E+01   -.404E-10 0.326E-05 0.425E-05
   -.381E-04 0.152E+01 0.572E+03   -.859E-04 -.172E+01 -.577E+03   0.347E-17 0.205E+00 0.478E+01   -.450E-10 0.662E-06 -.114E-04
   -.173E-04 -.404E+02 0.502E+01   -.749E-04 0.405E+02 -.725E+01   0.000E+00 -.389E+00 0.115E+01   0.452E-11 -.307E-05 0.447E-05
   -.414E-03 -.665E+02 0.562E+02   0.898E-05 0.684E+02 -.521E+02   0.000E+00 -.193E+01 -.402E+01   -.472E-10 -.737E-06 -.504E-05
   -.394E-03 -.769E+01 -.523E+03   0.193E-04 0.909E+01 0.527E+03   0.000E+00 -.110E+01 -.385E+01   -.364E-10 0.251E-05 0.113E-04
   0.549E-04 0.322E+02 0.209E+03   -.258E-04 -.343E+02 -.209E+03   0.000E+00 0.213E+01 0.341E+00   -.188E-10 0.153E-05 -.906E-06
   0.638E-04 -.271E+02 -.311E+03   -.429E-04 0.289E+02 0.311E+03   0.000E+00 0.841E+00 0.353E+01   -.196E-10 -.256E-05 0.497E-05
   -.586E-04 -.143E+02 0.139E+03   0.180E-04 0.146E+02 -.141E+03   0.347E-17 -.269E+00 0.255E+01   0.829E-12 -.146E-05 -.274E-05
   -.553E-04 0.173E+02 -.289E+03   -.124E-04 -.178E+02 0.285E+03   0.000E+00 0.474E+00 0.301E+01   -.562E-11 0.266E-05 0.915E-05
   0.714E-04 -.568E+01 0.346E+03   0.720E-04 0.614E+01 -.343E+03   0.000E+00 -.469E+00 -.247E+01   0.330E-10 -.905E-06 -.491E-05
   0.602E-04 -.599E+02 -.127E+03   0.855E-04 0.623E+02 0.127E+03   0.000E+00 -.833E+00 -.362E+00   0.757E-10 -.525E-05 0.413E-05
   -.315E-04 0.983E+01 0.336E+03   -.522E-05 -.101E+02 -.333E+03   0.347E-17 0.246E+00 -.246E+01   -.653E-11 0.159E-05 -.184E-05
   -.724E-05 -.964E+01 -.759E+02   0.160E-04 0.829E+02 0.372E+01   0.444E-15 0.285E+02 -.425E+02   -.138E-11 -.643E-07 0.443E-05
   -.484E-05 0.114E+02 0.129E+03   0.102E-03 -.118E+02 -.132E+03   0.347E-17 0.343E+00 0.255E+01   0.388E-10 -.187E-06 -.161E-05
   0.875E-05 -.257E+02 -.318E+03   0.111E-03 0.265E+02 0.318E+03   0.000E+00 -.798E-01 -.600E+00   0.940E-10 -.475E-05 0.902E-05
   -.308E-04 -.313E+02 0.253E+03   -.894E-04 0.334E+02 -.253E+03   -.278E-16 -.214E+01 -.360E+00   -.461E-10 -.834E-06 -.229E-05
   0.978E-06 0.983E+02 -.290E+03   -.349E-05 -.167E+03 0.367E+03   0.000E+00 -.351E+02 0.359E+02   -.309E-10 0.366E-05 0.198E-05
 -----------------------------------------------------------------------------------------------
   0.133E-03 0.899E+01 0.371E+01   -.138E-13 0.568E-13 -.114E-12   0.392E-15 -.899E+01 -.371E+01   0.116E-09 -.568E-05 0.408E-04
 
 
 POSITION                                       TOTAL-FORCE (eV/Angst)
 -----------------------------------------------------------------------------------
      0.00000      2.34757      6.41229         0.000000      0.041381      0.197228
      1.77020      6.46531     14.16300         0.000000     -0.232760      0.179683
     -0.00000      9.43147      5.75866         0.000000     -0.011593      0.086656
     -0.00000      3.25486     13.50937         0.000000     -0.501071      1.111772
     -0.00000      6.40009      2.31424         0.000000     -0.007395      0.011370
     -0.00000      6.40009     10.06495         0.000000     -0.910588      1.287734
      1.77020     10.27849      2.37372         0.000000     -0.007852     -0.009465
      1.77020     10.27849     10.12443         0.000000     -1.144110     -0.931835
      1.77020      3.18974      1.66157         0.000000     -0.001394      0.020364
      1.77020      3.18974      9.41228         0.000000     -0.257541     -1.083344
      1.77020      5.55354      5.69975         0.000000      0.001340      0.107728
      0.00000      9.67128     13.45047         0.000000      0.302569      0.137595
      1.77020      9.05319      4.34076         0.000000      0.003450      0.003097
      1.77020      2.87658     12.09147         0.000000      2.627457      2.745174
      0.00000      4.22380      5.10944         0.000000      0.026534      0.053095
      1.77020      8.34154     12.86016         0.000000      0.000016     -0.855924
     -0.00000      4.15582      2.74166         0.000000     -0.009060     -0.029655
     -0.00000      4.15582     10.49237         0.000000      1.562381     -1.014425
      1.77020      1.31366      2.96438         0.000000     -0.009817     -0.035832
      1.77020      1.31366     10.71510         0.000000    101.731774   -114.583820
      1.77020      1.38163      5.33187         0.000000     -0.052082      0.018604
      0.00000      5.49936     13.08259         0.000000      0.658198     -0.551485
      1.77020      6.77850      3.73234         0.000000      0.017418     -0.007980
      1.77020      0.60189     11.48306        -0.000000   -103.827256    113.143664
 -----------------------------------------------------------------------------------
    total drift:                                0.000133      0.000712      0.004289


--------------------------------------------------------------------------------------------------------



  FREE ENERGIE OF THE ION-ELECTRON SYSTEM (eV)
  ---------------------------------------------------
  free  energy   TOTEN  =       -70.27182004 eV

  energy  without entropy=      -70.21252927  energy(sigma->0) =      -70.24217465
 


--------------------------------------------------------------------------------------------------------


    POTLOK:  cpu time   14.99: real time   15.00


--------------------------------------------------------------------------------------------------------


     LOOP+:  cpu time 3172.33: real time 3175.28
    4ORBIT:  cpu time    0.00: real time    0.00

 total amount of memory used by VASP on root node   146493. kBytes
========================================================================

   base      :      30000. kBytes
   nonlr-proj:       3452. kBytes
   fftplans  :       9347. kBytes
   grid      :      14649. kBytes
   one-center:         36. kBytes
   wavefun   :      89009. kBytes
 
  
  
 General timing and accounting informations for this job:
 ========================================================
  
                  Total CPU time used (sec):     3190.173
                            User time (sec):     3149.277
                          System time (sec):       40.896
                         Elapsed time (sec):     3194.217
  
                   Maximum memory used (kb):      335724.
                   Average memory used (kb):           0.
  
                          Minor page faults:      8483833
                          Major page faults:           19
                 Voluntary context switches:         2003
