<?xml version="1.0" encoding="ISO-8859-1"?>
<modeling>
 <generator>
  <i name="program" type="string">vasp </i>
  <i name="version" type="string">5.3.5  </i>
  <i name="subversion" type="string">31Mar14 (build Oct 29 2014 16:16:03) complex                          parallel </i>
  <i name="platform" type="string">Linux-UFHPC </i>
  <i name="date" type="string">2016 02 09 </i>
  <i name="time" type="string">17:25:17 </i>
 </generator>
 <incar>
  <i type="string" name="PREC">accurate</i>
  <i type="int" name="IBRION">     2</i>
  <i name="EDIFF">      0.00000100</i>
  <i type="int" name="NSW">     0</i>
  <i type="int" name="ISIF">     3</i>
  <i name="ENCUT">    300.00000000</i>
  <i type="string" name="LREAL"> Auto</i>
  <i type="int" name="ISMEAR">     0</i>
  <i name="SIGMA">      0.10000000</i>
  <i type="logical" name="LWAVE"> F  </i>
  <i type="logical" name="LCHARG"> F  </i>
  <i type="logical" name="LAECHG"> F  </i>
  <i type="string" name="GGA"> Bo</i>
  <i name="PARAM1">      0.18333333</i>
  <i name="PARAM2">      0.22000000</i>
  <i type="logical" name="LUSE_VDW"> T  </i>
  <i name="AGGAC">      0.00000000</i>
 </incar>
 <kpoints>
  <generation param="Gamma">
   <v type="int" name="divisions">      13        4        2 </v>
   <v name="usershift">      0.00000000       0.00000000       0.00000000 </v>
   <v name="genvec1">      0.07692308      -0.00000000       0.00000000 </v>
   <v name="genvec2">      0.00000000       0.25000000       0.00000000 </v>
   <v name="genvec3">      0.00000000       0.00000000       0.50000000 </v>
   <v name="shift">      0.00000000       0.00000000       0.00000000 </v>
  </generation>
  <varray name="kpointlist" >
   <v>       0.00000000       0.00000000       0.00000000 </v>
   <v>       0.07692308      -0.00000000       0.00000000 </v>
   <v>       0.15384615      -0.00000000       0.00000000 </v>
   <v>       0.23076923      -0.00000000       0.00000000 </v>
   <v>       0.30769231      -0.00000000       0.00000000 </v>
   <v>       0.38461538      -0.00000000       0.00000000 </v>
   <v>       0.46153846      -0.00000000       0.00000000 </v>
   <v>       0.00000000       0.25000000       0.00000000 </v>
   <v>       0.07692308       0.25000000       0.00000000 </v>
   <v>       0.15384615       0.25000000       0.00000000 </v>
   <v>       0.23076923       0.25000000       0.00000000 </v>
   <v>       0.30769231       0.25000000       0.00000000 </v>
   <v>       0.38461538       0.25000000       0.00000000 </v>
   <v>       0.46153846       0.25000000       0.00000000 </v>
   <v>      -0.46153846       0.25000000       0.00000000 </v>
   <v>      -0.38461538       0.25000000       0.00000000 </v>
   <v>      -0.30769231       0.25000000       0.00000000 </v>
   <v>      -0.23076923       0.25000000       0.00000000 </v>
   <v>      -0.15384615       0.25000000       0.00000000 </v>
   <v>      -0.07692308       0.25000000       0.00000000 </v>
   <v>       0.00000000       0.50000000       0.00000000 </v>
   <v>       0.07692308       0.50000000       0.00000000 </v>
   <v>       0.15384615       0.50000000       0.00000000 </v>
   <v>       0.23076923       0.50000000       0.00000000 </v>
   <v>       0.30769231       0.50000000       0.00000000 </v>
   <v>       0.38461538       0.50000000       0.00000000 </v>
   <v>       0.46153846       0.50000000       0.00000000 </v>
   <v>       0.00000000       0.00000000       0.50000000 </v>
   <v>       0.07692308      -0.00000000       0.50000000 </v>
   <v>       0.15384615      -0.00000000       0.50000000 </v>
   <v>       0.23076923      -0.00000000       0.50000000 </v>
   <v>       0.30769231      -0.00000000       0.50000000 </v>
   <v>       0.38461538      -0.00000000       0.50000000 </v>
   <v>       0.46153846      -0.00000000       0.50000000 </v>
   <v>       0.00000000       0.25000000       0.50000000 </v>
   <v>       0.07692308       0.25000000       0.50000000 </v>
   <v>       0.15384615       0.25000000       0.50000000 </v>
   <v>       0.23076923       0.25000000       0.50000000 </v>
   <v>       0.30769231       0.25000000       0.50000000 </v>
   <v>       0.38461538       0.25000000       0.50000000 </v>
   <v>       0.46153846       0.25000000       0.50000000 </v>
   <v>      -0.46153846       0.25000000       0.50000000 </v>
   <v>      -0.38461538       0.25000000       0.50000000 </v>
   <v>      -0.30769231       0.25000000       0.50000000 </v>
   <v>      -0.23076923       0.25000000       0.50000000 </v>
   <v>      -0.15384615       0.25000000       0.50000000 </v>
   <v>      -0.07692308       0.25000000       0.50000000 </v>
   <v>       0.00000000       0.50000000       0.50000000 </v>
   <v>       0.07692308       0.50000000       0.50000000 </v>
   <v>       0.15384615       0.50000000       0.50000000 </v>
   <v>       0.23076923       0.50000000       0.50000000 </v>
   <v>       0.30769231       0.50000000       0.50000000 </v>
   <v>       0.38461538       0.50000000       0.50000000 </v>
   <v>       0.46153846       0.50000000       0.50000000 </v>
  </varray>
  <varray name="weights" >
   <v>       0.00961538 </v>
   <v>       0.01923077 </v>
   <v>       0.01923077 </v>
   <v>       0.01923077 </v>
   <v>       0.01923077 </v>
   <v>       0.01923077 </v>
   <v>       0.01923077 </v>
   <v>       0.01923077 </v>
   <v>       0.01923077 </v>
   <v>       0.01923077 </v>
   <v>       0.01923077 </v>
   <v>       0.01923077 </v>
   <v>       0.01923077 </v>
   <v>       0.01923077 </v>
   <v>       0.01923077 </v>
   <v>       0.01923077 </v>
   <v>       0.01923077 </v>
   <v>       0.01923077 </v>
   <v>       0.01923077 </v>
   <v>       0.01923077 </v>
   <v>       0.00961538 </v>
   <v>       0.01923077 </v>
   <v>       0.01923077 </v>
   <v>       0.01923077 </v>
   <v>       0.01923077 </v>
   <v>       0.01923077 </v>
   <v>       0.01923077 </v>
   <v>       0.00961538 </v>
   <v>       0.01923077 </v>
   <v>       0.01923077 </v>
   <v>       0.01923077 </v>
   <v>       0.01923077 </v>
   <v>       0.01923077 </v>
   <v>       0.01923077 </v>
   <v>       0.01923077 </v>
   <v>       0.01923077 </v>
   <v>       0.01923077 </v>
   <v>       0.01923077 </v>
   <v>       0.01923077 </v>
   <v>       0.01923077 </v>
   <v>       0.01923077 </v>
   <v>       0.01923077 </v>
   <v>       0.01923077 </v>
   <v>       0.01923077 </v>
   <v>       0.01923077 </v>
   <v>       0.01923077 </v>
   <v>       0.01923077 </v>
   <v>       0.00961538 </v>
   <v>       0.01923077 </v>
   <v>       0.01923077 </v>
   <v>       0.01923077 </v>
   <v>       0.01923077 </v>
   <v>       0.01923077 </v>
   <v>       0.01923077 </v>
  </varray>
 </kpoints>
 <parameters>
  <separator name="general" >
   <i type="string" name="SYSTEM">unknown system</i>
   <i type="logical" name="LCOMPAT"> F  </i>
  </separator>
  <separator name="electronic" >
   <i type="string" name="PREC">accura</i>
   <i name="ENMAX">    300.00000000</i>
   <i name="ENAUG">    342.92400000</i>
   <i name="EDIFF">      0.00000100</i>
   <i type="int" name="IALGO">    38</i>
   <i type="int" name="IWAVPR">    10</i>
   <i type="int" name="NBANDS">    68</i>
   <i name="NELECT">    108.00000000</i>
   <i type="int" name="TURBO">     0</i>
   <i type="int" name="IRESTART">     0</i>
   <i type="int" name="NREBOOT">     0</i>
   <i type="int" name="NMIN">     0</i>
   <i name="EREF">      0.00000000</i>
   <separator name="electronic smearing" >
    <i type="int" name="ISMEAR">     0</i>
    <i name="SIGMA">      0.10000000</i>
    <i name="KSPACING">      0.50000000</i>
    <i type="logical" name="KGAMMA"> T  </i>
   </separator>
   <separator name="electronic projectors" >
    <i type="logical" name="LREAL"> T  </i>
    <v name="ROPT">     -0.00025000     -0.00025000</v>
    <i type="int" name="LMAXPAW">  -100</i>
    <i type="int" name="LMAXMIX">     2</i>
    <i type="logical" name="NLSPLINE"> F  </i>
   </separator>
   <separator name="electronic startup" >
    <i type="int" name="ISTART">     0</i>
    <i type="int" name="ICHARG">     2</i>
    <i type="int" name="INIWAV">     1</i>
   </separator>
   <separator name="electronic spin" >
    <i type="int" name="ISPIN">     1</i>
    <i type="logical" name="LNONCOLLINEAR"> F  </i>
    <v name="MAGMOM">      1.00000000      1.00000000      1.00000000      1.00000000      1.00000000      1.00000000      1.00000000      1.00000000      1.00000000      1.00000000      1.00000000      1.00000000      1.00000000      1.00000000      1.00000000      1.00000000      1.00000000      1.00000000      1.00000000      1.00000000
      1.00000000      1.00000000      1.00000000      1.00000000</v>
    <i name="NUPDOWN">     -1.00000000</i>
    <i type="logical" name="LSORBIT"> F  </i>
    <v name="SAXIS">      0.00000000      0.00000000      1.00000000</v>
    <i type="logical" name="LSPIRAL"> F  </i>
    <v name="QSPIRAL">      0.00000000      0.00000000      0.00000000</v>
    <i type="logical" name="LZEROZ"> F  </i>
   </separator>
   <separator name="electronic exchange-correlation" >
    <i type="logical" name="LASPH"> F  </i>
    <i type="logical" name="LMETAGGA"> F  </i>
   </separator>
   <separator name="electronic convergence" >
    <i type="int" name="NELM">    60</i>
    <i type="int" name="NELMDL">    -5</i>
    <i type="int" name="NELMIN">     2</i>
    <i name="ENINI">    300.00000000</i>
    <separator name="electronic convergence detail" >
     <i type="logical" name="LDIAG"> T  </i>
     <i type="logical" name="LSUBROT"> F  </i>
     <i name="WEIMIN">      0.00000000</i>
     <i name="EBREAK">      0.00000000</i>
     <i name="DEPER">      0.30000000</i>
     <i type="int" name="NRMM">     4</i>
     <i name="TIME">      0.40000000</i>
    </separator>
   </separator>
   <separator name="electronic mixer" >
    <i name="AMIX">      0.40000000</i>
    <i name="BMIX">      1.00000000</i>
    <i name="AMIN">      0.10000000</i>
    <i name="AMIX_MAG">      1.60000000</i>
    <i name="BMIX_MAG">      1.00000000</i>
    <separator name="electronic mixer details" >
     <i type="int" name="IMIX">     4</i>
     <i type="int" name="MAXMIX">   -45</i>
     <i name="WC">    100.00000000</i>
     <i type="int" name="INIMIX">     1</i>
     <i type="int" name="MIXPRE">     1</i>
     <i type="int" name="MREMOVE">     5</i>
    </separator>
   </separator>
   <separator name="electronic dipolcorrection" >
    <i type="logical" name="LDIPOL"> F  </i>
    <i type="logical" name="LMONO"> F  </i>
    <i type="int" name="IDIPOL">     0</i>
    <i name="EPSILON">      1.00000000</i>
    <v name="DIPOL">   -100.00000000   -100.00000000   -100.00000000</v>
    <i name="EFIELD">      0.00000000</i>
   </separator>
  </separator>
  <separator name="grids" >
   <i type="int" name="NGX">    20</i>
   <i type="int" name="NGY">    60</i>
   <i type="int" name="NGZ">   160</i>
   <i type="int" name="NGXF">    40</i>
   <i type="int" name="NGYF">   120</i>
   <i type="int" name="NGZF">   320</i>
   <i type="logical" name="ADDGRID"> F  </i>
  </separator>
  <separator name="ionic" >
   <i type="int" name="NSW">     0</i>
   <i type="int" name="IBRION">    -1</i>
   <i type="int" name="ISIF">     3</i>
   <i name="PSTRESS">      0.00000000</i>
   <i name="EDIFFG">      0.00001000</i>
   <i type="int" name="NFREE">     1</i>
   <i name="POTIM">      0.50000000</i>
   <i name="SMASS">     -3.00000000</i>
   <i name="SCALEE">      1.00000000</i>
  </separator>
  <separator name="ionic md" >
   <i name="TEBEG">      0.00010000</i>
   <i name="TEEND">      0.00010000</i>
   <i type="int" name="NBLOCK">     1</i>
   <i type="int" name="KBLOCK">     1</i>
   <i type="int" name="NPACO">   256</i>
   <i name="APACO">     16.00000000</i>
  </separator>
  <separator name="symmetry" >
   <i type="int" name="ISYM">     2</i>
   <i name="SYMPREC">      0.00001000</i>
  </separator>
  <separator name="dos" >
   <i type="logical" name="LORBIT"> F  </i>
   <v name="RWIGS">     -1.00000000     -1.00000000</v>
   <i type="int" name="NEDOS">   301</i>
   <i name="EMIN">     10.00000000</i>
   <i name="EMAX">    -10.00000000</i>
   <i name="EFERMI">      0.00000000</i>
  </separator>
  <separator name="writing" >
   <i type="int" name="NWRITE">     2</i>
   <i type="logical" name="LWAVE"> F  </i>
   <i type="logical" name="LCHARG"> F  </i>
   <i type="logical" name="LPARD"> F  </i>
   <i type="logical" name="LVTOT"> F  </i>
   <i type="logical" name="LVHAR"> F  </i>
   <i type="logical" name="LELF"> F  </i>
   <i type="logical" name="LOPTICS"> F  </i>
   <v name="STM">      0.00000000      0.00000000      0.00000000      0.00000000      0.00000000      0.00000000      0.00000000</v>
  </separator>
  <separator name="performance" >
   <i type="int" name="NPAR">     4</i>
   <i type="int" name="NSIM">     4</i>
   <i type="int" name="NBLK">    -1</i>
   <i type="logical" name="LPLANE"> T  </i>
   <i type="logical" name="LSCALAPACK"> T  </i>
   <i type="logical" name="LSCAAWARE"> F  </i>
   <i type="logical" name="LSCALU"> F  </i>
   <i type="logical" name="LASYNC"> F  </i>
   <i type="logical" name="LORBITALREAL"> F  </i>
  </separator>
  <separator name="miscellaneous" >
   <i type="int" name="IDIOT">     3</i>
   <i type="logical" name="LMUSIC"> F  </i>
   <v name="POMASS">     30.97400000     28.08500000</v>
   <v name="DARWINR">      0.00000000      0.00000000</v>
   <v name="DARWINV">      1.00000000      1.00000000</v>
   <i type="logical" name="LCORR"> T  </i>
  </separator>
  <i type="logical" name="GGA_COMPAT"> T  </i>
  <i type="logical" name="LBERRY"> F  </i>
  <i type="int" name="ICORELEVEL">     0</i>
  <i type="logical" name="LDAU"> F  </i>
  <i type="int" name="I_CONSTRAINED_M">     0</i>
  <separator name="electronic exchange-correlation" >
   <i type="string" name="GGA">BO</i>
   <i type="int" name="VOSKOWN">     0</i>
   <i type="logical" name="LHFCALC"> F  </i>
   <i type="string" name="PRECFOCK"></i>
   <i type="logical" name="LSYMGRAD"> F  </i>
   <i type="logical" name="LHFONE"> F  </i>
   <i type="logical" name="LRHFCALC"> F  </i>
   <i type="logical" name="LTHOMAS"> F  </i>
   <i type="logical" name="LMODELHF"> F  </i>
   <i name="ENCUT4O">     -1.00000000</i>
   <i type="int" name="EXXOEP">     0</i>
   <i type="int" name="FOURORBIT">     0</i>
   <i name="AEXX">      0.00000000</i>
   <i name="HFALPHA">      0.00000000</i>
   <i name="MCALPHA">      0.00000000</i>
   <i name="ALDAX">      1.00000000</i>
   <i name="AGGAX">      1.00000000</i>
   <i name="ALDAC">      1.00000000</i>
   <i name="AGGAC">      0.00000000</i>
   <i type="int" name="NKREDX">     1</i>
   <i type="int" name="NKREDY">     1</i>
   <i type="int" name="NKREDZ">     1</i>
   <i type="logical" name="SHIFTRED"> F  </i>
   <i type="logical" name="ODDONLY"> F  </i>
   <i type="logical" name="EVENONLY"> F  </i>
   <i type="int" name="LMAXFOCK">     0</i>
   <i type="int" name="NMAXFOCKAE">     0</i>
   <i type="logical" name="LFOCKAEDFT"> F  </i>
   <i name="HFSCREEN">      0.00000000</i>
   <i name="HFSCREENC">      0.00000000</i>
   <i type="int" name="NBANDSGWLOW">     0</i>
  </separator>
  <separator name="vdW DFT" >
   <i type="logical" name="LUSE_VDW"> T  </i>
   <i name="Zab_VDW">     -0.84910000</i>
   <i name="PARAM1">      0.18333333</i>
   <i name="PARAM2">      0.22000000</i>
   <i name="PARAM3">      0.00000000</i>
  </separator>
  <separator name="model GW" >
   <i type="int" name="MODEL_GW">     0</i>
   <i name="MODEL_EPS0">     25.05800243</i>
   <i name="MODEL_ALPHA">      1.00000000</i>
  </separator>
  <separator name="linear response parameters" >
   <i type="logical" name="LEPSILON"> F  </i>
   <i type="logical" name="LRPA"> F  </i>
   <i type="logical" name="LNABLA"> F  </i>
   <i type="logical" name="LVEL"> F  </i>
   <i type="int" name="KINTER">     0</i>
   <i name="CSHIFT">      0.10000000</i>
   <i name="OMEGAMAX">     -1.00000000</i>
   <i name="DEG_THRESHOLD">      0.00200000</i>
  </separator>
  <separator name="orbital magnetization" >
   <i type="logical" name="NUCIND"> F  </i>
   <v name="MAGPOS">      0.00000000      0.00000000      0.00000000</v>
   <i type="logical" name="LNICSALL"> T  </i>
   <i type="logical" name="ORBITALMAG"> F  </i>
   <i type="logical" name="LMAGBLOCH"> F  </i>
   <i type="logical" name="LCHIMAG"> F  </i>
   <i type="logical" name="LGAUGE"> T  </i>
   <i type="int" name="MAGATOM">     0</i>
   <v name="MAGDIPOL">      0.00000000      0.00000000      0.00000000</v>
   <v name="AVECCONST">      0.00000000      0.00000000      0.00000000</v>
  </separator>
  <separator name="response functions" >
   <i type="logical" name="LADDER"> F  </i>
   <i type="logical" name="LFXC"> F  </i>
   <i type="logical" name="LHARTREE"> T  </i>
   <i type="int" name="IBSE">     0</i>
   <i type="logical" name="LTCTE"> F  </i>
   <i type="logical" name="LTETE"> F  </i>
   <i type="logical" name="LTRIPLET"> F  </i>
   <i type="logical" name="LFXCEPS"> F  </i>
   <i type="logical" name="LFXHEG"> F  </i>
   <i type="logical" name="L2ORDER"> F  </i>
   <i type="logical" name="LUSEW"> F  </i>
   <i name="ENCUTGW">     -2.00000000</i>
   <i name="ENCUTGWSOFT">     -2.00000000</i>
   <i name="ENCUTLF">     -1.00000000</i>
   <i type="int" name="LMAXMP2">    -1</i>
   <i name="SCISSOR">      0.00000000</i>
   <i type="int" name="NOMEGA">     0</i>
   <i type="int" name="NOMEGAR">     0</i>
   <i type="int" name="NBANDSGW">    -1</i>
   <i type="int" name="NBANDSO">    -1</i>
   <i type="int" name="NBANDSV">    -1</i>
   <i type="int" name="NELM">     1</i>
   <i type="int" name="DIM">     3</i>
   <i type="int" name="ANTIRES">     0</i>
   <i name="OMEGAMAX">    -30.00000000</i>
   <i name="OMEGAMIN">    -30.00000000</i>
   <i name="OMEGATL">   -200.00000000</i>
   <i type="int" name="OMEGAGRID">     0</i>
   <i name="CSHIFT">     -0.10000000</i>
   <i type="logical" name="SELFENERGY"> F  </i>
   <i type="logical" name="LSPECTRAL"> F  </i>
   <i type="logical" name="ODDONLYGW"> F  </i>
   <i type="logical" name="EVENONLYGW"> F  </i>
   <i type="int" name="NKREDLFX">     1</i>
   <i type="int" name="NKREDLFY">     1</i>
   <i type="int" name="NKREDLFZ">     1</i>
   <i type="int" name="MAXMEM">  1800</i>
   <i type="int" name="TELESCOPE">     0</i>
   <i type="int" name="TAUPAR">     1</i>
  </separator>
  <separator name="External order field" >
   <i name="OFIELD_KAPPA">      0.00000000</i>
   <v name="OFIELD_K">      0.00000000      0.00000000      0.00000000</v>
   <i name="OFIELD_Q6_NEAR">      0.00000000</i>
   <i name="OFIELD_Q6_FAR">      0.00000000</i>
   <i name="OFIELD_A">      0.00000000</i>
  </separator>
 </parameters>
 <atominfo>
  <atoms>      24 </atoms>
  <types>       2 </types>
  <array name="atoms" >
   <dimension dim="1">ion</dimension>
   <field type="string">element</field>
   <field type="int">atomtype</field>
   <set>
    <rc><c>P </c><c>   1</c></rc>
    <rc><c>P </c><c>   1</c></rc>
    <rc><c>P </c><c>   1</c></rc>
    <rc><c>P </c><c>   1</c></rc>
    <rc><c>P </c><c>   1</c></rc>
    <rc><c>P </c><c>   1</c></rc>
    <rc><c>P </c><c>   1</c></rc>
    <rc><c>P </c><c>   1</c></rc>
    <rc><c>P </c><c>   1</c></rc>
    <rc><c>P </c><c>   1</c></rc>
    <rc><c>P </c><c>   1</c></rc>
    <rc><c>P </c><c>   1</c></rc>
    <rc><c>Si</c><c>   2</c></rc>
    <rc><c>Si</c><c>   2</c></rc>
    <rc><c>Si</c><c>   2</c></rc>
    <rc><c>Si</c><c>   2</c></rc>
    <rc><c>Si</c><c>   2</c></rc>
    <rc><c>Si</c><c>   2</c></rc>
    <rc><c>Si</c><c>   2</c></rc>
    <rc><c>Si</c><c>   2</c></rc>
    <rc><c>Si</c><c>   2</c></rc>
    <rc><c>Si</c><c>   2</c></rc>
    <rc><c>Si</c><c>   2</c></rc>
    <rc><c>Si</c><c>   2</c></rc>
   </set>
  </array>
  <array name="atomtypes" >
   <dimension dim="1">type</dimension>
   <field type="int">atomspertype</field>
   <field type="string">element</field>
   <field>mass</field>
   <field>valence</field>
   <field type="string">pseudopotential</field>
   <set>
    <rc><c>  12</c><c>P </c><c>     30.97400000</c><c>      5.00000000</c><c>  PAW_PBE P 17Jan2003                   </c></rc>
    <rc><c>  12</c><c>Si</c><c>     28.08500000</c><c>      4.00000000</c><c> PAW_PBE Si 05Jan2001                   </c></rc>
   </set>
  </array>
 </atominfo>
 <structure name="initialpos" >
  <crystal>
   <varray name="basis" >
    <v>       3.54040000       0.00000000       0.00000000 </v>
    <v>      -1.77020000      10.29434800       0.00000000 </v>
    <v>       0.00000000       0.00000000      27.50142900 </v>
   </varray>
   <i name="volume">   1002.32009712 </i>
   <varray name="rec_basis" >
    <v>       0.28245396       0.04857034       0.00000000 </v>
    <v>       0.00000000       0.09714068       0.00000000 </v>
    <v>       0.00000000       0.00000000       0.03636175 </v>
   </varray>
  </crystal>
  <varray name="positions" >
   <v>       0.11402300       0.22804500       0.23316207 </v>
   <v>       0.11402300       0.12804500       0.51499159 </v>
   <v>       0.45808900       0.91617900       0.20939482 </v>
   <v>       0.45808900       0.81617900       0.49122434 </v>
   <v>       0.31085400       0.62170900       0.08414979 </v>
   <v>       0.31085400       0.62170900       0.36597930 </v>
   <v>       0.99923000       0.99846000       0.08631254 </v>
   <v>       0.99923000       0.99846000       0.36814206 </v>
   <v>       0.65492700       0.30985400       0.06041748 </v>
   <v>       0.65492700       0.30985400       0.34224700 </v>
   <v>       0.76973800       0.53947500       0.20725292 </v>
   <v>       0.76973800       0.43947500       0.48908244 </v>
   <v>       0.93971600       0.87943300       0.15783749 </v>
   <v>       0.93971600       0.77943300       0.43966701 </v>
   <v>       0.20515200       0.41030300       0.18578822 </v>
   <v>       0.20515200       0.31030300       0.46761774 </v>
   <v>       0.20184900       0.40369900       0.09969156 </v>
   <v>       0.20184900       0.40369900       0.38152107 </v>
   <v>       0.56380500       0.12761000       0.10779021 </v>
   <v>       0.56380500       0.12761000       0.38961973 </v>
   <v>       0.56710600       0.13421200       0.19387616 </v>
   <v>       0.56710600       0.03421200       0.47570568 </v>
   <v>       0.82923400       0.65846800       0.13571444 </v>
   <v>       0.82923400       0.55846800       0.41754396 </v>
  </varray>
 </structure>
 <calculation>
  <scstep>
   <time name="dav">   67.07   67.09</time>
   <time name="total">   83.23   83.27</time>
   <energy>
    <i name="alphaZ">     36.80884744 </i>
    <i name="ewald">  11898.72099762 </i>
    <i name="hartreedc"> -14958.88439350 </i>
    <i name="XCdc">    -88.32040568 </i>
    <i name="pawpsdc">   1056.43050070 </i>
    <i name="pawaedc">   -732.41190547 </i>
    <i name="eentropy">     -0.04130916 </i>
    <i name="bandstr">    -83.08370081 </i>
    <i name="atom">   3354.04126044 </i>
    <i name="e_fr_energy">    483.25989159 </i>
    <i name="e_wo_entrp">    483.30120075 </i>
    <i name="e_0_energy">    483.28054617 </i>
   </energy>
  </scstep>
  <scstep>
   <time name="dav">   92.60   92.62</time>
   <time name="total">   92.61   92.63</time>
   <energy>
    <i name="e_fr_energy">    -71.97997483 </i>
    <i name="e_wo_entrp">    -71.96568429 </i>
    <i name="e_0_energy">    -71.97282956 </i>
   </energy>
  </scstep>
  <scstep>
   <time name="dav">   84.36   84.38</time>
   <time name="total">   84.37   84.39</time>
   <energy>
    <i name="e_fr_energy">   -127.12398042 </i>
    <i name="e_wo_entrp">   -127.11981960 </i>
    <i name="e_0_energy">   -127.12190001 </i>
   </energy>
  </scstep>
  <scstep>
   <time name="dav">   98.85   98.87</time>
   <time name="total">   98.86   98.88</time>
   <energy>
    <i name="e_fr_energy">   -129.54825606 </i>
    <i name="e_wo_entrp">   -129.54402462 </i>
    <i name="e_0_energy">   -129.54614034 </i>
   </energy>
  </scstep>
  <scstep>
   <time name="dav">   92.46   92.48</time>
   <time name="total">   97.19   97.21</time>
   <energy>
    <i name="e_fr_energy">   -129.60773036 </i>
    <i name="e_wo_entrp">   -129.60352791 </i>
    <i name="e_0_energy">   -129.60562913 </i>
   </energy>
  </scstep>
  <scstep>
   <time name="dav">   84.36   84.38</time>
   <time name="total">  103.86  103.88</time>
   <energy>
    <i name="e_fr_energy">   -127.97444220 </i>
    <i name="e_wo_entrp">   -127.95539701 </i>
    <i name="e_0_energy">   -127.96491961 </i>
   </energy>
  </scstep>
  <scstep>
   <time name="dav">   83.99   84.01</time>
   <time name="total">  103.64  103.66</time>
   <energy>
    <i name="e_fr_energy">   -127.71639221 </i>
    <i name="e_wo_entrp">   -127.70225243 </i>
    <i name="e_0_energy">   -127.70932232 </i>
   </energy>
  </scstep>
  <scstep>
   <time name="dav">   86.52   86.54</time>
   <time name="total">  106.14  106.16</time>
   <energy>
    <i name="e_fr_energy">   -127.71127512 </i>
    <i name="e_wo_entrp">   -127.69163418 </i>
    <i name="e_0_energy">   -127.70145465 </i>
   </energy>
  </scstep>
  <scstep>
   <time name="dav">   84.22   84.23</time>
   <time name="total">  103.86  103.89</time>
   <energy>
    <i name="e_fr_energy">   -127.68020962 </i>
    <i name="e_wo_entrp">   -127.66192925 </i>
    <i name="e_0_energy">   -127.67106944 </i>
   </energy>
  </scstep>
  <scstep>
   <time name="dav">   86.18   86.20</time>
   <time name="total">  105.73  105.76</time>
   <energy>
    <i name="e_fr_energy">   -127.66726948 </i>
    <i name="e_wo_entrp">   -127.64934364 </i>
    <i name="e_0_energy">   -127.65830656 </i>
   </energy>
  </scstep>
  <scstep>
   <time name="dav">   85.47   85.48</time>
   <time name="total">  105.14  105.17</time>
   <energy>
    <i name="e_fr_energy">   -127.66126910 </i>
    <i name="e_wo_entrp">   -127.64304313 </i>
    <i name="e_0_energy">   -127.65215611 </i>
   </energy>
  </scstep>
  <scstep>
   <time name="dav">   85.90   85.91</time>
   <time name="total">  105.50  105.52</time>
   <energy>
    <i name="e_fr_energy">   -127.65767278 </i>
    <i name="e_wo_entrp">   -127.63953331 </i>
    <i name="e_0_energy">   -127.64860304 </i>
   </energy>
  </scstep>
  <scstep>
   <time name="dav">   91.19   91.21</time>
   <time name="total">  110.87  110.89</time>
   <energy>
    <i name="e_fr_energy">   -127.65568580 </i>
    <i name="e_wo_entrp">   -127.63756035 </i>
    <i name="e_0_energy">   -127.64662307 </i>
   </energy>
  </scstep>
  <scstep>
   <time name="dav">   83.59   83.61</time>
   <time name="total">  103.31  103.34</time>
   <energy>
    <i name="e_fr_energy">   -127.65513667 </i>
    <i name="e_wo_entrp">   -127.63704916 </i>
    <i name="e_0_energy">   -127.64609292 </i>
   </energy>
  </scstep>
  <scstep>
   <time name="dav">   78.92   78.94</time>
   <time name="total">   98.69   98.72</time>
   <energy>
    <i name="e_fr_energy">   -127.65545931 </i>
    <i name="e_wo_entrp">   -127.63735832 </i>
    <i name="e_0_energy">   -127.64640882 </i>
   </energy>
  </scstep>
  <scstep>
   <time name="dav">   81.38   81.40</time>
   <time name="total">  101.01  101.03</time>
   <energy>
    <i name="e_fr_energy">   -127.65601776 </i>
    <i name="e_wo_entrp">   -127.63791976 </i>
    <i name="e_0_energy">   -127.64696876 </i>
   </energy>
  </scstep>
  <scstep>
   <time name="dav">   75.68   75.70</time>
   <time name="total">   95.30   95.33</time>
   <energy>
    <i name="e_fr_energy">   -127.65612306 </i>
    <i name="e_wo_entrp">   -127.63802944 </i>
    <i name="e_0_energy">   -127.64707625 </i>
   </energy>
  </scstep>
  <scstep>
   <time name="dav">   67.44   67.46</time>
   <time name="total">   87.14   87.16</time>
   <energy>
    <i name="e_fr_energy">   -127.65617817 </i>
    <i name="e_wo_entrp">   -127.63808560 </i>
    <i name="e_0_energy">   -127.64713189 </i>
   </energy>
  </scstep>
  <scstep>
   <time name="dav">   70.81   70.83</time>
   <time name="total">   90.42   90.44</time>
   <energy>
    <i name="e_fr_energy">   -127.65621030 </i>
    <i name="e_wo_entrp">   -127.63811803 </i>
    <i name="e_0_energy">   -127.64716417 </i>
   </energy>
  </scstep>
  <scstep>
   <time name="dav">   70.08   70.10</time>
   <time name="total">   89.76   89.78</time>
   <energy>
    <i name="e_fr_energy">   -127.65614111 </i>
    <i name="e_wo_entrp">   -127.63804918 </i>
    <i name="e_0_energy">   -127.64709514 </i>
   </energy>
  </scstep>
  <scstep>
   <time name="dav">   62.95   62.96</time>
   <time name="total">   82.61   82.63</time>
   <energy>
    <i name="e_fr_energy">   -127.65610294 </i>
    <i name="e_wo_entrp">   -127.63801158 </i>
    <i name="e_0_energy">   -127.64705726 </i>
   </energy>
  </scstep>
  <scstep>
   <time name="dav">   64.62   64.63</time>
   <time name="total">   84.12   84.14</time>
   <energy>
    <i name="e_fr_energy">   -127.65606715 </i>
    <i name="e_wo_entrp">   -127.63797524 </i>
    <i name="e_0_energy">   -127.64702119 </i>
   </energy>
  </scstep>
  <scstep>
   <time name="dav">   67.13   67.15</time>
   <time name="total">   86.66   86.68</time>
   <energy>
    <i name="e_fr_energy">   -127.65604794 </i>
    <i name="e_wo_entrp">   -127.63795599 </i>
    <i name="e_0_energy">   -127.64700197 </i>
   </energy>
  </scstep>
  <scstep>
   <time name="dav">   65.21   65.22</time>
   <time name="total">   84.64   84.66</time>
   <energy>
    <i name="e_fr_energy">   -127.65603902 </i>
    <i name="e_wo_entrp">   -127.63794710 </i>
    <i name="e_0_energy">   -127.64699306 </i>
   </energy>
  </scstep>
  <scstep>
   <time name="dav">   63.06   63.07</time>
   <time name="total">   82.51   82.53</time>
   <energy>
    <i name="e_fr_energy">   -127.65603784 </i>
    <i name="e_wo_entrp">   -127.63794595 </i>
    <i name="e_0_energy">   -127.64699190 </i>
   </energy>
  </scstep>
  <scstep>
   <time name="dav">   56.96   56.97</time>
   <time name="total">   71.71   71.72</time>
   <energy>
    <i name="alphaZ">     36.80884744 </i>
    <i name="ewald">  11898.72099762 </i>
    <i name="hartreedc"> -15046.69139098 </i>
    <i name="XCdc">    -80.88091370 </i>
    <i name="pawpsdc">   1150.32339783 </i>
    <i name="pawaedc">   -828.87450275 </i>
    <i name="eentropy">     -0.01809188 </i>
    <i name="bandstr">   -611.08564254 </i>
    <i name="atom">   3354.04126044 </i>
    <i name="e_fr_energy">   -127.65603851 </i>
    <i name="e_wo_entrp">   -127.63794663 </i>
    <i name="e_0_energy">   -127.64699257 </i>
   </energy>
  </scstep>
  <structure>
   <crystal>
    <varray name="basis" >
     <v>       3.54040000       0.00000000       0.00000000 </v>
     <v>      -1.77020000      10.29434800       0.00000000 </v>
     <v>       0.00000000       0.00000000      27.50142900 </v>
    </varray>
    <i name="volume">   1002.32009712 </i>
    <varray name="rec_basis" >
     <v>       0.28245396       0.04857034       0.00000000 </v>
     <v>       0.00000000       0.09714068       0.00000000 </v>
     <v>       0.00000000       0.00000000       0.03636175 </v>
    </varray>
   </crystal>
   <varray name="positions" >
    <v>       0.11402300       0.22804500       0.23316207 </v>
    <v>       0.11402300       0.12804500       0.51499159 </v>
    <v>       0.45808900       0.91617900       0.20939482 </v>
    <v>       0.45808900       0.81617900       0.49122434 </v>
    <v>       0.31085400       0.62170900       0.08414979 </v>
    <v>       0.31085400       0.62170900       0.36597930 </v>
    <v>       0.99923000       0.99846000       0.08631254 </v>
    <v>       0.99923000       0.99846000       0.36814206 </v>
    <v>       0.65492700       0.30985400       0.06041748 </v>
    <v>       0.65492700       0.30985400       0.34224700 </v>
    <v>       0.76973800       0.53947500       0.20725292 </v>
    <v>       0.76973800       0.43947500       0.48908244 </v>
    <v>       0.93971600       0.87943300       0.15783749 </v>
    <v>       0.93971600       0.77943300       0.43966701 </v>
    <v>       0.20515200       0.41030300       0.18578822 </v>
    <v>       0.20515200       0.31030300       0.46761774 </v>
    <v>       0.20184900       0.40369900       0.09969156 </v>
    <v>       0.20184900       0.40369900       0.38152107 </v>
    <v>       0.56380500       0.12761000       0.10779021 </v>
    <v>       0.56380500       0.12761000       0.38961973 </v>
    <v>       0.56710600       0.13421200       0.19387616 </v>
    <v>       0.56710600       0.03421200       0.47570568 </v>
    <v>       0.82923400       0.65846800       0.13571444 </v>
    <v>       0.82923400       0.55846800       0.41754396 </v>
   </varray>
  </structure>
  <varray name="forces" >
   <v>       0.01003929      -0.05602795      -0.00572240 </v>
   <v>      -0.15962054       0.06101550       0.44480275 </v>
   <v>       0.00018508      -0.02112884       0.08381669 </v>
   <v>      -0.11308303       0.56448028      -0.29573140 </v>
   <v>      -0.00083376      -0.01173802       0.01584206 </v>
   <v>       1.27437323      -1.12010973      -0.10376191 </v>
   <v>       0.00095700       0.00276698      -0.01035090 </v>
   <v>       0.28155868      -0.72715738      -0.35950748 </v>
   <v>       0.00117100       0.00423015       0.01590478 </v>
   <v>       0.20997209      -0.01729348      -0.11377587 </v>
   <v>       0.00010831       0.00945678       0.08480206 </v>
   <v>      -0.16852721       0.36401492       0.43491328 </v>
   <v>       0.00266931       0.01332578       0.00540848 </v>
   <v>      -0.24753068       1.25079606       0.25451274 </v>
   <v>      -0.00203192      -0.01332991       0.05655043 </v>
   <v>      -0.09465963       0.45807326      -0.77597751 </v>
   <v>      -0.00032498       0.00424790      -0.03136720 </v>
   <v>       0.52022020      -1.67623109      -0.75291815 </v>
   <v>      -0.00100216      -0.02737249      -0.00681573 </v>
   <v>       0.03355161      -1.49277403       0.65069735 </v>
   <v>      -0.00186800      -0.02512262       0.00707150 </v>
   <v>      -0.07009545       0.85589952      -0.27566832 </v>
   <v>       0.00176278       0.03569260      -0.00707826 </v>
   <v>      -1.47699123       1.56428579       0.68435301 </v>
  </varray>
  <varray name="stress" >
   <v>       8.84492732       0.13981887      -7.37578037 </v>
   <v>       0.13981886      -9.42693318      17.03371834 </v>
   <v>      -7.37578022      17.03371832      -1.53916048 </v>
  </varray>
  <energy>
   <i name="e_fr_energy">   -127.65603851 </i>
   <i name="e_wo_entrp">   -127.64699257 </i>
   <i name="e_0_energy">     -0.01809188 </i>
  </energy>
  <time name="totalsc"> 2576.26 2576.90</time>
  <eigenvalues>
   <array>
    <dimension dim="1">band</dimension>
    <dimension dim="2">kpoint</dimension>
    <dimension dim="3">spin</dimension>
    <field>eigene</field>
    <field>occ</field>
    <set>
     <set comment="spin 1">
      <set comment="kpoint 1">
       <r>  -13.8673    1.0000 </r>
       <r>  -13.5454    1.0000 </r>
       <r>  -12.8052    1.0000 </r>
       <r>  -12.6751    1.0000 </r>
       <r>  -12.4937    1.0000 </r>
       <r>  -12.2160    1.0000 </r>
       <r>  -12.1374    1.0000 </r>
       <r>  -12.0670    1.0000 </r>
       <r>  -11.4414    1.0000 </r>
       <r>  -11.1971    1.0000 </r>
       <r>  -10.9967    1.0000 </r>
       <r>  -10.8321    1.0000 </r>
       <r>   -8.0430    1.0000 </r>
       <r>   -7.8381    1.0000 </r>
       <r>   -7.7064    1.0000 </r>
       <r>   -7.2837    1.0000 </r>
       <r>   -6.9230    1.0000 </r>
       <r>   -6.7773    1.0000 </r>
       <r>   -6.5036    1.0000 </r>
       <r>   -6.4624    1.0000 </r>
       <r>   -5.8356    1.0000 </r>
       <r>   -5.6798    1.0000 </r>
       <r>   -4.7523    1.0000 </r>
       <r>   -4.5110    1.0000 </r>
       <r>   -4.0333    1.0000 </r>
       <r>   -3.7038    1.0000 </r>
       <r>   -3.6873    1.0000 </r>
       <r>   -3.4661    1.0000 </r>
       <r>   -3.3222    1.0000 </r>
       <r>   -3.0946    1.0000 </r>
       <r>   -3.0614    1.0000 </r>
       <r>   -2.8476    1.0000 </r>
       <r>   -2.8138    1.0000 </r>
       <r>   -2.6008    1.0000 </r>
       <r>   -2.4625    1.0000 </r>
       <r>   -2.3976    1.0000 </r>
       <r>   -2.3385    1.0000 </r>
       <r>   -2.1503    1.0000 </r>
       <r>   -2.1327    1.0000 </r>
       <r>   -2.0231    1.0000 </r>
       <r>   -1.8455    1.0000 </r>
       <r>   -1.7465    1.0000 </r>
       <r>   -1.7252    1.0000 </r>
       <r>   -1.6496    1.0000 </r>
       <r>   -1.5820    1.0000 </r>
       <r>   -1.5370    1.0000 </r>
       <r>   -1.4774    1.0000 </r>
       <r>   -1.4367    1.0000 </r>
       <r>   -1.2282    1.0000 </r>
       <r>   -1.1209    1.0000 </r>
       <r>   -1.0507    1.0000 </r>
       <r>   -0.6036    1.0000 </r>
       <r>   -0.4988    1.0000 </r>
       <r>    0.0147    0.9852 </r>
       <r>    0.3690    0.0023 </r>
       <r>    0.4409    0.0001 </r>
       <r>    0.8181    0.0000 </r>
       <r>    1.1887    0.0000 </r>
       <r>    1.3122    0.0000 </r>
       <r>    1.6975    0.0000 </r>
       <r>    1.8208    0.0000 </r>
       <r>    1.9753    0.0000 </r>
       <r>    2.0516    0.0000 </r>
       <r>    2.1953    0.0000 </r>
       <r>    2.2342    0.0000 </r>
       <r>    2.4278    0.0000 </r>
       <r>    2.6484    0.0000 </r>
       <r>    2.8019    0.0000 </r>
      </set>
      <set comment="kpoint 2">
       <r>  -13.8065    1.0000 </r>
       <r>  -13.4841    1.0000 </r>
       <r>  -12.7531    1.0000 </r>
       <r>  -12.6211    1.0000 </r>
       <r>  -12.4381    1.0000 </r>
       <r>  -12.1617    1.0000 </r>
       <r>  -12.0747    1.0000 </r>
       <r>  -12.0055    1.0000 </r>
       <r>  -11.3925    1.0000 </r>
       <r>  -11.1513    1.0000 </r>
       <r>  -10.9482    1.0000 </r>
       <r>  -10.7784    1.0000 </r>
       <r>   -8.0780    1.0000 </r>
       <r>   -7.8036    1.0000 </r>
       <r>   -7.6787    1.0000 </r>
       <r>   -7.3006    1.0000 </r>
       <r>   -6.8962    1.0000 </r>
       <r>   -6.7569    1.0000 </r>
       <r>   -6.5005    1.0000 </r>
       <r>   -6.4645    1.0000 </r>
       <r>   -5.8021    1.0000 </r>
       <r>   -5.6520    1.0000 </r>
       <r>   -4.7549    1.0000 </r>
       <r>   -4.4738    1.0000 </r>
       <r>   -4.1027    1.0000 </r>
       <r>   -3.9112    1.0000 </r>
       <r>   -3.7259    1.0000 </r>
       <r>   -3.5929    1.0000 </r>
       <r>   -3.5074    1.0000 </r>
       <r>   -3.3854    1.0000 </r>
       <r>   -3.2635    1.0000 </r>
       <r>   -3.1495    1.0000 </r>
       <r>   -2.9904    1.0000 </r>
       <r>   -2.9165    1.0000 </r>
       <r>   -2.7444    1.0000 </r>
       <r>   -2.5729    1.0000 </r>
       <r>   -2.4812    1.0000 </r>
       <r>   -2.3489    1.0000 </r>
       <r>   -2.2031    1.0000 </r>
       <r>   -2.1228    1.0000 </r>
       <r>   -2.0631    1.0000 </r>
       <r>   -1.9909    1.0000 </r>
       <r>   -1.9712    1.0000 </r>
       <r>   -1.8631    1.0000 </r>
       <r>   -1.8400    1.0000 </r>
       <r>   -1.7210    1.0000 </r>
       <r>   -1.5785    1.0000 </r>
       <r>   -1.5035    1.0000 </r>
       <r>   -1.3583    1.0000 </r>
       <r>   -1.1647    1.0000 </r>
       <r>   -0.9513    1.0000 </r>
       <r>   -0.5832    1.0000 </r>
       <r>   -0.2996    1.0000 </r>
       <r>    0.0840    0.8840 </r>
       <r>    0.4876    0.0000 </r>
       <r>    0.5917    0.0000 </r>
       <r>    1.0752    0.0000 </r>
       <r>    1.5717    0.0000 </r>
       <r>    1.7534    0.0000 </r>
       <r>    1.9504    0.0000 </r>
       <r>    2.1300    0.0000 </r>
       <r>    2.2046    0.0000 </r>
       <r>    2.2862    0.0000 </r>
       <r>    2.4459    0.0000 </r>
       <r>    2.5395    0.0000 </r>
       <r>    2.5954    0.0000 </r>
       <r>    2.7166    0.0000 </r>
       <r>    2.7743    0.0000 </r>
      </set>
      <set comment="kpoint 3">
       <r>  -13.6254    1.0000 </r>
       <r>  -13.3011    1.0000 </r>
       <r>  -12.5974    1.0000 </r>
       <r>  -12.4601    1.0000 </r>
       <r>  -12.2733    1.0000 </r>
       <r>  -12.0010    1.0000 </r>
       <r>  -11.8914    1.0000 </r>
       <r>  -11.8251    1.0000 </r>
       <r>  -11.2506    1.0000 </r>
       <r>  -11.0193    1.0000 </r>
       <r>  -10.8090    1.0000 </r>
       <r>  -10.6216    1.0000 </r>
       <r>   -8.1727    1.0000 </r>
       <r>   -7.7619    1.0000 </r>
       <r>   -7.6618    1.0000 </r>
       <r>   -7.3433    1.0000 </r>
       <r>   -6.8908    1.0000 </r>
       <r>   -6.7212    1.0000 </r>
       <r>   -6.5168    1.0000 </r>
       <r>   -6.4802    1.0000 </r>
       <r>   -5.7275    1.0000 </r>
       <r>   -5.5976    1.0000 </r>
       <r>   -4.8725    1.0000 </r>
       <r>   -4.7826    1.0000 </r>
       <r>   -4.4204    1.0000 </r>
       <r>   -4.2350    1.0000 </r>
       <r>   -4.1038    1.0000 </r>
       <r>   -4.0572    1.0000 </r>
       <r>   -3.9547    1.0000 </r>
       <r>   -3.7431    1.0000 </r>
       <r>   -3.6795    1.0000 </r>
       <r>   -3.6139    1.0000 </r>
       <r>   -3.4146    1.0000 </r>
       <r>   -3.3573    1.0000 </r>
       <r>   -3.1785    1.0000 </r>
       <r>   -2.9993    1.0000 </r>
       <r>   -2.9791    1.0000 </r>
       <r>   -2.8939    1.0000 </r>
       <r>   -2.8302    1.0000 </r>
       <r>   -2.5101    1.0000 </r>
       <r>   -2.3826    1.0000 </r>
       <r>   -2.2519    1.0000 </r>
       <r>   -2.1589    1.0000 </r>
       <r>   -2.0585    1.0000 </r>
       <r>   -1.9809    1.0000 </r>
       <r>   -1.8637    1.0000 </r>
       <r>   -1.7344    1.0000 </r>
       <r>   -1.6411    1.0000 </r>
       <r>   -1.3539    1.0000 </r>
       <r>   -1.2236    1.0000 </r>
       <r>   -0.9299    1.0000 </r>
       <r>   -0.6854    1.0000 </r>
       <r>   -0.3190    1.0000 </r>
       <r>    0.0484    0.9553 </r>
       <r>    0.5620    0.0000 </r>
       <r>    0.8312    0.0000 </r>
       <r>    1.5292    0.0000 </r>
       <r>    1.8464    0.0000 </r>
       <r>    1.9867    0.0000 </r>
       <r>    2.2605    0.0000 </r>
       <r>    2.4104    0.0000 </r>
       <r>    2.5707    0.0000 </r>
       <r>    2.6341    0.0000 </r>
       <r>    2.7246    0.0000 </r>
       <r>    2.8752    0.0000 </r>
       <r>    2.9320    0.0000 </r>
       <r>    3.0547    0.0000 </r>
       <r>    3.1586    0.0000 </r>
      </set>
      <set comment="kpoint 4">
       <r>  -13.3284    1.0000 </r>
       <r>  -13.0000    1.0000 </r>
       <r>  -12.3412    1.0000 </r>
       <r>  -12.1960    1.0000 </r>
       <r>  -12.0064    1.0000 </r>
       <r>  -11.7430    1.0000 </r>
       <r>  -11.6032    1.0000 </r>
       <r>  -11.5396    1.0000 </r>
       <r>  -11.0338    1.0000 </r>
       <r>  -10.8224    1.0000 </r>
       <r>  -10.6055    1.0000 </r>
       <r>  -10.3761    1.0000 </r>
       <r>   -8.3636    1.0000 </r>
       <r>   -7.9226    1.0000 </r>
       <r>   -7.8279    1.0000 </r>
       <r>   -7.3221    1.0000 </r>
       <r>   -7.1404    1.0000 </r>
       <r>   -6.7109    1.0000 </r>
       <r>   -6.6416    1.0000 </r>
       <r>   -6.5379    1.0000 </r>
       <r>   -5.7452    1.0000 </r>
       <r>   -5.6549    1.0000 </r>
       <r>   -5.4168    1.0000 </r>
       <r>   -5.3425    1.0000 </r>
       <r>   -4.8255    1.0000 </r>
       <r>   -4.7163    1.0000 </r>
       <r>   -4.6116    1.0000 </r>
       <r>   -4.5208    1.0000 </r>
       <r>   -4.4224    1.0000 </r>
       <r>   -4.2276    1.0000 </r>
       <r>   -4.1702    1.0000 </r>
       <r>   -3.9833    1.0000 </r>
       <r>   -3.7922    1.0000 </r>
       <r>   -3.7609    1.0000 </r>
       <r>   -3.5131    1.0000 </r>
       <r>   -3.4728    1.0000 </r>
       <r>   -3.2137    1.0000 </r>
       <r>   -3.1152    1.0000 </r>
       <r>   -2.9864    1.0000 </r>
       <r>   -2.7224    1.0000 </r>
       <r>   -2.5880    1.0000 </r>
       <r>   -2.4510    1.0000 </r>
       <r>   -2.3296    1.0000 </r>
       <r>   -2.1247    1.0000 </r>
       <r>   -1.9233    1.0000 </r>
       <r>   -1.8656    1.0000 </r>
       <r>   -1.7767    1.0000 </r>
       <r>   -1.7186    1.0000 </r>
       <r>   -1.4812    1.0000 </r>
       <r>   -1.3770    1.0000 </r>
       <r>   -1.0973    1.0000 </r>
       <r>   -0.9435    1.0000 </r>
       <r>   -0.7480    1.0000 </r>
       <r>   -0.2207    1.0000 </r>
       <r>    0.5590    0.0000 </r>
       <r>    0.9189    0.0000 </r>
       <r>    1.3076    0.0000 </r>
       <r>    1.8193    0.0000 </r>
       <r>    1.8889    0.0000 </r>
       <r>    2.0317    0.0000 </r>
       <r>    2.2763    0.0000 </r>
       <r>    2.3762    0.0000 </r>
       <r>    2.6360    0.0000 </r>
       <r>    2.7327    0.0000 </r>
       <r>    2.8737    0.0000 </r>
       <r>    2.9122    0.0000 </r>
       <r>    3.0110    0.0000 </r>
       <r>    3.1291    0.0000 </r>
      </set>
      <set comment="kpoint 5">
       <r>  -12.9258    1.0000 </r>
       <r>  -12.5882    1.0000 </r>
       <r>  -11.9929    1.0000 </r>
       <r>  -11.8404    1.0000 </r>
       <r>  -11.6543    1.0000 </r>
       <r>  -11.4114    1.0000 </r>
       <r>  -11.2449    1.0000 </r>
       <r>  -11.1838    1.0000 </r>
       <r>  -10.7897    1.0000 </r>
       <r>  -10.6209    1.0000 </r>
       <r>  -10.4193    1.0000 </r>
       <r>  -10.0746    1.0000 </r>
       <r>   -8.6586    1.0000 </r>
       <r>   -8.4436    1.0000 </r>
       <r>   -8.0889    1.0000 </r>
       <r>   -7.7139    1.0000 </r>
       <r>   -7.2494    1.0000 </r>
       <r>   -7.0008    1.0000 </r>
       <r>   -6.9101    1.0000 </r>
       <r>   -6.7881    1.0000 </r>
       <r>   -6.2191    1.0000 </r>
       <r>   -6.1662    1.0000 </r>
       <r>   -5.9689    1.0000 </r>
       <r>   -5.7441    1.0000 </r>
       <r>   -5.2183    1.0000 </r>
       <r>   -5.0668    1.0000 </r>
       <r>   -4.8977    1.0000 </r>
       <r>   -4.7907    1.0000 </r>
       <r>   -4.7019    1.0000 </r>
       <r>   -4.3995    1.0000 </r>
       <r>   -4.3108    1.0000 </r>
       <r>   -4.2217    1.0000 </r>
       <r>   -4.1880    1.0000 </r>
       <r>   -3.9327    1.0000 </r>
       <r>   -3.4284    1.0000 </r>
       <r>   -3.3815    1.0000 </r>
       <r>   -3.1839    1.0000 </r>
       <r>   -3.0999    1.0000 </r>
       <r>   -3.0201    1.0000 </r>
       <r>   -2.8938    1.0000 </r>
       <r>   -2.7857    1.0000 </r>
       <r>   -2.6083    1.0000 </r>
       <r>   -2.3573    1.0000 </r>
       <r>   -2.1958    1.0000 </r>
       <r>   -2.0739    1.0000 </r>
       <r>   -1.9348    1.0000 </r>
       <r>   -1.8907    1.0000 </r>
       <r>   -1.8384    1.0000 </r>
       <r>   -1.7204    1.0000 </r>
       <r>   -1.4998    1.0000 </r>
       <r>   -1.3752    1.0000 </r>
       <r>   -1.2408    1.0000 </r>
       <r>   -1.1771    1.0000 </r>
       <r>   -0.6780    1.0000 </r>
       <r>    0.6551    0.0000 </r>
       <r>    0.8487    0.0000 </r>
       <r>    1.1175    0.0000 </r>
       <r>    1.5829    0.0000 </r>
       <r>    1.6919    0.0000 </r>
       <r>    1.8284    0.0000 </r>
       <r>    2.0020    0.0000 </r>
       <r>    2.2122    0.0000 </r>
       <r>    2.3042    0.0000 </r>
       <r>    2.3575    0.0000 </r>
       <r>    2.6573    0.0000 </r>
       <r>    2.7164    0.0000 </r>
       <r>    2.8140    0.0000 </r>
       <r>    3.0458    0.0000 </r>
      </set>
      <set comment="kpoint 6">
       <r>  -12.4423    1.0000 </r>
       <r>  -12.0798    1.0000 </r>
       <r>  -11.5737    1.0000 </r>
       <r>  -11.4309    1.0000 </r>
       <r>  -11.2555    1.0000 </r>
       <r>  -11.0743    1.0000 </r>
       <r>  -10.9069    1.0000 </r>
       <r>  -10.8459    1.0000 </r>
       <r>  -10.6359    1.0000 </r>
       <r>  -10.5431    1.0000 </r>
       <r>  -10.4595    1.0000 </r>
       <r>   -9.7861    1.0000 </r>
       <r>   -8.9040    1.0000 </r>
       <r>   -8.8348    1.0000 </r>
       <r>   -8.3814    1.0000 </r>
       <r>   -8.2183    1.0000 </r>
       <r>   -7.5443    1.0000 </r>
       <r>   -7.4634    1.0000 </r>
       <r>   -7.4194    1.0000 </r>
       <r>   -7.1598    1.0000 </r>
       <r>   -6.8295    1.0000 </r>
       <r>   -6.7637    1.0000 </r>
       <r>   -6.6662    1.0000 </r>
       <r>   -6.2453    1.0000 </r>
       <r>   -5.2420    1.0000 </r>
       <r>   -5.2117    1.0000 </r>
       <r>   -4.8388    1.0000 </r>
       <r>   -4.6361    1.0000 </r>
       <r>   -4.5330    1.0000 </r>
       <r>   -4.3075    1.0000 </r>
       <r>   -4.2110    1.0000 </r>
       <r>   -4.0941    1.0000 </r>
       <r>   -4.0279    1.0000 </r>
       <r>   -3.8263    1.0000 </r>
       <r>   -3.6590    1.0000 </r>
       <r>   -3.4556    1.0000 </r>
       <r>   -3.2733    1.0000 </r>
       <r>   -3.2207    1.0000 </r>
       <r>   -3.1558    1.0000 </r>
       <r>   -2.9197    1.0000 </r>
       <r>   -2.7992    1.0000 </r>
       <r>   -2.5658    1.0000 </r>
       <r>   -2.5087    1.0000 </r>
       <r>   -2.4249    1.0000 </r>
       <r>   -2.3090    1.0000 </r>
       <r>   -2.1730    1.0000 </r>
       <r>   -2.0388    1.0000 </r>
       <r>   -1.9686    1.0000 </r>
       <r>   -1.8259    1.0000 </r>
       <r>   -1.7752    1.0000 </r>
       <r>   -1.6027    1.0000 </r>
       <r>   -1.3972    1.0000 </r>
       <r>   -1.2962    1.0000 </r>
       <r>   -1.0564    1.0000 </r>
       <r>    0.6268    0.0000 </r>
       <r>    0.8421    0.0000 </r>
       <r>    1.0075    0.0000 </r>
       <r>    1.3966    0.0000 </r>
       <r>    1.5696    0.0000 </r>
       <r>    1.6805    0.0000 </r>
       <r>    1.7755    0.0000 </r>
       <r>    2.0235    0.0000 </r>
       <r>    2.0683    0.0000 </r>
       <r>    2.2468    0.0000 </r>
       <r>    2.2935    0.0000 </r>
       <r>    2.4890    0.0000 </r>
       <r>    2.6933    0.0000 </r>
       <r>    2.8094    0.0000 </r>
      </set>
      <set comment="kpoint 7">
       <r>  -11.9687    1.0000 </r>
       <r>  -11.5061    1.0000 </r>
       <r>  -11.2141    1.0000 </r>
       <r>  -11.1501    1.0000 </r>
       <r>  -10.9490    1.0000 </r>
       <r>  -10.8673    1.0000 </r>
       <r>  -10.8502    1.0000 </r>
       <r>  -10.7302    1.0000 </r>
       <r>  -10.7046    1.0000 </r>
       <r>  -10.6430    1.0000 </r>
       <r>  -10.5997    1.0000 </r>
       <r>   -9.6196    1.0000 </r>
       <r>   -9.0909    1.0000 </r>
       <r>   -8.6935    1.0000 </r>
       <r>   -8.4456    1.0000 </r>
       <r>   -8.4217    1.0000 </r>
       <r>   -8.0840    1.0000 </r>
       <r>   -8.0114    1.0000 </r>
       <r>   -7.5772    1.0000 </r>
       <r>   -7.3142    1.0000 </r>
       <r>   -7.2837    1.0000 </r>
       <r>   -7.2026    1.0000 </r>
       <r>   -7.1777    1.0000 </r>
       <r>   -6.7793    1.0000 </r>
       <r>   -5.0143    1.0000 </r>
       <r>   -4.9183    1.0000 </r>
       <r>   -4.6096    1.0000 </r>
       <r>   -4.5045    1.0000 </r>
       <r>   -4.2943    1.0000 </r>
       <r>   -4.2474    1.0000 </r>
       <r>   -4.0652    1.0000 </r>
       <r>   -3.9604    1.0000 </r>
       <r>   -3.8954    1.0000 </r>
       <r>   -3.8345    1.0000 </r>
       <r>   -3.7699    1.0000 </r>
       <r>   -3.5885    1.0000 </r>
       <r>   -3.4312    1.0000 </r>
       <r>   -3.3208    1.0000 </r>
       <r>   -3.2548    1.0000 </r>
       <r>   -3.0126    1.0000 </r>
       <r>   -2.9108    1.0000 </r>
       <r>   -2.7674    1.0000 </r>
       <r>   -2.6930    1.0000 </r>
       <r>   -2.5843    1.0000 </r>
       <r>   -2.3658    1.0000 </r>
       <r>   -2.2216    1.0000 </r>
       <r>   -2.1430    1.0000 </r>
       <r>   -2.0494    1.0000 </r>
       <r>   -1.9146    1.0000 </r>
       <r>   -1.7419    1.0000 </r>
       <r>   -1.6777    1.0000 </r>
       <r>   -1.5471    1.0000 </r>
       <r>   -1.4988    1.0000 </r>
       <r>   -1.0765    1.0000 </r>
       <r>    0.4746    0.0000 </r>
       <r>    0.8710    0.0000 </r>
       <r>    0.9726    0.0000 </r>
       <r>    1.3594    0.0000 </r>
       <r>    1.4966    0.0000 </r>
       <r>    1.5952    0.0000 </r>
       <r>    1.6987    0.0000 </r>
       <r>    1.8496    0.0000 </r>
       <r>    1.9689    0.0000 </r>
       <r>    2.0617    0.0000 </r>
       <r>    2.3492    0.0000 </r>
       <r>    2.4406    0.0000 </r>
       <r>    2.5228    0.0000 </r>
       <r>    2.6938    0.0000 </r>
      </set>
      <set comment="kpoint 8">
       <r>  -13.8530    1.0000 </r>
       <r>  -13.4902    1.0000 </r>
       <r>  -12.9792    1.0000 </r>
       <r>  -12.7832    1.0000 </r>
       <r>  -12.4923    1.0000 </r>
       <r>  -12.2244    1.0000 </r>
       <r>  -11.9562    1.0000 </r>
       <r>  -11.8678    1.0000 </r>
       <r>  -11.4862    1.0000 </r>
       <r>  -11.2548    1.0000 </r>
       <r>  -11.0054    1.0000 </r>
       <r>  -10.8176    1.0000 </r>
       <r>   -8.5211    1.0000 </r>
       <r>   -7.8623    1.0000 </r>
       <r>   -7.4648    1.0000 </r>
       <r>   -7.3543    1.0000 </r>
       <r>   -6.7510    1.0000 </r>
       <r>   -6.6753    1.0000 </r>
       <r>   -6.5933    1.0000 </r>
       <r>   -6.2820    1.0000 </r>
       <r>   -5.7569    1.0000 </r>
       <r>   -5.5873    1.0000 </r>
       <r>   -4.6501    1.0000 </r>
       <r>   -4.3151    1.0000 </r>
       <r>   -4.1258    1.0000 </r>
       <r>   -4.0176    1.0000 </r>
       <r>   -3.6455    1.0000 </r>
       <r>   -3.6241    1.0000 </r>
       <r>   -3.3611    1.0000 </r>
       <r>   -3.3020    1.0000 </r>
       <r>   -3.1327    1.0000 </r>
       <r>   -2.8512    1.0000 </r>
       <r>   -2.7132    1.0000 </r>
       <r>   -2.5495    1.0000 </r>
       <r>   -2.4008    1.0000 </r>
       <r>   -2.3929    1.0000 </r>
       <r>   -2.3194    1.0000 </r>
       <r>   -2.1807    1.0000 </r>
       <r>   -2.1543    1.0000 </r>
       <r>   -2.0748    1.0000 </r>
       <r>   -1.9633    1.0000 </r>
       <r>   -1.8892    1.0000 </r>
       <r>   -1.8474    1.0000 </r>
       <r>   -1.6362    1.0000 </r>
       <r>   -1.5524    1.0000 </r>
       <r>   -1.4346    1.0000 </r>
       <r>   -1.4002    1.0000 </r>
       <r>   -1.3668    1.0000 </r>
       <r>   -1.1671    1.0000 </r>
       <r>   -1.1259    1.0000 </r>
       <r>   -1.0305    1.0000 </r>
       <r>   -0.7970    1.0000 </r>
       <r>   -0.4820    1.0000 </r>
       <r>    0.0341    0.9714 </r>
       <r>    0.3760    0.0017 </r>
       <r>    0.5915    0.0000 </r>
       <r>    1.0716    0.0000 </r>
       <r>    1.2096    0.0000 </r>
       <r>    1.3879    0.0000 </r>
       <r>    1.7180    0.0000 </r>
       <r>    1.7703    0.0000 </r>
       <r>    1.9890    0.0000 </r>
       <r>    2.0444    0.0000 </r>
       <r>    2.2523    0.0000 </r>
       <r>    2.2842    0.0000 </r>
       <r>    2.5524    0.0000 </r>
       <r>    2.6508    0.0000 </r>
       <r>    2.8102    0.0000 </r>
      </set>
      <set comment="kpoint 9">
       <r>  -13.7892    1.0000 </r>
       <r>  -13.4133    1.0000 </r>
       <r>  -12.9601    1.0000 </r>
       <r>  -12.7457    1.0000 </r>
       <r>  -12.4352    1.0000 </r>
       <r>  -12.1690    1.0000 </r>
       <r>  -11.8678    1.0000 </r>
       <r>  -11.7689    1.0000 </r>
       <r>  -11.4448    1.0000 </r>
       <r>  -11.2163    1.0000 </r>
       <r>  -10.9611    1.0000 </r>
       <r>  -10.7651    1.0000 </r>
       <r>   -8.5794    1.0000 </r>
       <r>   -7.8735    1.0000 </r>
       <r>   -7.4647    1.0000 </r>
       <r>   -7.3166    1.0000 </r>
       <r>   -6.7215    1.0000 </r>
       <r>   -6.6790    1.0000 </r>
       <r>   -6.5288    1.0000 </r>
       <r>   -6.2520    1.0000 </r>
       <r>   -5.7080    1.0000 </r>
       <r>   -5.5419    1.0000 </r>
       <r>   -4.6949    1.0000 </r>
       <r>   -4.3794    1.0000 </r>
       <r>   -4.1502    1.0000 </r>
       <r>   -4.0982    1.0000 </r>
       <r>   -3.9252    1.0000 </r>
       <r>   -3.6590    1.0000 </r>
       <r>   -3.5484    1.0000 </r>
       <r>   -3.4249    1.0000 </r>
       <r>   -3.3728    1.0000 </r>
       <r>   -3.0339    1.0000 </r>
       <r>   -2.9436    1.0000 </r>
       <r>   -2.8732    1.0000 </r>
       <r>   -2.6817    1.0000 </r>
       <r>   -2.5993    1.0000 </r>
       <r>   -2.4859    1.0000 </r>
       <r>   -2.4123    1.0000 </r>
       <r>   -2.3119    1.0000 </r>
       <r>   -2.2366    1.0000 </r>
       <r>   -2.1563    1.0000 </r>
       <r>   -2.0732    1.0000 </r>
       <r>   -2.0044    1.0000 </r>
       <r>   -1.8434    1.0000 </r>
       <r>   -1.7529    1.0000 </r>
       <r>   -1.7445    1.0000 </r>
       <r>   -1.5739    1.0000 </r>
       <r>   -1.4122    1.0000 </r>
       <r>   -1.3447    1.0000 </r>
       <r>   -1.0959    1.0000 </r>
       <r>   -0.9378    1.0000 </r>
       <r>   -0.7070    1.0000 </r>
       <r>   -0.3102    1.0000 </r>
       <r>    0.1049    0.8158 </r>
       <r>    0.4026    0.0005 </r>
       <r>    0.8462    0.0000 </r>
       <r>    1.2629    0.0000 </r>
       <r>    1.6067    0.0000 </r>
       <r>    1.7737    0.0000 </r>
       <r>    1.9282    0.0000 </r>
       <r>    2.1049    0.0000 </r>
       <r>    2.2215    0.0000 </r>
       <r>    2.4353    0.0000 </r>
       <r>    2.4971    0.0000 </r>
       <r>    2.5922    0.0000 </r>
       <r>    2.6529    0.0000 </r>
       <r>    2.7779    0.0000 </r>
       <r>    2.9564    0.0000 </r>
      </set>
      <set comment="kpoint 10">
       <r>  -13.6063    1.0000 </r>
       <r>  -13.2168    1.0000 </r>
       <r>  -12.8235    1.0000 </r>
       <r>  -12.5898    1.0000 </r>
       <r>  -12.2688    1.0000 </r>
       <r>  -12.0063    1.0000 </r>
       <r>  -11.6818    1.0000 </r>
       <r>  -11.5714    1.0000 </r>
       <r>  -11.3054    1.0000 </r>
       <r>  -11.0780    1.0000 </r>
       <r>  -10.8197    1.0000 </r>
       <r>  -10.6119    1.0000 </r>
       <r>   -8.6449    1.0000 </r>
       <r>   -7.9336    1.0000 </r>
       <r>   -7.4065    1.0000 </r>
       <r>   -7.2868    1.0000 </r>
       <r>   -6.6928    1.0000 </r>
       <r>   -6.6562    1.0000 </r>
       <r>   -6.5016    1.0000 </r>
       <r>   -6.3302    1.0000 </r>
       <r>   -5.6605    1.0000 </r>
       <r>   -5.5319    1.0000 </r>
       <r>   -4.9158    1.0000 </r>
       <r>   -4.8405    1.0000 </r>
       <r>   -4.4065    1.0000 </r>
       <r>   -4.3632    1.0000 </r>
       <r>   -4.3032    1.0000 </r>
       <r>   -4.1075    1.0000 </r>
       <r>   -3.9755    1.0000 </r>
       <r>   -3.7744    1.0000 </r>
       <r>   -3.6270    1.0000 </r>
       <r>   -3.4752    1.0000 </r>
       <r>   -3.3676    1.0000 </r>
       <r>   -3.2018    1.0000 </r>
       <r>   -3.1250    1.0000 </r>
       <r>   -2.9928    1.0000 </r>
       <r>   -2.9637    1.0000 </r>
       <r>   -2.8425    1.0000 </r>
       <r>   -2.7626    1.0000 </r>
       <r>   -2.6098    1.0000 </r>
       <r>   -2.5332    1.0000 </r>
       <r>   -2.3541    1.0000 </r>
       <r>   -2.2995    1.0000 </r>
       <r>   -2.1377    1.0000 </r>
       <r>   -1.9808    1.0000 </r>
       <r>   -1.9189    1.0000 </r>
       <r>   -1.8144    1.0000 </r>
       <r>   -1.4967    1.0000 </r>
       <r>   -1.3877    1.0000 </r>
       <r>   -1.1533    1.0000 </r>
       <r>   -0.9112    1.0000 </r>
       <r>   -0.6774    1.0000 </r>
       <r>   -0.3428    1.0000 </r>
       <r>    0.0690    0.9204 </r>
       <r>    0.2889    0.0443 </r>
       <r>    1.1221    0.0000 </r>
       <r>    1.6674    0.0000 </r>
       <r>    1.6991    0.0000 </r>
       <r>    1.9396    0.0000 </r>
       <r>    2.1185    0.0000 </r>
       <r>    2.3368    0.0000 </r>
       <r>    2.5853    0.0000 </r>
       <r>    2.7296    0.0000 </r>
       <r>    2.8592    0.0000 </r>
       <r>    2.9497    0.0000 </r>
       <r>    3.0562    0.0000 </r>
       <r>    3.1187    0.0000 </r>
       <r>    3.2446    0.0000 </r>
      </set>
      <set comment="kpoint 11">
       <r>  -13.3091    1.0000 </r>
       <r>  -12.9054    1.0000 </r>
       <r>  -12.5721    1.0000 </r>
       <r>  -12.3194    1.0000 </r>
       <r>  -12.0010    1.0000 </r>
       <r>  -11.7457    1.0000 </r>
       <r>  -11.4176    1.0000 </r>
       <r>  -11.2950    1.0000 </r>
       <r>  -11.0837    1.0000 </r>
       <r>  -10.8565    1.0000 </r>
       <r>  -10.6022    1.0000 </r>
       <r>  -10.3701    1.0000 </r>
       <r>   -8.7761    1.0000 </r>
       <r>   -8.1787    1.0000 </r>
       <r>   -7.4040    1.0000 </r>
       <r>   -7.2738    1.0000 </r>
       <r>   -6.8715    1.0000 </r>
       <r>   -6.7023    1.0000 </r>
       <r>   -6.6550    1.0000 </r>
       <r>   -6.5518    1.0000 </r>
       <r>   -5.8521    1.0000 </r>
       <r>   -5.8085    1.0000 </r>
       <r>   -5.3168    1.0000 </r>
       <r>   -5.2108    1.0000 </r>
       <r>   -5.0380    1.0000 </r>
       <r>   -4.8638    1.0000 </r>
       <r>   -4.6743    1.0000 </r>
       <r>   -4.5648    1.0000 </r>
       <r>   -4.4551    1.0000 </r>
       <r>   -4.2161    1.0000 </r>
       <r>   -4.0268    1.0000 </r>
       <r>   -3.8149    1.0000 </r>
       <r>   -3.7302    1.0000 </r>
       <r>   -3.6344    1.0000 </r>
       <r>   -3.3946    1.0000 </r>
       <r>   -3.2278    1.0000 </r>
       <r>   -3.1779    1.0000 </r>
       <r>   -3.0954    1.0000 </r>
       <r>   -2.9482    1.0000 </r>
       <r>   -2.8568    1.0000 </r>
       <r>   -2.6597    1.0000 </r>
       <r>   -2.5306    1.0000 </r>
       <r>   -2.3436    1.0000 </r>
       <r>   -2.2856    1.0000 </r>
       <r>   -1.9991    1.0000 </r>
       <r>   -1.9188    1.0000 </r>
       <r>   -1.8420    1.0000 </r>
       <r>   -1.7518    1.0000 </r>
       <r>   -1.4112    1.0000 </r>
       <r>   -1.3974    1.0000 </r>
       <r>   -1.0614    1.0000 </r>
       <r>   -0.9111    1.0000 </r>
       <r>   -0.7607    1.0000 </r>
       <r>   -0.2052    1.0000 </r>
       <r>    0.2123    0.2679 </r>
       <r>    0.9886    0.0000 </r>
       <r>    1.3388    0.0000 </r>
       <r>    1.4716    0.0000 </r>
       <r>    1.6209    0.0000 </r>
       <r>    1.8910    0.0000 </r>
       <r>    2.2453    0.0000 </r>
       <r>    2.5255    0.0000 </r>
       <r>    2.6190    0.0000 </r>
       <r>    2.7026    0.0000 </r>
       <r>    2.8132    0.0000 </r>
       <r>    3.0266    0.0000 </r>
       <r>    3.1853    0.0000 </r>
       <r>    3.2295    0.0000 </r>
      </set>
      <set comment="kpoint 12">
       <r>  -12.9080    1.0000 </r>
       <r>  -12.4887    1.0000 </r>
       <r>  -12.2130    1.0000 </r>
       <r>  -11.9459    1.0000 </r>
       <r>  -11.6493    1.0000 </r>
       <r>  -11.4088    1.0000 </r>
       <r>  -11.1210    1.0000 </r>
       <r>  -10.9817    1.0000 </r>
       <r>  -10.8205    1.0000 </r>
       <r>  -10.6072    1.0000 </r>
       <r>  -10.3963    1.0000 </r>
       <r>  -10.0672    1.0000 </r>
       <r>   -8.9755    1.0000 </r>
       <r>   -8.6204    1.0000 </r>
       <r>   -7.7117    1.0000 </r>
       <r>   -7.4763    1.0000 </r>
       <r>   -7.2902    1.0000 </r>
       <r>   -7.1172    1.0000 </r>
       <r>   -6.9677    1.0000 </r>
       <r>   -6.8538    1.0000 </r>
       <r>   -6.3065    1.0000 </r>
       <r>   -6.1857    1.0000 </r>
       <r>   -5.9235    1.0000 </r>
       <r>   -5.6346    1.0000 </r>
       <r>   -5.3893    1.0000 </r>
       <r>   -5.3122    1.0000 </r>
       <r>   -4.9533    1.0000 </r>
       <r>   -4.8862    1.0000 </r>
       <r>   -4.4900    1.0000 </r>
       <r>   -4.4075    1.0000 </r>
       <r>   -4.3223    1.0000 </r>
       <r>   -4.0463    1.0000 </r>
       <r>   -4.0090    1.0000 </r>
       <r>   -3.6782    1.0000 </r>
       <r>   -3.3827    1.0000 </r>
       <r>   -3.3280    1.0000 </r>
       <r>   -3.0390    1.0000 </r>
       <r>   -3.0122    1.0000 </r>
       <r>   -2.9386    1.0000 </r>
       <r>   -2.8602    1.0000 </r>
       <r>   -2.8046    1.0000 </r>
       <r>   -2.5330    1.0000 </r>
       <r>   -2.5039    1.0000 </r>
       <r>   -2.3660    1.0000 </r>
       <r>   -2.2095    1.0000 </r>
       <r>   -1.9904    1.0000 </r>
       <r>   -1.9086    1.0000 </r>
       <r>   -1.8846    1.0000 </r>
       <r>   -1.7501    1.0000 </r>
       <r>   -1.5788    1.0000 </r>
       <r>   -1.3830    1.0000 </r>
       <r>   -1.2298    1.0000 </r>
       <r>   -1.1836    1.0000 </r>
       <r>   -0.6822    1.0000 </r>
       <r>    0.3224    0.0148 </r>
       <r>    0.7698    0.0000 </r>
       <r>    1.0248    0.0000 </r>
       <r>    1.2316    0.0000 </r>
       <r>    1.3147    0.0000 </r>
       <r>    1.7377    0.0000 </r>
       <r>    2.1378    0.0000 </r>
       <r>    2.1835    0.0000 </r>
       <r>    2.3406    0.0000 </r>
       <r>    2.4403    0.0000 </r>
       <r>    2.6104    0.0000 </r>
       <r>    2.8097    0.0000 </r>
       <r>    2.9455    0.0000 </r>
       <r>    3.1237    0.0000 </r>
      </set>
      <set comment="kpoint 13">
       <r>  -12.4287    1.0000 </r>
       <r>  -11.9851    1.0000 </r>
       <r>  -11.7628    1.0000 </r>
       <r>  -11.5024    1.0000 </r>
       <r>  -11.2531    1.0000 </r>
       <r>  -11.0530    1.0000 </r>
       <r>  -10.9063    1.0000 </r>
       <r>  -10.7249    1.0000 </r>
       <r>  -10.6117    1.0000 </r>
       <r>  -10.4750    1.0000 </r>
       <r>  -10.4705    1.0000 </r>
       <r>   -9.7784    1.0000 </r>
       <r>   -8.9662    1.0000 </r>
       <r>   -8.9465    1.0000 </r>
       <r>   -8.1175    1.0000 </r>
       <r>   -8.0731    1.0000 </r>
       <r>   -7.8093    1.0000 </r>
       <r>   -7.7810    1.0000 </r>
       <r>   -7.3640    1.0000 </r>
       <r>   -7.0762    1.0000 </r>
       <r>   -6.7451    1.0000 </r>
       <r>   -6.7008    1.0000 </r>
       <r>   -6.6604    1.0000 </r>
       <r>   -6.2980    1.0000 </r>
       <r>   -5.3495    1.0000 </r>
       <r>   -5.2777    1.0000 </r>
       <r>   -4.9798    1.0000 </r>
       <r>   -4.7932    1.0000 </r>
       <r>   -4.5041    1.0000 </r>
       <r>   -4.2720    1.0000 </r>
       <r>   -4.1330    1.0000 </r>
       <r>   -3.9456    1.0000 </r>
       <r>   -3.8658    1.0000 </r>
       <r>   -3.6491    1.0000 </r>
       <r>   -3.3643    1.0000 </r>
       <r>   -3.3439    1.0000 </r>
       <r>   -3.2731    1.0000 </r>
       <r>   -3.2005    1.0000 </r>
       <r>   -3.1233    1.0000 </r>
       <r>   -2.9246    1.0000 </r>
       <r>   -2.7215    1.0000 </r>
       <r>   -2.6172    1.0000 </r>
       <r>   -2.5541    1.0000 </r>
       <r>   -2.4394    1.0000 </r>
       <r>   -2.3390    1.0000 </r>
       <r>   -2.2046    1.0000 </r>
       <r>   -2.0984    1.0000 </r>
       <r>   -2.0875    1.0000 </r>
       <r>   -1.9398    1.0000 </r>
       <r>   -1.8331    1.0000 </r>
       <r>   -1.6597    1.0000 </r>
       <r>   -1.4339    1.0000 </r>
       <r>   -1.3347    1.0000 </r>
       <r>   -1.0316    1.0000 </r>
       <r>    0.4239    0.0002 </r>
       <r>    0.6511    0.0000 </r>
       <r>    0.9580    0.0000 </r>
       <r>    1.1984    0.0000 </r>
       <r>    1.3257    0.0000 </r>
       <r>    1.5778    0.0000 </r>
       <r>    1.8202    0.0000 </r>
       <r>    1.9620    0.0000 </r>
       <r>    2.0849    0.0000 </r>
       <r>    2.1340    0.0000 </r>
       <r>    2.5825    0.0000 </r>
       <r>    2.6407    0.0000 </r>
       <r>    2.7600    0.0000 </r>
       <r>    2.8835    0.0000 </r>
      </set>
      <set comment="kpoint 14">
       <r>  -11.9635    1.0000 </r>
       <r>  -11.4355    1.0000 </r>
       <r>  -11.2672    1.0000 </r>
       <r>  -11.2103    1.0000 </r>
       <r>  -10.9624    1.0000 </r>
       <r>  -10.9041    1.0000 </r>
       <r>  -10.8719    1.0000 </r>
       <r>  -10.7243    1.0000 </r>
       <r>  -10.7005    1.0000 </r>
       <r>  -10.5891    1.0000 </r>
       <r>  -10.5592    1.0000 </r>
       <r>   -9.6325    1.0000 </r>
       <r>   -8.9589    1.0000 </r>
       <r>   -8.5606    1.0000 </r>
       <r>   -8.4445    1.0000 </r>
       <r>   -8.4047    1.0000 </r>
       <r>   -8.3310    1.0000 </r>
       <r>   -8.1961    1.0000 </r>
       <r>   -7.5234    1.0000 </r>
       <r>   -7.3235    1.0000 </r>
       <r>   -7.2446    1.0000 </r>
       <r>   -7.1469    1.0000 </r>
       <r>   -7.1083    1.0000 </r>
       <r>   -6.8280    1.0000 </r>
       <r>   -5.0263    1.0000 </r>
       <r>   -4.9802    1.0000 </r>
       <r>   -4.7235    1.0000 </r>
       <r>   -4.4801    1.0000 </r>
       <r>   -4.2924    1.0000 </r>
       <r>   -4.2177    1.0000 </r>
       <r>   -4.1398    1.0000 </r>
       <r>   -3.9471    1.0000 </r>
       <r>   -3.8739    1.0000 </r>
       <r>   -3.7304    1.0000 </r>
       <r>   -3.6633    1.0000 </r>
       <r>   -3.5120    1.0000 </r>
       <r>   -3.4060    1.0000 </r>
       <r>   -3.2907    1.0000 </r>
       <r>   -3.2490    1.0000 </r>
       <r>   -2.9959    1.0000 </r>
       <r>   -2.8843    1.0000 </r>
       <r>   -2.6764    1.0000 </r>
       <r>   -2.6083    1.0000 </r>
       <r>   -2.5456    1.0000 </r>
       <r>   -2.4454    1.0000 </r>
       <r>   -2.2161    1.0000 </r>
       <r>   -2.1921    1.0000 </r>
       <r>   -2.1316    1.0000 </r>
       <r>   -2.0210    1.0000 </r>
       <r>   -1.8779    1.0000 </r>
       <r>   -1.6814    1.0000 </r>
       <r>   -1.5849    1.0000 </r>
       <r>   -1.4932    1.0000 </r>
       <r>   -1.0286    1.0000 </r>
       <r>    0.4182    0.0002 </r>
       <r>    0.7391    0.0000 </r>
       <r>    1.0109    0.0000 </r>
       <r>    1.4011    0.0000 </r>
       <r>    1.4826    0.0000 </r>
       <r>    1.5352    0.0000 </r>
       <r>    1.5636    0.0000 </r>
       <r>    1.7857    0.0000 </r>
       <r>    1.9246    0.0000 </r>
       <r>    2.1190    0.0000 </r>
       <r>    2.4344    0.0000 </r>
       <r>    2.4631    0.0000 </r>
       <r>    2.6845    0.0000 </r>
       <r>    2.7272    0.0000 </r>
      </set>
      <set comment="kpoint 15">
       <r>  -11.9738    1.0000 </r>
       <r>  -11.5398    1.0000 </r>
       <r>  -11.1971    1.0000 </r>
       <r>  -11.0732    1.0000 </r>
       <r>  -10.9346    1.0000 </r>
       <r>  -10.8581    1.0000 </r>
       <r>  -10.8190    1.0000 </r>
       <r>  -10.7584    1.0000 </r>
       <r>  -10.7215    1.0000 </r>
       <r>  -10.7023    1.0000 </r>
       <r>  -10.6067    1.0000 </r>
       <r>   -9.6208    1.0000 </r>
       <r>   -9.1275    1.0000 </r>
       <r>   -8.7619    1.0000 </r>
       <r>   -8.4393    1.0000 </r>
       <r>   -8.3975    1.0000 </r>
       <r>   -7.9493    1.0000 </r>
       <r>   -7.9367    1.0000 </r>
       <r>   -7.6101    1.0000 </r>
       <r>   -7.4214    1.0000 </r>
       <r>   -7.2837    1.0000 </r>
       <r>   -7.2266    1.0000 </r>
       <r>   -7.2121    1.0000 </r>
       <r>   -6.7005    1.0000 </r>
       <r>   -4.9767    1.0000 </r>
       <r>   -4.7340    1.0000 </r>
       <r>   -4.5884    1.0000 </r>
       <r>   -4.5242    1.0000 </r>
       <r>   -4.3628    1.0000 </r>
       <r>   -4.3379    1.0000 </r>
       <r>   -4.0518    1.0000 </r>
       <r>   -4.0117    1.0000 </r>
       <r>   -3.9808    1.0000 </r>
       <r>   -3.8871    1.0000 </r>
       <r>   -3.6706    1.0000 </r>
       <r>   -3.6532    1.0000 </r>
       <r>   -3.5396    1.0000 </r>
       <r>   -3.3941    1.0000 </r>
       <r>   -3.3323    1.0000 </r>
       <r>   -2.9778    1.0000 </r>
       <r>   -2.8125    1.0000 </r>
       <r>   -2.7031    1.0000 </r>
       <r>   -2.5991    1.0000 </r>
       <r>   -2.5248    1.0000 </r>
       <r>   -2.3904    1.0000 </r>
       <r>   -2.1850    1.0000 </r>
       <r>   -2.1791    1.0000 </r>
       <r>   -2.0661    1.0000 </r>
       <r>   -1.9362    1.0000 </r>
       <r>   -1.8066    1.0000 </r>
       <r>   -1.6991    1.0000 </r>
       <r>   -1.4962    1.0000 </r>
       <r>   -1.4619    1.0000 </r>
       <r>   -1.0370    1.0000 </r>
       <r>    0.4910    0.0000 </r>
       <r>    0.7889    0.0000 </r>
       <r>    1.0549    0.0000 </r>
       <r>    1.3536    0.0000 </r>
       <r>    1.5623    0.0000 </r>
       <r>    1.6837    0.0000 </r>
       <r>    1.7436    0.0000 </r>
       <r>    1.7975    0.0000 </r>
       <r>    2.0217    0.0000 </r>
       <r>    2.2187    0.0000 </r>
       <r>    2.3528    0.0000 </r>
       <r>    2.4996    0.0000 </r>
       <r>    2.5359    0.0000 </r>
       <r>    2.6117    0.0000 </r>
      </set>
      <set comment="kpoint 16">
       <r>  -12.4479    1.0000 </r>
       <r>  -12.1064    1.0000 </r>
       <r>  -11.4888    1.0000 </r>
       <r>  -11.3892    1.0000 </r>
       <r>  -11.2534    1.0000 </r>
       <r>  -11.0633    1.0000 </r>
       <r>  -10.9752    1.0000 </r>
       <r>  -10.9215    1.0000 </r>
       <r>  -10.6383    1.0000 </r>
       <r>  -10.5342    1.0000 </r>
       <r>  -10.4551    1.0000 </r>
       <r>   -9.7758    1.0000 </r>
       <r>   -8.9381    1.0000 </r>
       <r>   -8.7464    1.0000 </r>
       <r>   -8.4954    1.0000 </r>
       <r>   -8.2104    1.0000 </r>
       <r>   -7.4531    1.0000 </r>
       <r>   -7.3967    1.0000 </r>
       <r>   -7.3359    1.0000 </r>
       <r>   -7.2556    1.0000 </r>
       <r>   -6.8823    1.0000 </r>
       <r>   -6.8128    1.0000 </r>
       <r>   -6.6706    1.0000 </r>
       <r>   -6.1916    1.0000 </r>
       <r>   -5.2191    1.0000 </r>
       <r>   -5.0565    1.0000 </r>
       <r>   -4.8618    1.0000 </r>
       <r>   -4.7409    1.0000 </r>
       <r>   -4.4175    1.0000 </r>
       <r>   -4.3718    1.0000 </r>
       <r>   -4.2505    1.0000 </r>
       <r>   -4.0991    1.0000 </r>
       <r>   -4.0486    1.0000 </r>
       <r>   -3.8072    1.0000 </r>
       <r>   -3.7256    1.0000 </r>
       <r>   -3.5781    1.0000 </r>
       <r>   -3.4098    1.0000 </r>
       <r>   -3.2204    1.0000 </r>
       <r>   -3.1786    1.0000 </r>
       <r>   -3.0131    1.0000 </r>
       <r>   -2.7520    1.0000 </r>
       <r>   -2.5498    1.0000 </r>
       <r>   -2.5022    1.0000 </r>
       <r>   -2.3498    1.0000 </r>
       <r>   -2.2690    1.0000 </r>
       <r>   -2.1715    1.0000 </r>
       <r>   -1.9574    1.0000 </r>
       <r>   -1.9488    1.0000 </r>
       <r>   -1.8152    1.0000 </r>
       <r>   -1.7487    1.0000 </r>
       <r>   -1.6395    1.0000 </r>
       <r>   -1.3885    1.0000 </r>
       <r>   -1.2282    1.0000 </r>
       <r>   -1.0360    1.0000 </r>
       <r>    0.6229    0.0000 </r>
       <r>    0.8216    0.0000 </r>
       <r>    1.0775    0.0000 </r>
       <r>    1.3668    0.0000 </r>
       <r>    1.6606    0.0000 </r>
       <r>    1.7832    0.0000 </r>
       <r>    1.8867    0.0000 </r>
       <r>    2.1022    0.0000 </r>
       <r>    2.2466    0.0000 </r>
       <r>    2.2606    0.0000 </r>
       <r>    2.3863    0.0000 </r>
       <r>    2.4349    0.0000 </r>
       <r>    2.6043    0.0000 </r>
       <r>    2.7045    0.0000 </r>
      </set>
      <set comment="kpoint 17">
       <r>  -12.9285    1.0000 </r>
       <r>  -12.6005    1.0000 </r>
       <r>  -11.9512    1.0000 </r>
       <r>  -11.8202    1.0000 </r>
       <r>  -11.6535    1.0000 </r>
       <r>  -11.3862    1.0000 </r>
       <r>  -11.3039    1.0000 </r>
       <r>  -11.2300    1.0000 </r>
       <r>  -10.7815    1.0000 </r>
       <r>  -10.6108    1.0000 </r>
       <r>  -10.4253    1.0000 </r>
       <r>  -10.0673    1.0000 </r>
       <r>   -8.5596    1.0000 </r>
       <r>   -8.4633    1.0000 </r>
       <r>   -8.1915    1.0000 </r>
       <r>   -7.7168    1.0000 </r>
       <r>   -7.1985    1.0000 </r>
       <r>   -7.0049    1.0000 </r>
       <r>   -6.8838    1.0000 </r>
       <r>   -6.7870    1.0000 </r>
       <r>   -6.2453    1.0000 </r>
       <r>   -6.1599    1.0000 </r>
       <r>   -5.9778    1.0000 </r>
       <r>   -5.7477    1.0000 </r>
       <r>   -5.1587    1.0000 </r>
       <r>   -5.0419    1.0000 </r>
       <r>   -4.9103    1.0000 </r>
       <r>   -4.8517    1.0000 </r>
       <r>   -4.6480    1.0000 </r>
       <r>   -4.4021    1.0000 </r>
       <r>   -4.3064    1.0000 </r>
       <r>   -4.2462    1.0000 </r>
       <r>   -4.1981    1.0000 </r>
       <r>   -3.9597    1.0000 </r>
       <r>   -3.4901    1.0000 </r>
       <r>   -3.4447    1.0000 </r>
       <r>   -3.1938    1.0000 </r>
       <r>   -3.1012    1.0000 </r>
       <r>   -3.0463    1.0000 </r>
       <r>   -2.8854    1.0000 </r>
       <r>   -2.7860    1.0000 </r>
       <r>   -2.6104    1.0000 </r>
       <r>   -2.3181    1.0000 </r>
       <r>   -2.0964    1.0000 </r>
       <r>   -2.0198    1.0000 </r>
       <r>   -1.9740    1.0000 </r>
       <r>   -1.8758    1.0000 </r>
       <r>   -1.8447    1.0000 </r>
       <r>   -1.7201    1.0000 </r>
       <r>   -1.5311    1.0000 </r>
       <r>   -1.4041    1.0000 </r>
       <r>   -1.2857    1.0000 </r>
       <r>   -1.0802    1.0000 </r>
       <r>   -0.6768    1.0000 </r>
       <r>    0.5975    0.0000 </r>
       <r>    0.9259    0.0000 </r>
       <r>    1.1740    0.0000 </r>
       <r>    1.5934    0.0000 </r>
       <r>    1.7108    0.0000 </r>
       <r>    1.9342    0.0000 </r>
       <r>    1.9956    0.0000 </r>
       <r>    2.2469    0.0000 </r>
       <r>    2.3127    0.0000 </r>
       <r>    2.4073    0.0000 </r>
       <r>    2.6542    0.0000 </r>
       <r>    2.7310    0.0000 </r>
       <r>    2.7791    0.0000 </r>
       <r>    3.0436    0.0000 </r>
      </set>
      <set comment="kpoint 18">
       <r>  -13.3270    1.0000 </r>
       <r>  -12.9958    1.0000 </r>
       <r>  -12.3558    1.0000 </r>
       <r>  -12.2077    1.0000 </r>
       <r>  -12.0063    1.0000 </r>
       <r>  -11.7351    1.0000 </r>
       <r>  -11.5967    1.0000 </r>
       <r>  -11.5250    1.0000 </r>
       <r>  -11.0375    1.0000 </r>
       <r>  -10.8231    1.0000 </r>
       <r>  -10.6041    1.0000 </r>
       <r>  -10.3700    1.0000 </r>
       <r>   -8.4038    1.0000 </r>
       <r>   -7.9945    1.0000 </r>
       <r>   -7.7871    1.0000 </r>
       <r>   -7.2765    1.0000 </r>
       <r>   -7.1017    1.0000 </r>
       <r>   -6.7049    1.0000 </r>
       <r>   -6.6449    1.0000 </r>
       <r>   -6.5180    1.0000 </r>
       <r>   -5.7472    1.0000 </r>
       <r>   -5.6979    1.0000 </r>
       <r>   -5.4290    1.0000 </r>
       <r>   -5.3378    1.0000 </r>
       <r>   -4.8453    1.0000 </r>
       <r>   -4.7401    1.0000 </r>
       <r>   -4.6070    1.0000 </r>
       <r>   -4.5229    1.0000 </r>
       <r>   -4.4171    1.0000 </r>
       <r>   -4.1982    1.0000 </r>
       <r>   -4.1455    1.0000 </r>
       <r>   -3.9791    1.0000 </r>
       <r>   -3.8073    1.0000 </r>
       <r>   -3.7726    1.0000 </r>
       <r>   -3.5029    1.0000 </r>
       <r>   -3.4530    1.0000 </r>
       <r>   -3.2140    1.0000 </r>
       <r>   -3.1127    1.0000 </r>
       <r>   -2.9864    1.0000 </r>
       <r>   -2.7221    1.0000 </r>
       <r>   -2.6008    1.0000 </r>
       <r>   -2.4558    1.0000 </r>
       <r>   -2.3701    1.0000 </r>
       <r>   -2.0777    1.0000 </r>
       <r>   -1.9183    1.0000 </r>
       <r>   -1.8554    1.0000 </r>
       <r>   -1.7795    1.0000 </r>
       <r>   -1.7176    1.0000 </r>
       <r>   -1.4786    1.0000 </r>
       <r>   -1.3933    1.0000 </r>
       <r>   -1.0911    1.0000 </r>
       <r>   -0.9754    1.0000 </r>
       <r>   -0.7210    1.0000 </r>
       <r>   -0.2106    1.0000 </r>
       <r>    0.4233    0.0002 </r>
       <r>    1.0342    0.0000 </r>
       <r>    1.3657    0.0000 </r>
       <r>    1.7676    0.0000 </r>
       <r>    1.8548    0.0000 </r>
       <r>    2.0107    0.0000 </r>
       <r>    2.2493    0.0000 </r>
       <r>    2.3674    0.0000 </r>
       <r>    2.6200    0.0000 </r>
       <r>    2.7238    0.0000 </r>
       <r>    2.9025    0.0000 </r>
       <r>    2.9356    0.0000 </r>
       <r>    3.0103    0.0000 </r>
       <r>    3.1328    0.0000 </r>
      </set>
      <set comment="kpoint 19">
       <r>  -13.6194    1.0000 </r>
       <r>  -13.2796    1.0000 </r>
       <r>  -12.6711    1.0000 </r>
       <r>  -12.5077    1.0000 </r>
       <r>  -12.2732    1.0000 </r>
[...]
       <r>    2.9028    0.0000 </r>
      </set>
      <set comment="kpoint 54">
       <r>  -11.9686    1.0000 </r>
       <r>  -11.4947    1.0000 </r>
       <r>  -11.1930    1.0000 </r>
       <r>  -11.1715    1.0000 </r>
       <r>  -10.9520    1.0000 </r>
       <r>  -10.9009    1.0000 </r>
       <r>  -10.8585    1.0000 </r>
       <r>  -10.7328    1.0000 </r>
       <r>  -10.7212    1.0000 </r>
       <r>  -10.6297    1.0000 </r>
       <r>  -10.5661    1.0000 </r>
       <r>   -9.6343    1.0000 </r>
       <r>   -9.0045    1.0000 </r>
       <r>   -8.6707    1.0000 </r>
       <r>   -8.4468    1.0000 </r>
       <r>   -8.4261    1.0000 </r>
       <r>   -8.1267    1.0000 </r>
       <r>   -8.1118    1.0000 </r>
       <r>   -7.5671    1.0000 </r>
       <r>   -7.3800    1.0000 </r>
       <r>   -7.2930    1.0000 </r>
       <r>   -7.1752    1.0000 </r>
       <r>   -7.1076    1.0000 </r>
       <r>   -6.7412    1.0000 </r>
       <r>   -4.9692    1.0000 </r>
       <r>   -4.9359    1.0000 </r>
       <r>   -4.6528    1.0000 </r>
       <r>   -4.4866    1.0000 </r>
       <r>   -4.3656    1.0000 </r>
       <r>   -4.2696    1.0000 </r>
       <r>   -4.0876    1.0000 </r>
       <r>   -3.9769    1.0000 </r>
       <r>   -3.9252    1.0000 </r>
       <r>   -3.7759    1.0000 </r>
       <r>   -3.7476    1.0000 </r>
       <r>   -3.5706    1.0000 </r>
       <r>   -3.4294    1.0000 </r>
       <r>   -3.2681    1.0000 </r>
       <r>   -3.2462    1.0000 </r>
       <r>   -3.0274    1.0000 </r>
       <r>   -2.9069    1.0000 </r>
       <r>   -2.7132    1.0000 </r>
       <r>   -2.5708    1.0000 </r>
       <r>   -2.4846    1.0000 </r>
       <r>   -2.3829    1.0000 </r>
       <r>   -2.2228    1.0000 </r>
       <r>   -2.1713    1.0000 </r>
       <r>   -2.1098    1.0000 </r>
       <r>   -1.9367    1.0000 </r>
       <r>   -1.9100    1.0000 </r>
       <r>   -1.7098    1.0000 </r>
       <r>   -1.5602    1.0000 </r>
       <r>   -1.5006    1.0000 </r>
       <r>   -1.0084    1.0000 </r>
       <r>    0.3617    0.0031 </r>
       <r>    0.7603    0.0000 </r>
       <r>    1.1175    0.0000 </r>
       <r>    1.3342    0.0000 </r>
       <r>    1.4554    0.0000 </r>
       <r>    1.5908    0.0000 </r>
       <r>    1.6908    0.0000 </r>
       <r>    1.8738    0.0000 </r>
       <r>    2.0244    0.0000 </r>
       <r>    2.1281    0.0000 </r>
       <r>    2.3473    0.0000 </r>
       <r>    2.3848    0.0000 </r>
       <r>    2.5123    0.0000 </r>
       <r>    2.7266    0.0000 </r>
      </set>
     </set>
    </set>
   </array>
  </eigenvalues>
  <separator name="orbital magnetization" >
   <v name="MAGDIPOLOUT">      0.00000000      0.00000000      0.00000000</v>
  </separator>
  <dos>
   <i name="efermi">      0.16852508 </i>
   <total>
    <array>
     <dimension dim="1">gridpoints</dimension>
     <dimension dim="2">spin</dimension>
     <field>energy</field>
     <field>total</field>
     <field>integrated</field>
     <set>
      <set comment="spin 1">
       <r>   -14.8673     0.0000     0.0000 </r>
       <r>   -14.8036     0.0000     0.0000 </r>
       <r>   -14.7399     0.0000     0.0000 </r>
       <r>   -14.6761     0.0000     0.0000 </r>
       <r>   -14.6124     0.0000     0.0000 </r>
       <r>   -14.5487     0.0000     0.0000 </r>
       <r>   -14.4850     0.0000     0.0000 </r>
       <r>   -14.4213     0.0000     0.0000 </r>
       <r>   -14.3575     0.0000     0.0000 </r>
       <r>   -14.2938     0.0000     0.0000 </r>
       <r>   -14.2301     0.0000     0.0000 </r>
       <r>   -14.1664     0.0000     0.0000 </r>
       <r>   -14.1027     0.0006     0.0000 </r>
       <r>   -14.0390     0.0118     0.0008 </r>
       <r>   -13.9752     0.1176     0.0083 </r>
       <r>   -13.9115     0.5974     0.0463 </r>
       <r>   -13.8478     1.6081     0.1488 </r>
       <r>   -13.7841     2.3518     0.2987 </r>
       <r>   -13.7204     2.0461     0.4290 </r>
       <r>   -13.6566     1.7215     0.5387 </r>
       <r>   -13.5929     2.0621     0.6701 </r>
       <r>   -13.5292     2.2256     0.8119 </r>
       <r>   -13.4655     2.2536     0.9555 </r>
       <r>   -13.4018     2.5944     1.1208 </r>
       <r>   -13.3380     3.2585     1.3285 </r>
       <r>   -13.2743     3.5032     1.5517 </r>
       <r>   -13.2106     2.7305     1.7257 </r>
       <r>   -13.1469     1.8528     1.8437 </r>
       <r>   -13.0832     1.5550     1.9428 </r>
       <r>   -13.0195     2.1829     2.0819 </r>
       <r>   -12.9557     3.7886     2.3233 </r>
       <r>   -12.8920     5.0462     2.6449 </r>
       <r>   -12.8283     4.7578     2.9480 </r>
       <r>   -12.7646     3.8356     3.1924 </r>
       <r>   -12.7009     3.4734     3.4137 </r>
       <r>   -12.6371     4.0219     3.6700 </r>
       <r>   -12.5734     5.0374     3.9910 </r>
       <r>   -12.5097     5.8861     4.3660 </r>
       <r>   -12.4460     6.5065     4.7806 </r>
       <r>   -12.3823     6.0294     5.1648 </r>
       <r>   -12.3186     5.0878     5.4890 </r>
       <r>   -12.2548     5.2783     5.8253 </r>
       <r>   -12.1911     5.9724     6.2059 </r>
       <r>   -12.1274     6.0418     6.5908 </r>
       <r>   -12.0637     6.5834     7.0103 </r>
       <r>   -12.0000     8.7229     7.5661 </r>
       <r>   -11.9362     9.6313     8.1798 </r>
       <r>   -11.8725     7.9909     8.6890 </r>
       <r>   -11.8088     6.6941     9.1155 </r>
       <r>   -11.7451     6.6113     9.5368 </r>
       <r>   -11.6814     6.7402     9.9663 </r>
       <r>   -11.6176     6.8047    10.3999 </r>
       <r>   -11.5539     7.1226    10.8537 </r>
       <r>   -11.4902     8.1852    11.3752 </r>
       <r>   -11.4265     9.0378    11.9511 </r>
       <r>   -11.3628     8.5772    12.4976 </r>
       <r>   -11.2991     8.6494    13.0488 </r>
       <r>   -11.2353    10.1700    13.6968 </r>
       <r>   -11.1716    10.3871    14.3586 </r>
       <r>   -11.1079     9.4657    14.9618 </r>
       <r>   -11.0442     9.8326    15.5883 </r>
       <r>   -10.9805    10.9171    16.2839 </r>
       <r>   -10.9167    11.7506    17.0327 </r>
       <r>   -10.8530    12.9285    17.8564 </r>
       <r>   -10.7893    13.7302    18.7313 </r>
       <r>   -10.7256    12.7781    19.5455 </r>
       <r>   -10.6619    11.9374    20.3061 </r>
       <r>   -10.5982    12.1671    21.0814 </r>
       <r>   -10.5344    10.4248    21.7457 </r>
       <r>   -10.4707     7.5290    22.2254 </r>
       <r>   -10.4070     6.0343    22.6099 </r>
       <r>   -10.3433     4.4706    22.8948 </r>
       <r>   -10.2796     2.1859    23.0340 </r>
       <r>   -10.2158     0.6710    23.0768 </r>
       <r>   -10.1521     0.5485    23.1117 </r>
       <r>   -10.0884     1.2879    23.1938 </r>
       <r>   -10.0247     1.6587    23.2995 </r>
       <r>    -9.9610     1.0301    23.3651 </r>
       <r>    -9.8972     0.4841    23.3960 </r>
       <r>    -9.8335     0.8591    23.4507 </r>
       <r>    -9.7698     1.6819    23.5579 </r>
       <r>    -9.7061     1.9820    23.6842 </r>
       <r>    -9.6424     1.9831    23.8105 </r>
       <r>    -9.5787     1.7583    23.9226 </r>
       <r>    -9.5149     0.9360    23.9822 </r>
       <r>    -9.4512     0.2465    23.9979 </r>
       <r>    -9.3875     0.0308    23.9999 </r>
       <r>    -9.3238     0.0055    24.0002 </r>
       <r>    -9.2601     0.0432    24.0030 </r>
       <r>    -9.1963     0.2420    24.0184 </r>
       <r>    -9.1326     0.7214    24.0644 </r>
       <r>    -9.0689     1.4545    24.1571 </r>
       <r>    -9.0052     2.6775    24.3277 </r>
       <r>    -8.9415     4.0027    24.5827 </r>
       <r>    -8.8778     4.0205    24.8389 </r>
       <r>    -8.8140     3.4534    25.0589 </r>
       <r>    -8.7503     3.8052    25.3014 </r>
       <r>    -8.6866     4.3247    25.5770 </r>
       <r>    -8.6229     4.2765    25.8495 </r>
       <r>    -8.5592     4.1480    26.1138 </r>
       <r>    -8.4954     4.9121    26.4268 </r>
       <r>    -8.4317     6.4479    26.8376 </r>
       <r>    -8.3680     6.4145    27.2463 </r>
       <r>    -8.3043     4.5208    27.5344 </r>
       <r>    -8.2406     3.7012    27.7702 </r>
       <r>    -8.1769     4.6015    28.0634 </r>
       <r>    -8.1131     5.4037    28.4078 </r>
       <r>    -8.0494     5.3253    28.7471 </r>
       <r>    -7.9857     4.8977    29.0591 </r>
       <r>    -7.9220     4.8190    29.3662 </r>
       <r>    -7.8583     5.1483    29.6942 </r>
       <r>    -7.7945     5.7088    30.0580 </r>
       <r>    -7.7308     5.7184    30.4224 </r>
       <r>    -7.6671     5.1047    30.7476 </r>
       <r>    -7.6034     4.8113    31.0542 </r>
       <r>    -7.5397     5.4671    31.4026 </r>
       <r>    -7.4759     6.8543    31.8393 </r>
       <r>    -7.4122     8.7197    32.3949 </r>
       <r>    -7.3485    10.7956    33.0828 </r>
       <r>    -7.2848    12.2334    33.8623 </r>
       <r>    -7.2211    11.7592    34.6116 </r>
       <r>    -7.1574     9.6075    35.2237 </r>
       <r>    -7.0936     7.1216    35.6775 </r>
       <r>    -7.0299     5.0006    35.9962 </r>
       <r>    -6.9662     4.2779    36.2687 </r>
       <r>    -6.9025     5.5460    36.6221 </r>
       <r>    -6.8388     8.2062    37.1450 </r>
       <r>    -6.7750    11.4746    37.8761 </r>
       <r>    -6.7113    14.2895    38.7867 </r>
       <r>    -6.6476    14.1038    39.6853 </r>
       <r>    -6.5839    10.6073    40.3612 </r>
       <r>    -6.5202     7.5775    40.8440 </r>
       <r>    -6.4565     5.9285    41.2218 </r>
       <r>    -6.3927     4.5409    41.5111 </r>
       <r>    -6.3290     4.4808    41.7966 </r>
       <r>    -6.2653     5.5481    42.1502 </r>
       <r>    -6.2016     5.8299    42.5216 </r>
       <r>    -6.1379     4.5235    42.8099 </r>
       <r>    -6.0741     2.7123    42.9827 </r>
       <r>    -6.0104     2.0344    43.1123 </r>
       <r>    -5.9467     2.4589    43.2690 </r>
       <r>    -5.8830     3.0827    43.4654 </r>
       <r>    -5.8193     4.0032    43.7205 </r>
       <r>    -5.7555     5.6094    44.0779 </r>
       <r>    -5.6918     6.9629    44.5216 </r>
       <r>    -5.6281     7.0466    44.9706 </r>
       <r>    -5.5644     5.9653    45.3507 </r>
       <r>    -5.5007     4.2895    45.6240 </r>
       <r>    -5.4370     3.3864    45.8398 </r>
       <r>    -5.3732     4.3521    46.1171 </r>
       <r>    -5.3095     5.9530    46.4964 </r>
       <r>    -5.2458     6.3216    46.8992 </r>
       <r>    -5.1821     5.2423    47.2332 </r>
       <r>    -5.1184     3.9627    47.4857 </r>
       <r>    -5.0546     4.5900    47.7782 </r>
       <r>    -4.9909     7.1255    48.2322 </r>
       <r>    -4.9272     9.6397    48.8464 </r>
       <r>    -4.8635    10.7667    49.5325 </r>
       <r>    -4.7998    10.0888    50.1753 </r>
       <r>    -4.7361     9.1910    50.7610 </r>
       <r>    -4.6723     9.1009    51.3409 </r>
       <r>    -4.6086     8.8071    51.9020 </r>
       <r>    -4.5449     8.9404    52.4717 </r>
       <r>    -4.4812    10.2068    53.1221 </r>
       <r>    -4.4175    11.6061    53.8616 </r>
       <r>    -4.3537    12.6237    54.6660 </r>
       <r>    -4.2900    13.0738    55.4990 </r>
       <r>    -4.2263    12.9271    56.3227 </r>
       <r>    -4.1626    13.0089    57.1516 </r>
       <r>    -4.0989    14.1911    58.0558 </r>
       <r>    -4.0351    15.4905    59.0429 </r>
       <r>    -3.9714    15.0996    60.0050 </r>
       <r>    -3.9077    13.0119    60.8341 </r>
       <r>    -3.8440    11.5496    61.5700 </r>
       <r>    -3.7803    12.0881    62.3402 </r>
       <r>    -3.7166    12.9248    63.1638 </r>
       <r>    -3.6528    13.0524    63.9955 </r>
       <r>    -3.5891    12.6013    64.7984 </r>
       <r>    -3.5254    12.3715    65.5867 </r>
       <r>    -3.4617    13.3977    66.4404 </r>
       <r>    -3.3980    14.9637    67.3938 </r>
       <r>    -3.3342    15.4172    68.3762 </r>
       <r>    -3.2705    14.8615    69.3232 </r>
       <r>    -3.2068    15.0438    70.2817 </r>
       <r>    -3.1431    15.2872    71.2558 </r>
       <r>    -3.0794    14.8792    72.2039 </r>
       <r>    -3.0157    15.3096    73.1794 </r>
       <r>    -2.9519    16.5600    74.2346 </r>
       <r>    -2.8882    16.8692    75.3094 </r>
       <r>    -2.8245    15.6104    76.3041 </r>
       <r>    -2.7608    13.8554    77.1870 </r>
       <r>    -2.6971    13.0414    78.0179 </r>
       <r>    -2.6333    13.8865    78.9028 </r>
       <r>    -2.5696    16.0614    79.9262 </r>
       <r>    -2.5059    17.1723    81.0204 </r>
       <r>    -2.4422    16.8869    82.0964 </r>
       <r>    -2.3785    17.0988    83.1859 </r>
       <r>    -2.3147    16.7104    84.2507 </r>
       <r>    -2.2510    15.4736    85.2366 </r>
       <r>    -2.1873    16.4085    86.2821 </r>
       <r>    -2.1236    18.5683    87.4653 </r>
       <r>    -2.0599    19.1717    88.6869 </r>
       <r>    -1.9962    19.4570    89.9266 </r>
       <r>    -1.9324    20.3771    91.2250 </r>
       <r>    -1.8687    20.6535    92.5411 </r>
       <r>    -1.8050    19.7697    93.8007 </r>
       <r>    -1.7413    18.1601    94.9579 </r>
       <r>    -1.6776    15.3902    95.9385 </r>
       <r>    -1.6138    12.4490    96.7317 </r>
       <r>    -1.5501    11.8096    97.4842 </r>
       <r>    -1.4864    13.1397    98.3215 </r>
       <r>    -1.4227    14.7364    99.2605 </r>
       <r>    -1.3590    14.4674   100.1823 </r>
       <r>    -1.2953    11.6132   100.9223 </r>
       <r>    -1.2315     8.8130   101.4838 </r>
       <r>    -1.1678     8.1548   102.0034 </r>
       <r>    -1.1041     9.0597   102.5807 </r>
       <r>    -1.0404     9.8860   103.2106 </r>
       <r>    -0.9767     9.5926   103.8219 </r>
       <r>    -0.9129     8.0775   104.3365 </r>
       <r>    -0.8492     5.4786   104.6856 </r>
       <r>    -0.7855     4.0681   104.9448 </r>
       <r>    -0.7218     5.3046   105.2828 </r>
       <r>    -0.6581     6.3010   105.6843 </r>
       <r>    -0.5944     4.7524   105.9871 </r>
       <r>    -0.5306     2.5437   106.1492 </r>
       <r>    -0.4669     1.5748   106.2496 </r>
       <r>    -0.4032     1.8049   106.3646 </r>
       <r>    -0.3395     3.0160   106.5568 </r>
       <r>    -0.2758     3.9413   106.8079 </r>
       <r>    -0.2120     3.4326   107.0266 </r>
       <r>    -0.1483     2.1491   107.1636 </r>
       <r>    -0.0846     1.0573   107.2309 </r>
       <r>    -0.0209     1.1838   107.3064 </r>
       <r>     0.0428     2.7314   107.4804 </r>
       <r>     0.1066     4.1927   107.7475 </r>
       <r>     0.1703     4.0609   108.0063 </r>
       <r>     0.2340     3.2357   108.2125 </r>
       <r>     0.2977     3.4190   108.4303 </r>
       <r>     0.3614     4.6519   108.7267 </r>
       <r>     0.4251     5.5341   109.0794 </r>
       <r>     0.4889     5.1706   109.4088 </r>
       <r>     0.5526     4.5193   109.6968 </r>
       <r>     0.6163     4.5069   109.9840 </r>
       <r>     0.6800     4.3088   110.2585 </r>
       <r>     0.7437     4.1085   110.5203 </r>
       <r>     0.8075     4.9074   110.8330 </r>
       <r>     0.8712     5.6817   111.1950 </r>
       <r>     0.9349     5.5881   111.5511 </r>
       <r>     0.9986     5.9604   111.9309 </r>
       <r>     1.0623     6.9502   112.3737 </r>
       <r>     1.1260     6.8847   112.8124 </r>
       <r>     1.1898     5.9809   113.1935 </r>
       <r>     1.2535     5.9177   113.5706 </r>
       <r>     1.3172     7.0155   114.0176 </r>
       <r>     1.3809     7.8943   114.5206 </r>
       <r>     1.4446     7.5840   115.0038 </r>
       <r>     1.5084     7.6743   115.4928 </r>
       <r>     1.5721     9.2776   116.0840 </r>
       <r>     1.6358    10.9762   116.7834 </r>
       <r>     1.6995    11.9180   117.5428 </r>
       <r>     1.7632    12.4334   118.3350 </r>
       <r>     1.8270    12.2066   119.1128 </r>
       <r>     1.8907    11.4953   119.8452 </r>
       <r>     1.9544    11.1570   120.5561 </r>
       <r>     2.0181    11.5578   121.2926 </r>
       <r>     2.0818    11.9803   122.0560 </r>
       <r>     2.1455    12.0688   122.8250 </r>
       <r>     2.2093    12.7243   123.6357 </r>
       <r>     2.2730    13.7573   124.5123 </r>
       <r>     2.3367    13.7592   125.3890 </r>
       <r>     2.4004    13.1219   126.2252 </r>
       <r>     2.4641    12.8149   127.0417 </r>
       <r>     2.5279    13.1570   127.8800 </r>
       <r>     2.5916    14.4894   128.8033 </r>
       <r>     2.6553    15.9436   129.8192 </r>
       <r>     2.7190    16.4336   130.8663 </r>
       <r>     2.7827    15.4200   131.8488 </r>
       <r>     2.8464    13.0359   132.6795 </r>
       <r>     2.9102    10.8317   133.3697 </r>
       <r>     2.9739     9.4075   133.9691 </r>
       <r>     3.0376     8.6159   134.5181 </r>
       <r>     3.1013     8.0819   135.0330 </r>
       <r>     3.1650     6.8645   135.4704 </r>
       <r>     3.2288     4.7394   135.7724 </r>
       <r>     3.2925     2.4778   135.9303 </r>
       <r>     3.3562     0.8857   135.9867 </r>
       <r>     3.4199     0.1864   135.9986 </r>
       <r>     3.4836     0.0204   135.9999 </r>
       <r>     3.5474     0.0011   136.0000 </r>
       <r>     3.6111     0.0000   136.0000 </r>
       <r>     3.6748     0.0000   136.0000 </r>
       <r>     3.7385     0.0000   136.0000 </r>
       <r>     3.8022     0.0000   136.0000 </r>
       <r>     3.8659     0.0000   136.0000 </r>
       <r>     3.9297     0.0000   136.0000 </r>
       <r>     3.9934     0.0000   136.0000 </r>
       <r>     4.0571     0.0000   136.0000 </r>
       <r>     4.1208     0.0000   136.0000 </r>
       <r>     4.1845     0.0000   136.0000 </r>
       <r>     4.2483     0.0000   136.0000 </r>
      </set>
     </set>
    </array>
   </total>
  </dos>
 </calculation>
 <structure name="finalpos" >
  <crystal>
   <varray name="basis" >
    <v>       3.54040000       0.00000000       0.00000000 </v>
    <v>      -1.77020000      10.29434800       0.00000000 </v>
    <v>       0.00000000       0.00000000      27.50142900 </v>
   </varray>
   <i name="volume">   1002.32009712 </i>
   <varray name="rec_basis" >
    <v>       0.28245396       0.04857034       0.00000000 </v>
    <v>       0.00000000       0.09714068       0.00000000 </v>
    <v>       0.00000000       0.00000000       0.03636175 </v>
   </varray>
  </crystal>
  <varray name="positions" >
   <v>       0.11402300       0.22804500       0.23316207 </v>
   <v>       0.11402300       0.12804500       0.51499159 </v>
   <v>       0.45808900       0.91617900       0.20939482 </v>
   <v>       0.45808900       0.81617900       0.49122434 </v>
   <v>       0.31085400       0.62170900       0.08414979 </v>
   <v>       0.31085400       0.62170900       0.36597930 </v>
   <v>       0.99923000       0.99846000       0.08631254 </v>
   <v>       0.99923000       0.99846000       0.36814206 </v>
   <v>       0.65492700       0.30985400       0.06041748 </v>
   <v>       0.65492700       0.30985400       0.34224700 </v>
   <v>       0.76973800       0.53947500       0.20725292 </v>
   <v>       0.76973800       0.43947500       0.48908244 </v>
   <v>       0.93971600       0.87943300       0.15783749 </v>
   <v>       0.93971600       0.77943300       0.43966701 </v>
   <v>       0.20515200       0.41030300       0.18578822 </v>
   <v>       0.20515200       0.31030300       0.46761774 </v>
   <v>       0.20184900       0.40369900       0.09969156 </v>
   <v>       0.20184900       0.40369900       0.38152107 </v>
   <v>       0.56380500       0.12761000       0.10779021 </v>
   <v>       0.56380500       0.12761000       0.38961973 </v>
   <v>       0.56710600       0.13421200       0.19387616 </v>
   <v>       0.56710600       0.03421200       0.47570568 </v>
   <v>       0.82923400       0.65846800       0.13571444 </v>
   <v>       0.82923400       0.55846800       0.41754396 </v>
  </varray>
 </structure>
</modeling>
