<?xml version="1.0" encoding="ISO-8859-1"?>
<modeling>
 <generator>
  <i name="program" type="string">vasp </i>
  <i name="version" type="string">5.4.1  </i>
  <i name="subversion" type="string">24Jun15 (build May 10 2016 14:18:23) complex                          parallel </i>
  <i name="platform" type="string">IFC91_ompi </i>
  <i name="date" type="string">2016 12 09 </i>
  <i name="time" type="string">14:22:24 </i>
 </generator>
 <incar>
  <i type="string" name="PREC">accurate</i>
  <i type="string" name="ALGO"> Fast</i>
  <i type="int" name="ISPIN">     2</i>
  <i type="int" name="IBRION">     2</i>
  <i name="EDIFF">      0.00010000</i>
  <i type="int" name="NSW">     0</i>
  <i type="int" name="ISIF">     3</i>
  <i name="ENCUT">    500.00000000</i>
  <v name="MAGMOM">      6.00000000      0.50000000      0.50000000      6.00000000      0.50000000      0.50000000</v>
  <i type="string" name="LREAL"> Auto</i>
  <i type="int" name="ISMEAR">     1</i>
  <i name="SIGMA">      0.10000000</i>
  <i type="logical" name="LWAVE"> F  </i>
  <i type="logical" name="LCHARG"> F  </i>
  <i type="logical" name="LVTOT"> T  </i>
  <i type="logical" name="LVHAR"> T  </i>
  <i type="logical" name="LAECHG"> F  </i>
  <v type="int" name="KPOINT_BSE">    -1     0     0     0</v>
  <i type="string" name="GGA"> Bo</i>
  <i name="PARAM1">      0.18333333</i>
  <i name="PARAM2">      0.22000000</i>
  <i type="logical" name="LUSE_VDW"> T  </i>
  <i name="AGGAC">      0.00000000</i>
 </incar>
 <kpoints>
  <generation param="Gamma">
   <v type="int" name="divisions">      13       13        1 </v>
   <v name="usershift">      0.00000000       0.00000000       0.00000000 </v>
   <v name="genvec1">      0.07692308       0.00000000       0.00000000 </v>
   <v name="genvec2">      0.00000000       0.07692308       0.00000000 </v>
   <v name="genvec3">      0.00000000       0.00000000       1.00000000 </v>
   <v name="shift">      0.00000000       0.00000000       0.00000000 </v>
  </generation>
  <varray name="kpointlist" >
   <v>       0.00000000       0.00000000       0.00000000 </v>
   <v>       0.07692308      -0.00000000       0.00000000 </v>
   <v>       0.15384615       0.00000000       0.00000000 </v>
   <v>       0.23076923       0.00000000       0.00000000 </v>
   <v>       0.30769231      -0.00000000       0.00000000 </v>
   <v>       0.38461538       0.00000000       0.00000000 </v>
   <v>       0.46153846       0.00000000       0.00000000 </v>
   <v>       0.00000000       0.07692308       0.00000000 </v>
   <v>       0.07692308       0.07692308       0.00000000 </v>
   <v>       0.15384615       0.07692308       0.00000000 </v>
   <v>       0.23076923       0.07692308       0.00000000 </v>
   <v>       0.30769231       0.07692308       0.00000000 </v>
   <v>       0.38461538       0.07692308       0.00000000 </v>
   <v>       0.46153846       0.07692308       0.00000000 </v>
   <v>      -0.46153846       0.07692308       0.00000000 </v>
   <v>      -0.38461538       0.07692308       0.00000000 </v>
   <v>      -0.30769231       0.07692308       0.00000000 </v>
   <v>      -0.23076923       0.07692308       0.00000000 </v>
   <v>      -0.15384615       0.07692308       0.00000000 </v>
   <v>      -0.07692308       0.07692308       0.00000000 </v>
   <v>       0.00000000       0.15384615       0.00000000 </v>
   <v>       0.07692308       0.15384615       0.00000000 </v>
   <v>       0.15384615       0.15384615       0.00000000 </v>
   <v>       0.23076923       0.15384615       0.00000000 </v>
   <v>       0.30769231       0.15384615       0.00000000 </v>
   <v>       0.38461538       0.15384615       0.00000000 </v>
   <v>       0.46153846       0.15384615       0.00000000 </v>
   <v>      -0.46153846       0.15384615       0.00000000 </v>
   <v>      -0.38461538       0.15384615       0.00000000 </v>
   <v>      -0.30769231       0.15384615       0.00000000 </v>
   <v>      -0.23076923       0.15384615       0.00000000 </v>
   <v>      -0.15384615       0.15384615       0.00000000 </v>
   <v>      -0.07692308       0.15384615       0.00000000 </v>
   <v>       0.00000000       0.23076923       0.00000000 </v>
   <v>       0.07692308       0.23076923       0.00000000 </v>
   <v>       0.15384615       0.23076923       0.00000000 </v>
   <v>       0.23076923       0.23076923       0.00000000 </v>
   <v>       0.30769231       0.23076923       0.00000000 </v>
   <v>       0.38461538       0.23076923       0.00000000 </v>
   <v>       0.46153846       0.23076923       0.00000000 </v>
   <v>      -0.46153846       0.23076923       0.00000000 </v>
   <v>      -0.38461538       0.23076923       0.00000000 </v>
   <v>      -0.30769231       0.23076923       0.00000000 </v>
   <v>      -0.23076923       0.23076923       0.00000000 </v>
   <v>      -0.15384615       0.23076923       0.00000000 </v>
   <v>      -0.07692308       0.23076923       0.00000000 </v>
   <v>       0.00000000       0.30769231       0.00000000 </v>
   <v>       0.07692308       0.30769231       0.00000000 </v>
   <v>       0.15384615       0.30769231       0.00000000 </v>
   <v>       0.23076923       0.30769231       0.00000000 </v>
   <v>       0.30769231       0.30769231       0.00000000 </v>
   <v>       0.38461538       0.30769231       0.00000000 </v>
   <v>       0.46153846       0.30769231       0.00000000 </v>
   <v>      -0.46153846       0.30769231       0.00000000 </v>
   <v>      -0.38461538       0.30769231       0.00000000 </v>
   <v>      -0.30769231       0.30769231       0.00000000 </v>
   <v>      -0.23076923       0.30769231       0.00000000 </v>
   <v>      -0.15384615       0.30769231       0.00000000 </v>
   <v>      -0.07692308       0.30769231       0.00000000 </v>
   <v>       0.00000000       0.38461538       0.00000000 </v>
   <v>       0.07692308       0.38461538       0.00000000 </v>
   <v>       0.15384615       0.38461538       0.00000000 </v>
   <v>       0.23076923       0.38461538       0.00000000 </v>
   <v>       0.30769231       0.38461538       0.00000000 </v>
   <v>       0.38461538       0.38461538       0.00000000 </v>
   <v>       0.46153846       0.38461538       0.00000000 </v>
   <v>      -0.46153846       0.38461538       0.00000000 </v>
   <v>      -0.38461538       0.38461538       0.00000000 </v>
   <v>      -0.30769231       0.38461538       0.00000000 </v>
   <v>      -0.23076923       0.38461538       0.00000000 </v>
   <v>      -0.15384615       0.38461538       0.00000000 </v>
   <v>      -0.07692308       0.38461538       0.00000000 </v>
   <v>       0.00000000       0.46153846       0.00000000 </v>
   <v>       0.07692308       0.46153846       0.00000000 </v>
   <v>       0.15384615       0.46153846       0.00000000 </v>
   <v>       0.23076923       0.46153846       0.00000000 </v>
   <v>       0.30769231       0.46153846       0.00000000 </v>
   <v>       0.38461538       0.46153846       0.00000000 </v>
   <v>       0.46153846       0.46153846       0.00000000 </v>
   <v>      -0.46153846       0.46153846       0.00000000 </v>
   <v>      -0.38461538       0.46153846       0.00000000 </v>
   <v>      -0.30769231       0.46153846       0.00000000 </v>
   <v>      -0.23076923       0.46153846       0.00000000 </v>
   <v>      -0.15384615       0.46153846       0.00000000 </v>
   <v>      -0.07692308       0.46153846       0.00000000 </v>
  </varray>
  <varray name="weights" >
   <v>       0.00591716 </v>
   <v>       0.01183432 </v>
   <v>       0.01183432 </v>
   <v>       0.01183432 </v>
   <v>       0.01183432 </v>
   <v>       0.01183432 </v>
   <v>       0.01183432 </v>
   <v>       0.01183432 </v>
   <v>       0.01183432 </v>
   <v>       0.01183432 </v>
   <v>       0.01183432 </v>
   <v>       0.01183432 </v>
   <v>       0.01183432 </v>
   <v>       0.01183432 </v>
   <v>       0.01183432 </v>
   <v>       0.01183432 </v>
   <v>       0.01183432 </v>
   <v>       0.01183432 </v>
   <v>       0.01183432 </v>
   <v>       0.01183432 </v>
   <v>       0.01183432 </v>
   <v>       0.01183432 </v>
   <v>       0.01183432 </v>
   <v>       0.01183432 </v>
   <v>       0.01183432 </v>
   <v>       0.01183432 </v>
   <v>       0.01183432 </v>
   <v>       0.01183432 </v>
   <v>       0.01183432 </v>
   <v>       0.01183432 </v>
   <v>       0.01183432 </v>
   <v>       0.01183432 </v>
   <v>       0.01183432 </v>
   <v>       0.01183432 </v>
   <v>       0.01183432 </v>
   <v>       0.01183432 </v>
   <v>       0.01183432 </v>
   <v>       0.01183432 </v>
   <v>       0.01183432 </v>
   <v>       0.01183432 </v>
   <v>       0.01183432 </v>
   <v>       0.01183432 </v>
   <v>       0.01183432 </v>
   <v>       0.01183432 </v>
   <v>       0.01183432 </v>
   <v>       0.01183432 </v>
   <v>       0.01183432 </v>
   <v>       0.01183432 </v>
   <v>       0.01183432 </v>
   <v>       0.01183432 </v>
   <v>       0.01183432 </v>
   <v>       0.01183432 </v>
   <v>       0.01183432 </v>
   <v>       0.01183432 </v>
   <v>       0.01183432 </v>
   <v>       0.01183432 </v>
   <v>       0.01183432 </v>
   <v>       0.01183432 </v>
   <v>       0.01183432 </v>
   <v>       0.01183432 </v>
   <v>       0.01183432 </v>
   <v>       0.01183432 </v>
   <v>       0.01183432 </v>
   <v>       0.01183432 </v>
   <v>       0.01183432 </v>
   <v>       0.01183432 </v>
   <v>       0.01183432 </v>
   <v>       0.01183432 </v>
   <v>       0.01183432 </v>
   <v>       0.01183432 </v>
   <v>       0.01183432 </v>
   <v>       0.01183432 </v>
   <v>       0.01183432 </v>
   <v>       0.01183432 </v>
   <v>       0.01183432 </v>
   <v>       0.01183432 </v>
   <v>       0.01183432 </v>
   <v>       0.01183432 </v>
   <v>       0.01183432 </v>
   <v>       0.01183432 </v>
   <v>       0.01183432 </v>
   <v>       0.01183432 </v>
   <v>       0.01183432 </v>
   <v>       0.01183432 </v>
   <v>       0.01183432 </v>
  </varray>
 </kpoints>
 <parameters>
  <separator name="general" >
   <i type="string" name="SYSTEM">unknown system</i>
   <i type="logical" name="LCOMPAT"> F  </i>
  </separator>
  <separator name="electronic" >
   <i type="string" name="PREC">accura</i>
   <i name="ENMAX">    500.00000000</i>
   <i name="ENAUG">    392.42700000</i>
   <i name="EDIFF">      0.00010000</i>
   <i type="int" name="IALGO">    68</i>
   <i type="int" name="IWAVPR">    10</i>
   <i type="int" name="NBANDS">    36</i>
   <i name="NELECT">     48.00000000</i>
   <i type="int" name="TURBO">     0</i>
   <i type="int" name="IRESTART">     0</i>
   <i type="int" name="NREBOOT">     0</i>
   <i type="int" name="NMIN">     0</i>
   <i name="EREF">      0.00000000</i>
   <separator name="electronic smearing" >
    <i type="int" name="ISMEAR">     1</i>
    <i name="SIGMA">      0.10000000</i>
    <i name="KSPACING">      0.50000000</i>
    <i type="logical" name="KGAMMA"> T  </i>
   </separator>
   <separator name="electronic projectors" >
    <i type="logical" name="LREAL"> T  </i>
    <v name="ROPT">     -0.00025000     -0.00025000     -0.00025000     -0.00025000</v>
    <i type="int" name="LMAXPAW">  -100</i>
    <i type="int" name="LMAXMIX">     2</i>
    <i type="logical" name="NLSPLINE"> F  </i>
   </separator>
   <separator name="electronic startup" >
    <i type="int" name="ISTART">     0</i>
    <i type="int" name="ICHARG">     2</i>
    <i type="int" name="INIWAV">     1</i>
   </separator>
   <separator name="electronic spin" >
    <i type="int" name="ISPIN">     2</i>
    <i type="logical" name="LNONCOLLINEAR"> F  </i>
    <v name="MAGMOM">      6.00000000      0.50000000      0.50000000      6.00000000      0.50000000      0.50000000</v>
    <i name="NUPDOWN">     -1.00000000</i>
    <i type="logical" name="LSORBIT"> F  </i>
    <v name="SAXIS">      0.00000000      0.00000000      1.00000000</v>
    <i type="logical" name="LSPIRAL"> F  </i>
    <v name="QSPIRAL">      0.00000000      0.00000000      0.00000000</v>
    <i type="logical" name="LZEROZ"> F  </i>
   </separator>
   <separator name="electronic exchange-correlation" >
    <i type="logical" name="LASPH"> F  </i>
    <i type="logical" name="LMETAGGA"> F  </i>
   </separator>
   <separator name="electronic convergence" >
    <i type="int" name="NELM">    60</i>
    <i type="int" name="NELMDL">     0</i>
    <i type="int" name="NELMIN">     2</i>
    <i name="ENINI">    500.00000000</i>
    <separator name="electronic convergence detail" >
     <i type="logical" name="LDIAG"> T  </i>
     <i type="logical" name="LSUBROT"> F  </i>
     <i name="WEIMIN">      0.00000000</i>
     <i name="EBREAK">      0.00000069</i>
     <i name="DEPER">      0.30000000</i>
     <i type="int" name="NRMM">     4</i>
     <i name="TIME">      0.40000000</i>
    </separator>
   </separator>
   <separator name="electronic mixer" >
    <i name="AMIX">      0.40000000</i>
    <i name="BMIX">      1.00000000</i>
    <i name="AMIN">      0.10000000</i>
    <i name="AMIX_MAG">      1.60000000</i>
    <i name="BMIX_MAG">      1.00000000</i>
    <separator name="electronic mixer details" >
     <i type="int" name="IMIX">     4</i>
     <i type="logical" name="MIXFIRST"> F  </i>
     <i type="int" name="MAXMIX">   -45</i>
     <i name="WC">    100.00000000</i>
     <i type="int" name="INIMIX">     1</i>
     <i type="int" name="MIXPRE">     1</i>
     <i type="int" name="MREMOVE">     5</i>
    </separator>
   </separator>
   <separator name="electronic dipolcorrection" >
    <i type="logical" name="LDIPOL"> F  </i>
    <i type="logical" name="LMONO"> F  </i>
    <i type="int" name="IDIPOL">     0</i>
    <i name="EPSILON">      1.00000000</i>
    <v name="DIPOL">   -100.00000000   -100.00000000   -100.00000000</v>
    <i name="EFIELD">      0.00000000</i>
   </separator>
  </separator>
  <separator name="grids" >
   <i type="int" name="NGX">    24</i>
   <i type="int" name="NGY">    24</i>
   <i type="int" name="NGZ">   180</i>
   <i type="int" name="NGXF">    48</i>
   <i type="int" name="NGYF">    48</i>
   <i type="int" name="NGZF">   360</i>
   <i type="logical" name="ADDGRID"> F  </i>
  </separator>
  <separator name="ionic" >
   <i type="int" name="NSW">     0</i>
   <i type="int" name="IBRION">    -1</i>
   <i type="int" name="ISIF">     3</i>
   <i name="PSTRESS">      0.00000000</i>
   <i name="EDIFFG">      0.00100000</i>
   <i type="int" name="NFREE">     1</i>
   <i name="POTIM">      0.50000000</i>
   <i name="SMASS">     -3.00000000</i>
   <i name="SCALEE">      1.00000000</i>
  </separator>
  <separator name="ionic md" >
   <i name="TEBEG">      0.00010000</i>
   <i name="TEEND">      0.00010000</i>
   <i type="int" name="NBLOCK">     1</i>
   <i type="int" name="KBLOCK">     1</i>
   <i type="int" name="NPACO">   256</i>
   <i name="APACO">     16.00000000</i>
  </separator>
  <separator name="symmetry" >
   <i type="int" name="ISYM">     2</i>
   <i name="SYMPREC">      0.00001000</i>
  </separator>
  <separator name="dos" >
   <i type="logical" name="LORBIT"> F  </i>
   <v name="RWIGS">     -1.00000000     -1.00000000     -1.00000000     -1.00000000</v>
   <i type="int" name="NEDOS">   301</i>
   <i name="EMIN">     10.00000000</i>
   <i name="EMAX">    -10.00000000</i>
   <i name="EFERMI">      0.00000000</i>
  </separator>
  <separator name="writing" >
   <i type="int" name="NWRITE">     2</i>
   <i type="logical" name="LWAVE"> F  </i>
   <i type="logical" name="LCHARG"> F  </i>
   <i type="logical" name="LPARD"> F  </i>
   <i type="logical" name="LVTOT"> F  </i>
   <i type="logical" name="LVHAR"> T  </i>
   <i type="logical" name="LELF"> F  </i>
   <i type="logical" name="LOPTICS"> F  </i>
   <v name="STM">      0.00000000      0.00000000      0.00000000      0.00000000      0.00000000      0.00000000      0.00000000</v>
  </separator>
  <separator name="performance" >
   <i type="int" name="NPAR">     4</i>
   <i type="int" name="NSIM">     4</i>
   <i type="int" name="NBLK">    -1</i>
   <i type="logical" name="LPLANE"> T  </i>
   <i type="logical" name="LSCALAPACK"> T  </i>
   <i type="logical" name="LSCAAWARE"> F  </i>
   <i type="logical" name="LSCALU"> F  </i>
   <i type="logical" name="LASYNC"> F  </i>
   <i type="logical" name="LORBITALREAL"> F  </i>
  </separator>
  <separator name="miscellaneous" >
   <i type="int" name="IDIOT">     3</i>
   <i type="logical" name="LMUSIC"> F  </i>
   <v name="POMASS">     95.94000000     32.06600000     95.94000000     32.06600000</v>
   <v name="DARWINR">      0.00000000      0.00000000      0.00000000      0.00000000</v>
   <v name="DARWINV">      1.00000000      1.00000000      1.00000000      1.00000000</v>
   <i type="logical" name="LCORR"> T  </i>
  </separator>
  <i type="logical" name="GGA_COMPAT"> T  </i>
  <i type="logical" name="LBERRY"> F  </i>
  <i type="int" name="ICORELEVEL">     0</i>
  <i type="logical" name="LDAU"> F  </i>
  <i type="int" name="I_CONSTRAINED_M">     0</i>
  <separator name="electronic exchange-correlation" >
   <i type="string" name="GGA">BO</i>
   <i type="int" name="VOSKOWN">     0</i>
   <i type="logical" name="LHFCALC"> F  </i>
   <i type="string" name="PRECFOCK"></i>
   <i type="logical" name="LSYMGRAD"> F  </i>
   <i type="logical" name="LHFONE"> F  </i>
   <i type="logical" name="LRHFCALC"> F  </i>
   <i type="logical" name="LTHOMAS"> F  </i>
   <i type="logical" name="LMODELHF"> F  </i>
   <i name="ENCUT4O">     -1.00000000</i>
   <i type="int" name="EXXOEP">     0</i>
   <i type="int" name="FOURORBIT">     0</i>
   <i name="AEXX">      0.00000000</i>
   <i name="HFALPHA">      0.00000000</i>
   <i name="MCALPHA">      0.00000000</i>
   <i name="ALDAX">      1.00000000</i>
   <i name="AGGAX">      1.00000000</i>
   <i name="ALDAC">      1.00000000</i>
   <i name="AGGAC">      0.00000000</i>
   <i type="int" name="NKREDX">     1</i>
   <i type="int" name="NKREDY">     1</i>
   <i type="int" name="NKREDZ">     1</i>
   <i type="logical" name="SHIFTRED"> F  </i>
   <i type="logical" name="ODDONLY"> F  </i>
   <i type="logical" name="EVENONLY"> F  </i>
   <i type="int" name="LMAXFOCK">     0</i>
   <i type="int" name="NMAXFOCKAE">     0</i>
   <i type="logical" name="LFOCKAEDFT"> F  </i>
   <i name="HFSCREEN">      0.00000000</i>
   <i name="HFSCREENC">      0.00000000</i>
   <i type="int" name="NBANDSGWLOW">     0</i>
  </separator>
  <separator name="vdW DFT" >
   <i type="logical" name="LUSE_VDW"> T  </i>
   <i name="Zab_VDW">     -0.84910000</i>
   <i name="PARAM1">      0.18333333</i>
   <i name="PARAM2">      0.22000000</i>
   <i name="PARAM3">      0.00000000</i>
  </separator>
  <separator name="model GW" >
   <i type="int" name="MODEL_GW">     0</i>
   <i name="MODEL_EPS0">     20.39722663</i>
   <i name="MODEL_ALPHA">      1.00000000</i>
  </separator>
  <separator name="linear response parameters" >
   <i type="logical" name="LEPSILON"> F  </i>
   <i type="logical" name="LRPA"> F  </i>
   <i type="logical" name="LNABLA"> F  </i>
   <i type="logical" name="LVEL"> F  </i>
   <i type="int" name="KINTER">     0</i>
   <i name="CSHIFT">      0.10000000</i>
   <i name="OMEGAMAX">     -1.00000000</i>
   <i name="DEG_THRESHOLD">      0.00200000</i>
  </separator>
  <separator name="orbital magnetization" >
   <i type="logical" name="NUCIND"> F  </i>
   <v name="MAGPOS">      0.00000000      0.00000000      0.00000000</v>
   <i type="logical" name="LNICSALL"> T  </i>
   <i type="logical" name="ORBITALMAG"> F  </i>
   <i type="logical" name="LMAGBLOCH"> F  </i>
   <i type="logical" name="LCHIMAG"> F  </i>
   <i type="logical" name="LGAUGE"> T  </i>
   <i type="int" name="MAGATOM">     0</i>
   <v name="MAGDIPOL">      0.00000000      0.00000000      0.00000000</v>
   <v name="AVECCONST">      0.00000000      0.00000000      0.00000000</v>
  </separator>
  <separator name="response functions" >
   <i type="logical" name="LADDER"> F  </i>
   <i type="logical" name="LFXC"> F  </i>
   <i type="logical" name="LHARTREE"> T  </i>
   <i type="int" name="IBSE">     0</i>
   <v type="int" name="KPOINT">    -1     0     0     0</v>
   <i type="logical" name="LTCTE"> F  </i>
   <i type="logical" name="LTETE"> F  </i>
   <i type="logical" name="LTRIPLET"> F  </i>
   <i type="logical" name="LFXCEPS"> F  </i>
   <i type="logical" name="LFXHEG"> F  </i>
   <i type="int" name="NATURALO">     0</i>
   <i type="logical" name="L2ORDER"> F  </i>
   <i type="logical" name="LUSEW"> F  </i>
   <i name="ENCUTGW">     -2.00000000</i>
   <i name="ENCUTGWSOFT">     -2.00000000</i>
   <i name="ENCUTLF">     -1.00000000</i>
   <i type="int" name="LMAXMP2">    -1</i>
   <i name="SCISSOR">      0.00000000</i>
   <i type="int" name="NOMEGA">     0</i>
   <i type="int" name="NOMEGAR">     0</i>
   <i type="int" name="NBANDSGW">    -1</i>
   <i type="int" name="NBANDSO">    -1</i>
   <i type="int" name="NBANDSV">    -1</i>
   <i type="int" name="NELM">     1</i>
   <i type="int" name="NELMHF">     1</i>
   <i type="int" name="DIM">     3</i>
   <i type="int" name="ANTIRES">     0</i>
   <i name="OMEGAMAX">    -30.00000000</i>
   <i name="OMEGAMIN">    -30.00000000</i>
   <i name="OMEGATL">   -200.00000000</i>
   <i type="int" name="OMEGAGRID">     0</i>
   <i name="CSHIFT">     -0.10000000</i>
   <i type="logical" name="SELFENERGY"> F  </i>
   <i type="logical" name="LSPECTRAL"> F  </i>
   <i type="logical" name="LSPECTRALGW"> F  </i>
   <i type="logical" name="LSINGLES"> F  </i>
   <i type="logical" name="LFERMIGW"> F  </i>
   <i type="logical" name="ODDONLYGW"> F  </i>
   <i type="logical" name="EVENONLYGW"> F  </i>
   <i type="int" name="NKREDLFX">     1</i>
   <i type="int" name="NKREDLFY">     1</i>
   <i type="int" name="NKREDLFZ">     1</i>
   <i type="int" name="MAXMEM">  1800</i>
   <i type="int" name="TELESCOPE">     0</i>
   <i type="int" name="TAUPAR">     1</i>
   <i type="int" name="OMEGAPAR">    -1</i>
   <i name="LAMBDA">      1.00000000</i>
  </separator>
  <separator name="External order field" >
   <i name="OFIELD_KAPPA">      0.00000000</i>
   <v name="OFIELD_K">      0.00000000      0.00000000      0.00000000</v>
   <i name="OFIELD_Q6_NEAR">      0.00000000</i>
   <i name="OFIELD_Q6_FAR">      0.00000000</i>
   <i name="OFIELD_A">      0.00000000</i>
  </separator>
 </parameters>
 <atominfo>
  <atoms>       6 </atoms>
  <types>       4 </types>
  <array name="atoms" >
   <dimension dim="1">ion</dimension>
   <field type="string">element</field>
   <field type="int">atomtype</field>
   <set>
    <rc><c>Mo</c><c>   1</c></rc>
    <rc><c>S </c><c>   2</c></rc>
    <rc><c>S </c><c>   2</c></rc>
    <rc><c>Mo</c><c>   3</c></rc>
    <rc><c>S </c><c>   4</c></rc>
    <rc><c>S </c><c>   4</c></rc>
   </set>
  </array>
  <array name="atomtypes" >
   <dimension dim="1">type</dimension>
   <field type="int">atomspertype</field>
   <field type="string">element</field>
   <field>mass</field>
   <field>valence</field>
   <field type="string">pseudopotential</field>
   <set>
    <rc><c>   1</c><c>Mo</c><c>     95.94000000</c><c>     12.00000000</c><c> PAW_PBE Mo_pv 08Apr2002                </c></rc>
    <rc><c>   2</c><c>S </c><c>     32.06600000</c><c>      6.00000000</c><c>  PAW_PBE S 17Jan2003                   </c></rc>
    <rc><c>   1</c><c>Mo</c><c>     95.94000000</c><c>     12.00000000</c><c> PAW_PBE Mo_pv 08Apr2002                </c></rc>
    <rc><c>   2</c><c>S </c><c>     32.06600000</c><c>      6.00000000</c><c>  PAW_PBE S 17Jan2003                   </c></rc>
   </set>
  </array>
 </atominfo>
 <structure name="initialpos" >
  <crystal>
   <varray name="basis" >
    <v>       3.19031700       0.00000000       0.00000000 </v>
    <v>      -1.59515800       2.76289700       0.00000000 </v>
    <v>       0.00000000       0.00000000      23.14049200 </v>
   </varray>
   <i name="volume">    203.97226633 </i>
   <varray name="rec_basis" >
    <v>       0.31344848       0.18096941       0.00000000 </v>
    <v>       0.00000000       0.36193894       0.00000000 </v>
    <v>       0.00000000       0.00000000       0.04321429 </v>
   </varray>
  </crystal>
  <varray name="positions" >
   <v>       0.66666700       0.33333300       0.06785900 </v>
   <v>       0.33333300       0.66666700       0.00000000 </v>
   <v>       0.33333300       0.66666700       0.13571500 </v>
   <v>       0.66666700       0.76190443       0.35482300 </v>
   <v>       0.33333300       0.09523843       0.28696500 </v>
   <v>       0.33333300       0.09523843       0.42267900 </v>
  </varray>
 </structure>
 <calculation>
  <scstep>
   <time name="dav">   59.06   59.10</time>
   <time name="total">   69.29   69.41</time>
   <energy>
    <i name="alphaZ">    104.15310261 </i>
    <i name="ewald">   7699.01324744 </i>
    <i name="hartreedc"> -11109.06843966 </i>
    <i name="XCdc">    128.46334709 </i>
    <i name="pawpsdc">   2252.92270536 </i>
    <i name="pawaedc">  -2205.68654582 </i>
    <i name="eentropy">     -0.00123390 </i>
    <i name="bandstr">   -160.03470834 </i>
    <i name="atom">   3688.31848598 </i>
    <i name="e_fr_energy">    398.07996076 </i>
    <i name="e_wo_entrp">    398.08119466 </i>
    <i name="e_0_energy">    398.08037206 </i>
   </energy>
  </scstep>
  <scstep>
   <time name="dav">   63.62   63.67</time>
   <time name="total">   63.63   63.68</time>
   <energy>
    <i name="e_fr_energy">     -1.73565941 </i>
    <i name="e_wo_entrp">     -1.73518538 </i>
    <i name="e_0_energy">     -1.73550140 </i>
   </energy>
  </scstep>
  <scstep>
   <time name="dav">   65.28   65.33</time>
   <time name="total">   65.29   65.34</time>
   <energy>
    <i name="e_fr_energy">    -32.98363129 </i>
    <i name="e_wo_entrp">    -32.98467178 </i>
    <i name="e_0_energy">    -32.98397812 </i>
   </energy>
  </scstep>
  <scstep>
   <time name="dav">   62.53   62.58</time>
   <time name="total">   62.54   62.59</time>
   <energy>
    <i name="e_fr_energy">    -33.84788382 </i>
    <i name="e_wo_entrp">    -33.84917577 </i>
    <i name="e_0_energy">    -33.84831447 </i>
   </energy>
  </scstep>
  <scstep>
   <time name="dav">   65.02   65.07</time>
   <time name="total">   69.87   69.93</time>
   <energy>
    <i name="e_fr_energy">    -33.87461701 </i>
    <i name="e_wo_entrp">    -33.87595102 </i>
    <i name="e_0_energy">    -33.87506168 </i>
   </energy>
  </scstep>
  <scstep>
   <time name="diag">   11.41   11.42</time>
   <time name="diis">   42.58   42.61</time>
   <time name="orth">    0.36    0.36</time>
   <time name="total">   69.18   69.23</time>
   <energy>
    <i name="e_fr_energy">    -30.10823051 </i>
    <i name="e_wo_entrp">    -30.10772610 </i>
    <i name="e_0_energy">    -30.10806237 </i>
   </energy>
  </scstep>
  <scstep>
   <time name="diag">   11.37   11.38</time>
   <time name="diis">   42.23   42.26</time>
   <time name="orth">    0.36    0.36</time>
   <time name="total">   68.75   68.81</time>
   <energy>
    <i name="e_fr_energy">    -33.06986054 </i>
    <i name="e_wo_entrp">    -33.07003317 </i>
    <i name="e_0_energy">    -33.06991809 </i>
   </energy>
  </scstep>
  <scstep>
   <time name="diag">   11.37   11.37</time>
   <time name="diis">   40.71   40.74</time>
   <time name="orth">    0.36    0.36</time>
   <time name="total">   67.12   67.22</time>
   <energy>
    <i name="e_fr_energy">    -34.36637712 </i>
    <i name="e_wo_entrp">    -34.36654295 </i>
    <i name="e_0_energy">    -34.36643240 </i>
   </energy>
  </scstep>
  <scstep>
   <time name="diag">   11.34   11.35</time>
   <time name="diis">   41.28   41.31</time>
   <time name="orth">    0.35    0.36</time>
   <time name="total">   67.71   67.76</time>
   <energy>
    <i name="e_fr_energy">    -36.86198530 </i>
    <i name="e_wo_entrp">    -36.86215262 </i>
    <i name="e_0_energy">    -36.86204107 </i>
   </energy>
  </scstep>
  <scstep>
   <time name="diag">   11.31   11.32</time>
   <time name="diis">   38.56   38.59</time>
   <time name="orth">    0.36    0.36</time>
   <time name="total">   64.98   65.07</time>
   <energy>
    <i name="e_fr_energy">    -38.99579512 </i>
    <i name="e_wo_entrp">    -38.99596236 </i>
    <i name="e_0_energy">    -38.99585087 </i>
   </energy>
  </scstep>
  <scstep>
   <time name="diag">   11.39   11.40</time>
   <time name="diis">   39.94   39.97</time>
   <time name="orth">    0.36    0.36</time>
   <time name="total">   66.62   66.67</time>
   <energy>
    <i name="e_fr_energy">    -39.37896965 </i>
    <i name="e_wo_entrp">    -39.37930177 </i>
    <i name="e_0_energy">    -39.37908035 </i>
   </energy>
  </scstep>
  <scstep>
   <time name="diag">   11.36   11.37</time>
   <time name="diis">   39.62   39.65</time>
   <time name="orth">    0.36    0.36</time>
   <time name="total">   66.19   66.24</time>
   <energy>
    <i name="e_fr_energy">    -39.40984323 </i>
    <i name="e_wo_entrp">    -39.41017482 </i>
    <i name="e_0_energy">    -39.40995376 </i>
   </energy>
  </scstep>
  <scstep>
   <time name="diag">   11.35   11.36</time>
   <time name="diis">   44.59   44.62</time>
   <time name="orth">    0.36    0.36</time>
   <time name="total">   71.06   71.12</time>
   <energy>
    <i name="e_fr_energy">    -39.41946555 </i>
    <i name="e_wo_entrp">    -39.41979948 </i>
    <i name="e_0_energy">    -39.41957686 </i>
   </energy>
  </scstep>
  <scstep>
   <time name="diag">   11.35   11.36</time>
   <time name="diis">   45.29   45.32</time>
   <time name="orth">    0.36    0.36</time>
   <time name="total">   71.82   71.87</time>
   <energy>
    <i name="e_fr_energy">    -39.42370042 </i>
    <i name="e_wo_entrp">    -39.42403473 </i>
    <i name="e_0_energy">    -39.42381186 </i>
   </energy>
  </scstep>
  <scstep>
   <time name="diag">   11.41   11.42</time>
   <time name="diis">   38.12   38.15</time>
   <time name="orth">    0.36    0.36</time>
   <time name="total">   64.74   64.79</time>
   <energy>
    <i name="e_fr_energy">    -39.42323229 </i>
    <i name="e_wo_entrp">    -39.42356655 </i>
    <i name="e_0_energy">    -39.42334371 </i>
   </energy>
  </scstep>
  <scstep>
   <time name="diag">   11.40   11.41</time>
   <time name="diis">   30.15   30.17</time>
   <time name="orth">    0.36    0.36</time>
   <time name="total">   56.68   56.73</time>
   <energy>
    <i name="e_fr_energy">    -39.42340442 </i>
    <i name="e_wo_entrp">    -39.42373871 </i>
    <i name="e_0_energy">    -39.42351585 </i>
   </energy>
  </scstep>
  <scstep>
   <time name="diag">   11.38   11.39</time>
   <time name="diis">   29.60   29.62</time>
   <time name="orth">    0.36    0.36</time>
   <time name="total">   51.09   51.13</time>
   <energy>
    <i name="alphaZ">    104.15310261 </i>
    <i name="ewald">   7699.01324744 </i>
    <i name="hartreedc"> -11093.15945533 </i>
    <i name="XCdc">    122.66229559 </i>
    <i name="pawpsdc">   2399.17063997 </i>
    <i name="pawaedc">  -2361.35457741 </i>
    <i name="eentropy">      0.00033429 </i>
    <i name="bandstr">   -598.22756382 </i>
    <i name="atom">   3688.31848598 </i>
    <i name="e_fr_energy">    -39.42349067 </i>
    <i name="e_wo_entrp">    -39.42382497 </i>
    <i name="e_0_energy">    -39.42360210 </i>
   </energy>
  </scstep>
  <structure>
   <crystal>
    <varray name="basis" >
     <v>       3.19031700       0.00000000       0.00000000 </v>
     <v>      -1.59515800       2.76289700       0.00000000 </v>
     <v>       0.00000000       0.00000000      23.14049200 </v>
    </varray>
    <i name="volume">    203.97226633 </i>
    <varray name="rec_basis" >
     <v>       0.31344848       0.18096941       0.00000000 </v>
     <v>       0.00000000       0.36193894       0.00000000 </v>
     <v>       0.00000000       0.00000000       0.04321429 </v>
    </varray>
   </crystal>
   <varray name="positions" >
    <v>       0.66666700       0.33333300       0.06785900 </v>
    <v>       0.33333300       0.66666700       0.00000000 </v>
    <v>       0.33333300       0.66666700       0.13571500 </v>
    <v>       0.66666700       0.76190443       0.35482300 </v>
    <v>       0.33333300       0.09523843       0.28696500 </v>
    <v>       0.33333300       0.09523843       0.42267900 </v>
   </varray>
  </structure>
  <varray name="forces" >
   <v>       0.00089692      -0.00344608      -0.00114075 </v>
   <v>       0.00177335      -0.00017529      -0.05602788 </v>
   <v>       0.00739298      -0.01432267       0.11749436 </v>
   <v>      -0.00083653       0.00037815       0.00215800 </v>
   <v>      -0.00963384       0.01495360      -0.12235961 </v>
   <v>       0.00040712       0.00261229       0.05987588 </v>
  </varray>
  <varray name="stress" >
   <v>       3.28821349      -0.29585033      -0.26830951 </v>
   <v>      -0.29585037       3.62706209       0.46150013 </v>
   <v>      -0.26830942       0.46150009      -0.15740193 </v>
  </varray>
  <energy>
   <i name="e_fr_energy">    -39.42349067 </i>
   <i name="e_wo_entrp">    -39.42360210 </i>
   <i name="e_0_energy">      0.00033429 </i>
  </energy>
  <time name="totalsc"> 1217.60 1219.14</time>
  <eigenvalues>
   <array>
    <dimension dim="1">band</dimension>
    <dimension dim="2">kpoint</dimension>
    <dimension dim="3">spin</dimension>
    <field>eigene</field>
    <field>occ</field>
    <set>
     <set comment="spin 1">
      <set comment="kpoint 1">
       <r>  -34.9815    1.0000 </r>
       <r>  -34.9806    1.0000 </r>
       <r>  -34.7910    1.0000 </r>
       <r>  -34.7909    1.0000 </r>
       <r>  -34.7901    1.0000 </r>
       <r>  -34.7900    1.0000 </r>
       <r>  -13.9650    1.0000 </r>
       <r>  -13.9099    1.0000 </r>
       <r>  -12.6990    1.0000 </r>
       <r>  -12.6065    1.0000 </r>
       <r>   -5.6755    1.0000 </r>
       <r>   -5.3889    1.0000 </r>
       <r>   -2.6128    1.0000 </r>
       <r>   -2.6115    1.0000 </r>
       <r>   -2.6095    1.0000 </r>
       <r>   -2.6080    1.0000 </r>
       <r>   -2.1650    1.0000 </r>
       <r>   -1.5214    1.0000 </r>
       <r>   -1.5186    1.0000 </r>
       <r>   -1.5149    1.0000 </r>
       <r>   -1.5123    1.0000 </r>
       <r>   -1.4659    1.0000 </r>
       <r>   -0.2120    1.0000 </r>
       <r>    0.2221    0.7951 </r>
       <r>    2.6956   -0.0000 </r>
       <r>    2.7075   -0.0000 </r>
       <r>    2.7214   -0.0000 </r>
       <r>    2.7299   -0.0000 </r>
       <r>    2.8766   -0.0000 </r>
       <r>    2.8883   -0.0000 </r>
       <r>    2.9065   -0.0000 </r>
       <r>    2.9216   -0.0000 </r>
       <r>    5.3594    0.0000 </r>
       <r>    5.6562    0.0000 </r>
       <r>    6.2506    0.0000 </r>
       <r>    6.5789    0.0000 </r>
      </set>
      <set comment="kpoint 2">
       <r>  -34.9774    1.0000 </r>
       <r>  -34.9765    1.0000 </r>
       <r>  -34.8122    1.0000 </r>
       <r>  -34.8112    1.0000 </r>
       <r>  -34.7958    1.0000 </r>
       <r>  -34.7949    1.0000 </r>
       <r>  -13.8783    1.0000 </r>
       <r>  -13.8234    1.0000 </r>
       <r>  -12.6624    1.0000 </r>
       <r>  -12.5721    1.0000 </r>
       <r>   -5.5764    1.0000 </r>
       <r>   -5.2899    1.0000 </r>
       <r>   -2.7993    1.0000 </r>
       <r>   -2.7953    1.0000 </r>
       <r>   -2.5225    1.0000 </r>
       <r>   -2.5170    1.0000 </r>
       <r>   -2.4504    1.0000 </r>
       <r>   -2.0637    1.0000 </r>
       <r>   -1.6591    1.0000 </r>
       <r>   -1.6492    1.0000 </r>
       <r>   -1.3571    1.0000 </r>
       <r>   -1.0569    1.0000 </r>
       <r>   -0.2340    1.0000 </r>
       <r>    0.1512    1.0319 </r>
       <r>    2.5792   -0.0000 </r>
       <r>    2.6167   -0.0000 </r>
       <r>    2.6432   -0.0000 </r>
       <r>    2.7358   -0.0000 </r>
       <r>    2.7738   -0.0000 </r>
       <r>    2.8205   -0.0000 </r>
       <r>    2.8503   -0.0000 </r>
       <r>    2.8851   -0.0000 </r>
       <r>    5.4923    0.0000 </r>
       <r>    5.8010    0.0000 </r>
       <r>    6.5670    0.0000 </r>
       <r>    6.9523    0.0000 </r>
      </set>
      <set comment="kpoint 3">
       <r>  -34.9660    1.0000 </r>
       <r>  -34.9651    1.0000 </r>
       <r>  -34.8707    1.0000 </r>
       <r>  -34.8697    1.0000 </r>
       <r>  -34.8092    1.0000 </r>
       <r>  -34.8083    1.0000 </r>
       <r>  -13.6300    1.0000 </r>
       <r>  -13.5755    1.0000 </r>
       <r>  -12.5578    1.0000 </r>
       <r>  -12.4735    1.0000 </r>
       <r>   -5.3166    1.0000 </r>
       <r>   -5.0356    1.0000 </r>
       <r>   -3.2543    1.0000 </r>
       <r>   -3.2385    1.0000 </r>
       <r>   -2.9503    1.0000 </r>
       <r>   -2.6792    1.0000 </r>
       <r>   -2.2678    1.0000 </r>
       <r>   -2.2605    1.0000 </r>
       <r>   -1.9946    1.0000 </r>
       <r>   -1.9838    1.0000 </r>
       <r>   -1.2817    1.0000 </r>
       <r>   -0.9194    1.0000 </r>
       <r>   -0.3678    1.0000 </r>
       <r>   -0.1130    1.0000 </r>
       <r>    2.1627   -0.0000 </r>
       <r>    2.3711   -0.0000 </r>
       <r>    2.4982   -0.0000 </r>
       <r>    2.5512   -0.0000 </r>
       <r>    2.5966   -0.0000 </r>
       <r>    2.6415   -0.0000 </r>
       <r>    3.1907    0.0000 </r>
       <r>    3.2322    0.0000 </r>
       <r>    5.8425    0.0000 </r>
       <r>    6.1523    0.0000 </r>
       <r>    6.8979    0.0000 </r>
       <r>    7.8036    0.0000 </r>
      </set>
      <set comment="kpoint 4">
       <r>  -34.9522    1.0000 </r>
       <r>  -34.9513    1.0000 </r>
       <r>  -34.9498    1.0000 </r>
       <r>  -34.9489    1.0000 </r>
       <r>  -34.8281    1.0000 </r>
       <r>  -34.8271    1.0000 </r>
       <r>  -13.2551    1.0000 </r>
       <r>  -13.2019    1.0000 </r>
       <r>  -12.4007    1.0000 </r>
       <r>  -12.3255    1.0000 </r>
       <r>   -5.0527    1.0000 </r>
       <r>   -4.8193    1.0000 </r>
       <r>   -3.7294    1.0000 </r>
       <r>   -3.6558    1.0000 </r>
       <r>   -3.4832    1.0000 </r>
       <r>   -3.2956    1.0000 </r>
       <r>   -2.3903    1.0000 </r>
       <r>   -2.3784    1.0000 </r>
       <r>   -1.9002    1.0000 </r>
       <r>   -1.8890    1.0000 </r>
       <r>   -1.4667    1.0000 </r>
       <r>   -1.0982    1.0000 </r>
       <r>   -0.6897    1.0000 </r>
       <r>   -0.5530    1.0000 </r>
       <r>    1.9386   -0.0000 </r>
       <r>    2.2451   -0.0000 </r>
       <r>    2.3034   -0.0000 </r>
       <r>    2.3458   -0.0000 </r>
       <r>    2.6937   -0.0000 </r>
       <r>    2.9151   -0.0000 </r>
       <r>    3.5688    0.0000 </r>
       <r>    3.6213    0.0000 </r>
       <r>    6.3775    0.0000 </r>
       <r>    6.6477    0.0000 </r>
       <r>    7.3707    0.0000 </r>
       <r>    8.1593    0.0000 </r>
      </set>
      <set comment="kpoint 5">
       <r>  -35.0374    1.0000 </r>
       <r>  -35.0365    1.0000 </r>
       <r>  -34.9328    1.0000 </r>
       <r>  -34.9319    1.0000 </r>
       <r>  -34.8480    1.0000 </r>
       <r>  -34.8470    1.0000 </r>
       <r>  -12.8157    1.0000 </r>
       <r>  -12.7649    1.0000 </r>
       <r>  -12.2194    1.0000 </r>
       <r>  -12.1550    1.0000 </r>
       <r>   -5.1070    1.0000 </r>
       <r>   -4.9875    1.0000 </r>
       <r>   -4.0613    1.0000 </r>
       <r>   -3.9099    1.0000 </r>
       <r>   -3.8824    1.0000 </r>
       <r>   -3.7159    1.0000 </r>
       <r>   -2.7459    1.0000 </r>
       <r>   -2.7333    1.0000 </r>
       <r>   -1.7488    1.0000 </r>
       <r>   -1.5074    1.0000 </r>
       <r>   -1.4897    1.0000 </r>
       <r>   -1.3839    1.0000 </r>
       <r>   -0.9821    1.0000 </r>
       <r>   -0.8794    1.0000 </r>
       <r>    2.0389   -0.0000 </r>
       <r>    2.1389   -0.0000 </r>
       <r>    2.1722   -0.0000 </r>
       <r>    2.3238   -0.0000 </r>
       <r>    3.0956    0.0000 </r>
       <r>    3.3674    0.0000 </r>
       <r>    3.8670    0.0000 </r>
       <r>    3.9334    0.0000 </r>
       <r>    7.0327    0.0000 </r>
       <r>    7.2177    0.0000 </r>
       <r>    7.8083    0.0000 </r>
       <r>    8.0266    0.0000 </r>
      </set>
      <set comment="kpoint 6">
       <r>  -35.1072    1.0000 </r>
       <r>  -35.1062    1.0000 </r>
       <r>  -34.9185    1.0000 </r>
       <r>  -34.9176    1.0000 </r>
       <r>  -34.8644    1.0000 </r>
       <r>  -34.8635    1.0000 </r>
       <r>  -12.4060    1.0000 </r>
       <r>  -12.3588    1.0000 </r>
       <r>  -12.0549    1.0000 </r>
       <r>  -12.0005    1.0000 </r>
       <r>   -5.4274    1.0000 </r>
       <r>   -5.3547    1.0000 </r>
       <r>   -4.4805    1.0000 </r>
       <r>   -4.3655    1.0000 </r>
       <r>   -3.9806    1.0000 </r>
       <r>   -3.7825    1.0000 </r>
       <r>   -3.0059    1.0000 </r>
       <r>   -2.9929    1.0000 </r>
       <r>   -1.9663    1.0000 </r>
       <r>   -1.6061    1.0000 </r>
       <r>   -1.1940    1.0000 </r>
       <r>   -1.1668    1.0000 </r>
       <r>   -0.9399    1.0000 </r>
       <r>   -0.8156    1.0000 </r>
       <r>    2.0994   -0.0000 </r>
       <r>    2.1201   -0.0000 </r>
       <r>    2.3064   -0.0000 </r>
       <r>    2.4985   -0.0000 </r>
       <r>    3.4709    0.0000 </r>
       <r>    3.7715    0.0000 </r>
       <r>    4.0515    0.0000 </r>
       <r>    4.1306    0.0000 </r>
       <r>    6.7491    0.0000 </r>
       <r>    7.2151    0.0000 </r>
       <r>    7.6476    0.0000 </r>
       <r>    7.9419    0.0000 </r>
      </set>
      <set comment="kpoint 7">
       <r>  -35.1462    1.0000 </r>
       <r>  -35.1452    1.0000 </r>
       <r>  -34.9105    1.0000 </r>
       <r>  -34.9096    1.0000 </r>
       <r>  -34.8737    1.0000 </r>
       <r>  -34.8727    1.0000 </r>
       <r>  -12.1501    1.0000 </r>
       <r>  -12.1055    1.0000 </r>
       <r>  -11.9544    1.0000 </r>
       <r>  -11.9066    1.0000 </r>
       <r>   -5.6698    1.0000 </r>
       <r>   -5.6045    1.0000 </r>
       <r>   -4.7332    1.0000 </r>
       <r>   -4.6302    1.0000 </r>
       <r>   -4.0831    1.0000 </r>
       <r>   -3.8945    1.0000 </r>
       <r>   -3.1420    1.0000 </r>
       <r>   -3.1287    1.0000 </r>
       <r>   -2.0728    1.0000 </r>
       <r>   -1.7165    1.0000 </r>
       <r>   -1.0296    1.0000 </r>
       <r>   -0.9957    1.0000 </r>
       <r>   -0.7261    1.0000 </r>
       <r>   -0.5791    1.0000 </r>
       <r>    2.1297   -0.0000 </r>
       <r>    2.1403   -0.0000 </r>
       <r>    2.5567   -0.0000 </r>
       <r>    2.6546   -0.0000 </r>
       <r>    3.6621    0.0000 </r>
       <r>    3.9848    0.0000 </r>
       <r>    4.1347    0.0000 </r>
       <r>    4.2212    0.0000 </r>
       <r>    5.9542    0.0000 </r>
       <r>    6.5841    0.0000 </r>
       <r>    7.9486    0.0000 </r>
       <r>    8.0228    0.0000 </r>
      </set>
      <set comment="kpoint 8">
       <r>  -34.9774    1.0000 </r>
       <r>  -34.9765    1.0000 </r>
       <r>  -34.8122    1.0000 </r>
       <r>  -34.8113    1.0000 </r>
       <r>  -34.7958    1.0000 </r>
       <r>  -34.7948    1.0000 </r>
       <r>  -13.8782    1.0000 </r>
       <r>  -13.8235    1.0000 </r>
       <r>  -12.6622    1.0000 </r>
       <r>  -12.5723    1.0000 </r>
       <r>   -5.5760    1.0000 </r>
       <r>   -5.2903    1.0000 </r>
       <r>   -2.7995    1.0000 </r>
       <r>   -2.7951    1.0000 </r>
       <r>   -2.5201    1.0000 </r>
       <r>   -2.5194    1.0000 </r>
       <r>   -2.4517    1.0000 </r>
       <r>   -2.0636    1.0000 </r>
       <r>   -1.6549    1.0000 </r>
       <r>   -1.6536    1.0000 </r>
       <r>   -1.3447    1.0000 </r>
       <r>   -1.0667    1.0000 </r>
       <r>   -0.2324    1.0000 </r>
       <r>    0.1431    1.0349 </r>
       <r>    2.6045   -0.0000 </r>
       <r>    2.6108   -0.0000 </r>
       <r>    2.6575   -0.0000 </r>
       <r>    2.7025   -0.0000 </r>
       <r>    2.8022   -0.0000 </r>
       <r>    2.8075   -0.0000 </r>
       <r>    2.8614   -0.0000 </r>
       <r>    2.8643   -0.0000 </r>
       <r>    5.4924    0.0000 </r>
       <r>    5.8007    0.0000 </r>
       <r>    6.5635    0.0000 </r>
       <r>    6.9540    0.0000 </r>
      </set>
      <set comment="kpoint 9">
       <r>  -34.9696    1.0000 </r>
       <r>  -34.9687    1.0000 </r>
       <r>  -34.8511    1.0000 </r>
       <r>  -34.8502    1.0000 </r>
       <r>  -34.8059    1.0000 </r>
       <r>  -34.8049    1.0000 </r>
       <r>  -13.7106    1.0000 </r>
       <r>  -13.6562    1.0000 </r>
       <r>  -12.5915    1.0000 </r>
       <r>  -12.5057    1.0000 </r>
       <r>   -5.3947    1.0000 </r>
       <r>   -5.1111    1.0000 </r>
       <r>   -3.1132    1.0000 </r>
       <r>   -3.1082    1.0000 </r>
       <r>   -2.7886    1.0000 </r>
       <r>   -2.4779    1.0000 </r>
       <r>   -2.3532    1.0000 </r>
       <r>   -2.3499    1.0000 </r>
       <r>   -1.9684    1.0000 </r>
       <r>   -1.9662    1.0000 </r>
       <r>   -1.1951    1.0000 </r>
       <r>   -0.8769    1.0000 </r>
       <r>   -0.3091    1.0000 </r>
       <r>   -0.0257    1.0002 </r>
       <r>    2.2934   -0.0000 </r>
       <r>    2.4275   -0.0000 </r>
       <r>    2.4629   -0.0000 </r>
       <r>    2.5554   -0.0000 </r>
       <r>    2.6393   -0.0000 </r>
       <r>    2.6438   -0.0000 </r>
       <r>    3.1363    0.0000 </r>
       <r>    3.1487    0.0000 </r>
       <r>    5.7326    0.0000 </r>
       <r>    6.0448    0.0000 </r>
       <r>    6.9251    0.0000 </r>
       <r>    7.6087    0.0000 </r>
      </set>
      <set comment="kpoint 10">
       <r>  -34.9559    1.0000 </r>
       <r>  -34.9550    1.0000 </r>
       <r>  -34.9187    1.0000 </r>
       <r>  -34.9178    1.0000 </r>
       <r>  -34.8244    1.0000 </r>
       <r>  -34.8234    1.0000 </r>
       <r>  -13.3984    1.0000 </r>
       <r>  -13.3449    1.0000 </r>
       <r>  -12.4600    1.0000 </r>
       <r>  -12.3819    1.0000 </r>
       <r>   -5.1157    1.0000 </r>
       <r>   -4.8524    1.0000 </r>
       <r>   -3.5634    1.0000 </r>
       <r>   -3.5311    1.0000 </r>
       <r>   -3.2242    1.0000 </r>
       <r>   -2.9976    1.0000 </r>
       <r>   -2.4579    1.0000 </r>
       <r>   -2.4369    1.0000 </r>
       <r>   -2.0706    1.0000 </r>
       <r>   -2.0638    1.0000 </r>
       <r>   -1.1863    1.0000 </r>
       <r>   -0.8745    1.0000 </r>
       <r>   -0.5435    1.0000 </r>
       <r>   -0.3852    1.0000 </r>
       <r>    1.9511   -0.0000 </r>
       <r>    2.1901   -0.0000 </r>
       <r>    2.4055   -0.0000 </r>
       <r>    2.4156   -0.0000 </r>
       <r>    2.4758   -0.0000 </r>
       <r>    2.6404   -0.0000 </r>
       <r>    3.5516    0.0000 </r>
       <r>    3.5561    0.0000 </r>
       <r>    6.1766    0.0000 </r>
       <r>    6.4698    0.0000 </r>
       <r>    7.2098    0.0000 </r>
       <r>    8.2289    0.0000 </r>
      </set>
      <set comment="kpoint 11">
       <r>  -34.9990    1.0000 </r>
       <r>  -34.9981    1.0000 </r>
       <r>  -34.9393    1.0000 </r>
       <r>  -34.9384    1.0000 </r>
       <r>  -34.8468    1.0000 </r>
       <r>  -34.8458    1.0000 </r>
       <r>  -12.9890    1.0000 </r>
       <r>  -12.9375    1.0000 </r>
       <r>  -12.2888    1.0000 </r>
       <r>  -12.2208    1.0000 </r>
       <r>   -4.9910    1.0000 </r>
       <r>   -4.8229    1.0000 </r>
       <r>   -3.8805    1.0000 </r>
       <r>   -3.7431    1.0000 </r>
       <r>   -3.7223    1.0000 </r>
       <r>   -3.5869    1.0000 </r>
       <r>   -2.8535    1.0000 </r>
       <r>   -2.7985    1.0000 </r>
       <r>   -1.7893    1.0000 </r>
       <r>   -1.7777    1.0000 </r>
       <r>   -1.4092    1.0000 </r>
       <r>   -1.1122    1.0000 </r>
       <r>   -0.8477    1.0000 </r>
       <r>   -0.7633    1.0000 </r>
       <r>    1.8550   -0.0000 </r>
       <r>    2.0624   -0.0000 </r>
       <r>    2.2895   -0.0000 </r>
       <r>    2.3707   -0.0000 </r>
       <r>    2.7541   -0.0000 </r>
       <r>    2.9537   -0.0000 </r>
       <r>    3.9064    0.0000 </r>
       <r>    3.9191    0.0000 </r>
       <r>    6.7901    0.0000 </r>
       <r>    7.0241    0.0000 </r>
       <r>    7.7734    0.0000 </r>
       <r>    8.3123    0.0000 </r>
      </set>
      <set comment="kpoint 12">
       <r>  -35.0736    1.0000 </r>
       <r>  -35.0727    1.0000 </r>
       <r>  -34.9236    1.0000 </r>
       <r>  -34.9227    1.0000 </r>
       <r>  -34.8678    1.0000 </r>
       <r>  -34.8668    1.0000 </r>
       <r>  -12.5592    1.0000 </r>
       <r>  -12.5110    1.0000 </r>
       <r>  -12.1122    1.0000 </r>
       <r>  -12.0547    1.0000 </r>
       <r>   -5.2148    1.0000 </r>
       <r>   -5.1291    1.0000 </r>
       <r>   -4.2925    1.0000 </r>
       <r>   -4.1894    1.0000 </r>
       <r>   -3.9013    1.0000 </r>
       <r>   -3.7049    1.0000 </r>
       <r>   -3.0665    1.0000 </r>
       <r>   -3.0111    1.0000 </r>
       <r>   -1.7234    1.0000 </r>
       <r>   -1.6270    1.0000 </r>
       <r>   -1.6091    1.0000 </r>
       <r>   -1.4110    1.0000 </r>
       <r>   -0.8691    1.0000 </r>
       <r>   -0.8056    1.0000 </r>
       <r>    1.9690   -0.0000 </r>
       <r>    2.0969   -0.0000 </r>
       <r>    2.3233   -0.0000 </r>
       <r>    2.4375   -0.0000 </r>
       <r>    3.1791    0.0000 </r>
       <r>    3.3691    0.0000 </r>
       <r>    4.1020    0.0000 </r>
       <r>    4.1438    0.0000 </r>
       <r>    7.3179    0.0000 </r>
       <r>    7.5230    0.0000 </r>
       <r>    7.5707    0.0000 </r>
       <r>    8.0876    0.0000 </r>
      </set>
      <set comment="kpoint 13">
       <r>  -35.1260    1.0000 </r>
       <r>  -35.1251    1.0000 </r>
       <r>  -34.9124    1.0000 </r>
       <r>  -34.9115    1.0000 </r>
       <r>  -34.8826    1.0000 </r>
       <r>  -34.8817    1.0000 </r>
       <r>  -12.2186    1.0000 </r>
       <r>  -12.1739    1.0000 </r>
       <r>  -11.9752    1.0000 </r>
       <r>  -11.9263    1.0000 </r>
       <r>   -5.4996    1.0000 </r>
       <r>   -5.4334    1.0000 </r>
       <r>   -4.6806    1.0000 </r>
       <r>   -4.5953    1.0000 </r>
       <r>   -4.0066    1.0000 </r>
       <r>   -3.8114    1.0000 </r>
       <r>   -3.1539    1.0000 </r>
       <r>   -3.1172    1.0000 </r>
       <r>   -1.9606    1.0000 </r>
       <r>   -1.6512    1.0000 </r>
       <r>   -1.4832    1.0000 </r>
       <r>   -1.4603    1.0000 </r>
       <r>   -0.6596    1.0000 </r>
       <r>   -0.5742    1.0000 </r>
       <r>    2.1132   -0.0000 </r>
       <r>    2.1672   -0.0000 </r>
       <r>    2.4965   -0.0000 </r>
       <r>    2.6001   -0.0000 </r>
       <r>    3.5725    0.0000 </r>
       <r>    3.7251    0.0000 </r>
       <r>    4.0989    0.0000 </r>
       <r>    4.1918    0.0000 </r>
       <r>    6.3658    0.0000 </r>
       <r>    6.9730    0.0000 </r>
       <r>    8.1024    0.0000 </r>
       <r>    8.3162    0.0000 </r>
      </set>
      <set comment="kpoint 14">
       <r>  -35.1448    1.0000 </r>
       <r>  -35.1438    1.0000 </r>
       <r>  -34.9084    1.0000 </r>
       <r>  -34.9075    1.0000 </r>
       <r>  -34.8880    1.0000 </r>
       <r>  -34.8870    1.0000 </r>
       <r>  -12.0865    1.0000 </r>
       <r>  -12.0432    1.0000 </r>
       <r>  -11.9225    1.0000 </r>
       <r>  -11.8771    1.0000 </r>
       <r>   -5.6182    1.0000 </r>
       <r>   -5.5540    1.0000 </r>
       <r>   -4.8237    1.0000 </r>
       <r>   -4.7422    1.0000 </r>
       <r>   -4.0749    1.0000 </r>
       <r>   -3.8864    1.0000 </r>
       <r>   -3.1740    1.0000 </r>
       <r>   -3.1480    1.0000 </r>
       <r>   -2.0515    1.0000 </r>
       <r>   -1.7322    1.0000 </r>
       <r>   -1.4198    1.0000 </r>
       <r>   -1.3900    1.0000 </r>
       <r>   -0.5306    1.0000 </r>
       <r>   -0.4264    1.0000 </r>
       <r>    2.1465   -0.0000 </r>
       <r>    2.1689   -0.0000 </r>
       <r>    2.6407   -0.0000 </r>
       <r>    2.7245   -0.0000 </r>
       <r>    3.8012    0.0000 </r>
       <r>    3.9047    0.0000 </r>
       <r>    3.9894    0.0000 </r>
       <r>    4.1359    0.0000 </r>
       <r>    5.9231    0.0000 </r>
       <r>    6.6024    0.0000 </r>
       <r>    8.3703    0.0000 </r>
       <r>    8.4012    0.0000 </r>
      </set>
      <set comment="kpoint 15">
       <r>  -35.1260    1.0000 </r>
       <r>  -35.1251    1.0000 </r>
       <r>  -34.9124    1.0000 </r>
       <r>  -34.9115    1.0000 </r>
       <r>  -34.8826    1.0000 </r>
       <r>  -34.8817    1.0000 </r>
       <r>  -12.2186    1.0000 </r>
       <r>  -12.1739    1.0000 </r>
       <r>  -11.9752    1.0000 </r>
       <r>  -11.9263    1.0000 </r>
       <r>   -5.4996    1.0000 </r>
       <r>   -5.4334    1.0000 </r>
       <r>   -4.6806    1.0000 </r>
       <r>   -4.5953    1.0000 </r>
       <r>   -4.0066    1.0000 </r>
       <r>   -3.8114    1.0000 </r>
       <r>   -3.1539    1.0000 </r>
       <r>   -3.1172    1.0000 </r>
       <r>   -1.9606    1.0000 </r>
       <r>   -1.6512    1.0000 </r>
       <r>   -1.4832    1.0000 </r>
       <r>   -1.4604    1.0000 </r>
       <r>   -0.6596    1.0000 </r>
       <r>   -0.5742    1.0000 </r>
       <r>    2.1132   -0.0000 </r>
       <r>    2.1672   -0.0000 </r>
       <r>    2.4965   -0.0000 </r>
       <r>    2.6001   -0.0000 </r>
       <r>    3.5725    0.0000 </r>
       <r>    3.7252    0.0000 </r>
       <r>    4.0988    0.0000 </r>
       <r>    4.1918    0.0000 </r>
       <r>    6.3658    0.0000 </r>
       <r>    6.9731    0.0000 </r>
       <r>    8.0929    0.0000 </r>
       <r>    8.2395    0.0000 </r>
      </set>
      <set comment="kpoint 16">
       <r>  -35.0737    1.0000 </r>
       <r>  -35.0727    1.0000 </r>
       <r>  -34.9236    1.0000 </r>
       <r>  -34.9227    1.0000 </r>
       <r>  -34.8678    1.0000 </r>
       <r>  -34.8668    1.0000 </r>
       <r>  -12.5592    1.0000 </r>
       <r>  -12.5110    1.0000 </r>
       <r>  -12.1122    1.0000 </r>
       <r>  -12.0547    1.0000 </r>
       <r>   -5.2148    1.0000 </r>
       <r>   -5.1291    1.0000 </r>
       <r>   -4.2925    1.0000 </r>
       <r>   -4.1894    1.0000 </r>
       <r>   -3.9013    1.0000 </r>
       <r>   -3.7049    1.0000 </r>
       <r>   -3.0665    1.0000 </r>
       <r>   -3.0111    1.0000 </r>
       <r>   -1.7234    1.0000 </r>
       <r>   -1.6269    1.0000 </r>
       <r>   -1.6091    1.0000 </r>
       <r>   -1.4110    1.0000 </r>
       <r>   -0.8691    1.0000 </r>
       <r>   -0.8056    1.0000 </r>
       <r>    1.9690   -0.0000 </r>
       <r>    2.0969   -0.0000 </r>
       <r>    2.3232   -0.0000 </r>
       <r>    2.4375   -0.0000 </r>
       <r>    3.1791    0.0000 </r>
       <r>    3.3691    0.0000 </r>
       <r>    4.1019    0.0000 </r>
       <r>    4.1438    0.0000 </r>
       <r>    7.3182    0.0000 </r>
       <r>    7.5218    0.0000 </r>
       <r>    7.5726    0.0000 </r>
       <r>    8.0799    0.0000 </r>
      </set>
      <set comment="kpoint 17">
       <r>  -34.9990    1.0000 </r>
       <r>  -34.9981    1.0000 </r>
       <r>  -34.9393    1.0000 </r>
       <r>  -34.9384    1.0000 </r>
       <r>  -34.8467    1.0000 </r>
       <r>  -34.8458    1.0000 </r>
       <r>  -12.9890    1.0000 </r>
       <r>  -12.9375    1.0000 </r>
       <r>  -12.2888    1.0000 </r>
       <r>  -12.2208    1.0000 </r>
       <r>   -4.9910    1.0000 </r>
       <r>   -4.8229    1.0000 </r>
       <r>   -3.8805    1.0000 </r>
       <r>   -3.7431    1.0000 </r>
       <r>   -3.7222    1.0000 </r>
       <r>   -3.5869    1.0000 </r>
       <r>   -2.8535    1.0000 </r>
       <r>   -2.7985    1.0000 </r>
       <r>   -1.7893    1.0000 </r>
       <r>   -1.7777    1.0000 </r>
       <r>   -1.4092    1.0000 </r>
       <r>   -1.1122    1.0000 </r>
       <r>   -0.8477    1.0000 </r>
       <r>   -0.7633    1.0000 </r>
       <r>    1.8550   -0.0000 </r>
       <r>    2.0624   -0.0000 </r>
       <r>    2.2894   -0.0000 </r>
       <r>    2.3707   -0.0000 </r>
       <r>    2.7541   -0.0000 </r>
       <r>    2.9537   -0.0000 </r>
       <r>    3.9063    0.0000 </r>
       <r>    3.9192    0.0000 </r>
       <r>    6.7906    0.0000 </r>
       <r>    7.0241    0.0000 </r>
       <r>    7.7853    0.0000 </r>
       <r>    8.4093    0.0000 </r>
      </set>
      <set comment="kpoint 18">
       <r>  -34.9559    1.0000 </r>
       <r>  -34.9550    1.0000 </r>
       <r>  -34.9187    1.0000 </r>
       <r>  -34.9177    1.0000 </r>
       <r>  -34.8243    1.0000 </r>
       <r>  -34.8234    1.0000 </r>
       <r>  -13.3984    1.0000 </r>
       <r>  -13.3449    1.0000 </r>
       <r>  -12.4600    1.0000 </r>
       <r>  -12.3819    1.0000 </r>
       <r>   -5.1157    1.0000 </r>
       <r>   -4.8524    1.0000 </r>
       <r>   -3.5634    1.0000 </r>
       <r>   -3.5311    1.0000 </r>
       <r>   -3.2242    1.0000 </r>
       <r>   -2.9976    1.0000 </r>
       <r>   -2.4579    1.0000 </r>
       <r>   -2.4369    1.0000 </r>
       <r>   -2.0706    1.0000 </r>
       <r>   -2.0638    1.0000 </r>
       <r>   -1.1862    1.0000 </r>
       <r>   -0.8745    1.0000 </r>
       <r>   -0.5435    1.0000 </r>
       <r>   -0.3851    1.0000 </r>
       <r>    1.9511   -0.0000 </r>
       <r>    2.1901   -0.0000 </r>
       <r>    2.4054   -0.0000 </r>
       <r>    2.4157   -0.0000 </r>
       <r>    2.4758   -0.0000 </r>
       <r>    2.6404   -0.0000 </r>
       <r>    3.5514    0.0000 </r>
       <r>    3.5562    0.0000 </r>
       <r>    6.1766    0.0000 </r>
       <r>    6.4698    0.0000 </r>
       <r>    7.2098    0.0000 </r>
       <r>    8.2267    0.0000 </r>
      </set>
      <set comment="kpoint 19">
       <r>  -34.9696    1.0000 </r>
       <r>  -34.9687    1.0000 </r>
       <r>  -34.8512    1.0000 </r>
       <r>  -34.8501    1.0000 </r>
       <r>  -34.8058    1.0000 </r>
       <r>  -34.8049    1.0000 </r>
       <r>  -13.7106    1.0000 </r>
       <r>  -13.6562    1.0000 </r>
       <r>  -12.5915    1.0000 </r>
       <r>  -12.5057    1.0000 </r>
       <r>   -5.3947    1.0000 </r>
       <r>   -5.1111    1.0000 </r>
       <r>   -3.1131    1.0000 </r>
       <r>   -3.1082    1.0000 </r>
       <r>   -2.7886    1.0000 </r>
       <r>   -2.4779    1.0000 </r>
       <r>   -2.3532    1.0000 </r>
       <r>   -2.3499    1.0000 </r>
       <r>   -1.9684    1.0000 </r>
       <r>   -1.9663    1.0000 </r>
       <r>   -1.1951    1.0000 </r>
       <r>   -0.8769    1.0000 </r>
       <r>   -0.3091    1.0000 </r>
       <r>   -0.0257    1.0002 </r>
       <r>    2.2934   -0.0000 </r>
       <r>    2.4275   -0.0000 </r>
       <r>    2.4629   -0.0000 </r>
       <r>    2.5554   -0.0000 </r>
       <r>    2.6392   -0.0000 </r>
       <r>    2.6438   -0.0000 </r>
       <r>    3.1363    0.0000 </r>
       <r>    3.1488    0.0000 </r>
       <r>    5.7327    0.0000 </r>
       <r>    6.0448    0.0000 </r>
       <r>    6.9061    0.0000 </r>
       <r>    7.6031    0.0000 </r>
      </set>
      <set comment="kpoint 20">
       <r>  -34.9774    1.0000 </r>
       <r>  -34.9765    1.0000 </r>
       <r>  -34.8123    1.0000 </r>
       <r>  -34.8112    1.0000 </r>
       <r>  -34.7958    1.0000 </r>
       <r>  -34.7949    1.0000 </r>
       <r>  -13.8782    1.0000 </r>
       <r>  -13.8235    1.0000 </r>
       <r>  -12.6622    1.0000 </r>
       <r>  -12.5723    1.0000 </r>
       <r>   -5.5760    1.0000 </r>
       <r>   -5.2903    1.0000 </r>
       <r>   -2.7995    1.0000 </r>
       <r>   -2.7951    1.0000 </r>
       <r>   -2.5202    1.0000 </r>
       <r>   -2.5193    1.0000 </r>
       <r>   -2.4517    1.0000 </r>
       <r>   -2.0636    1.0000 </r>
       <r>   -1.6549    1.0000 </r>
       <r>   -1.6536    1.0000 </r>
       <r>   -1.3447    1.0000 </r>
       <r>   -1.0667    1.0000 </r>
       <r>   -0.2324    1.0000 </r>
       <r>    0.1431    1.0349 </r>
       <r>    2.6045   -0.0000 </r>
       <r>    2.6108   -0.0000 </r>
       <r>    2.6575   -0.0000 </r>
       <r>    2.7025   -0.0000 </r>
       <r>    2.8022   -0.0000 </r>
       <r>    2.8074   -0.0000 </r>
       <r>    2.8614   -0.0000 </r>
       <r>    2.8643   -0.0000 </r>
       <r>    5.4924    0.0000 </r>
       <r>    5.8007    0.0000 </r>
       <r>    6.5680    0.0000 </r>
       <r>    6.9539    0.0000 </r>
      </set>
      <set comment="kpoint 21">
       <r>  -34.9660    1.0000 </r>
       <r>  -34.9651    1.0000 </r>
       <r>  -34.8707    1.0000 </r>
       <r>  -34.8698    1.0000 </r>
       <r>  -34.8092    1.0000 </r>
       <r>  -34.8082    1.0000 </r>
       <r>  -13.6294    1.0000 </r>
       <r>  -13.5759    1.0000 </r>
       <r>  -12.5569    1.0000 </r>
       <r>  -12.4744    1.0000 </r>
       <r>   -5.3152    1.0000 </r>
       <r>   -5.0368    1.0000 </r>
       <r>   -3.2496    1.0000 </r>
       <r>   -3.2429    1.0000 </r>
       <r>   -2.9516    1.0000 </r>
       <r>   -2.6797    1.0000 </r>
       <r>   -2.2647    1.0000 </r>
       <r>   -2.2635    1.0000 </r>
       <r>   -1.9903    1.0000 </r>
       <r>   -1.9883    1.0000 </r>
       <r>   -1.2491    1.0000 </r>
       <r>   -0.9447    1.0000 </r>
       <r>   -0.3600    1.0000 </r>
       <r>   -0.1436    1.0000 </r>
       <r>    2.1969   -0.0000 </r>
       <r>    2.3670   -0.0000 </r>
       <r>    2.5078   -0.0000 </r>
       <r>    2.5699   -0.0000 </r>
       <r>    2.5789   -0.0000 </r>
       <r>    2.6204   -0.0000 </r>
       <r>    3.2081    0.0000 </r>
       <r>    3.2138    0.0000 </r>
       <r>    5.8450    0.0000 </r>
       <r>    6.1504    0.0000 </r>
       <r>    6.9470    0.0000 </r>
       <r>    7.8231    0.0000 </r>
      </set>
      <set comment="kpoint 22">
       <r>  -34.9559    1.0000 </r>
       <r>  -34.9550    1.0000 </r>
       <r>  -34.9187    1.0000 </r>
       <r>  -34.9178    1.0000 </r>
       <r>  -34.8244    1.0000 </r>
       <r>  -34.8234    1.0000 </r>
       <r>  -13.3979    1.0000 </r>
       <r>  -13.3453    1.0000 </r>
       <r>  -12.4592    1.0000 </r>
       <r>  -12.3827    1.0000 </r>
       <r>   -5.1151    1.0000 </r>
       <r>   -4.8529    1.0000 </r>
       <r>   -3.5559    1.0000 </r>
       <r>   -3.5387    1.0000 </r>
       <r>   -3.2236    1.0000 </r>
       <r>   -2.9992    1.0000 </r>
       <r>   -2.4589    1.0000 </r>
       <r>   -2.4348    1.0000 </r>
       <r>   -2.0681    1.0000 </r>
       <r>   -2.0665    1.0000 </r>
       <r>   -1.1636    1.0000 </r>
       <r>   -0.8911    1.0000 </r>
       <r>   -0.5375    1.0000 </r>
       <r>   -0.4075    1.0000 </r>
       <r>    1.9635   -0.0000 </r>
       <r>    2.1905   -0.0000 </r>
       <r>    2.4012   -0.0000 </r>
       <r>    2.4327   -0.0000 </r>
       <r>    2.4675   -0.0000 </r>
       <r>    2.6360   -0.0000 </r>
       <r>    3.5452    0.0000 </r>
       <r>    3.5605    0.0000 </r>
       <r>    6.1775    0.0000 </r>
       <r>    6.4675    0.0000 </r>
       <r>    7.2119    0.0000 </r>
       <r>    8.2185    0.0000 </r>
      </set>
      <set comment="kpoint 23">
       <r>  -34.9808    1.0000 </r>
       <r>  -34.9799    1.0000 </r>
       <r>  -34.9416    1.0000 </r>
       <r>  -34.9407    1.0000 </r>
       <r>  -34.8508    1.0000 </r>
       <r>  -34.8497    1.0000 </r>
       <r>  -13.0495    1.0000 </r>
       <r>  -12.9988    1.0000 </r>
       <r>  -12.3120    1.0000 </r>
       <r>  -12.2443    1.0000 </r>
       <r>   -4.9428    1.0000 </r>
       <r>   -4.7473    1.0000 </r>
       <r>   -3.8089    1.0000 </r>
       <r>   -3.7234    1.0000 </r>
       <r>   -3.5161    1.0000 </r>
       <r>   -3.3925    1.0000 </r>
       <r>   -3.0900    1.0000 </r>
       <r>   -2.9883    1.0000 </r>
       <r>   -1.9384    1.0000 </r>
       <r>   -1.9332    1.0000 </r>
       <r>   -1.1491    1.0000 </r>
       <r>   -0.9220    1.0000 </r>
       <r>   -0.7764    1.0000 </r>
       <r>   -0.7157    1.0000 </r>
       <r>    1.7636   -0.0000 </r>
       <r>    1.9939   -0.0000 </r>
       <r>    2.3276   -0.0000 </r>
       <r>    2.4091   -0.0000 </r>
       <r>    2.5213   -0.0000 </r>
       <r>    2.7191   -0.0000 </r>
       <r>    3.9375    0.0000 </r>
       <r>    3.9842    0.0000 </r>
       <r>    6.7106    0.0000 </r>
       <r>    6.9613    0.0000 </r>
       <r>    7.7279    0.0000 </r>
       <r>    8.5657    0.0000 </r>
      </set>
      <set comment="kpoint 24">
       <r>  -35.0436    1.0000 </r>
       <r>  -35.0427    1.0000 </r>
       <r>  -34.9265    1.0000 </r>
       <r>  -34.9255    1.0000 </r>
       <r>  -34.8811    1.0000 </r>
       <r>  -34.8801    1.0000 </r>
       <r>  -12.6439    1.0000 </r>
       <r>  -12.5966    1.0000 </r>
       <r>  -12.1409    1.0000 </r>
       <r>  -12.0834    1.0000 </r>
       <r>   -5.0188    1.0000 </r>
       <r>   -4.9150    1.0000 </r>
       <r>   -4.0943    1.0000 </r>
       <r>   -4.0408    1.0000 </r>
       <r>   -3.8059    1.0000 </r>
       <r>   -3.6322    1.0000 </r>
       <r>   -3.3053    1.0000 </r>
       <r>   -3.1552    1.0000 </r>
       <r>   -2.0673    1.0000 </r>
       <r>   -2.0515    1.0000 </r>
       <r>   -1.3724    1.0000 </r>
       <r>   -1.1620    1.0000 </r>
       <r>   -0.8298    1.0000 </r>
       <r>   -0.8075    1.0000 </r>
       <r>    1.7948   -0.0000 </r>
       <r>    2.0470   -0.0000 </r>
       <r>    2.3943   -0.0000 </r>
       <r>    2.4500   -0.0000 </r>
       <r>    2.7910   -0.0000 </r>
       <r>    2.9656   -0.0000 </r>
       <r>    4.1863    0.0000 </r>
       <r>    4.2740    0.0000 </r>
       <r>    7.3776    0.0000 </r>
       <r>    7.5511    0.0000 </r>
       <r>    8.1141    0.0000 </r>
       <r>    8.4721    0.0000 </r>
      </set>
      <set comment="kpoint 25">
       <r>  -35.0942    1.0000 </r>
       <r>  -35.0933    1.0000 </r>
       <r>  -34.9139    1.0000 </r>
       <r>  -34.9129    1.0000 </r>
       <r>  -34.9070    1.0000 </r>
       <r>  -34.9060    1.0000 </r>
       <r>  -12.2708    1.0000 </r>
       <r>  -12.2276    1.0000 </r>
       <r>  -11.9843    1.0000 </r>
       <r>  -11.9362    1.0000 </r>
       <r>   -5.2208    1.0000 </r>
       <r>   -5.1510    1.0000 </r>
       <r>   -4.6374    1.0000 </r>
       <r>   -4.5935    1.0000 </r>
       <r>   -3.8421    1.0000 </r>
       <r>   -3.6427    1.0000 </r>
       <r>   -3.2769    1.0000 </r>
       <r>   -3.1505    1.0000 </r>
       <r>   -2.2036    1.0000 </r>
       <r>   -2.1692    1.0000 </r>
       <r>   -1.7144    1.0000 </r>
       <r>   -1.4976    1.0000 </r>
       <r>   -0.6609    1.0000 </r>
       <r>   -0.6276    1.0000 </r>
       <r>    2.0175   -0.0000 </r>
       <r>    2.2221   -0.0000 </r>
       <r>    2.5131   -0.0000 </r>
       <r>    2.5575   -0.0000 </r>
       <r>    3.1574    0.0000 </r>
       <r>    3.2662    0.0000 </r>
       <r>    4.2385    0.0000 </r>
       <r>    4.3960    0.0000 </r>
       <r>    7.0131    0.0000 </r>
       <r>    7.5504    0.0000 </r>
       <r>    8.1711    0.0000 </r>
       <r>    8.4400    0.0000 </r>
      </set>
      <set comment="kpoint 26">
       <r>  -35.1224    1.0000 </r>
       <r>  -35.1214    1.0000 </r>
       <r>  -34.9219    1.0000 </r>
       <r>  -34.9209    1.0000 </r>
       <r>  -34.9067    1.0000 </r>
       <r>  -34.9058    1.0000 </r>
       <r>  -12.0413    1.0000 </r>
       <r>  -12.0010    1.0000 </r>
       <r>  -11.8878    1.0000 </r>
       <r>  -11.8460    1.0000 </r>
       <r>   -5.3541    1.0000 </r>
       <r>   -5.2917    1.0000 </r>
       <r>   -4.9456    1.0000 </r>
       <r>   -4.9018    1.0000 </r>
       <r>   -3.9808    1.0000 </r>
       <r>   -3.7890    1.0000 </r>
       <r>   -3.1913    1.0000 </r>
       <r>   -3.0954    1.0000 </r>
       <r>   -2.2041    1.0000 </r>
       <r>   -2.1552    1.0000 </r>
       <r>   -1.9788    1.0000 </r>
       <r>   -1.7416    1.0000 </r>
       <r>   -0.4416    1.0000 </r>
       <r>   -0.3772    1.0000 </r>
       <r>    2.0641   -0.0000 </r>
       <r>    2.1198   -0.0000 </r>
       <r>    2.7555   -0.0000 </r>
       <r>    2.8790   -0.0000 </r>
       <r>    3.4380    0.0000 </r>
       <r>    3.4780    0.0000 </r>
       <r>    4.1536    0.0000 </r>
       <r>    4.4031    0.0000 </r>
       <r>    6.2575    0.0000 </r>
       <r>    6.9623    0.0000 </r>
       <r>    8.7684    0.0000 </r>
       <r>    8.9520    0.0000 </r>
      </set>
      <set comment="kpoint 27">
       <r>  -35.1224    1.0000 </r>
       <r>  -35.1214    1.0000 </r>
       <r>  -34.9219    1.0000 </r>
       <r>  -34.9210    1.0000 </r>
       <r>  -34.9067    1.0000 </r>
       <r>  -34.9058    1.0000 </r>
       <r>  -12.0413    1.0000 </r>
       <r>  -12.0010    1.0000 </r>
       <r>  -11.8878    1.0000 </r>
       <r>  -11.8460    1.0000 </r>
       <r>   -5.3541    1.0000 </r>
       <r>   -5.2917    1.0000 </r>
       <r>   -4.9456    1.0000 </r>
       <r>   -4.9018    1.0000 </r>
       <r>   -3.9808    1.0000 </r>
       <r>   -3.7890    1.0000 </r>
       <r>   -3.1913    1.0000 </r>
       <r>   -3.0954    1.0000 </r>
       <r>   -2.2041    1.0000 </r>
       <r>   -2.1552    1.0000 </r>
       <r>   -1.9788    1.0000 </r>
       <r>   -1.7416    1.0000 </r>
       <r>   -0.4416    1.0000 </r>
       <r>   -0.3771    1.0000 </r>
       <r>    2.0641   -0.0000 </r>
       <r>    2.1198   -0.0000 </r>
       <r>    2.7555   -0.0000 </r>
       <r>    2.8790   -0.0000 </r>
       <r>    3.4380    0.0000 </r>
       <r>    3.4780    0.0000 </r>
       <r>    4.1536    0.0000 </r>
       <r>    4.4031    0.0000 </r>
       <r>    6.2575    0.0000 </r>
       <r>    6.9623    0.0000 </r>
       <r>    8.7515    0.0000 </r>
       <r>    9.0230    0.0000 </r>
      </set>
      <set comment="kpoint 28">
       <r>  -35.0943    1.0000 </r>
       <r>  -35.0933    1.0000 </r>
       <r>  -34.9139    1.0000 </r>
       <r>  -34.9129    1.0000 </r>
       <r>  -34.9070    1.0000 </r>
       <r>  -34.9061    1.0000 </r>
       <r>  -12.2708    1.0000 </r>
       <r>  -12.2276    1.0000 </r>
       <r>  -11.9843    1.0000 </r>
       <r>  -11.9362    1.0000 </r>
       <r>   -5.2208    1.0000 </r>
       <r>   -5.1510    1.0000 </r>
       <r>   -4.6374    1.0000 </r>
       <r>   -4.5935    1.0000 </r>
       <r>   -3.8421    1.0000 </r>
       <r>   -3.6427    1.0000 </r>
       <r>   -3.2769    1.0000 </r>
       <r>   -3.1505    1.0000 </r>
       <r>   -2.2036    1.0000 </r>
       <r>   -2.1692    1.0000 </r>
       <r>   -1.7144    1.0000 </r>
       <r>   -1.4976    1.0000 </r>
       <r>   -0.6609    1.0000 </r>
       <r>   -0.6276    1.0000 </r>
       <r>    2.0175   -0.0000 </r>
       <r>    2.2221   -0.0000 </r>
       <r>    2.5132   -0.0000 </r>
       <r>    2.5575   -0.0000 </r>
       <r>    3.1574    0.0000 </r>
       <r>    3.2662    0.0000 </r>
       <r>    4.2385    0.0000 </r>
       <r>    4.3960    0.0000 </r>
       <r>    7.0129    0.0000 </r>
       <r>    7.5512    0.0000 </r>
       <r>    8.1662    0.0000 </r>
       <r>    8.6475    0.0000 </r>
      </set>
      <set comment="kpoint 29">
       <r>  -35.0437    1.0000 </r>
       <r>  -35.0426    1.0000 </r>
       <r>  -34.9265    1.0000 </r>
       <r>  -34.9255    1.0000 </r>
       <r>  -34.8810    1.0000 </r>
       <r>  -34.8801    1.0000 </r>
       <r>  -12.6439    1.0000 </r>
       <r>  -12.5966    1.0000 </r>
       <r>  -12.1409    1.0000 </r>
       <r>  -12.0834    1.0000 </r>
       <r>   -5.0188    1.0000 </r>
       <r>   -4.9150    1.0000 </r>
       <r>   -4.0943    1.0000 </r>
       <r>   -4.0408    1.0000 </r>
       <r>   -3.8059    1.0000 </r>
       <r>   -3.6321    1.0000 </r>
       <r>   -3.3053    1.0000 </r>
       <r>   -3.1552    1.0000 </r>
       <r>   -2.0673    1.0000 </r>
       <r>   -2.0515    1.0000 </r>
       <r>   -1.3724    1.0000 </r>
       <r>   -1.1620    1.0000 </r>
       <r>   -0.8298    1.0000 </r>
       <r>   -0.8074    1.0000 </r>
       <r>    1.7948   -0.0000 </r>
       <r>    2.0470   -0.0000 </r>
       <r>    2.3943   -0.0000 </r>
       <r>    2.4500   -0.0000 </r>
       <r>    2.7911   -0.0000 </r>
       <r>    2.9656   -0.0000 </r>
       <r>    4.1863    0.0000 </r>
       <r>    4.2740    0.0000 </r>
       <r>    7.3785    0.0000 </r>
       <r>    7.5511    0.0000 </r>
       <r>    8.1127    0.0000 </r>
       <r>    8.4797    0.0000 </r>
      </set>
      <set comment="kpoint 30">
       <r>  -34.9809    1.0000 </r>
       <r>  -34.9798    1.0000 </r>
       <r>  -34.9416    1.0000 </r>
       <r>  -34.9407    1.0000 </r>
       <r>  -34.8507    1.0000 </r>
       <r>  -34.8498    1.0000 </r>
       <r>  -13.0495    1.0000 </r>
       <r>  -12.9988    1.0000 </r>
       <r>  -12.3120    1.0000 </r>
       <r>  -12.2443    1.0000 </r>
       <r>   -4.9428    1.0000 </r>
       <r>   -4.7473    1.0000 </r>
       <r>   -3.8089    1.0000 </r>
       <r>   -3.7234    1.0000 </r>
       <r>   -3.5161    1.0000 </r>
       <r>   -3.3925    1.0000 </r>
       <r>   -3.0900    1.0000 </r>
       <r>   -2.9883    1.0000 </r>
       <r>   -1.9384    1.0000 </r>
       <r>   -1.9332    1.0000 </r>
       <r>   -1.1490    1.0000 </r>
       <r>   -0.9220    1.0000 </r>
       <r>   -0.7764    1.0000 </r>
       <r>   -0.7157    1.0000 </r>
       <r>    1.7637   -0.0000 </r>
       <r>    1.9939   -0.0000 </r>
       <r>    2.3275   -0.0000 </r>
       <r>    2.4091   -0.0000 </r>
       <r>    2.5213   -0.0000 </r>
       <r>    2.7191   -0.0000 </r>
       <r>    3.9375    0.0000 </r>
       <r>    3.9842    0.0000 </r>
       <r>    6.7106    0.0000 </r>
       <r>    6.9613    0.0000 </r>
       <r>    7.7245    0.0000 </r>
       <r>    8.5467    0.0000 </r>
      </set>
      <set comment="kpoint 31">
       <r>  -34.9559    1.0000 </r>
       <r>  -34.9550    1.0000 </r>
       <r>  -34.9188    1.0000 </r>
       <r>  -34.9177    1.0000 </r>
       <r>  -34.8243    1.0000 </r>
       <r>  -34.8234    1.0000 </r>
       <r>  -13.3979    1.0000 </r>
       <r>  -13.3453    1.0000 </r>
       <r>  -12.4592    1.0000 </r>
       <r>  -12.3827    1.0000 </r>
       <r>   -5.1151    1.0000 </r>
       <r>   -4.8529    1.0000 </r>
       <r>   -3.5559    1.0000 </r>
       <r>   -3.5387    1.0000 </r>
       <r>   -3.2236    1.0000 </r>
       <r>   -2.9992    1.0000 </r>
       <r>   -2.4589    1.0000 </r>
       <r>   -2.4348    1.0000 </r>
       <r>   -2.0681    1.0000 </r>
       <r>   -2.0664    1.0000 </r>
       <r>   -1.1636    1.0000 </r>
       <r>   -0.8911    1.0000 </r>
       <r>   -0.5375    1.0000 </r>
       <r>   -0.4075    1.0000 </r>
       <r>    1.9635   -0.0000 </r>
       <r>    2.1905   -0.0000 </r>
       <r>    2.4011   -0.0000 </r>
       <r>    2.4328   -0.0000 </r>
       <r>    2.4674   -0.0000 </r>
       <r>    2.6360   -0.0000 </r>
       <r>    3.5451    0.0000 </r>
       <r>    3.5606    0.0000 </r>
       <r>    6.1773    0.0000 </r>
       <r>    6.4675    0.0000 </r>
       <r>    7.2151    0.0000 </r>
       <r>    8.3071    0.0000 </r>
      </set>
      <set comment="kpoint 32">
       <r>  -34.9660    1.0000 </r>
       <r>  -34.9651    1.0000 </r>
       <r>  -34.8707    1.0000 </r>
       <r>  -34.8697    1.0000 </r>
       <r>  -34.8091    1.0000 </r>
       <r>  -34.8083    1.0000 </r>
       <r>  -13.6294    1.0000 </r>
       <r>  -13.5759    1.0000 </r>
       <r>  -12.5569    1.0000 </r>
       <r>  -12.4744    1.0000 </r>
       <r>   -5.3152    1.0000 </r>
       <r>   -5.0368    1.0000 </r>
       <r>   -3.2496    1.0000 </r>
       <r>   -3.2429    1.0000 </r>
       <r>   -2.9516    1.0000 </r>
       <r>   -2.6797    1.0000 </r>
       <r>   -2.2648    1.0000 </r>
       <r>   -2.2635    1.0000 </r>
       <r>   -1.9903    1.0000 </r>
       <r>   -1.9883    1.0000 </r>
       <r>   -1.2491    1.0000 </r>
       <r>   -0.9447    1.0000 </r>
       <r>   -0.3600    1.0000 </r>
       <r>   -0.1436    1.0000 </r>
       <r>    2.1969   -0.0000 </r>
       <r>    2.3670   -0.0000 </r>
       <r>    2.5078   -0.0000 </r>
       <r>    2.5699   -0.0000 </r>
       <r>    2.5789   -0.0000 </r>
       <r>    2.6204   -0.0000 </r>
       <r>    3.2081    0.0000 </r>
       <r>    3.2138    0.0000 </r>
       <r>    5.8450    0.0000 </r>
       <r>    6.1504    0.0000 </r>
       <r>    6.9625    0.0000 </r>
       <r>    7.8356    0.0000 </r>
      </set>
      <set comment="kpoint 33">
       <r>  -34.9696    1.0000 </r>
       <r>  -34.9687    1.0000 </r>
       <r>  -34.8512    1.0000 </r>
       <r>  -34.8502    1.0000 </r>
       <r>  -34.8058    1.0000 </r>
       <r>  -34.8049    1.0000 </r>
       <r>  -13.7102    1.0000 </r>
       <r>  -13.6565    1.0000 </r>
       <r>  -12.5909    1.0000 </r>
       <r>  -12.5064    1.0000 </r>
       <r>   -5.3936    1.0000 </r>
       <r>   -5.1120    1.0000 </r>
       <r>   -3.1150    1.0000 </r>
       <r>   -3.1061    1.0000 </r>
       <r>   -2.7910    1.0000 </r>
       <r>   -2.4759    1.0000 </r>
       <r>   -2.3525    1.0000 </r>
       <r>   -2.3507    1.0000 </r>
       <r>   -1.9691    1.0000 </r>
       <r>   -1.9650    1.0000 </r>
       <r>   -1.1770    1.0000 </r>
       <r>   -0.8916    1.0000 </r>
       <r>   -0.3042    1.0000 </r>
       <r>   -0.0463    1.0001 </r>
       <r>    2.3201   -0.0000 </r>
       <r>    2.4293   -0.0000 </r>
       <r>    2.4742   -0.0000 </r>
       <r>    2.5372   -0.0000 </r>
       <r>    2.6290   -0.0000 </r>
       <r>    2.6457   -0.0000 </r>
       <r>    3.1319    0.0000 </r>
       <r>    3.1532    0.0000 </r>
       <r>    5.7327    0.0000 </r>
       <r>    6.0442    0.0000 </r>
       <r>    6.9203    0.0000 </r>
       <r>    7.6108    0.0000 </r>
      </set>
      <set comment="kpoint 34">
       <r>  -34.9522    1.0000 </r>
       <r>  -34.9513    1.0000 </r>
       <r>  -34.9498    1.0000 </r>
       <r>  -34.9490    1.0000 </r>
       <r>  -34.8281    1.0000 </r>
       <r>  -34.8270    1.0000 </r>
       <r>  -13.2535    1.0000 </r>
       <r>  -13.2032    1.0000 </r>
       <r>  -12.3984    1.0000 </r>
       <r>  -12.3280    1.0000 </r>
       <r>   -5.0516    1.0000 </r>
       <r>   -4.8198    1.0000 </r>
       <r>   -3.7075    1.0000 </r>
       <r>   -3.6776    1.0000 </r>
       <r>   -3.4804    1.0000 </r>
       <r>   -3.3007    1.0000 </r>
       <r>   -2.3856    1.0000 </r>
       <r>   -2.3830    1.0000 </r>
       <r>   -1.8959    1.0000 </r>
       <r>   -1.8937    1.0000 </r>
       <r>   -1.4076    1.0000 </r>
       <r>   -1.1464    1.0000 </r>
       <r>   -0.6730    1.0000 </r>
       <r>   -0.5997    1.0000 </r>
       <r>    1.9620   -0.0000 </r>
       <r>    2.2437   -0.0000 </r>
       <r>    2.3205   -0.0000 </r>
       <r>    2.3292   -0.0000 </r>
       <r>    2.7065   -0.0000 </r>
       <r>    2.9024   -0.0000 </r>
       <r>    3.5900    0.0000 </r>
       <r>    3.5996    0.0000 </r>
       <r>    6.3799    0.0000 </r>
       <r>    6.6407    0.0000 </r>
       <r>    7.3814    0.0000 </r>
       <r>    8.2204    0.0000 </r>
      </set>
      <set comment="kpoint 35">
       <r>  -34.9990    1.0000 </r>
       <r>  -34.9981    1.0000 </r>
       <r>  -34.9393    1.0000 </r>
       <r>  -34.9384    1.0000 </r>
       <r>  -34.8468    1.0000 </r>
       <r>  -34.8457    1.0000 </r>
       <r>  -12.9872    1.0000 </r>
       <r>  -12.9390    1.0000 </r>
       <r>  -12.2865    1.0000 </r>
       <r>  -12.2234    1.0000 </r>
       <r>   -4.9917    1.0000 </r>
       <r>   -4.8229    1.0000 </r>
       <r>   -3.8588    1.0000 </r>
       <r>   -3.7731    1.0000 </r>
       <r>   -3.7076    1.0000 </r>
       <r>   -3.5921    1.0000 </r>
       <r>   -2.8549    1.0000 </r>
       <r>   -2.7973    1.0000 </r>
       <r>   -1.7874    1.0000 </r>
       <r>   -1.7813    1.0000 </r>
       <r>   -1.3593    1.0000 </r>
       <r>   -1.1527    1.0000 </r>
       <r>   -0.8374    1.0000 </r>
       <r>   -0.7949    1.0000 </r>
       <r>    1.8552   -0.0000 </r>
       <r>    2.0724   -0.0000 </r>
       <r>    2.2858   -0.0000 </r>
       <r>    2.3801   -0.0000 </r>
       <r>    2.7451   -0.0000 </r>
       <r>    2.9653   -0.0000 </r>
       <r>    3.8938    0.0000 </r>
       <r>    3.9260    0.0000 </r>
       <r>    6.7933    0.0000 </r>
[...]
       <r>    -2.2107     1.4710    18.3904 </r>
       <r>    -2.0488     3.0866    18.8903 </r>
       <r>    -1.8868     3.8828    19.5192 </r>
       <r>    -1.7248     3.3267    20.0579 </r>
       <r>    -1.5629     3.0075    20.5450 </r>
       <r>    -1.4009     3.2284    21.0678 </r>
       <r>    -1.2390     1.7212    21.3466 </r>
       <r>    -1.0770     2.2941    21.7182 </r>
       <r>    -0.9151     1.5952    21.9765 </r>
       <r>    -0.7531     3.7284    22.5803 </r>
       <r>    -0.5912     2.9455    23.0574 </r>
       <r>    -0.4292     2.0707    23.3927 </r>
       <r>    -0.2673     2.0827    23.7300 </r>
       <r>    -0.1053     1.0523    23.9004 </r>
       <r>     0.0567     0.3647    23.9595 </r>
       <r>     0.2186     0.2240    23.9958 </r>
       <r>     0.3806     0.0273    24.0002 </r>
       <r>     0.5425    -0.0014    24.0000 </r>
       <r>     0.7045    -0.0000    24.0000 </r>
       <r>     0.8664    -0.0000    24.0000 </r>
       <r>     1.0284    -0.0000    24.0000 </r>
       <r>     1.1903    -0.0000    24.0000 </r>
       <r>     1.3523    -0.0000    24.0000 </r>
       <r>     1.5142    -0.0071    23.9989 </r>
       <r>     1.6762     0.1342    24.0206 </r>
       <r>     1.8381     1.1725    24.2105 </r>
       <r>     2.0001     2.5684    24.6264 </r>
       <r>     2.1621     5.2923    25.4836 </r>
       <r>     2.3240     3.5880    26.0646 </r>
       <r>     2.4860     4.8525    26.8505 </r>
       <r>     2.6479     5.0310    27.6653 </r>
       <r>     2.8099     3.3691    28.2110 </r>
       <r>     2.9718     3.0022    28.6972 </r>
       <r>     3.1338     2.5475    29.1098 </r>
       <r>     3.2957     2.6777    29.5434 </r>
       <r>     3.4577     1.5849    29.8001 </r>
       <r>     3.6196     2.1347    30.1458 </r>
       <r>     3.7816     0.9480    30.2994 </r>
       <r>     3.9435     1.9056    30.6080 </r>
       <r>     4.1055     1.9869    30.9298 </r>
       <r>     4.2675     3.0493    31.4236 </r>
       <r>     4.4294     1.6233    31.6865 </r>
       <r>     4.5914     1.1403    31.8712 </r>
       <r>     4.7533     0.6921    31.9833 </r>
       <r>     4.9153     0.1090    32.0009 </r>
       <r>     5.0772    -0.0057    32.0000 </r>
       <r>     5.2392    -0.0015    31.9998 </r>
       <r>     5.4011     0.0285    32.0044 </r>
       <r>     5.5631     0.2155    32.0393 </r>
       <r>     5.7250     0.1403    32.0620 </r>
       <r>     5.8870     0.5499    32.1511 </r>
       <r>     6.0489     0.2552    32.1924 </r>
       <r>     6.2109     0.8761    32.3343 </r>
       <r>     6.3729     0.7469    32.4552 </r>
       <r>     6.5348     1.0210    32.6206 </r>
       <r>     6.6968     1.1403    32.8053 </r>
       <r>     6.8587     1.3938    33.0310 </r>
       <r>     7.0207     2.0230    33.3586 </r>
       <r>     7.1826     1.2950    33.5684 </r>
       <r>     7.3446     1.6096    33.8290 </r>
       <r>     7.5065     1.5361    34.0778 </r>
       <r>     7.6685     1.6579    34.3463 </r>
       <r>     7.8304     1.2014    34.5409 </r>
       <r>     7.9924     1.1922    34.7340 </r>
       <r>     8.1544     1.5499    34.9850 </r>
       <r>     8.3163     2.4181    35.3766 </r>
       <r>     8.4783     1.7722    35.6636 </r>
       <r>     8.6402     0.7899    35.7916 </r>
       <r>     8.8022     0.7424    35.9118 </r>
       <r>     8.9641     0.3841    35.9740 </r>
       <r>     9.1261     0.1672    36.0011 </r>
       <r>     9.2880    -0.0066    36.0000 </r>
       <r>     9.4500    -0.0001    36.0000 </r>
       <r>     9.6119    -0.0000    36.0000 </r>
       <r>     9.7739    -0.0000    36.0000 </r>
       <r>     9.9358     0.0000    36.0000 </r>
       <r>    10.0978     0.0000    36.0000 </r>
       <r>    10.2598     0.0000    36.0000 </r>
       <r>    10.4217     0.0000    36.0000 </r>
       <r>    10.5837     0.0000    36.0000 </r>
       <r>    10.7456     0.0000    36.0000 </r>
       <r>    10.9076     0.0000    36.0000 </r>
       <r>    11.0695     0.0000    36.0000 </r>
       <r>    11.2315     0.0000    36.0000 </r>
      </set>
      <set comment="spin 2">
       <r>   -37.3547     0.0000     0.0000 </r>
       <r>   -37.1928     0.0000     0.0000 </r>
       <r>   -37.0308     0.0000     0.0000 </r>
       <r>   -36.8689     0.0000     0.0000 </r>
       <r>   -36.7069     0.0000     0.0000 </r>
       <r>   -36.5450     0.0000     0.0000 </r>
       <r>   -36.3830     0.0000     0.0000 </r>
       <r>   -36.2211     0.0000     0.0000 </r>
       <r>   -36.0591    -0.0000    -0.0000 </r>
       <r>   -35.8971    -0.0000    -0.0000 </r>
       <r>   -35.7352    -0.0000    -0.0000 </r>
       <r>   -35.5732    -0.0000    -0.0000 </r>
       <r>   -35.4113    -0.0009    -0.0001 </r>
       <r>   -35.2493    -0.1940    -0.0316 </r>
       <r>   -35.0874     4.3049     0.6656 </r>
       <r>   -34.9254    15.5006     3.1760 </r>
       <r>   -34.7635    17.4991     6.0101 </r>
       <r>   -34.6015    -0.0379     6.0039 </r>
       <r>   -34.4396    -0.0242     6.0000 </r>
       <r>   -34.2776    -0.0000     6.0000 </r>
       <r>   -34.1156    -0.0000     6.0000 </r>
       <r>   -33.9537     0.0000     6.0000 </r>
       <r>   -33.7917     0.0000     6.0000 </r>
       <r>   -33.6298     0.0000     6.0000 </r>
       <r>   -33.4678     0.0000     6.0000 </r>
       <r>   -33.3059     0.0000     6.0000 </r>
       <r>   -33.1439     0.0000     6.0000 </r>
       <r>   -32.9820     0.0000     6.0000 </r>
       <r>   -32.8200     0.0000     6.0000 </r>
       <r>   -32.6581     0.0000     6.0000 </r>
       <r>   -32.4961     0.0000     6.0000 </r>
       <r>   -32.3342     0.0000     6.0000 </r>
       <r>   -32.1722     0.0000     6.0000 </r>
       <r>   -32.0102     0.0000     6.0000 </r>
       <r>   -31.8483     0.0000     6.0000 </r>
       <r>   -31.6863     0.0000     6.0000 </r>
       <r>   -31.5244     0.0000     6.0000 </r>
       <r>   -31.3624     0.0000     6.0000 </r>
       <r>   -31.2005     0.0000     6.0000 </r>
       <r>   -31.0385     0.0000     6.0000 </r>
       <r>   -30.8766     0.0000     6.0000 </r>
       <r>   -30.7146     0.0000     6.0000 </r>
       <r>   -30.5527     0.0000     6.0000 </r>
       <r>   -30.3907     0.0000     6.0000 </r>
       <r>   -30.2288     0.0000     6.0000 </r>
       <r>   -30.0668     0.0000     6.0000 </r>
       <r>   -29.9048     0.0000     6.0000 </r>
       <r>   -29.7429     0.0000     6.0000 </r>
       <r>   -29.5809     0.0000     6.0000 </r>
       <r>   -29.4190     0.0000     6.0000 </r>
       <r>   -29.2570     0.0000     6.0000 </r>
       <r>   -29.0951     0.0000     6.0000 </r>
       <r>   -28.9331     0.0000     6.0000 </r>
       <r>   -28.7712     0.0000     6.0000 </r>
       <r>   -28.6092     0.0000     6.0000 </r>
       <r>   -28.4473     0.0000     6.0000 </r>
       <r>   -28.2853     0.0000     6.0000 </r>
       <r>   -28.1233     0.0000     6.0000 </r>
       <r>   -27.9614     0.0000     6.0000 </r>
       <r>   -27.7994     0.0000     6.0000 </r>
       <r>   -27.6375     0.0000     6.0000 </r>
       <r>   -27.4755     0.0000     6.0000 </r>
       <r>   -27.3136     0.0000     6.0000 </r>
       <r>   -27.1516     0.0000     6.0000 </r>
       <r>   -26.9897     0.0000     6.0000 </r>
       <r>   -26.8277     0.0000     6.0000 </r>
       <r>   -26.6658     0.0000     6.0000 </r>
       <r>   -26.5038     0.0000     6.0000 </r>
       <r>   -26.3419     0.0000     6.0000 </r>
       <r>   -26.1799     0.0000     6.0000 </r>
       <r>   -26.0179     0.0000     6.0000 </r>
       <r>   -25.8560     0.0000     6.0000 </r>
       <r>   -25.6940     0.0000     6.0000 </r>
       <r>   -25.5321     0.0000     6.0000 </r>
       <r>   -25.3701     0.0000     6.0000 </r>
       <r>   -25.2082     0.0000     6.0000 </r>
       <r>   -25.0462     0.0000     6.0000 </r>
       <r>   -24.8843     0.0000     6.0000 </r>
       <r>   -24.7223     0.0000     6.0000 </r>
       <r>   -24.5604     0.0000     6.0000 </r>
       <r>   -24.3984     0.0000     6.0000 </r>
       <r>   -24.2365     0.0000     6.0000 </r>
       <r>   -24.0745     0.0000     6.0000 </r>
       <r>   -23.9125     0.0000     6.0000 </r>
       <r>   -23.7506     0.0000     6.0000 </r>
       <r>   -23.5886     0.0000     6.0000 </r>
       <r>   -23.4267     0.0000     6.0000 </r>
       <r>   -23.2647     0.0000     6.0000 </r>
       <r>   -23.1028     0.0000     6.0000 </r>
       <r>   -22.9408     0.0000     6.0000 </r>
       <r>   -22.7789     0.0000     6.0000 </r>
       <r>   -22.6169     0.0000     6.0000 </r>
       <r>   -22.4550     0.0000     6.0000 </r>
       <r>   -22.2930     0.0000     6.0000 </r>
       <r>   -22.1311     0.0000     6.0000 </r>
       <r>   -21.9691     0.0000     6.0000 </r>
       <r>   -21.8071     0.0000     6.0000 </r>
       <r>   -21.6452     0.0000     6.0000 </r>
       <r>   -21.4832     0.0000     6.0000 </r>
       <r>   -21.3213     0.0000     6.0000 </r>
       <r>   -21.1593     0.0000     6.0000 </r>
       <r>   -20.9974     0.0000     6.0000 </r>
       <r>   -20.8354     0.0000     6.0000 </r>
       <r>   -20.6735     0.0000     6.0000 </r>
       <r>   -20.5115     0.0000     6.0000 </r>
       <r>   -20.3496     0.0000     6.0000 </r>
       <r>   -20.1876     0.0000     6.0000 </r>
       <r>   -20.0256     0.0000     6.0000 </r>
       <r>   -19.8637     0.0000     6.0000 </r>
       <r>   -19.7017     0.0000     6.0000 </r>
       <r>   -19.5398     0.0000     6.0000 </r>
       <r>   -19.3778     0.0000     6.0000 </r>
       <r>   -19.2159     0.0000     6.0000 </r>
       <r>   -19.0539     0.0000     6.0000 </r>
       <r>   -18.8920     0.0000     6.0000 </r>
       <r>   -18.7300     0.0000     6.0000 </r>
       <r>   -18.5681     0.0000     6.0000 </r>
       <r>   -18.4061     0.0000     6.0000 </r>
       <r>   -18.2442     0.0000     6.0000 </r>
       <r>   -18.0822     0.0000     6.0000 </r>
       <r>   -17.9202     0.0000     6.0000 </r>
       <r>   -17.7583     0.0000     6.0000 </r>
       <r>   -17.5963     0.0000     6.0000 </r>
       <r>   -17.4344     0.0000     6.0000 </r>
       <r>   -17.2724     0.0000     6.0000 </r>
       <r>   -17.1105     0.0000     6.0000 </r>
       <r>   -16.9485     0.0000     6.0000 </r>
       <r>   -16.7866     0.0000     6.0000 </r>
       <r>   -16.6246     0.0000     6.0000 </r>
       <r>   -16.4627     0.0000     6.0000 </r>
       <r>   -16.3007     0.0000     6.0000 </r>
       <r>   -16.1388     0.0000     6.0000 </r>
       <r>   -15.9768     0.0000     6.0000 </r>
       <r>   -15.8148     0.0000     6.0000 </r>
       <r>   -15.6529     0.0000     6.0000 </r>
       <r>   -15.4909     0.0000     6.0000 </r>
       <r>   -15.3290     0.0000     6.0000 </r>
       <r>   -15.1670     0.0000     6.0000 </r>
       <r>   -15.0051     0.0000     6.0000 </r>
       <r>   -14.8431    -0.0000     6.0000 </r>
       <r>   -14.6812    -0.0000     6.0000 </r>
       <r>   -14.5192    -0.0000     6.0000 </r>
       <r>   -14.3573    -0.0000     6.0000 </r>
       <r>   -14.1953    -0.0001     6.0000 </r>
       <r>   -14.0333    -0.0063     5.9990 </r>
       <r>   -13.8714     0.2199     6.0346 </r>
       <r>   -13.7094     0.4414     6.1061 </r>
       <r>   -13.5475     0.6696     6.2145 </r>
       <r>   -13.3855     0.4036     6.2799 </r>
       <r>   -13.2236     0.7901     6.4078 </r>
       <r>   -13.0616     0.2920     6.4551 </r>
       <r>   -12.8997     1.1287     6.6379 </r>
       <r>   -12.7377     0.4257     6.7068 </r>
       <r>   -12.5758     1.5654     6.9604 </r>
       <r>   -12.4138     2.3097     7.3344 </r>
       <r>   -12.2519     2.6695     7.7668 </r>
       <r>   -12.0899     3.8952     8.3976 </r>
       <r>   -11.9279     5.4910     9.2869 </r>
       <r>   -11.7660     4.1896     9.9654 </r>
       <r>   -11.6040     0.2285    10.0024 </r>
       <r>   -11.4421    -0.0150    10.0000 </r>
       <r>   -11.2801    -0.0000    10.0000 </r>
       <r>   -11.1182    -0.0000    10.0000 </r>
       <r>   -10.9562     0.0000    10.0000 </r>
       <r>   -10.7943     0.0000    10.0000 </r>
       <r>   -10.6323     0.0000    10.0000 </r>
       <r>   -10.4704     0.0000    10.0000 </r>
       <r>   -10.3084     0.0000    10.0000 </r>
       <r>   -10.1465     0.0000    10.0000 </r>
       <r>    -9.9845     0.0000    10.0000 </r>
       <r>    -9.8225     0.0000    10.0000 </r>
       <r>    -9.6606     0.0000    10.0000 </r>
       <r>    -9.4986     0.0000    10.0000 </r>
       <r>    -9.3367     0.0000    10.0000 </r>
       <r>    -9.1747     0.0000    10.0000 </r>
       <r>    -9.0128     0.0000    10.0000 </r>
       <r>    -8.8508     0.0000    10.0000 </r>
       <r>    -8.6889     0.0000    10.0000 </r>
       <r>    -8.5269     0.0000    10.0000 </r>
       <r>    -8.3650     0.0000    10.0000 </r>
       <r>    -8.2030     0.0000    10.0000 </r>
       <r>    -8.0411     0.0000    10.0000 </r>
       <r>    -7.8791     0.0000    10.0000 </r>
       <r>    -7.7171     0.0000    10.0000 </r>
       <r>    -7.5552     0.0000    10.0000 </r>
       <r>    -7.3932     0.0000    10.0000 </r>
       <r>    -7.2313     0.0000    10.0000 </r>
       <r>    -7.0693     0.0000    10.0000 </r>
       <r>    -6.9074     0.0000    10.0000 </r>
       <r>    -6.7454     0.0000    10.0000 </r>
       <r>    -6.5835    -0.0000    10.0000 </r>
       <r>    -6.4215    -0.0000    10.0000 </r>
       <r>    -6.2596    -0.0000    10.0000 </r>
       <r>    -6.0976    -0.0000    10.0000 </r>
       <r>    -5.9356    -0.0001    10.0000 </r>
       <r>    -5.7737    -0.0217     9.9965 </r>
       <r>    -5.6117     0.5234    10.0812 </r>
       <r>    -5.4498     1.2517    10.2840 </r>
       <r>    -5.2878     2.0899    10.6224 </r>
       <r>    -5.1259     2.7801    11.0727 </r>
       <r>    -4.9639     4.7019    11.8342 </r>
       <r>    -4.8020     2.9326    12.3091 </r>
       <r>    -4.6400     2.2601    12.6751 </r>
       <r>    -4.4781     1.6783    12.9469 </r>
       <r>    -4.3161     0.3735    13.0074 </r>
       <r>    -4.1542     0.7457    13.1282 </r>
       <r>    -3.9922     1.6074    13.3885 </r>
       <r>    -3.8302     3.7666    13.9985 </r>
       <r>    -3.6683     5.0486    14.8162 </r>
       <r>    -3.5063     2.8563    15.2788 </r>
       <r>    -3.3444     1.1589    15.4665 </r>
       <r>    -3.1824     3.1311    15.9735 </r>
       <r>    -3.0205     5.4906    16.8628 </r>
       <r>    -2.8585     3.2432    17.3880 </r>
       <r>    -2.6966     1.8322    17.6848 </r>
       <r>    -2.5346     0.8978    17.8302 </r>
       <r>    -2.3727     1.9883    18.1522 </r>
       <r>    -2.2107     1.4720    18.3906 </r>
       <r>    -2.0488     3.0870    18.8905 </r>
       <r>    -1.8868     3.8833    19.5194 </r>
       <r>    -1.7248     3.3268    20.0582 </r>
       <r>    -1.5629     3.0076    20.5453 </r>
       <r>    -1.4009     3.2279    21.0681 </r>
       <r>    -1.2390     1.7201    21.3467 </r>
       <r>    -1.0770     2.2955    21.7184 </r>
       <r>    -0.9151     1.5983    21.9773 </r>
       <r>    -0.7531     3.7248    22.5805 </r>
       <r>    -0.5912     2.9462    23.0577 </r>
       <r>    -0.4292     2.0700    23.3929 </r>
       <r>    -0.2673     2.0830    23.7303 </r>
       <r>    -0.1053     1.0510    23.9005 </r>
       <r>     0.0567     0.3647    23.9595 </r>
       <r>     0.2186     0.2241    23.9958 </r>
       <r>     0.3806     0.0272    24.0002 </r>
       <r>     0.5425    -0.0014    24.0000 </r>
       <r>     0.7045    -0.0000    24.0000 </r>
       <r>     0.8664    -0.0000    24.0000 </r>
       <r>     1.0284    -0.0000    24.0000 </r>
       <r>     1.1903    -0.0000    24.0000 </r>
       <r>     1.3523    -0.0000    24.0000 </r>
       <r>     1.5142    -0.0071    23.9989 </r>
       <r>     1.6762     0.1345    24.0206 </r>
       <r>     1.8381     1.1722    24.2105 </r>
       <r>     2.0001     2.5698    24.6267 </r>
       <r>     2.1621     5.2921    25.4837 </r>
       <r>     2.3240     3.5882    26.0649 </r>
       <r>     2.4860     4.8538    26.8510 </r>
       <r>     2.6479     5.0283    27.6653 </r>
       <r>     2.8099     3.3692    28.2110 </r>
       <r>     2.9718     3.0033    28.6974 </r>
       <r>     3.1338     2.5477    29.1100 </r>
       <r>     3.2957     2.6772    29.5436 </r>
       <r>     3.4577     1.5847    29.8002 </r>
       <r>     3.6196     2.1342    30.1458 </r>
       <r>     3.7816     0.9486    30.2995 </r>
       <r>     3.9435     1.9052    30.6080 </r>
       <r>     4.1055     1.9874    30.9299 </r>
       <r>     4.2675     3.0495    31.4238 </r>
       <r>     4.4294     1.6232    31.6866 </r>
       <r>     4.5914     1.1403    31.8713 </r>
       <r>     4.7533     0.6915    31.9833 </r>
       <r>     4.9153     0.1087    32.0009 </r>
       <r>     5.0772    -0.0057    32.0000 </r>
       <r>     5.2392    -0.0012    31.9998 </r>
       <r>     5.4011     0.0171    32.0026 </r>
       <r>     5.5631     0.2049    32.0358 </r>
       <r>     5.7250     0.0981    32.0516 </r>
       <r>     5.8870     0.5105    32.1343 </r>
       <r>     6.0489     0.2659    32.1774 </r>
       <r>     6.2109     0.8007    32.3071 </r>
       <r>     6.3729     0.9014    32.4530 </r>
       <r>     6.5348     1.0230    32.6187 </r>
       <r>     6.6968     1.0566    32.7898 </r>
       <r>     6.8587     1.7814    33.0783 </r>
       <r>     7.0207     1.4047    33.3058 </r>
       <r>     7.1826     1.7375    33.5872 </r>
       <r>     7.3446     1.4443    33.8211 </r>
       <r>     7.5065     1.4590    34.0574 </r>
       <r>     7.6685     1.9088    34.3666 </r>
       <r>     7.8304     1.2676    34.5719 </r>
       <r>     7.9924     0.9142    34.7199 </r>
       <r>     8.1544     1.5478    34.9706 </r>
       <r>     8.3163     2.6785    35.4044 </r>
       <r>     8.4783     1.6536    35.6722 </r>
       <r>     8.6402     0.6657    35.7800 </r>
       <r>     8.8022     0.6845    35.8909 </r>
       <r>     8.9641     0.5043    35.9725 </r>
       <r>     9.1261     0.1774    36.0013 </r>
       <r>     9.2880    -0.0078    36.0000 </r>
       <r>     9.4500    -0.0000    36.0000 </r>
       <r>     9.6119    -0.0000    36.0000 </r>
       <r>     9.7739     0.0000    36.0000 </r>
       <r>     9.9358     0.0000    36.0000 </r>
       <r>    10.0978     0.0000    36.0000 </r>
       <r>    10.2598     0.0000    36.0000 </r>
       <r>    10.4217     0.0000    36.0000 </r>
       <r>    10.5837     0.0000    36.0000 </r>
       <r>    10.7456     0.0000    36.0000 </r>
       <r>    10.9076     0.0000    36.0000 </r>
       <r>    11.0695     0.0000    36.0000 </r>
       <r>    11.2315     0.0000    36.0000 </r>
      </set>
     </set>
    </array>
   </total>
  </dos>
 </calculation>
 <structure name="finalpos" >
  <crystal>
   <varray name="basis" >
    <v>       3.19031700       0.00000000       0.00000000 </v>
    <v>      -1.59515800       2.76289700       0.00000000 </v>
    <v>       0.00000000       0.00000000      23.14049200 </v>
   </varray>
   <i name="volume">    203.97226633 </i>
   <varray name="rec_basis" >
    <v>       0.31344848       0.18096941       0.00000000 </v>
    <v>       0.00000000       0.36193894       0.00000000 </v>
    <v>       0.00000000       0.00000000       0.04321429 </v>
   </varray>
  </crystal>
  <varray name="positions" >
   <v>       0.66666700       0.33333300       0.06785900 </v>
   <v>       0.33333300       0.66666700       0.00000000 </v>
   <v>       0.33333300       0.66666700       0.13571500 </v>
   <v>       0.66666700       0.76190443       0.35482300 </v>
   <v>       0.33333300       0.09523843       0.28696500 </v>
   <v>       0.33333300       0.09523843       0.42267900 </v>
  </varray>
 </structure>
</modeling>
