  24  24   0   0
  0.4176334E+02  0.3540400E-09  0.1044544E-08  0.2750143E-08  0.5000000E-15
  1.000000000000000E-004
  CAR 
 unknown system                          
      4.14668994    -16.26431640  301      0.31039720      1.00000000
    -16.264  0.0000E+00  0.0000E+00
    -16.196  0.0000E+00  0.0000E+00
    -16.128  0.0000E+00  0.0000E+00
    -16.060  0.0000E+00  0.0000E+00
    -15.992  0.0000E+00  0.0000E+00
    -15.924  0.0000E+00  0.0000E+00
    -15.856  0.3138E-16  0.2135E-17
    -15.788  0.1306E-12  0.8888E-14
    -15.720  0.1193E-09  0.8125E-11
    -15.652  0.4426E-07  0.3019E-08
    -15.584  0.6736E-05  0.4613E-06
    -15.516  0.4275E-03  0.2955E-04
    -15.448  0.1159E-01  0.8178E-03
    -15.380  0.1384E+00  0.1024E-01
    -15.312  0.7557E+00  0.6165E-01
    -15.244  0.1946E+01  0.1940E+00
    -15.176  0.2510E+01  0.3648E+00
    -15.108  0.2157E+01  0.5116E+00
    -15.040  0.1957E+01  0.6447E+00
    -14.972  0.1388E+01  0.7391E+00
    -14.904  0.8508E+00  0.7970E+00
    -14.836  0.1328E+01  0.8874E+00
    -14.768  0.1648E+01  0.9995E+00
    -14.699  0.9192E+00  0.1062E+01
    -14.631  0.3689E+00  0.1087E+01
    -14.563  0.7913E+00  0.1141E+01
    -14.495  0.1590E+01  0.1249E+01
    -14.427  0.1391E+01  0.1344E+01
    -14.359  0.5441E+00  0.1381E+01
    -14.291  0.3448E+00  0.1404E+01
    -14.223  0.1026E+01  0.1474E+01
    -14.155  0.1678E+01  0.1588E+01
    -14.087  0.1289E+01  0.1676E+01
    -14.019  0.1036E+01  0.1746E+01
    -13.951  0.1587E+01  0.1854E+01
    -13.883  0.1456E+01  0.1953E+01
    -13.815  0.5800E+00  0.1993E+01
    -13.747  0.9816E-01  0.2000E+01
    -13.679  0.1763E-01  0.2001E+01
    -13.611  0.1029E+00  0.2008E+01
    -13.543  0.4974E+00  0.2042E+01
    -13.475  0.1288E+01  0.2129E+01
    -13.407  0.1917E+01  0.2260E+01
    -13.339  0.1984E+01  0.2395E+01
    -13.271  0.1899E+01  0.2524E+01
    -13.203  0.1811E+01  0.2647E+01
    -13.135  0.1652E+01  0.2759E+01
    -13.067  0.1521E+01  0.2863E+01
    -12.999  0.1984E+01  0.2998E+01
    -12.931  0.3369E+01  0.3227E+01
    -12.862  0.4776E+01  0.3552E+01
    -12.794  0.4884E+01  0.3884E+01
    -12.726  0.3928E+01  0.4152E+01
    -12.658  0.3553E+01  0.4393E+01
    -12.590  0.3865E+01  0.4656E+01
    -12.522  0.4345E+01  0.4952E+01
    -12.454  0.5357E+01  0.5316E+01
    -12.386  0.6313E+01  0.5746E+01
    -12.318  0.6283E+01  0.6173E+01
    -12.250  0.6139E+01  0.6591E+01
    -12.182  0.6436E+01  0.7029E+01
    -12.114  0.6514E+01  0.7472E+01
    -12.046  0.7232E+01  0.7964E+01
    -11.978  0.9972E+01  0.8643E+01
    -11.910  0.1102E+02  0.9393E+01
    -11.842  0.8227E+01  0.9953E+01
    -11.774  0.5253E+01  0.1031E+02
    -11.706  0.4372E+01  0.1061E+02
    -11.638  0.5885E+01  0.1101E+02
    -11.570  0.7799E+01  0.1154E+02
    -11.502  0.7835E+01  0.1207E+02
    -11.434  0.7086E+01  0.1255E+02
    -11.366  0.7122E+01  0.1304E+02
    -11.298  0.9063E+01  0.1365E+02
    -11.230  0.1107E+02  0.1441E+02
    -11.162  0.9573E+01  0.1506E+02
    -11.094  0.6439E+01  0.1550E+02
    -11.025  0.6428E+01  0.1593E+02
    -10.957  0.9563E+01  0.1659E+02
    -10.889  0.1152E+02  0.1737E+02
    -10.821  0.1092E+02  0.1811E+02
    -10.753  0.1026E+02  0.1881E+02
    -10.685  0.1001E+02  0.1949E+02
    -10.617  0.1015E+02  0.2018E+02
    -10.549  0.9867E+01  0.2085E+02
    -10.481  0.7409E+01  0.2136E+02
    -10.413  0.4845E+01  0.2169E+02
    -10.345  0.3047E+01  0.2189E+02
    -10.277  0.1265E+01  0.2198E+02
    -10.209  0.2666E+00  0.2200E+02
    -10.141  0.3512E-01  0.2200E+02
    -10.073  0.1135E+00  0.2201E+02
    -10.005  0.6626E+00  0.2205E+02
     -9.937  0.1997E+01  0.2219E+02
     -9.869  0.3374E+01  0.2242E+02
     -9.801  0.3923E+01  0.2269E+02
     -9.733  0.4753E+01  0.2301E+02
     -9.665  0.6220E+01  0.2343E+02
     -9.597  0.5413E+01  0.2380E+02
     -9.529  0.2394E+01  0.2396E+02
     -9.461  0.4912E+00  0.2400E+02
     -9.393  0.4493E-01  0.2400E+02
     -9.325  0.1787E-02  0.2400E+02
     -9.257  0.6009E-04  0.2400E+02
     -9.189  0.1642E-02  0.2400E+02
     -9.120  0.3909E-01  0.2400E+02
     -9.052  0.4112E+00  0.2403E+02
     -8.984  0.1986E+01  0.2417E+02
     -8.916  0.4748E+01  0.2449E+02
     -8.848  0.6753E+01  0.2495E+02
     -8.780  0.7756E+01  0.2548E+02
     -8.712  0.8168E+01  0.2603E+02
     -8.644  0.7814E+01  0.2656E+02
     -8.576  0.7361E+01  0.2706E+02
     -8.508  0.6768E+01  0.2752E+02
     -8.440  0.6203E+01  0.2795E+02
     -8.372  0.5905E+01  0.2835E+02
     -8.304  0.5242E+01  0.2871E+02
     -8.236  0.3666E+01  0.2895E+02
     -8.168  0.2691E+01  0.2914E+02
     -8.100  0.3402E+01  0.2937E+02
     -8.032  0.4182E+01  0.2965E+02
     -7.964  0.3314E+01  0.2988E+02
     -7.896  0.2315E+01  0.3004E+02
     -7.828  0.3406E+01  0.3027E+02
     -7.760  0.6814E+01  0.3073E+02
     -7.692  0.9695E+01  0.3139E+02
     -7.624  0.9290E+01  0.3202E+02
     -7.556  0.7766E+01  0.3255E+02
     -7.488  0.7227E+01  0.3304E+02
     -7.420  0.7243E+01  0.3354E+02
     -7.352  0.8396E+01  0.3411E+02
     -7.283  0.9644E+01  0.3476E+02
     -7.215  0.8688E+01  0.3535E+02
     -7.147  0.6123E+01  0.3577E+02
     -7.079  0.3852E+01  0.3603E+02
     -7.011  0.3116E+01  0.3625E+02
     -6.943  0.3895E+01  0.3651E+02
     -6.875  0.5342E+01  0.3687E+02
     -6.807  0.7663E+01  0.3740E+02
     -6.739  0.1129E+02  0.3816E+02
     -6.671  0.1458E+02  0.3916E+02
     -6.603  0.1382E+02  0.4010E+02
     -6.535  0.9509E+01  0.4074E+02
     -6.467  0.6457E+01  0.4118E+02
     -6.399  0.4962E+01  0.4152E+02
     -6.331  0.4606E+01  0.4183E+02
     -6.263  0.5841E+01  0.4223E+02
     -6.195  0.6413E+01  0.4267E+02
     -6.127  0.5449E+01  0.4304E+02
     -6.059  0.4562E+01  0.4335E+02
     -5.991  0.4682E+01  0.4367E+02
     -5.923  0.4843E+01  0.4400E+02
     -5.855  0.4232E+01  0.4428E+02
     -5.787  0.3964E+01  0.4455E+02
     -5.719  0.4915E+01  0.4489E+02
     -5.651  0.5763E+01  0.4528E+02
     -5.583  0.5220E+01  0.4564E+02
     -5.515  0.3861E+01  0.4590E+02
     -5.446  0.3195E+01  0.4612E+02
     -5.378  0.4519E+01  0.4642E+02
     -5.310  0.6435E+01  0.4686E+02
     -5.242  0.6926E+01  0.4733E+02
     -5.174  0.7553E+01  0.4785E+02
     -5.106  0.7069E+01  0.4833E+02
     -5.038  0.5087E+01  0.4867E+02
     -4.970  0.5076E+01  0.4902E+02
     -4.902  0.7411E+01  0.4952E+02
     -4.834  0.1024E+02  0.5022E+02
     -4.766  0.1133E+02  0.5099E+02
     -4.698  0.1129E+02  0.5176E+02
     -4.630  0.1239E+02  0.5260E+02
     -4.562  0.1353E+02  0.5352E+02
     -4.494  0.1319E+02  0.5442E+02
     -4.426  0.1140E+02  0.5519E+02
     -4.358  0.9772E+01  0.5586E+02
     -4.290  0.1057E+02  0.5658E+02
     -4.222  0.1344E+02  0.5749E+02
     -4.154  0.1502E+02  0.5851E+02
     -4.086  0.1466E+02  0.5951E+02
     -4.018  0.1304E+02  0.6040E+02
     -3.950  0.1043E+02  0.6111E+02
     -3.882  0.8437E+01  0.6168E+02
     -3.814  0.9629E+01  0.6234E+02
     -3.746  0.1354E+02  0.6326E+02
     -3.678  0.1615E+02  0.6436E+02
     -3.609  0.1627E+02  0.6547E+02
     -3.541  0.1501E+02  0.6649E+02
     -3.473  0.1297E+02  0.6737E+02
     -3.405  0.1107E+02  0.6812E+02
     -3.337  0.1111E+02  0.6888E+02
     -3.269  0.1250E+02  0.6973E+02
     -3.201  0.1387E+02  0.7067E+02
     -3.133  0.1564E+02  0.7174E+02
     -3.065  0.1721E+02  0.7291E+02
     -2.997  0.1712E+02  0.7407E+02
     -2.929  0.1540E+02  0.7512E+02
     -2.861  0.1270E+02  0.7598E+02
     -2.793  0.1147E+02  0.7676E+02
     -2.725  0.1277E+02  0.7763E+02
     -2.657  0.1493E+02  0.7865E+02
     -2.589  0.1606E+02  0.7974E+02
     -2.521  0.1689E+02  0.8089E+02
     -2.453  0.1801E+02  0.8212E+02
     -2.385  0.1933E+02  0.8343E+02
     -2.317  0.1914E+02  0.8473E+02
     -2.249  0.1701E+02  0.8589E+02
     -2.181  0.1447E+02  0.8688E+02
     -2.113  0.1278E+02  0.8774E+02
     -2.045  0.1222E+02  0.8858E+02
     -1.977  0.1292E+02  0.8945E+02
     -1.909  0.1499E+02  0.9047E+02
     -1.841  0.1626E+02  0.9158E+02
     -1.773  0.1519E+02  0.9261E+02
     -1.704  0.1321E+02  0.9351E+02
     -1.636  0.1089E+02  0.9425E+02
     -1.568  0.9940E+01  0.9493E+02
     -1.500  0.1118E+02  0.9569E+02
     -1.432  0.1195E+02  0.9650E+02
     -1.364  0.1208E+02  0.9733E+02
     -1.296  0.1300E+02  0.9821E+02
     -1.228  0.1236E+02  0.9905E+02
     -1.160  0.1045E+02  0.9976E+02
     -1.092  0.9904E+01  0.1004E+03
     -1.024  0.1037E+02  0.1011E+03
     -0.956  0.1114E+02  0.1019E+03
     -0.888  0.1080E+02  0.1026E+03
     -0.820  0.8018E+01  0.1032E+03
     -0.752  0.4180E+01  0.1035E+03
     -0.684  0.2281E+01  0.1036E+03
     -0.616  0.2781E+01  0.1038E+03
     -0.548  0.4035E+01  0.1041E+03
     -0.480  0.4201E+01  0.1044E+03
     -0.412  0.3233E+01  0.1046E+03
     -0.344  0.2492E+01  0.1048E+03
     -0.276  0.2693E+01  0.1049E+03
     -0.208  0.3518E+01  0.1052E+03
     -0.140  0.4223E+01  0.1055E+03
     -0.072  0.4826E+01  0.1058E+03
     -0.004  0.5355E+01  0.1062E+03
      0.064  0.6030E+01  0.1066E+03
      0.133  0.6630E+01  0.1070E+03
      0.201  0.6204E+01  0.1074E+03
      0.269  0.5072E+01  0.1078E+03
      0.337  0.5247E+01  0.1081E+03
      0.405  0.6888E+01  0.1086E+03
      0.473  0.7298E+01  0.1091E+03
      0.541  0.5373E+01  0.1095E+03
      0.609  0.3524E+01  0.1097E+03
      0.677  0.3826E+01  0.1100E+03
      0.745  0.5290E+01  0.1103E+03
      0.813  0.6196E+01  0.1108E+03
      0.881  0.7179E+01  0.1112E+03
      0.949  0.8630E+01  0.1118E+03
      1.017  0.8938E+01  0.1124E+03
      1.085  0.7560E+01  0.1130E+03
      1.153  0.7270E+01  0.1135E+03
      1.221  0.8827E+01  0.1141E+03
      1.289  0.1053E+02  0.1148E+03
      1.357  0.1166E+02  0.1156E+03
      1.425  0.1122E+02  0.1163E+03
      1.493  0.9264E+01  0.1170E+03
      1.561  0.8068E+01  0.1175E+03
      1.629  0.9089E+01  0.1181E+03
      1.697  0.1087E+02  0.1189E+03
      1.765  0.1208E+02  0.1197E+03
      1.833  0.1275E+02  0.1206E+03
      1.901  0.1236E+02  0.1214E+03
      1.970  0.1167E+02  0.1222E+03
      2.038  0.1239E+02  0.1230E+03
      2.106  0.1426E+02  0.1240E+03
      2.174  0.1583E+02  0.1251E+03
      2.242  0.1695E+02  0.1262E+03
      2.310  0.1717E+02  0.1274E+03
      2.378  0.1602E+02  0.1285E+03
      2.446  0.1482E+02  0.1295E+03
      2.514  0.1346E+02  0.1304E+03
      2.582  0.1202E+02  0.1312E+03
      2.650  0.1286E+02  0.1321E+03
      2.718  0.1375E+02  0.1330E+03
      2.786  0.1141E+02  0.1338E+03
      2.854  0.7608E+01  0.1343E+03
      2.922  0.5383E+01  0.1347E+03
      2.990  0.5213E+01  0.1351E+03
      3.058  0.5340E+01  0.1354E+03
      3.126  0.4732E+01  0.1357E+03
      3.194  0.2772E+01  0.1359E+03
      3.262  0.8661E+00  0.1360E+03
      3.330  0.1324E+00  0.1360E+03
      3.398  0.9471E-02  0.1360E+03
      3.466  0.3062E-03  0.1360E+03
      3.534  0.4334E-05  0.1360E+03
      3.602  0.2615E-07  0.1360E+03
      3.670  0.6603E-10  0.1360E+03
      3.738  0.6866E-13  0.1360E+03
      3.807  0.0000E+00  0.1360E+03
      3.875  0.0000E+00  0.1360E+03
      3.943  0.0000E+00  0.1360E+03
      4.011  0.0000E+00  0.1360E+03
      4.079  0.0000E+00  0.1360E+03
      4.147  0.0000E+00  0.1360E+03
