 running on    8 total cores
 distrk:  each k-point on    8 cores,    1 groups
 distr:  one band on    2 cores,    4 groups
 using from now: INCAR     
 vasp.5.3.5 31Mar14 (build Oct 29 2014 16:16:03) complex                        
  
 POSCAR found type information on POSCAR  P  Si
 POSCAR found :  2 types and      24 ions
 scaLAPACK will be used

 ----------------------------------------------------------------------------- 
|                                                                             |
|  ADVICE TO THIS USER RUNNING 'VASP/VAMP'   (HEAR YOUR MASTER'S VOICE ...):  |
|                                                                             |
|      You have switched on vdW-DFT.                                          |
|      This routine was written and supplied by Jiri Klimes.                  |
|      We recommed that you carefully read and cite the following             |
|      publication                                                            |
|      J. Klimes, D.R. Bowler, A. Michelides                                  |
|        J. Phys.: Cond Matt. 22 022201 (2010)                                |
|      J. Klimes, D.R. Bowler, A. Michelides                                  |
|        Phys. Rev. B. 83, 195131 (2011)                                      |
|      and references therein.                                                |
|                                                                             |
 ----------------------------------------------------------------------------- 


 ----------------------------------------------------------------------------- 
|                                                                             |
|  ADVICE TO THIS USER RUNNING 'VASP/VAMP'   (HEAR YOUR MASTER'S VOICE ...):  |
|                                                                             |
|      You enforced a specific xc-type in the INCAR file,                     |
|      a different type was found on the POTCAR file                          |
|          I HOPE YOU KNOW, WHAT YOU ARE  DOING                               |
|                                                                             |
 ----------------------------------------------------------------------------- 

 LDA part: xc-table for Pade appr. of Perdew


 VERY BAD NEWS! internal error in subroutine IBZKPT:
 Reciprocal lattice and k-lattice belong to different class of lattices. Often results are still useful...      96


 VERY BAD NEWS! internal error in subroutine IBZKPT:
 Reciprocal lattice and k-lattice belong to different class of lattices. Often results are still useful...      96


 VERY BAD NEWS! internal error in subroutine IBZKPT:
 Reciprocal lattice and k-lattice belong to different class of lattices. Often results are still useful...      96


 VERY BAD NEWS! internal error in subroutine IBZKPT:
 Reciprocal lattice and k-lattice belong to different class of lattices. Often results are still useful...      96


 VERY BAD NEWS! internal error in subroutine IBZKPT:
 Reciprocal lattice and k-lattice belong to different class of lattices. Often results are still useful...      96


 VERY BAD NEWS! internal error in subroutine IBZKPT:
 Reciprocal lattice and k-lattice belong to different class of lattices. Often results are still useful...      96
 POSCAR, INCAR and KPOINTS ok, starting setup


 VERY BAD NEWS! internal error in subroutine IBZKPT:
 Reciprocal lattice and k-lattice belong to different class of lattices. Often results are still useful...      96


 VERY BAD NEWS! internal error in subroutine IBZKPT:
 Reciprocal lattice and k-lattice belong to different class of lattices. Often results are still useful...      96
 WARNING: small aliasing (wrap around) errors must be expected
 FFT: planning ...
 WAVECAR not read
 entering main loop
       N       E                     dE             d eps       ncg     rms          rms(c)
Total vdW correction in eV:     15.9026037
DAV:   1     0.489371389434E+03    0.48937E+03   -0.28663E+04  7368   0.790E+02
DAV:   2    -0.673813225675E+02   -0.55675E+03   -0.54204E+03  9788   0.189E+02
DAV:   3    -0.122624666981E+03   -0.55243E+02   -0.54462E+02  8800   0.619E+01
DAV:   4    -0.125145338198E+03   -0.25207E+01   -0.25027E+01 11008   0.140E+01
DAV:   5    -0.125204502152E+03   -0.59164E-01   -0.59093E-01 10064   0.212E+00    0.956E+00
Total vdW correction in eV:     16.2613102
DAV:   6    -0.123330775540E+03    0.18737E+01   -0.37186E+00  8680   0.511E+00    0.538E+00
Total vdW correction in eV:     16.7509371
DAV:   7    -0.123112514410E+03    0.21826E+00   -0.31659E+00  8824   0.463E+00    0.157E+00
Total vdW correction in eV:     16.8497061
DAV:   8    -0.123102518750E+03    0.99957E-02   -0.56370E-01  8912   0.219E+00    0.849E-01
Total vdW correction in eV:     16.9117699
DAV:   9    -0.123078131809E+03    0.24387E-01   -0.12106E-01  8952   0.106E+00    0.310E-01
Total vdW correction in eV:     16.9421876
DAV:  10    -0.123067655122E+03    0.10477E-01   -0.28122E-02  8888   0.469E-01    0.143E-01
Total vdW correction in eV:     16.9522809
DAV:  11    -0.123061167348E+03    0.64878E-02   -0.55266E-03  8848   0.216E-01    0.725E-02
Total vdW correction in eV:     16.9611398
DAV:  12    -0.123054939696E+03    0.62277E-02   -0.13551E-03  9176   0.105E-01    0.348E-02
Total vdW correction in eV:     16.9669343
DAV:  13    -0.123051861230E+03    0.30785E-02   -0.31029E-04  9280   0.524E-02    0.193E-02
Total vdW correction in eV:     16.9720575
DAV:  14    -0.123050179789E+03    0.16814E-02   -0.14193E-04  9408   0.323E-02    0.105E-02
Total vdW correction in eV:     16.9752769
DAV:  15    -0.123049787165E+03    0.39262E-03   -0.58048E-05  9056   0.203E-02    0.698E-03
Total vdW correction in eV:     16.9772339
DAV:  16    -0.123050217878E+03   -0.43071E-03   -0.92758E-05  8080   0.215E-02    0.387E-03
Total vdW correction in eV:     16.9776860
DAV:  17    -0.123050633409E+03   -0.41553E-03   -0.12909E-04  7976   0.206E-02    0.221E-03
Total vdW correction in eV:     16.9774967
DAV:  18    -0.123050684187E+03   -0.50778E-04   -0.47933E-05  7544   0.125E-02    0.135E-03
Total vdW correction in eV:     16.9772532
DAV:  19    -0.123050727512E+03   -0.43325E-04   -0.13510E-05  6568   0.831E-03    0.867E-04
Total vdW correction in eV:     16.9770936
DAV:  20    -0.123050759653E+03   -0.32142E-04   -0.22524E-05  6752   0.875E-03    0.610E-04
Total vdW correction in eV:     16.9769679
DAV:  21    -0.123050705710E+03    0.53943E-04   -0.13598E-05  6192   0.891E-03    0.362E-04
Total vdW correction in eV:     16.9769408
DAV:  22    -0.123050670826E+03    0.34884E-04   -0.61098E-06  6392   0.724E-03    0.197E-04
Total vdW correction in eV:     16.9769391
DAV:  23    -0.123050649914E+03    0.20911E-04   -0.61557E-06  6152   0.747E-03    0.971E-05
Total vdW correction in eV:     16.9769380
DAV:  24    -0.123050635562E+03    0.14353E-04   -0.38340E-06  6200   0.598E-03    0.561E-05
Total vdW correction in eV:     16.9769354
DAV:  25    -0.123050633543E+03    0.20182E-05   -0.28542E-06  6144   0.541E-03    0.279E-05
Total vdW correction in eV:     16.9769342
DAV:  26    -0.123050635682E+03   -0.21392E-05   -0.20268E-06  6032   0.471E-03    0.160E-05
Total vdW correction in eV:     16.9769334
DAV:  27    -0.123050639292E+03   -0.36096E-05   -0.18023E-06  5632   0.440E-03    0.837E-06
Total vdW correction in eV:     16.9769332
DAV:  28    -0.123050640228E+03   -0.93574E-06   -0.10032E-06  5456   0.356E-03
Total vdW correction in eV:     16.9769329
Total vdW correction in eV:     16.9769331
   1 F= -.12305064E+03 E0= -.12303732E+03  d E =-.266362E-01
