   24   24    1    1
  0.4176334E+02  0.3540400E-09  0.1044544E-08  0.2750143E-08  0.5000000E-15
  1.000000000000000E-004
  CAR 
 unknown system                          
    108     54     68
 
  0.0000000E+00  0.0000000E+00  0.0000000E+00  0.9615385E-02
    1      -14.857847
    2      -13.513103
    3      -13.082009
    4      -12.929045
    5      -12.775142
    6      -12.452072
    7      -12.060391
    8      -11.717377
    9      -11.407873
   10      -11.357350
   11      -10.965863
   12      -10.553274
   13       -9.044587
   14       -8.520894
   15       -8.001592
   16       -7.800215
   17       -6.808537
   18       -6.694341
   19       -6.465198
   20       -6.029107
   21       -5.798634
   22       -5.323373
   23       -5.065839
   24       -4.776729
   25       -4.619896
   26       -3.752415
   27       -3.645303
   28       -3.416914
   29       -3.255495
   30       -3.123408
   31       -3.028589
   32       -3.013335
   33       -2.876053
   34       -2.819360
   35       -2.710855
   36       -2.432015
   37       -2.358581
   38       -2.310027
   39       -2.233779
   40       -2.145643
   41       -1.964145
   42       -1.839139
   43       -1.729566
   44       -1.705135
   45       -1.614712
   46       -1.560843
   47       -1.462974
   48       -1.405632
   49       -1.230367
   50       -1.121050
   51       -0.966361
   52       -0.802206
   53       -0.282975
   54        0.072392
   55        0.589197
   56        0.747725
   57        1.161972
   58        1.304515
   59        1.346163
   60        1.498826
   61        1.742156
   62        1.861015
   63        1.942411
   64        2.008084
   65        2.157369
   66        2.397923
   67        2.455231
   68        2.610617
 
  0.7692308E-01 -0.1387779E-16  0.0000000E+00  0.1923077E-01
    1      -14.804203
    2      -13.451744
    3      -13.032839
    4      -12.862899
    5      -12.722990
    6      -12.396483
    7      -11.998129
    8      -11.675946
    9      -11.358681
   10      -11.300103
   11      -10.917455
   12      -10.523387
   13       -9.027526
   14       -8.501175
   15       -8.039540
   16       -7.762358
   17       -6.778643
   18       -6.701315
   19       -6.459407
   20       -6.007133
   21       -5.765297
   22       -5.352204
   23       -5.072834
   24       -4.771076
   25       -4.651906
   26       -4.109916
   27       -3.723139
   28       -3.629358
   29       -3.533806
   30       -3.394368
   31       -3.242495
   32       -3.161220
   33       -3.104032
   34       -2.964927
   35       -2.814086
   36       -2.699695
   37       -2.491360
   38       -2.453902
   39       -2.359710
   40       -2.204423
   41       -2.148607
   42       -2.026448
   43       -1.941102
   44       -1.890129
   45       -1.783016
   46       -1.727349
   47       -1.495912
   48       -1.474074
   49       -1.167571
   50       -1.089031
   51       -0.918831
   52       -0.652293
   53       -0.273072
   54        0.045353
   55        0.621828
   56        0.783456
   57        1.374670
   58        1.563262
   59        1.647096
   60        1.790459
   61        1.953671
   62        2.133350
   63        2.223451
   64        2.250301
   65        2.321534
   66        2.499074
   67        2.631741
   68        2.713944
 
  0.1538462E+00 -0.2775558E-16  0.0000000E+00  0.1923077E-01
    1      -14.645941
    2      -13.268736
    3      -12.881816
    4      -12.672481
    5      -12.567249
    6      -12.231755
    7      -11.815635
    8      -11.553431
    9      -11.216357
   10      -11.136060
   11      -10.778553
   12      -10.444104
   13       -8.990989
   14       -8.458619
   15       -8.137357
   16       -7.719970
   17       -6.787060
   18       -6.688184
   19       -6.471431
   20       -6.001978
   21       -5.712770
   22       -5.676695
   23       -5.086508
   24       -4.882160
   25       -4.829044
   26       -4.504948
   27       -4.193540
   28       -4.148484
   29       -4.054026
   30       -3.944161
   31       -3.720326
   32       -3.626976
   33       -3.449510
   34       -3.283208
   35       -3.127703
   36       -3.031058
   37       -2.948685
   38       -2.921760
   39       -2.802901
   40       -2.593198
   41       -2.367757
   42       -2.290006
   43       -2.138664
   44       -2.077758
   45       -1.865266
   46       -1.759219
   47       -1.624773
   48       -1.522235
   49       -1.218999
   50       -1.149067
   51       -0.955743
   52       -0.496496
   53       -0.315033
   54       -0.121344
   55        0.512394
   56        0.918109
   57        1.472339
   58        1.607224
   59        1.951626
   60        2.143399
   61        2.277245
   62        2.425749
   63        2.525711
   64        2.643596
   65        2.699123
   66        2.855059
   67        2.945448
   68        3.000964
 
  0.2307692E+00 -0.4163336E-16  0.0000000E+00  0.1923077E-01
    1      -14.392811
    2      -12.967656
    3      -12.626737
    4      -12.376356
    5      -12.311000
    6      -11.965155
    7      -11.527968
    8      -11.360546
    9      -10.999451
   10      -10.892548
   11      -10.575260
   12      -10.352103
   13       -8.978264
   14       -8.446741
   15       -8.328780
   16       -7.794760
   17       -7.020297
   18       -6.664586
   19       -6.605920
   20       -6.459123
   21       -6.052765
   22       -5.711801
   23       -5.372730
   24       -5.306838
   25       -4.945154
   26       -4.882667
   27       -4.774986
   28       -4.579636
   29       -4.482592
   30       -4.350491
   31       -4.169796
   32       -4.056007
   33       -3.865007
   34       -3.766986
   35       -3.634734
   36       -3.440012
   37       -3.073228
   38       -3.006577
   39       -2.962873
   40       -2.738808
   41       -2.567333
   42       -2.430759
   43       -2.399364
   44       -2.183557
   45       -1.883995
   46       -1.812880
   47       -1.717521
   48       -1.579422
   49       -1.440389
   50       -1.364058
   51       -1.081269
   52       -0.693695
   53       -0.537738
   54       -0.238149
   55        0.361181
   56        0.884520
   57        1.295638
   58        1.473566
   59        1.872303
   60        1.998520
   61        2.188898
   62        2.276266
   63        2.404653
   64        2.547962
   65        2.711765
   66        2.886378
   67        2.928067
   68        2.993620
 
  0.3076923E+00 -0.5551115E-16  0.0000000E+00  0.1923077E-01
    1      -14.067133
    2      -12.555808
    3      -12.275665
    4      -12.007134
    5      -11.962783
    6      -11.613640
    7      -11.174140
    8      -11.131468
    9      -10.755387
   10      -10.639179
   11      -10.388831
   12      -10.309835
   13       -9.017705
   14       -8.627859
   15       -8.524561
   16       -8.056494
   17       -7.419608
   18       -7.076475
   19       -6.965121
   20       -6.871300
   21       -6.457702
   22       -6.138913
   23       -5.934773
   24       -5.827265
   25       -5.355657
   26       -5.181978
   27       -4.817469
   28       -4.741415
   29       -4.673044
   30       -4.421255
   31       -4.287113
   32       -4.238702
   33       -4.185800
   34       -3.950264
   35       -3.769290
   36       -3.390540
   37       -3.361695
   38       -3.090316
   39       -3.039004
   40       -2.881314
   41       -2.704466
   42       -2.567616
   43       -2.484786
   44       -2.292372
   45       -2.041166
   46       -1.887997
   47       -1.852632
   48       -1.787894
   49       -1.692875
   50       -1.538242
   51       -1.283985
   52       -0.835335
   53       -0.721844
   54       -0.293825
   55        0.110335
   56        0.768861
   57        0.986425
   58        1.229421
   59        1.611488
   60        1.792774
   61        1.973679
   62        2.065673
   63        2.239067
   64        2.350621
   65        2.427560
   66        2.669379
   67        2.746498
   68        2.850833
 
  0.3846154E+00 -0.8326673E-16  0.0000000E+00  0.1923077E-01
    1      -13.719560
    2      -12.047398
    3      -11.862359
    4      -11.639655
    5      -11.543936
    6      -11.216371
    7      -10.985391
    8      -10.822396
    9      -10.600974
   10      -10.535401
   11      -10.428155
   12      -10.293962
   13       -9.058525
   14       -8.803633
   15       -8.623104
   16       -8.349461
   17       -7.938157
   18       -7.474062
   19       -7.431128
   20       -7.384077
   21       -6.961382
   22       -6.735564
   23       -6.632942
   24       -6.212358
   25       -5.565146
   26       -5.183762
   27       -4.656206
   28       -4.625385
   29       -4.520692
   30       -4.481600
   31       -4.225608
   32       -4.172791
   33       -4.087926
   34       -4.018261
   35       -3.730242
   36       -3.628421
   37       -3.511083
   38       -3.242592
   39       -3.145869
   40       -3.064943
   41       -2.781370
   42       -2.635217
   43       -2.516609
   44       -2.373654
   45       -2.253709
   46       -2.126716
   47       -2.009726
   48       -1.963809
   49       -1.809618
   50       -1.700547
   51       -1.395324
   52       -0.935483
   53       -0.860512
   54       -0.290880
   55       -0.101971
   56        0.663023
   57        0.726568
   58        1.016111
   59        1.430285
   60        1.702208
   61        1.750116
   62        1.932710
   63        2.079479
   64        2.230216
   65        2.293087
   66        2.389953
   67        2.543688
   68        2.705395
 
  0.4615385E+00 -0.8326673E-16  0.0000000E+00  0.1923077E-01
    1      -13.463776
    2      -11.589211
    3      -11.473433
    4      -11.307711
    5      -11.121819
    6      -10.993332
    7      -10.914183
    8      -10.816441
    9      -10.703414
   10      -10.629874
   11      -10.605154
   12      -10.225368
   13       -9.094581
   14       -8.671579
   15       -8.648499
   16       -8.411756
   17       -8.139596
   18       -8.051474
   19       -7.736478
   20       -7.544870
   21       -7.470517
   22       -7.257363
   23       -7.155553
   24       -6.332285
   25       -5.490318
   26       -4.897905
   27       -4.830576
   28       -4.662177
   29       -4.471920
   30       -4.252062
   31       -4.091323
   32       -4.034266
   33       -3.962202
   34       -3.904031
   35       -3.804084
   36       -3.647455
   37       -3.550724
   38       -3.408294
   39       -3.236520
   40       -3.204411
   41       -2.980105
   42       -2.878304
   43       -2.669023
   44       -2.425524
   45       -2.306300
   46       -2.170388
   47       -2.108524
   48       -2.016689
   49       -1.835228
   50       -1.687935
   51       -1.504893
   52       -1.079135
   53       -0.899357
   54       -0.368883
   55       -0.120762
   56        0.535705
   57        0.650949
   58        0.954397
   59        1.394351
   60        1.561276
   61        1.661512
   62        1.811185
   63        1.910280
   64        2.095488
   65        2.239159
   66        2.426836
   67        2.466429
   68        2.586488
 
  0.0000000E+00  0.2500000E+00  0.0000000E+00  0.1923077E-01
    1      -14.854293
    2      -13.457444
    3      -13.233732
    4      -12.949078
    5      -12.687178
    6      -12.449971
    7      -11.948688
    8      -11.844453
    9      -11.451567
   10      -11.216565
   11      -10.974315
   12      -10.499533
   13       -9.192819
   14       -8.492807
   15       -8.450372
   16       -7.351560
   17       -6.774398
   18       -6.643722
   19       -6.573572
   20       -5.931999
   21       -5.722414
   22       -5.344306
   23       -5.026241
   24       -4.638024
   25       -4.422897
   26       -4.000284
   27       -3.684006
   28       -3.500550
   29       -3.384620
   30       -3.211679
   31       -3.100275
   32       -3.067848
   33       -2.907024
   34       -2.718963
   35       -2.683365
   36       -2.440683
   37       -2.361223
   38       -2.320779
   39       -2.253220
   40       -2.138616
   41       -2.009106
   42       -1.876201
   43       -1.857191
   44       -1.768781
   45       -1.600416
   46       -1.516080
   47       -1.373903
   48       -1.336887
   49       -1.219128
   50       -1.083858
   51       -0.941182
   52       -0.827391
   53       -0.283963
   54        0.060779
   55        0.632968
   56        0.851456
   57        1.205699
   58        1.310567
   59        1.409208
   60        1.587750
   61        1.745704
   62        1.763573
   63        1.857889
   64        1.979724
   65        2.264645
   66        2.368206
   67        2.574524
   68        2.668056
 
  0.7692308E-01  0.2500000E+00  0.0000000E+00  0.1923077E-01
    1      -14.800030
    2      -13.380470
    3      -13.195332
    4      -12.930049
    5      -12.584152
    6      -12.392569
    7      -11.947651
    8      -11.745631
    9      -11.410200
   10      -11.145451
   11      -10.929919
   12      -10.455829
   13       -9.194406
   14       -8.547844
   15       -8.434832
   16       -7.302848
   17       -6.781799
   18       -6.651717
   19       -6.503448
   20       -5.889756
   21       -5.675207
   22       -5.391730
   23       -5.051537
   24       -4.670166
   25       -4.412462
   26       -4.152644
   27       -4.015955
   28       -3.697862
   29       -3.588094
   30       -3.377337
   31       -3.316352
   32       -3.178445
   33       -3.084385
   34       -2.994415
   35       -2.918282
   36       -2.664615
   37       -2.518640
   38       -2.467535
   39       -2.359743
   40       -2.273491
   41       -2.163995
   42       -2.099330
   43       -2.005352
   44       -1.872166
   45       -1.787316
   46       -1.717728
   47       -1.506076
   48       -1.314851
   49       -1.195793
   50       -1.036878
   51       -0.858771
   52       -0.705029
   53       -0.292563
   54        0.071206
   55        0.561992
   56        0.988239
   57        1.379762
   58        1.584372
   59        1.721978
   60        1.805299
   61        1.960653
   62        1.986898
   63        2.185558
   64        2.247916
   65        2.457033
   66        2.560654
   67        2.676979
   68        2.730085
 
  0.1538462E+00  0.2500000E+00  0.0000000E+00  0.1923077E-01
    1      -14.641565
    2      -13.183756
    3      -13.039243
    4      -12.793653
    5      -12.375153
    6      -12.225829
    7      -11.846502
    8      -11.547841
    9      -11.270732
   10      -10.987178
   11      -10.788576
   12      -10.369220
   13       -9.152010
   14       -8.613172
   15       -8.402481
   16       -7.273964
   17       -6.833177
   18       -6.629153
   19       -6.472175
   20       -5.921351
   21       -5.712573
   22       -5.620259
   23       -5.080714
   24       -4.825782
   25       -4.775744
   26       -4.461875
   27       -4.349908
   28       -4.252743
   29       -4.009705
   30       -3.937908
   31       -3.814948
   32       -3.584286
   33       -3.502040
   34       -3.282932
   35       -3.103525
   36       -2.987922
   37       -2.934052
   38       -2.861144
   39       -2.739174
   40       -2.582661
   41       -2.524711
   42       -2.433152
   43       -2.294637
   44       -2.042233
   45       -1.882244
   46       -1.812895
   47       -1.515414
   48       -1.436726
   49       -1.237224
   50       -1.101043
   51       -0.895548
   52       -0.566032
   53       -0.333173
   54       -0.069977
   55        0.384645
   56        1.025244
   57        1.475641
   58        1.589441
   59        1.745691
   60        2.119699
   61        2.149607
   62        2.359904
   63        2.500527
   64        2.717533
   65        2.777879
   66        2.897756
   67        2.995639
   68        3.102461
 
  0.2307692E+00  0.2500000E+00  0.0000000E+00  0.1923077E-01
    1      -14.388737
    2      -12.872159
    3      -12.770376
    4      -12.542426
    5      -12.074714
    6      -11.957827
    7      -11.654453
    8      -11.271148
    9      -11.048916
   10      -10.770139
   11      -10.571127
   12      -10.279531
   13       -9.100511
   14       -8.744547
   15       -8.400723
   16       -7.364169
   17       -7.062975
   18       -6.668900
   19       -6.618385
   20       -6.492724
   21       -5.960023
   22       -5.796833
   23       -5.281026
   24       -5.176262
   25       -5.118974
   26       -5.006387
   27       -4.724731
   28       -4.637210
   29       -4.524013
   30       -4.432494
   31       -4.186062
   32       -3.988154
   33       -3.736811
   34       -3.674046
   35       -3.496505
   36       -3.206694
   37       -3.174681
   38       -3.065795
   39       -2.933332
   40       -2.730997
   41       -2.605749
   42       -2.528281
   43       -2.493167
   44       -2.138868
   45       -1.955789
   46       -1.870431
   47       -1.752060
   48       -1.551475
   49       -1.375338
   50       -1.310919
   51       -1.054054
   52       -0.703118
   53       -0.606272
   54       -0.244486
   55        0.239972
   56        0.809357
   57        1.314451
   58        1.421844
   59        1.527353
   60        1.645608
   61        2.077695
   62        2.236641
   63        2.448829
   64        2.611560
   65        2.710588
   66        2.868408
   67        3.047809
   68        3.178765
 
  0.3076923E+00  0.2500000E+00  0.0000000E+00  0.1923077E-01
    1      -14.063856
    2      -12.455237
    3      -12.401120
    4      -12.183562
    5      -11.719872
    6      -11.607435
    7      -11.398092
    8      -10.957361
    9      -10.785192
   10      -10.574045
   11      -10.365195
   12      -10.245863
   13       -9.072278
   14       -8.943738
   15       -8.474869
   16       -7.678973
   17       -7.529443
   18       -7.086060
   19       -7.039818
   20       -6.930723
   21       -6.424107
   22       -6.166750
   23       -5.890064
   24       -5.769288
   25       -5.465163
   26       -5.352956
   27       -4.913594
   28       -4.765243
   29       -4.592477
   30       -4.395961
   31       -4.293476
   32       -4.192149
   33       -3.985485
   34       -3.882131
   35       -3.625592
   36       -3.319333
   37       -3.290677
   38       -3.029562
   39       -2.975648
   40       -2.846481
   41       -2.708385
   42       -2.594286
   43       -2.469670
   44       -2.366496
   45       -2.250028
   46       -1.942919
   47       -1.866217
   48       -1.738914
   49       -1.712269
   50       -1.500319
   51       -1.297605
   52       -0.900003
   53       -0.775307
   54       -0.275014
   55        0.053503
   56        0.578340
   57        0.965585
   58        1.165445
   59        1.274379
   60        1.344247
   61        1.908858
   62        2.170071
   63        2.233526
   64        2.370453
   65        2.485110
   66        2.633142
   67        2.721419
   68        2.966309
 
  0.3846154E+00  0.2500000E+00  0.0000000E+00  0.1923077E-01
    1      -13.717548
    2      -11.965540
    3      -11.951027
    4      -11.733749
    5      -11.422921
    6      -11.216134
    7      -11.133146
    8      -10.699421
    9      -10.575392
   10      -10.549153
   11      -10.440897
   12      -10.236141
   13       -9.054775
   14       -8.933951
   15       -8.608941
   16       -8.084075
   17       -7.988474
   18       -7.753018
   19       -7.401792
   20       -7.322318
   21       -7.038924
   22       -6.667982
   23       -6.635005
   24       -6.199461
   25       -5.614205
   26       -5.316992
   27       -4.767686
   28       -4.676795
   29       -4.541157
   30       -4.402955
   31       -4.215059
   32       -4.085288
   33       -4.049733
   34       -3.832538
   35       -3.606346
   36       -3.408200
   37       -3.326580
   38       -3.253044
   39       -3.106618
   40       -3.047187
   41       -2.904522
   42       -2.718032
   43       -2.608256
   44       -2.425115
   45       -2.267516
   46       -2.139770
   47       -2.045685
   48       -1.906378
   49       -1.822781
   50       -1.737192
   51       -1.451993
   52       -1.056610
   53       -0.841901
   54       -0.279753
   55       -0.109328
   56        0.530556
   57        0.714063
   58        0.952300
   59        1.232281
   60        1.358303
   61        1.734606
   62        1.856876
   63        2.044246
   64        2.140229
   65        2.280441
   66        2.464701
   67        2.642950
   68        2.684443
 
  0.4615385E+00  0.2500000E+00  0.0000000E+00  0.1923077E-01
    1      -13.462998
    2      -11.616685
    3      -11.401818
    4      -11.269763
    5      -11.238908
    6      -11.007344
    7      -10.927755
    8      -10.836301
    9      -10.674606
   10      -10.612972
   11      -10.551625
   12      -10.236116
   13       -9.084301
   14       -8.685442
   15       -8.527871
   16       -8.373222
   17       -8.300030
   18       -8.095245
   19       -7.760766
   20       -7.494417
   21       -7.481534
   22       -7.285988
   23       -7.115861
   24       -6.308469
   25       -5.551368
   26       -4.993986
   27       -4.846573
   28       -4.650846
   29       -4.443164
   30       -4.222190
   31       -4.111248
   32       -4.046365
   33       -3.940557
   34       -3.897561
   35       -3.636523
   36       -3.590087
   37       -3.470234
   38       -3.339576
   39       -3.244622
   40       -3.183060
   41       -2.967792
   42       -2.886853
   43       -2.632062
   44       -2.579649
   45       -2.461064
   46       -2.170858
   47       -2.110222
   48       -2.066842
   49       -1.810491
   50       -1.681625
   51       -1.533590
   52       -1.087419
   53       -0.864245
   54       -0.353944
   55       -0.154862
   56        0.509557
   57        0.734517
   58        0.872689
   59        1.442118
   60        1.509378
   61        1.567193
   62        1.652868
   63        1.839403
   64        2.076146
   65        2.184733
   66        2.429544
   67        2.478006
   68        2.515686
 
 -0.4615385E+00  0.2500000E+00  0.0000000E+00  0.1923077E-01
    1      -13.463698
    2      -11.608728
    3      -11.507311
    4      -11.271167
    5      -11.045633
    6      -10.986012
    7      -10.900679
    8      -10.782055
    9      -10.729343
   10      -10.677007
   11      -10.668830
   12      -10.206663
   13       -9.089376
   14       -8.732032
   15       -8.626799
   16       -8.404835
   17       -8.200857
   18       -7.916757
   19       -7.807533
   20       -7.576449
   21       -7.377723
   22       -7.253758
   23       -7.192507
   24       -6.264569
   25       -5.579454
   26       -4.900150
   27       -4.702233
   28       -4.600419
   29       -4.548090
   30       -4.336433
   31       -4.074651
   32       -4.004014
   33       -3.973366
   34       -3.901722
   35       -3.856507
   36       -3.626751
   37       -3.573114
   38       -3.419064
   39       -3.327440
   40       -3.162606
   41       -2.901948
   42       -2.793437
   43       -2.667618
   44       -2.559654
   45       -2.358976
   46       -2.245197
   47       -2.136618
   48       -2.083253
   49       -1.740638
   50       -1.665339
   51       -1.482483
   52       -1.021346
   53       -0.809442
   54       -0.367135
   55       -0.175188
   56        0.555532
   57        0.776625
   58        0.925603
   59        1.391171
   60        1.570007
   61        1.701066
   62        1.783907
   63        1.853435
   64        2.231513
   65        2.287436
   66        2.393091
   67        2.488334
   68        2.595790
 
 -0.3846154E+00  0.2500000E+00  0.0000000E+00  0.1923077E-01
    1      -13.719832
    2      -12.074048
    3      -11.853493
    4      -11.655094
    5      -11.459603
    6      -11.213417
    7      -10.953824
    8      -10.901742
    9      -10.604104
   10      -10.582894
   11      -10.423636
   12      -10.268258
   13       -9.083434
   14       -8.715616
   15       -8.633818
   16       -8.462055
   17       -7.801068
   18       -7.608713
   19       -7.410954
   20       -7.301604
   21       -6.955760
   22       -6.785329
   23       -6.636356
   24       -6.100433
   25       -5.687922
   26       -5.023065
   27       -4.823494
   28       -4.630666
   29       -4.411436
   30       -4.364186
   31       -4.264679
   32       -4.208542
   33       -4.100569
   34       -4.045088
   35       -3.703435
   36       -3.670385
   37       -3.455072
   38       -3.375762
   39       -3.259085
   40       -3.127513
   41       -2.782605
   42       -2.686155
   43       -2.497592
   44       -2.326510
   45       -2.228501
   46       -2.176343
   47       -2.023975
   48       -1.916784
   49       -1.795124
   50       -1.636964
   51       -1.385598
   52       -0.960064
   53       -0.737968
   54       -0.307465
   55       -0.121321
   56        0.679259
   57        0.851444
   58        1.004940
   59        1.417634
   60        1.748335
   61        1.808691
   62        1.935652
   63        2.157640
   64        2.294589
   65        2.413711
   66        2.495995
   67        2.641718
   68        2.662283
 
 -0.3076923E+00  0.2500000E+00  0.0000000E+00  0.1923077E-01
    1      -14.067222
    2      -12.568144
    3      -12.269214
    4      -12.020899
    5      -11.921409
    6      -11.612867
    7      -11.215751
    8      -11.113479
    9      -10.747063
   10      -10.624962
   11      -10.395101
   12      -10.348092
   13       -9.051784
   14       -8.530479
   15       -8.465100
   16       -8.158429
   17       -7.400248
   18       -7.085467
   19       -6.969487
   20       -6.843210
   21       -6.522555
   22       -6.131670
   23       -5.943680
   24       -5.752538
   25       -5.453934
   26       -5.120982
   27       -4.865849
   28       -4.707044
   29       -4.616275
   30       -4.358431
   31       -4.295749
   32       -4.240238
   33       -4.178882
   34       -3.892492
   35       -3.852622
   36       -3.434939
   37       -3.387675
   38       -3.177763
   39       -3.055130
   40       -2.907611
   41       -2.749179
   42       -2.598105
   43       -2.515842
   44       -2.148853
   45       -1.999931
   46       -1.885341
   47       -1.850466
   48       -1.771354
   49       -1.685479
   50       -1.511833
   51       -1.288539
   52       -0.905572
   53       -0.694085
   54       -0.315433
   55        0.143978
   56        0.786443
   57        1.037955
   58        1.180531
   59        1.657460
   60        1.912263
   61        1.999965
   62        2.057013
   63        2.278833
   64        2.415896
   65        2.619427
   66        2.699886
   67        2.761905
   68        2.858765
 
 -0.2307692E+00  0.2500000E+00  0.0000000E+00  0.1923077E-01
    1      -14.392215
    2      -12.963388
    3      -12.657359
    4      -12.335503
    5      -12.324699
    6      -11.965034
    7      -11.510877
    8      -11.386717
    9      -11.002970
   10      -10.862422
   11      -10.573874
   12      -10.366818
   13       -9.022420
   14       -8.395731
   15       -8.358441
   16       -7.752691
   17       -7.030041
   18       -6.667750
   19       -6.608497
   20       -6.498200
   21       -6.024972
   22       -5.714555
   23       -5.342618
   24       -5.300299
   25       -5.044121
   26       -4.853336
   27       -4.794690
   28       -4.571299
   29       -4.487870
   30       -4.325885
   31       -4.160915
   32       -3.910762
   33       -3.842570
   34       -3.782517
   35       -3.671014
   36       -3.422477
   37       -3.207716
   38       -2.999121
   39       -2.960935
   40       -2.762808
   41       -2.598392
   42       -2.520689
   43       -2.407559
   44       -2.006924
   45       -1.868576
   46       -1.806852
   47       -1.738687
   48       -1.582476
   49       -1.441246
   50       -1.286965
   51       -1.082141
   52       -0.732357
   53       -0.596616
   54       -0.262934
   55        0.365031
   56        0.891376
   57        1.296929
   58        1.403464
   59        1.850749
   60        2.008436
   61        2.258404
   62        2.272673
   63        2.412716
   64        2.717735
   65        2.774376
   66        2.872310
   67        2.943521
   68        2.984371
 
 -0.1538462E+00  0.2500000E+00  0.0000000E+00  0.1923077E-01
    1      -14.644364
    2      -13.247140
    3      -12.958851
    4      -12.641100
    5      -12.559122
    6      -12.231537
    7      -11.728423
    8      -11.647941
    9      -11.235186
   10      -11.068517
   11      -10.776417
   12      -10.431814
   13       -9.064448
   14       -8.409923
   15       -8.345428
   16       -7.506051
   17       -6.809314
   18       -6.641158
   19       -6.524379
   20       -6.058599
   21       -5.667264
   22       -5.563512
   23       -5.063290
   24       -4.943156
   25       -4.816698
   26       -4.485785
   27       -4.258444
   28       -4.145576
   29       -4.116979
   30       -3.895261
   31       -3.689660
   32       -3.584938
   33       -3.475294
   34       -3.279406
   35       -3.161140
   36       -3.039424
   37       -2.950339
   38       -2.888405
   39       -2.843576
   40       -2.664920
   41       -2.482370
   42       -2.282489
   43       -2.148631
   44       -1.977892
   45       -1.827848
   46       -1.745479
   47       -1.605361
   48       -1.528837
   49       -1.221403
   50       -1.110173
   51       -0.918458
   52       -0.508880
   53       -0.360613
   54       -0.137028
   55        0.443152
   56        0.972291
   57        1.447891
   58        1.547478
   59        1.844716
   60        2.200105
   61        2.228221
   62        2.439703
   63        2.530212
   64        2.699807
   65        2.806430
   66        2.896707
   67        2.966823
   68        3.056338
 
 -0.7692308E-01  0.2500000E+00  0.0000000E+00  0.1923077E-01
    1      -14.801565
    2      -13.412841
    3      -13.153844
    4      -12.851473
    5      -12.678819