 running on    8 total cores
 distrk:  each k-point on    8 cores,    1 groups
 distr:  one band on    2 cores,    4 groups
 using from now: INCAR     
 vasp.5.3.5 31Mar14 (build Oct 29 2014 16:16:03) complex                        
  
 POSCAR found type information on POSCAR  P  Si
 POSCAR found :  2 types and      24 ions
 scaLAPACK will be used

 ----------------------------------------------------------------------------- 
|                                                                             |
|  ADVICE TO THIS USER RUNNING 'VASP/VAMP'   (HEAR YOUR MASTER'S VOICE ...):  |
|                                                                             |
|      You have switched on vdW-DFT.                                          |
|      This routine was written and supplied by Jiri Klimes.                  |
|      We recommed that you carefully read and cite the following             |
|      publication                                                            |
|      J. Klimes, D.R. Bowler, A. Michelides                                  |
|        J. Phys.: Cond Matt. 22 022201 (2010)                                |
|      J. Klimes, D.R. Bowler, A. Michelides                                  |
|        Phys. Rev. B. 83, 195131 (2011)                                      |
|      and references therein.                                                |
|                                                                             |
 ----------------------------------------------------------------------------- 


 ----------------------------------------------------------------------------- 
|                                                                             |
|  ADVICE TO THIS USER RUNNING 'VASP/VAMP'   (HEAR YOUR MASTER'S VOICE ...):  |
|                                                                             |
|      You enforced a specific xc-type in the INCAR file,                     |
|      a different type was found on the POTCAR file                          |
|          I HOPE YOU KNOW, WHAT YOU ARE  DOING                               |
|                                                                             |
 ----------------------------------------------------------------------------- 

 LDA part: xc-table for Pade appr. of Perdew


 VERY BAD NEWS! internal error in subroutine IBZKPT:
 Reciprocal lattice and k-lattice belong to different class of lattices. Often results are still useful...      96


 VERY BAD NEWS! internal error in subroutine IBZKPT:
 Reciprocal lattice and k-lattice belong to different class of lattices. Often results are still useful...      96


 VERY BAD NEWS! internal error in subroutine IBZKPT:
 Reciprocal lattice and k-lattice belong to different class of lattices. Often results are still useful...      96


 VERY BAD NEWS! internal error in subroutine IBZKPT:
 Reciprocal lattice and k-lattice belong to different class of lattices. Often results are still useful...      96


 VERY BAD NEWS! internal error in subroutine IBZKPT:
 Reciprocal lattice and k-lattice belong to different class of lattices. Often results are still useful...      96


 VERY BAD NEWS! internal error in subroutine IBZKPT:
 Reciprocal lattice and k-lattice belong to different class of lattices. Often results are still useful...      96


 VERY BAD NEWS! internal error in subroutine IBZKPT:
 Reciprocal lattice and k-lattice belong to different class of lattices. Often results are still useful...      96


 VERY BAD NEWS! internal error in subroutine IBZKPT:
 Reciprocal lattice and k-lattice belong to different class of lattices. Often results are still useful...      96
 POSCAR, INCAR and KPOINTS ok, starting setup
 WARNING: small aliasing (wrap around) errors must be expected
 FFT: planning ...
 WAVECAR not read
 entering main loop
       N       E                     dE             d eps       ncg     rms          rms(c)
Total vdW correction in eV:     15.9009833
DAV:   1     0.500939529373E+03    0.50094E+03   -0.28733E+04  7368   0.790E+02
DAV:   2    -0.633883744258E+02   -0.56433E+03   -0.54973E+03  9780   0.190E+02
DAV:   3    -0.119596452701E+03   -0.56208E+02   -0.55418E+02  8696   0.624E+01
DAV:   4    -0.122230825637E+03   -0.26344E+01   -0.26169E+01 10952   0.143E+01
DAV:   5    -0.122293986548E+03   -0.63161E-01   -0.63100E-01 10040   0.223E+00    0.110E+01
Total vdW correction in eV:     16.2606172
DAV:   6    -0.118693218806E+03    0.36008E+01   -0.10266E+01  8716   0.938E+00    0.577E+00
Total vdW correction in eV:     16.6458946
DAV:   7    -0.118596124082E+03    0.97095E-01   -0.55942E+00  8544   0.602E+00    0.252E+00
Total vdW correction in eV:     16.8523006
DAV:   8    -0.118626550432E+03   -0.30426E-01   -0.78285E-01  9360   0.249E+00    0.112E+00
Total vdW correction in eV:     16.9347207
DAV:   9    -0.118618597204E+03    0.79532E-02   -0.15470E-01  9112   0.121E+00    0.479E-01
Total vdW correction in eV:     16.9769489
DAV:  10    -0.118608098000E+03    0.10499E-01   -0.58469E-02  9216   0.720E-01    0.184E-01
Total vdW correction in eV:     16.9929437
DAV:  11    -0.118600855416E+03    0.72426E-02   -0.10256E-02  8872   0.330E-01    0.874E-02
Total vdW correction in eV:     17.0010882
DAV:  12    -0.118593955965E+03    0.68995E-02   -0.25817E-03  9464   0.144E-01    0.408E-02
Total vdW correction in eV:     17.0052813
DAV:  13    -0.118590602907E+03    0.33531E-02   -0.48493E-04  9096   0.709E-02    0.220E-02
Total vdW correction in eV:     17.0102723
DAV:  14    -0.118588354717E+03    0.22482E-02   -0.16708E-04  9360   0.382E-02    0.118E-02
Total vdW correction in eV:     17.0130276
DAV:  15    -0.118587878176E+03    0.47654E-03   -0.51696E-05  8888   0.209E-02    0.767E-03
Total vdW correction in eV:     17.0157968
DAV:  16    -0.118588156569E+03   -0.27839E-03   -0.76369E-05  8040   0.209E-02    0.463E-03
Total vdW correction in eV:     17.0166499
DAV:  17    -0.118588560673E+03   -0.40410E-03   -0.11661E-04  8336   0.211E-02    0.307E-03
Total vdW correction in eV:     17.0166498
DAV:  18    -0.118588809588E+03   -0.24891E-03   -0.94080E-05  7592   0.159E-02    0.152E-03
Total vdW correction in eV:     17.0163706
DAV:  19    -0.118588879337E+03   -0.69749E-04   -0.11883E-05  7088   0.851E-03    0.109E-03
Total vdW correction in eV:     17.0161466
DAV:  20    -0.118588913522E+03   -0.34185E-04   -0.25754E-05  7200   0.972E-03    0.739E-04
Total vdW correction in eV:     17.0160125
DAV:  21    -0.118588901137E+03    0.12385E-04   -0.24936E-05  7196   0.114E-02    0.491E-04
Total vdW correction in eV:     17.0159216
DAV:  22    -0.118588827951E+03    0.73186E-04   -0.20787E-05  6636   0.123E-02    0.240E-04
Total vdW correction in eV:     17.0159223
DAV:  23    -0.118588773902E+03    0.54049E-04   -0.62232E-06  6456   0.786E-03    0.151E-04
Total vdW correction in eV:     17.0159219
DAV:  24    -0.118588751332E+03    0.22570E-04   -0.91592E-06  7152   0.937E-03    0.647E-05
Total vdW correction in eV:     17.0159231
DAV:  25    -0.118588749066E+03    0.22664E-05   -0.31075E-06  6712   0.626E-03    0.435E-05
Total vdW correction in eV:     17.0159243
DAV:  26    -0.118588746433E+03    0.26328E-05   -0.44882E-06  6204   0.701E-03    0.225E-05
Total vdW correction in eV:     17.0159223
DAV:  27    -0.118588742777E+03    0.36561E-05   -0.19041E-06  5936   0.533E-03    0.126E-05
Total vdW correction in eV:     17.0159221
DAV:  28    -0.118588742131E+03    0.64551E-06   -0.16890E-06  6188   0.475E-03
Total vdW correction in eV:     17.0159217
Total vdW correction in eV:     17.0159223
   1 F= -.11858874E+03 E0= -.11857855E+03  d E =-.203916E-01
