   24   24    1    1
  0.4176334E+02  0.3540400E-09  0.1044544E-08  0.2750143E-08  0.5000000E-15
  1.000000000000000E-004
  CAR 
 unknown system                          
    108     54     68
 
  0.0000000E+00  0.0000000E+00  0.0000000E+00  0.9615385E-02
    1      -15.197471
    2      -13.456563
    3      -13.027416
    4      -12.717120
    5      -12.639377
    6      -12.400266
    7      -12.062314
    8      -11.981249
    9      -11.574584
   10      -11.347445
   11      -10.906955
   12       -9.939554
   13       -9.152324
   14       -7.951210
   15       -7.745659
   16       -7.617011
   17       -6.960540
   18       -6.738246
   19       -6.406814
   20       -6.300575
   21       -5.740020
   22       -5.398250
   23       -5.026686
   24       -4.726099
   25       -4.646021
   26       -3.969936
   27       -3.754754
   28       -3.612919
   29       -3.401876
   30       -3.056383
   31       -2.971981
   32       -2.928374
   33       -2.869439
   34       -2.759570
   35       -2.654671
   36       -2.393676
   37       -2.330194
   38       -2.316673
   39       -2.239989
   40       -2.036026
   41       -1.933382
   42       -1.863440
   43       -1.773135
   44       -1.669887
   45       -1.644150
   46       -1.557137
   47       -1.501042
   48       -1.401794
   49       -1.347230
   50       -1.212030
   51       -1.051122
   52       -0.914755
   53       -0.612523
   54       -0.085875
   55        0.812387
   56        1.046735
   57        1.237031
   58        1.393586
   59        1.415474
   60        1.574312
   61        1.702206
   62        1.845965
   63        1.986146
   64        2.074507
   65        2.213334
   66        2.348321
   67        2.520644
   68        2.650577
 
  0.7692308E-01 -0.1387779E-16  0.0000000E+00  0.1923077E-01
    1      -15.141375
    2      -13.395211
    3      -12.972470
    4      -12.664929
    5      -12.581380
    6      -12.344666
    7      -12.006119
    8      -11.921200
    9      -11.524753
   10      -11.298511
   11      -10.858567
   12       -9.916397
   13       -9.161294
   14       -7.987569
   15       -7.709326
   16       -7.592557
   17       -6.937847
   18       -6.708571
   19       -6.401059
   20       -6.310490
   21       -5.706227
   22       -5.435253
   23       -5.257907
   24       -4.815299
   25       -4.640570
   26       -4.005209
   27       -3.772398
   28       -3.653477
   29       -3.532008
   30       -3.357241
   31       -3.269841
   32       -3.172803
   33       -3.056627
   34       -3.032356
   35       -2.694647
   36       -2.637450
   37       -2.604685
   38       -2.392914
   39       -2.359195
   40       -2.227059
   41       -2.112059
   42       -2.009762
   43       -1.903620
   44       -1.877677
   45       -1.769423
   46       -1.691283
   47       -1.602279
   48       -1.446800
   49       -1.371795
   50       -1.101043
   51       -0.961387
   52       -0.851827
   53       -0.522237
   54       -0.054094
   55        0.869476
   56        1.131510
   57        1.292542
   58        1.620450
   59        1.787988
   60        1.848429
   61        1.949382
   62        2.212988
   63        2.277244
   64        2.298171
   65        2.378070
   66        2.473060
   67        2.693540
   68        2.848200
 
  0.1538462E+00 -0.2775558E-16  0.0000000E+00  0.1923077E-01
    1      -14.975249
    2      -13.212226
    3      -12.809283
    4      -12.509102
    5      -12.410627
    6      -12.179900
    7      -11.842300
    8      -11.743526
    9      -11.379894
   10      -11.156534
   11      -10.719724
   12       -9.865663
   13       -9.213222
   14       -8.083538
   15       -7.667603
   16       -7.550668
   17       -6.907968
   18       -6.647340
   19       -6.444180
   20       -6.413304
   21       -5.898102
   22       -5.630623
   23       -5.295983
   24       -4.943985
   25       -4.771609
   26       -4.232272
   27       -4.128975
   28       -4.052535
   29       -3.997821
   30       -3.892627
   31       -3.767533
   32       -3.616330
   33       -3.472140
   34       -3.300689
   35       -3.109186
   36       -3.072082
   37       -2.926012
   38       -2.881841
   39       -2.721433
   40       -2.642203
   41       -2.365043
   42       -2.284352
   43       -2.092374
   44       -2.038276
   45       -1.890821
   46       -1.782960
   47       -1.646020
   48       -1.583594
   49       -1.390139
   50       -1.118915
   51       -0.888020
   52       -0.712904
   53       -0.106382
   54        0.055353
   55        0.399742
   56        0.987480
   57        1.334298
   58        1.843441
   59        2.046251
   60        2.325637
   61        2.460599
   62        2.514245
   63        2.573227
   64        2.649507
   65        2.732906
   66        2.788292
   67        3.016915
   68        3.073166
 
  0.2307692E+00 -0.4163336E-16  0.0000000E+00  0.1923077E-01
    1      -14.706826
    2      -12.911185
    3      -12.544077
    4      -12.252754
    5      -12.138772
    6      -11.913242
    7      -11.585193
    8      -11.460386
    9      -11.157108
   10      -10.939682
   11      -10.516553
   12       -9.881402
   13       -9.335479
   14       -8.274798
   15       -7.740523
   16       -7.629909
   17       -7.034609
   18       -6.706736
   19       -6.598273
   20       -6.546989
   21       -6.176301
   22       -5.652352
   23       -5.507016
   24       -5.293409
   25       -5.254220
   26       -4.738327
   27       -4.691582
   28       -4.520507
   29       -4.434831
   30       -4.377118
   31       -4.138501
   32       -4.076532
   33       -3.778142
   34       -3.680988
   35       -3.395449
   36       -3.372154
   37       -3.143011
   38       -2.914339
   39       -2.859825
   40       -2.690734
   41       -2.567866
   42       -2.483859
   43       -2.358106
   44       -2.219588
   45       -1.982198
   46       -1.822237
   47       -1.734977
   48       -1.652652
   49       -1.467780
   50       -1.368430
   51       -1.025994
   52       -0.769659
   53       -0.286121
   54       -0.018976
   55        0.376782
   56        0.942697
   57        1.260796
   58        1.606909
   59        1.950212
   60        2.118381
   61        2.330803
   62        2.373002
   63        2.536438
   64        2.617092
   65        2.785928
   66        2.871013
   67        2.914320
   68        2.983546
 
  0.3076923E+00 -0.5551115E-16  0.0000000E+00  0.1923077E-01
    1      -14.354528
    2      -12.499407
    3      -12.194215
    4      -11.904382
    5      -11.795155
    6      -11.561774
    7      -11.272142
    8      -11.106517
    9      -10.897174
   10      -10.695348
   11      -10.330620
   12      -10.153088
   13       -9.412177
   14       -8.569706
   15       -8.000524
   16       -7.943800
   17       -7.338636
   18       -6.913209
   19       -6.818079
   20       -6.789171
   21       -6.554142
   22       -6.078868
   23       -6.008338
   24       -5.877664
   25       -5.618868
   26       -5.128390
   27       -4.871007
   28       -4.704103
   29       -4.618171
   30       -4.525004
   31       -4.243925
   32       -4.159907
   33       -4.123695
   34       -3.857762
   35       -3.377071
   36       -3.314712
   37       -3.212643
   38       -3.010245
   39       -2.948075
   40       -2.857727
   41       -2.763397
   42       -2.600203
   43       -2.481619
   44       -2.304134
   45       -2.147618
   46       -1.973805
   47       -1.811105
   48       -1.789957
   49       -1.632431
   50       -1.510762
   51       -1.253237
   52       -1.134278
   53       -0.456374
   54       -0.147328
   55        0.301968
   56        0.687255
   57        1.059210
   58        1.406798
   59        1.688578
   60        1.858395
   61        2.052205
   62        2.224207
   63        2.326055
   64        2.406833
   65        2.459655
   66        2.696473
   67        2.810916
   68        2.921695
 
  0.3846154E+00 -0.8326673E-16  0.0000000E+00  0.1923077E-01
    1      -13.964057
    2      -11.991230
    3      -11.826820
    4      -11.485478
    5      -11.460392
    6      -11.165441
    7      -11.039898
    8      -10.768520
    9      -10.684343
   10      -10.540582
   11      -10.432564
   12      -10.369017
   13       -9.481809
   14       -8.746162
   15       -8.308902
   16       -8.292330
   17       -7.771768
   18       -7.374692
   19       -7.331405
   20       -7.167902
   21       -6.931704
   22       -6.674965
   23       -6.575666
   24       -6.216937
   25       -5.607754
   26       -5.130298
   27       -4.798292
   28       -4.559922
   29       -4.464931
   30       -4.436828
   31       -4.159102
   32       -4.131541
   33       -3.994390
   34       -3.946566
   35       -3.652226
   36       -3.569869
   37       -3.257463
   38       -3.184127
   39       -3.092305
   40       -2.949741
   41       -2.838686
   42       -2.691666
   43       -2.488889
   44       -2.395688
   45       -2.217396
   46       -2.158166
   47       -2.016002
   48       -1.939457
   49       -1.762766
   50       -1.566125
   51       -1.465841
   52       -1.326545
   53       -0.553609
   54       -0.272791
   55        0.186834
   56        0.458626
   57        0.786636
   58        1.366175
   59        1.480599
   60        1.773864
   61        1.816156
   62        1.946126
   63        2.142443
   64        2.177116
   65        2.318699
   66        2.358957
   67        2.481708
   68        2.772338
 
  0.4615385E+00 -0.8326673E-16  0.0000000E+00  0.1923077E-01
    1      -13.658091
    2      -11.729276
    3      -11.417126
    4      -11.167359
    5      -11.062931
    6      -10.928792
    7      -10.862997
    8      -10.762596
    9      -10.756276
   10      -10.646279
   11      -10.547885
   12      -10.251880
   13       -9.638337
   14       -8.604388
   15       -8.556896
   16       -8.355795
   17       -7.994755
   18       -7.971289
   19       -7.648730
   20       -7.486326
   21       -7.233548
   22       -7.197420
   23       -7.093028
   24       -6.045751
   25       -5.394762
   26       -4.970140
   27       -4.831826
   28       -4.429500
   29       -4.374046
   30       -4.229422
   31       -4.152247
   32       -4.000788
   33       -3.914410
   34       -3.857585
   35       -3.749015
   36       -3.611079
   37       -3.506513
   38       -3.432184
   39       -3.173527
   40       -3.070315
   41       -2.919360
   42       -2.792648
   43       -2.697047
   44       -2.598821
   45       -2.274482
   46       -2.113355
   47       -2.055304
   48       -2.007061
   49       -1.749528
   50       -1.629257
   51       -1.437791
   52       -1.376594
   53       -0.688999
   54       -0.356493
   55        0.096432
   56        0.284981
   57        0.663770
   58        1.361220
   59        1.476966
   60        1.661650
   61        1.715290
   62        1.884805
   63        1.921097
   64        2.054688
   65        2.154181
   66        2.261347
   67        2.412254
   68        2.497008
 
  0.0000000E+00  0.2500000E+00  0.0000000E+00  0.1923077E-01
    1      -15.195881
    2      -13.401253
    3      -13.092930
    4      -12.890331
    5      -12.524356
    6      -12.397296
    7      -12.092224
    8      -11.785870
    9      -11.580331
   10      -11.392574
   11      -10.915606
   12       -9.891400
   13       -9.214478
   14       -8.432099
   15       -7.683229
   16       -7.307593
   17       -6.934925
   18       -6.585628
   19       -6.520190
   20       -6.240044
   21       -5.663153
   22       -5.318356
   23       -5.020063
   24       -4.696994
   25       -4.548684
   26       -3.963287
   27       -3.899078
   28       -3.633448
   29       -3.402610
   30       -3.247224
   31       -3.043730
   32       -2.978431
   33       -2.897055
   34       -2.631309
   35       -2.624984
   36       -2.444682
   37       -2.326154
   38       -2.295903
   39       -2.229834
   40       -2.108015
   41       -2.056795
   42       -1.894255
   43       -1.838448
   44       -1.796566
   45       -1.734994
   46       -1.542517
   47       -1.456900
   48       -1.357257
   49       -1.278309
   50       -1.151906
   51       -1.018162
   52       -0.878790
   53       -0.568867
   54        0.000900
   55        0.829021
   56        1.034317
   57        1.280353
   58        1.369645
   59        1.456416
   60        1.602339
   61        1.718977
   62        1.849850
   63        1.909925
   64        2.128691
   65        2.336786
   66        2.470982
   67        2.648479
   68        2.718081
 
  0.7692308E-01  0.2500000E+00  0.0000000E+00  0.1923077E-01
    1      -15.139487
    2      -13.324427
    3      -13.048246
    4      -12.871179
    5      -12.443835
    6      -12.339140
    7      -12.051262
    8      -11.686703
    9      -11.529098
   10      -11.351230
   11      -10.871249
   12       -9.857231
   13       -9.244052
   14       -8.490558
   15       -7.645270
   16       -7.258000
   17       -6.923073
   18       -6.594071
   19       -6.451069
   20       -6.258842
   21       -5.615679
   22       -5.445174
   23       -5.036034
   24       -4.881573
   25       -4.595288
   26       -4.032104
   27       -3.921376
   28       -3.689231
   29       -3.546467
   30       -3.391770
   31       -3.299638
   32       -3.253474
   33       -3.039336
   34       -2.943811
   35       -2.792776
   36       -2.630910
   37       -2.597658
   38       -2.474807
   39       -2.399968
   40       -2.241853
   41       -2.157793
   42       -2.066413
   43       -1.953627
   44       -1.887761
   45       -1.822433
   46       -1.734255
   47       -1.658105
   48       -1.357495
   49       -1.264977
   50       -1.016838
   51       -0.949075
   52       -0.820712
   53       -0.566703
   54        0.026946
   55        0.889388
   56        1.038591
   57        1.361195
   58        1.644751
   59        1.803149
   60        1.861876
   61        1.973428
   62        2.040383
   63        2.307569
   64        2.432148
   65        2.584626
   66        2.640553
   67        2.738489
   68        2.938549
 
  0.1538462E+00  0.2500000E+00  0.0000000E+00  0.1923077E-01
    1      -14.973225
    2      -13.127911
    3      -12.888969
    4      -12.734612
    5      -12.258882
    6      -12.171642
    7      -11.906843
    8      -11.489510
    9      -11.378290
   10      -11.211741
   11      -10.729942
   12       -9.800295
   13       -9.308701
   14       -8.556118
   15       -7.545167
   16       -7.223506
   17       -6.962066
   18       -6.572010
   19       -6.477477
   20       -6.396555
   21       -5.827325
   22       -5.565962
   23       -5.124888
   24       -5.008510
   25       -4.755167
   26       -4.304651
   27       -4.265762
   28       -4.207824
   29       -3.995240
   30       -3.895669
   31       -3.789812
   32       -3.561606
   33       -3.381824
   34       -3.234924
   35       -3.101286
   36       -3.015703
   37       -2.879093
   38       -2.810061
   39       -2.744341
   40       -2.621783
   41       -2.515517
   42       -2.367801
   43       -2.240985
   44       -2.083101
   45       -1.918435
   46       -1.832576
   47       -1.762806
   48       -1.414901
   49       -1.320030
   50       -1.051691
   51       -0.864524
   52       -0.788609
   53       -0.127522
   54        0.058158
   55        0.409677
   56        0.964021
   57        1.349062
   58        1.709025
   59        1.940896
   60        2.193890
   61        2.393872
   62        2.439331
   63        2.654998
   64        2.790852
   65        2.856670
   66        2.966544
   67        3.109704
   68        3.162821
 
  0.2307692E+00  0.2500000E+00  0.0000000E+00  0.1923077E-01
    1      -14.704878
    2      -12.816582
    3      -12.621117
    4      -12.483160
    5      -11.982313
    6      -11.903795
    7      -11.670456
    8      -11.214219
    9      -11.141478
   10      -10.989840
   11      -10.512534
   12       -9.836784
   13       -9.409391
   14       -8.687242
   15       -7.453018
   16       -7.317066
   17       -7.299314
   18       -6.683000
   19       -6.609680
   20       -6.556403
   21       -6.058903
   22       -5.736959
   23       -5.492061
   24       -5.370926
   25       -5.124495
   26       -4.943983
   27       -4.623659
   28       -4.581271
   29       -4.474148
   30       -4.330368
   31       -4.217869
   32       -3.942878
   33       -3.716644
   34       -3.639575
   35       -3.331323
   36       -3.132177
   37       -3.090291
   38       -3.009667
   39       -2.848422
   40       -2.695897
   41       -2.555525
   42       -2.508925
   43       -2.445172
   44       -2.183875
   45       -2.034413
   46       -1.896592
   47       -1.807158
   48       -1.682971
   49       -1.492677
   50       -1.305106
   51       -1.001047
   52       -0.857971
   53       -0.270870
   54       -0.038682
   55        0.323871
   56        0.989311
   57        1.116721
   58        1.465538
   59        1.606653
   60        1.717243
   61        2.257185
   62        2.291854
   63        2.554005
   64        2.747470
   65        2.816524
   66        2.952635
   67        3.019695
   68        3.144156
 
  0.3076923E+00  0.2500000E+00  0.0000000E+00  0.1923077E-01
    1      -14.352880
    2      -12.400037
    3      -12.260658
    4      -12.124015
    5      -11.650264
    6      -11.555873
    7      -11.371880
    8      -10.902981
    9      -10.855131
   10      -10.725930
   11      -10.307043
   12      -10.160540
   13       -9.426435
   14       -8.886318
   15       -7.859024
   16       -7.624146
   17       -7.485572
   18       -7.028222
   19       -6.882081
   20       -6.782519
   21       -6.414890
   22       -6.109858
   23       -6.096012
   24       -5.833403
   25       -5.709688
   26       -5.296178
   27       -4.859430
   28       -4.829496
   29       -4.497647
   30       -4.337539
   31       -4.250465
   32       -4.142476
   33       -3.930738
   34       -3.859137
   35       -3.438456
   36       -3.255782
   37       -3.040449
   38       -2.926727
   39       -2.909209
   40       -2.781312
   41       -2.729918
   42       -2.572330
   43       -2.398266
   44       -2.346624
   45       -2.255797
   46       -2.166857
   47       -1.878105
   48       -1.798659
   49       -1.670311
   50       -1.557468
   51       -1.258042
   52       -1.048920
   53       -0.574841
   54       -0.241513
   55        0.261880
   56        0.744353
   57        0.878970
   58        1.191400
   59        1.327670
   60        1.405178
   61        1.988373
   62        2.250114
   63        2.315077
   64        2.436193
   65        2.578267
   66        2.728927
   67        2.812307
   68        3.023303
 
  0.3846154E+00  0.2500000E+00  0.0000000E+00  0.1923077E-01
    1      -13.963002
    2      -11.898422
    3      -11.862808
    4      -11.673875
    5      -11.395209
    6      -11.166556
    7      -11.075486
    8      -10.677644
    9      -10.641867
   10      -10.515254
   11      -10.423020
   12      -10.381050
   13       -9.478993
   14       -8.876376
   15       -8.310555
   16       -8.027989
   17       -7.813126
   18       -7.694219
   19       -7.274809
   20       -7.133482
   21       -6.891282
   22       -6.610880
   23       -6.573941
   24       -6.241363
   25       -5.726866
   26       -5.260066
   27       -4.813844
   28       -4.699159
   29       -4.528139
   30       -4.344617
   31       -4.074002
   32       -4.029556
   33       -3.899430
   34       -3.775930
   35       -3.528229
   36       -3.273324
   37       -3.230647
   38       -3.173006
   39       -3.056669
   40       -3.000660
   41       -2.829853
   42       -2.778556
   43       -2.583480
   44       -2.476431
   45       -2.248783
   46       -2.169785
   47       -2.050502
   48       -1.982401
   49       -1.771511
   50       -1.498853
   51       -1.438388
   52       -1.368307
   53       -0.619145
   54       -0.418688
   55        0.153909
   56        0.495556
   57        0.635970
   58        1.126461
   59        1.285299
   60        1.421070
   61        1.766316
   62        1.909547
   63        2.073568
   64        2.136387
   65        2.283241
   66        2.535032
   67        2.706081
   68        2.750564
 
  0.4615385E+00  0.2500000E+00  0.0000000E+00  0.1923077E-01
    1      -13.657774
    2      -11.727271
    3      -11.346663
    4      -11.196017
    5      -11.178885
    6      -10.896962
    7      -10.874994
    8      -10.779832
    9      -10.769092
   10      -10.616671
   11      -10.493714
   12      -10.240702
   13       -9.641055
   14       -8.563321
   15       -8.469401
   16       -8.314934
   17       -8.244405
   18       -7.969760
   19       -7.639716
   20       -7.432290
   21       -7.246921
   22       -7.216734
   23       -7.053657
   24       -6.046779
   25       -5.496805
   26       -4.946658
   27       -4.927967
   28       -4.393581
   29       -4.378419
   30       -4.228303
   31       -4.086817
   32       -4.066775
   33       -3.850129
   34       -3.823088
   35       -3.597783
   36       -3.571414
   37       -3.443228
   38       -3.379168
   39       -3.176483
   40       -3.092403
   41       -2.907737
   42       -2.860886
   43       -2.600312
   44       -2.550745
   45       -2.512807
   46       -2.131822
   47       -2.073255
   48       -2.031555
   49       -1.715378
   50       -1.614310
   51       -1.468266
   52       -1.370973
   53       -0.703148
   54       -0.427518
   55        0.105608
   56        0.340162
   57        0.556504
   58        1.192699
   59        1.498214
   60        1.570700
   61        1.642636
   62        1.728607
   63        1.881311
   64        1.980997
   65        2.210396
   66        2.366164
   67        2.525388
   68        2.565572
 
 -0.4615385E+00  0.2500000E+00  0.0000000E+00  0.1923077E-01
    1      -13.658383
    2      -11.724494
    3      -11.450742
    4      -11.170404
    5      -10.986837
    6      -10.916966
    7      -10.850007
    8      -10.773920
    9      -10.721773
   10      -10.673720
   11      -10.615930
   12      -10.266227
   13       -9.633211
   14       -8.672157
   15       -8.517124
   16       -8.349551
   17       -7.972844
   18       -7.859681
   19       -7.672991
   20       -7.519230
   21       -7.249610
   22       -7.194803
   23       -7.131712
   24       -6.080590
   25       -5.351622
   26       -4.878200
   27       -4.655374
   28       -4.498104
   29       -4.447245
   30       -4.291024
   31       -4.190991
   32       -4.026083
   33       -3.930373
   34       -3.902423
   35       -3.800147
   36       -3.649265
   37       -3.539849
   38       -3.337528
   39       -3.262313
   40       -2.985182
   41       -2.816061
   42       -2.717844
   43       -2.709909
   44       -2.591806
   45       -2.296237
   46       -2.168675
   47       -2.083369
   48       -2.027306
   49       -1.787739
   50       -1.623906
   51       -1.419811
   52       -1.371917
   53       -0.685879
   54       -0.346123
   55        0.103428
   56        0.395439
   57        0.601850
   58        1.277342
   59        1.442799
   60        1.698583
   61        1.767330
   62        1.856835
   63        1.944849
   64        2.125225
   65        2.287672
   66        2.344738
   67        2.463643
   68        2.524475
 
 -0.3846154E+00  0.2500000E+00  0.0000000E+00  0.1923077E-01
    1      -13.964601
    2      -12.017662
    3      -11.792769
    4      -11.514255
    5      -11.400358
    6      -11.161968
    7      -10.984300
    8      -10.850104
    9      -10.768083
   10      -10.543601
   11      -10.390807
   12      -10.363469
   13       -9.469585
   14       -8.657674
   15       -8.407684
   16       -8.309973
   17       -7.751724
   18       -7.355857
   19       -7.245801
   20       -7.184411
   21       -6.980733
   22       -6.724093
   23       -6.580164
   24       -6.224628
   25       -5.473899
   26       -4.983149
   27       -4.822782
   28       -4.729301
   29       -4.532325
   30       -4.338833
   31       -4.276168
   32       -4.178473
   33       -4.010676
   34       -3.886562
   35       -3.644373
   36       -3.477632
   37       -3.323929
   38       -3.251579
   39       -3.088745
   40       -3.027982
   41       -2.866535
   42       -2.633436
   43       -2.455735
   44       -2.412764
   45       -2.223454
   46       -2.151057
   47       -1.999417
   48       -1.858569
   49       -1.741167
   50       -1.648637
   51       -1.471007
   52       -1.311758
   53       -0.531019
   54       -0.297326
   55        0.135554
   56        0.558155
   57        0.834928
   58        1.341615
   59        1.467000
   60        1.850470
   61        1.973415
   62        1.997876
   63        2.195764
   64        2.271386
   65        2.355739
   66        2.431165
   67        2.522390
   68        2.689470
 
 -0.3076923E+00  0.2500000E+00  0.0000000E+00  0.1923077E-01
    1      -14.354879
    2      -12.511681
    3      -12.174242
    4      -11.863284
    5      -11.822861
    6      -11.561304
    7      -11.259342
    8      -11.149921
    9      -10.921748
   10      -10.687058
   11      -10.336721
   12      -10.142411
   13       -9.379909
   14       -8.470818
   15       -8.103261
   16       -8.005954
   17       -7.287539
   18       -6.916994
   19       -6.837440
   20       -6.782662
   21       -6.557444
   22       -6.070880
   23       -6.003333
   24       -5.886552
   25       -5.530408
   26       -5.069082
   27       -4.920838
   28       -4.791730
   29       -4.606743
   30       -4.544992
   31       -4.253438
   32       -4.185548
   33       -4.147301
   34       -3.747558
   35       -3.389797
   36       -3.335495
   37       -3.254014
   38       -3.006614
   39       -2.959594
   40       -2.830636
   41       -2.765864
   42       -2.601477
   43       -2.472448
   44       -2.316723
   45       -2.116799
   46       -1.938085
   47       -1.798701
   48       -1.779479
   49       -1.635510
   50       -1.565324
   51       -1.268077
   52       -1.160980
   53       -0.438674
   54       -0.225657
   55        0.248349
   56        0.718031
   57        1.165757
   58        1.499641
   59        1.734239
   60        1.955674
   61        2.074219
   62        2.207523
   63        2.323540
   64        2.432121
   65        2.530369
   66        2.680414
   67        2.802858
   68        2.858198
 
 -0.2307692E+00  0.2500000E+00  0.0000000E+00  0.1923077E-01
    1      -14.706742
    2      -12.906950
    3      -12.548701
    4      -12.267317
    5      -12.127242
    6      -11.913415
    7      -11.591787
    8      -11.444780
    9      -11.161164
   10      -10.943405
   11      -10.515124
   12       -9.884932
   13       -9.299619
   14       -8.315076
   15       -7.729711
   16       -7.698335
   17       -6.971885
   18       -6.666842
   19       -6.604483
   20       -6.549766
   21       -6.200677
   22       -5.654786
   23       -5.533969
   24       -5.268823
   25       -5.247586
   26       -4.770618
   27       -4.722522
   28       -4.514672
   29       -4.435640
   30       -4.364692
   31       -4.113039
   32       -4.022768
   33       -3.782772
   34       -3.676402
   35       -3.385454
   36       -3.348541
   37       -3.186267
   38       -2.915219
   39       -2.884650
   40       -2.683527
   41       -2.540579
   42       -2.493174
   43       -2.355765
   44       -2.154885
   45       -1.955174
   46       -1.812225
   47       -1.733532
   48       -1.685977
   49       -1.560738
   50       -1.370558
   51       -1.030000
   52       -0.779458
   53       -0.328386
   54       -0.102245
   55        0.358580
   56        0.965445
   57        1.416427
   58        1.651310
   59        1.907929
   60        2.081690
   61        2.295598
   62        2.354404
   63        2.477690
   64        2.628916
   65        2.740078
   66        2.812777
   67        2.994445
   68        3.060300
 
 -0.1538462E+00  0.2500000E+00  0.0000000E+00  0.1923077E-01
    1      -14.974648
    2      -13.190757
    3      -12.837810
    4      -12.582413
    5      -12.360494
    6      -12.179743
    7      -11.856524
    8      -11.662254
    9      -11.382584
   10      -11.175933
   11      -10.717648
   12       -9.851169
   13       -9.212125
   14       -8.295079
   15       -7.634361
   16       -7.454848
   17       -6.898976
   18       -6.585000
   19       -6.466437
   20       -6.288875
   21       -6.034849
   22       -5.605970
   23       -5.282983
   24       -4.905290
   25       -4.747724
   26       -4.310360
   27       -4.195303
   28       -4.079156
   29       -3.971040
   30       -3.852600
   31       -3.680872
   32       -3.596460
   33       -3.486523
   34       -3.320156
   35       -3.103868
   36       -3.040075
   37       -2.930314
   38       -2.825234
   39       -2.788069
   40       -2.597582
   41       -2.439656
   42       -2.388054
   43       -2.112880
   44       -1.991003
   45       -1.870331
   46       -1.736875
   47       -1.671670
   48       -1.557043
   49       -1.452895
   50       -1.115593
   51       -0.872181
   52       -0.770341
   53       -0.239587
   54        0.120551
   55        0.407242
   56        1.088646
   57        1.372167
   58        1.800943
   59        1.930117
   60        2.262622
   61        2.351341
   62        2.509923
   63        2.622818
   64        2.782241
   65        2.838023
   66        2.876682
   67        3.032597
   68        3.073259
 
 -0.7692308E-01  0.2500000E+00  0.0000000E+00  0.1923077E-01
    1      -15.140248
    2      -13.356540
    3      -13.021876
    4      -12.792798
    5      -12.496057