 running on    8 total cores
 distrk:  each k-point on    8 cores,    1 groups
 distr:  one band on    2 cores,    4 groups
 using from now: INCAR     
 vasp.5.3.5 31Mar14 (build Oct 29 2014 16:16:03) complex                        
  
 POSCAR found type information on POSCAR  P  Si
 POSCAR found :  2 types and      24 ions
 scaLAPACK will be used

 ----------------------------------------------------------------------------- 
|                                                                             |
|  ADVICE TO THIS USER RUNNING 'VASP/VAMP'   (HEAR YOUR MASTER'S VOICE ...):  |
|                                                                             |
|      You have switched on vdW-DFT.                                          |
|      This routine was written and supplied by Jiri Klimes.                  |
|      We recommed that you carefully read and cite the following             |
|      publication                                                            |
|      J. Klimes, D.R. Bowler, A. Michelides                                  |
|        J. Phys.: Cond Matt. 22 022201 (2010)                                |
|      J. Klimes, D.R. Bowler, A. Michelides                                  |
|        Phys. Rev. B. 83, 195131 (2011)                                      |
|      and references therein.                                                |
|                                                                             |
 ----------------------------------------------------------------------------- 


 ----------------------------------------------------------------------------- 
|                                                                             |
|  ADVICE TO THIS USER RUNNING 'VASP/VAMP'   (HEAR YOUR MASTER'S VOICE ...):  |
|                                                                             |
|      You enforced a specific xc-type in the INCAR file,                     |
|      a different type was found on the POTCAR file                          |
|          I HOPE YOU KNOW, WHAT YOU ARE  DOING                               |
|                                                                             |
 ----------------------------------------------------------------------------- 

 LDA part: xc-table for Pade appr. of Perdew


 VERY BAD NEWS! internal error in subroutine IBZKPT:
 Reciprocal lattice and k-lattice belong to different class of lattices. Often results are still useful...      96


 VERY BAD NEWS! internal error in subroutine IBZKPT:
 Reciprocal lattice and k-lattice belong to different class of lattices. Often results are still useful...      96


 VERY BAD NEWS! internal error in subroutine IBZKPT:
 Reciprocal lattice and k-lattice belong to different class of lattices. Often results are still useful...      96


 VERY BAD NEWS! internal error in subroutine IBZKPT:
 Reciprocal lattice and k-lattice belong to different class of lattices. Often results are still useful...      96


 VERY BAD NEWS! internal error in subroutine IBZKPT:
 Reciprocal lattice and k-lattice belong to different class of lattices. Often results are still useful...      96


 VERY BAD NEWS! internal error in subroutine IBZKPT:
 Reciprocal lattice and k-lattice belong to different class of lattices. Often results are still useful...      96


 VERY BAD NEWS! internal error in subroutine IBZKPT:
 Reciprocal lattice and k-lattice belong to different class of lattices. Often results are still useful...      96


 VERY BAD NEWS! internal error in subroutine IBZKPT:
 Reciprocal lattice and k-lattice belong to different class of lattices. Often results are still useful...      96
 POSCAR, INCAR and KPOINTS ok, starting setup
 WARNING: small aliasing (wrap around) errors must be expected
 FFT: planning ...
 WAVECAR not read
 entering main loop
       N       E                     dE             d eps       ncg     rms          rms(c)
Total vdW correction in eV:     15.9796528
DAV:   1     0.505627478632E+03    0.50563E+03   -0.28743E+04  7368   0.790E+02
DAV:   2    -0.594637892137E+02   -0.56509E+03   -0.55012E+03  9752   0.190E+02
DAV:   3    -0.117107451897E+03   -0.57644E+02   -0.56847E+02  8796   0.630E+01
DAV:   4    -0.119805501537E+03   -0.26980E+01   -0.26828E+01 11032   0.148E+01
DAV:   5    -0.119868332479E+03   -0.62831E-01   -0.62766E-01  9912   0.219E+00    0.121E+01
Total vdW correction in eV:     16.3863385
DAV:   6    -0.115291933951E+03    0.45764E+01   -0.17581E+01  8832   0.111E+01    0.639E+00
Total vdW correction in eV:     16.7877909
DAV:   7    -0.115273131280E+03    0.18803E-01   -0.12419E+01  8936   0.760E+00    0.340E+00
Total vdW correction in eV:     16.9455563
DAV:   8    -0.115178777225E+03    0.94354E-01   -0.25738E+00  9592   0.354E+00    0.172E+00
Total vdW correction in eV:     17.0540939
DAV:   9    -0.115149594758E+03    0.29182E-01   -0.41250E-01  9032   0.195E+00    0.873E-01
Total vdW correction in eV:     17.1411832
DAV:  10    -0.115154272886E+03   -0.46781E-02   -0.11732E-01  8736   0.970E-01    0.284E-01
Total vdW correction in eV:     17.1613245
DAV:  11    -0.115146906164E+03    0.73667E-02   -0.16219E-02  9064   0.429E-01    0.117E-01
Total vdW correction in eV:     17.1720336
DAV:  12    -0.115138355611E+03    0.85506E-02   -0.50011E-03  8832   0.205E-01    0.548E-02
Total vdW correction in eV:     17.1772547
DAV:  13    -0.115133640261E+03    0.47154E-02   -0.50411E-04  9352   0.731E-02    0.258E-02
Total vdW correction in eV:     17.1818202
DAV:  14    -0.115131369023E+03    0.22712E-02   -0.18357E-04  9200   0.393E-02    0.141E-02
Total vdW correction in eV:     17.1852761
DAV:  15    -0.115130369013E+03    0.10000E-02   -0.65981E-05  9312   0.229E-02    0.878E-03
Total vdW correction in eV:     17.1882736
DAV:  16    -0.115130315539E+03    0.53474E-04   -0.64079E-05  8056   0.205E-02    0.530E-03
Total vdW correction in eV:     17.1895306
DAV:  17    -0.115130949177E+03   -0.63364E-03   -0.14840E-04  8280   0.243E-02    0.307E-03
Total vdW correction in eV:     17.1896624
DAV:  18    -0.115131121365E+03   -0.17219E-03   -0.83268E-05  7712   0.156E-02    0.170E-03
Total vdW correction in eV:     17.1894885
DAV:  19    -0.115131176140E+03   -0.54775E-04   -0.19709E-05  7200   0.965E-03    0.113E-03
Total vdW correction in eV:     17.1892897
DAV:  20    -0.115131215253E+03   -0.39113E-04   -0.10877E-05  6552   0.692E-03    0.767E-04
Total vdW correction in eV:     17.1891252
DAV:  21    -0.115131205736E+03    0.95171E-05   -0.23820E-05  7248   0.953E-03    0.539E-04
Total vdW correction in eV:     17.1890267
DAV:  22    -0.115131174228E+03    0.31508E-04   -0.17627E-05  6976   0.106E-02    0.308E-04
Total vdW correction in eV:     17.1889944
DAV:  23    -0.115131100496E+03    0.73732E-04   -0.17195E-05  7256   0.838E-03    0.162E-04
Total vdW correction in eV:     17.1889938
DAV:  24    -0.115131092154E+03    0.83417E-05   -0.11452E-05  6968   0.877E-03    0.745E-05
Total vdW correction in eV:     17.1889933
DAV:  25    -0.115131072736E+03    0.19418E-04   -0.38428E-06  6424   0.643E-03    0.424E-05
Total vdW correction in eV:     17.1889947
DAV:  26    -0.115131071157E+03    0.15791E-05   -0.37739E-06  6032   0.626E-03    0.229E-05
Total vdW correction in eV:     17.1889938
DAV:  27    -0.115131067849E+03    0.33085E-05   -0.28660E-06  5900   0.524E-03    0.129E-05
Total vdW correction in eV:     17.1889948
DAV:  28    -0.115131066671E+03    0.11774E-05   -0.11345E-06  5504   0.416E-03    0.862E-06
Total vdW correction in eV:     17.1889949
DAV:  29    -0.115131066397E+03    0.27405E-06   -0.10699E-06  5864   0.384E-03
Total vdW correction in eV:     17.1889949
Total vdW correction in eV:     17.1889951
   1 F= -.11513107E+03 E0= -.11511573E+03  d E =-.306798E-01
