 vasp.5.3.5 31Mar14 (build Oct 29 2014 16:16:03) complex                        
  
 executed on          Linux-UFHPC date 2016.02.09  18:08:59
 running on    8 total cores
 distrk:  each k-point on    8 cores,    1 groups
 distr:  one band on NCORES_PER_BAND=   2 cores,    4 groups


--------------------------------------------------------------------------------------------------------


 INCAR:
 POTCAR:    PAW_PBE P 17Jan2003                   
 POTCAR:   PAW_PBE Si 05Jan2001                   

 ----------------------------------------------------------------------------- 
|                                                                             |
|  ADVICE TO THIS USER RUNNING 'VASP/VAMP'   (HEAR YOUR MASTER'S VOICE ...):  |
|                                                                             |
|      You have switched on vdW-DFT.                                          |
|      This routine was written and supplied by Jiri Klimes.                  |
|      We recommed that you carefully read and cite the following             |
|      publication                                                            |
|      J. Klimes, D.R. Bowler, A. Michelides                                  |
|        J. Phys.: Cond Matt. 22 022201 (2010)                                |
|      J. Klimes, D.R. Bowler, A. Michelides                                  |
|        Phys. Rev. B. 83, 195131 (2011)                                      |
|      and references therein.                                                |
|                                                                             |
 ----------------------------------------------------------------------------- 

 POTCAR:    PAW_PBE P 17Jan2003                   
   VRHFIN =P : s2p3                                                             
   LEXCH  = PE                                                                  
   EATOM  =   176.0430 eV,   12.9388 Ry                                         
                                                                                
   TITEL  = PAW_PBE P 17Jan2003                                                 
   LULTRA =        F    use ultrasoft PP ?                                      
   IUNSCR =        1    unscreen: 0-lin 1-nonlin 2-no                           
   RPACOR =    1.500    partial core radius                                     
   POMASS =   30.974; ZVAL   =    5.000    mass and valenz                      
   RCORE  =    1.900    outmost cutoff radius                                   
   RWIGS  =    2.330; RWIGS  =    1.233    wigner-seitz radius (au A)           
   ENMAX  =  270.000; ENMIN  =  191.280 eV                                      
   ICORE  =        2    local potential                                         
   LCOR   =        T    correct aug charges                                     
   LPAW   =        T    paw PP                                                  
   EAUG   =  342.924                                                            
   DEXC   =    -.002                                                            
   RMAX   =    2.887    core radius for proj-oper                               
   RAUG   =    1.300    factor for augmentation sphere                          
   RDEP   =    1.931    radius for radial grids                                 
   QCUT   =   -4.330; QGAM   =    8.659    optimization parameters              
                                                                                
   Description                                                                  
     l     E      TYP  RCUT    TYP  RCUT                                        
     0   .000     23  1.900                                                     
     0   .000     23  1.900                                                     
     1   .000     23  1.900                                                     
     1   .000     23  1.900                                                     
     2   .000     23  1.900                                                     
  local pseudopotential read in
  partial core-charges read in
  atomic valenz-charges read in
  non local Contribution for L=           0  read in
    real space projection operators read in
  non local Contribution for L=           0  read in
    real space projection operators read in
  non local Contribution for L=           1  read in
    real space projection operators read in
  non local Contribution for L=           1  read in
    real space projection operators read in
    PAW grid and wavefunctions read in
 
   number of l-projection  operators is LMAX  =           4
   number of lm-projection operators is LMMAX =           8
 
 POTCAR:   PAW_PBE Si 05Jan2001                   
   VRHFIN =Si: s2p2                                                             
   LEXCH  = PE                                                                  
   EATOM  =   103.0669 eV,    7.5752 Ry                                         
                                                                                
   TITEL  = PAW_PBE Si 05Jan2001                                                
   LULTRA =        F    use ultrasoft PP ?                                      
   IUNSCR =        1    unscreen: 0-lin 1-nonlin 2-no                           
   RPACOR =    1.500    partial core radius                                     
   POMASS =   28.085; ZVAL   =    4.000    mass and valenz                      
   RCORE  =    1.900    outmost cutoff radius                                   
   RWIGS  =    2.480; RWIGS  =    1.312    wigner-seitz radius (au A)           
   ENMAX  =  245.345; ENMIN  =  184.009 eV                                      
   ICORE  =        2    local potential                                         
   LCOR   =        T    correct aug charges                                     
   LPAW   =        T    paw PP                                                  
   EAUG   =  322.069                                                            
   DEXC   =    -.007                                                            
   RMAX   =    2.944    core radius for proj-oper                               
   RAUG   =    1.300    factor for augmentation sphere                          
   RDEP   =    1.993    radius for radial grids                                 
   QCUT   =   -4.246; QGAM   =    8.493    optimization parameters              
                                                                                
   Description                                                                  
     l     E      TYP  RCUT    TYP  RCUT                                        
     0   .000     23  1.900                                                     
     0   .000     23  1.900                                                     
     1   .000     23  1.900                                                     
     1   .000     23  1.900                                                     
     2   .000      7  1.900                                                     
  local pseudopotential read in
  partial core-charges read in
  atomic valenz-charges read in
  non local Contribution for L=           0  read in
    real space projection operators read in
  non local Contribution for L=           0  read in
    real space projection operators read in
  non local Contribution for L=           1  read in
    real space projection operators read in
  non local Contribution for L=           1  read in
    real space projection operators read in
    PAW grid and wavefunctions read in
 
   number of l-projection  operators is LMAX  =           4
   number of lm-projection operators is LMMAX =           8
 
 Optimization of the real space projectors (new method)

 maximal supplied QI-value         = 19.84
 optimisation between [QCUT,QGAM] = [  8.73, 17.66] = [ 21.34, 87.33] Ry 
 Optimized for a Real-space Cutoff    1.50 Angstroem

   l    n(q)    QCUT    max X(q) W(low)/X(q) W(high)/X(q)  e(spline) 
   0      8     8.731     6.651    0.16E-04    0.15E-04    0.77E-08
   0      8     8.731    90.285    0.16E-03    0.90E-04    0.16E-06
   1      7     8.731     4.328    0.47E-04    0.36E-04    0.45E-07
   1      7     8.731    54.583    0.13E-03    0.39E-03    0.20E-06
 Optimization of the real space projectors (new method)

 maximal supplied QI-value         = 19.84
 optimisation between [QCUT,QGAM] = [  8.73, 17.66] = [ 21.34, 87.33] Ry 
 Optimized for a Real-space Cutoff    1.46 Angstroem

   l    n(q)    QCUT    max X(q) W(low)/X(q) W(high)/X(q)  e(spline) 
   0      8     8.731     8.708    0.16E-04    0.11E-04    0.68E-08
   0      8     8.731   106.241    0.24E-03    0.77E-04    0.13E-06
   1      7     8.731     5.901    0.34E-04    0.38E-04    0.36E-07
   1      7     8.731    73.241    0.12E-03    0.39E-03    0.15E-06

 ----------------------------------------------------------------------------- 
|                                                                             |
|  ADVICE TO THIS USER RUNNING 'VASP/VAMP'   (HEAR YOUR MASTER'S VOICE ...):  |
|                                                                             |
|      You enforced a specific xc-type in the INCAR file,                     |
|      a different type was found on the POTCAR file                          |
|          I HOPE YOU KNOW, WHAT YOU ARE  DOING                               |
|                                                                             |
 ----------------------------------------------------------------------------- 

  PAW_PBE P 17Jan2003                   :
 energy of atom  1       EATOM= -176.0430
 kinetic energy error for atom=    0.0040 (will be added to EATOM!!)
 PAW_PBE Si 05Jan2001                   :
 energy of atom  2       EATOM= -103.0669
 kinetic energy error for atom=    0.0021 (will be added to EATOM!!)
 
 
 POSCAR: Si12                                    
  positions in direct lattice
  No initial velocities read in
 exchange correlation table for  LEXCH =       42
   RHO(1)=    0.500       N(1)  =     2000
   RHO(2)=  100.500       N(2)  =     4000
 


--------------------------------------------------------------------------------------------------------


 ion  position               nearest neighbor table
   1  0.114  0.228  0.233-  15 2.28  21 2.29  21 2.29
   2  0.614  0.528  0.515-  16 2.28  22 2.29  22 2.29
   3  0.458  0.916  0.209-  21 2.28  13 2.30  13 2.30
   4  0.958  0.216  0.491-  22 2.28  14 2.30  14 2.30
   5  0.311  0.622  0.084-  17 2.28  23 2.30  23 2.30
   6  0.311  0.622  0.366-  18 2.28
   7  0.999  0.998  0.086-  19 2.29  19 2.29  13 2.32
   8  0.999  0.998  0.368-  24 1.88  20 2.29  20 2.29  24 2.70  14 2.98
   9  0.655  0.310  0.060-  19 2.28  17 2.29  17 2.29
  10  0.655  0.310  0.342-  20 2.28  18 2.29  18 2.29  14 3.04
  11  0.770  0.539  0.207-  15 2.29  15 2.29  23 2.32
  12  0.270  0.839  0.489-  16 2.29  16 2.29  24 2.32
  13  0.940  0.879  0.158-   3 2.30   3 2.30   7 2.32  23 2.35
  14  0.440  0.179  0.440-  20 1.57   4 2.30   4 2.30  24 2.35   8 2.98  10 3.04  18 3.07
  15  0.205  0.410  0.186-   1 2.28  11 2.29  11 2.29  17 2.37
  16  0.705  0.710  0.468-   2 2.28  12 2.29  12 2.29
  17  0.202  0.404  0.100-   5 2.28   9 2.29   9 2.29  15 2.37
  18  0.202  0.404  0.382-   6 2.28  10 2.29  10 2.29  22 2.66  14 3.07
  19  0.564  0.128  0.108-   9 2.28   7 2.29   7 2.29  21 2.37
  20  0.564  0.128  0.390-  14 1.57  24 1.98  10 2.28   8 2.29   8 2.29
  21  0.567  0.134  0.194-   3 2.28   1 2.29   1 2.29  19 2.37
  22  0.067  0.434  0.476-   4 2.28   2 2.29   2 2.29  18 2.66
  23  0.829  0.658  0.136-   5 2.30   5 2.30  11 2.32  13 2.35
  24  0.329  0.958  0.418-   8 1.88  20 1.98  12 2.32  14 2.35   8 2.70
 
  LATTYP: Found a base centered orthorhombic cell.
 ALAT       =     3.5404000000
 B/A-ratio  =     5.8153587165
 C/A-ratio  =     7.7678875268
  
  Lattice vectors:
  
 A1 = (   1.7702000000,  10.2943480000,   0.0000000000)
 A2 = (   1.7702000000, -10.2943480000,   0.0000000000)
 A3 = (   0.0000000000,   0.0000000000, -27.5014290000)


Analysis of symmetry for initial positions (statically):
=====================================================================
 Subroutine PRICEL returns:
 Original cell was already a primitive cell.
 

 Routine SETGRP: Setting up the symmetry group for a 
 base centered orthorhombic supercell.


 Subroutine GETGRP returns: Found  1 space group operations
 (whereof  1 operations were pure point group operations)
 out of a pool of  8 trial point group operations.


The static configuration has the point symmetry C_1 .


Analysis of symmetry for dynamics (positions and initial velocities):
=====================================================================
 Subroutine PRICEL returns:
 Original cell was already a primitive cell.
 

 Routine SETGRP: Setting up the symmetry group for a 
 base centered orthorhombic supercell.


 Subroutine GETGRP returns: Found  1 space group operations
 (whereof  1 operations were pure point group operations)
 out of a pool of  8 trial point group operations.


The dynamic configuration has the point symmetry C_1 .
 
 
 KPOINTS: pymatgen generated KPOINTS with grid den

Automatic generation of k-mesh.
Space group operators:
 irot       det(A)        alpha          n_x          n_y          n_z        tau_x        tau_y        tau_z
    1     1.000000     0.000000     1.000000     0.000000     0.000000     0.000000     0.000000     0.000000
 
 Subroutine IBZKPT returns following result:
 ===========================================
 
 Found     54 irreducible k-points:
 
 Following reciprocal coordinates:
            Coordinates               Weight
  0.000000  0.000000  0.000000      1.000000
  0.076923 -0.000000  0.000000      2.000000
  0.153846 -0.000000  0.000000      2.000000
  0.230769 -0.000000  0.000000      2.000000
  0.307692 -0.000000  0.000000      2.000000
  0.384615 -0.000000  0.000000      2.000000
  0.461538 -0.000000  0.000000      2.000000
  0.000000  0.250000  0.000000      2.000000
  0.076923  0.250000  0.000000      2.000000
  0.153846  0.250000  0.000000      2.000000
  0.230769  0.250000  0.000000      2.000000
  0.307692  0.250000  0.000000      2.000000
  0.384615  0.250000  0.000000      2.000000
  0.461538  0.250000  0.000000      2.000000
 -0.461538  0.250000  0.000000      2.000000
 -0.384615  0.250000  0.000000      2.000000
 -0.307692  0.250000  0.000000      2.000000
 -0.230769  0.250000  0.000000      2.000000
 -0.153846  0.250000  0.000000      2.000000
 -0.076923  0.250000  0.000000      2.000000
  0.000000  0.500000  0.000000      1.000000
  0.076923  0.500000  0.000000      2.000000
  0.153846  0.500000  0.000000      2.000000
  0.230769  0.500000  0.000000      2.000000
  0.307692  0.500000  0.000000      2.000000
  0.384615  0.500000  0.000000      2.000000
  0.461538  0.500000  0.000000      2.000000
  0.000000  0.000000  0.500000      1.000000
  0.076923 -0.000000  0.500000      2.000000
  0.153846 -0.000000  0.500000      2.000000
  0.230769 -0.000000  0.500000      2.000000
  0.307692 -0.000000  0.500000      2.000000
  0.384615 -0.000000  0.500000      2.000000
  0.461538 -0.000000  0.500000      2.000000
  0.000000  0.250000  0.500000      2.000000
  0.076923  0.250000  0.500000      2.000000
  0.153846  0.250000  0.500000      2.000000
  0.230769  0.250000  0.500000      2.000000
  0.307692  0.250000  0.500000      2.000000
  0.384615  0.250000  0.500000      2.000000
  0.461538  0.250000  0.500000      2.000000
 -0.461538  0.250000  0.500000      2.000000
 -0.384615  0.250000  0.500000      2.000000
 -0.307692  0.250000  0.500000      2.000000
 -0.230769  0.250000  0.500000      2.000000
 -0.153846  0.250000  0.500000      2.000000
 -0.076923  0.250000  0.500000      2.000000
  0.000000  0.500000  0.500000      1.000000
  0.076923  0.500000  0.500000      2.000000
  0.153846  0.500000  0.500000      2.000000
  0.230769  0.500000  0.500000      2.000000
  0.307692  0.500000  0.500000      2.000000
  0.384615  0.500000  0.500000      2.000000
  0.461538  0.500000  0.500000      2.000000
 
 Following cartesian coordinates:
            Coordinates               Weight
  0.000000  0.000000  0.000000      1.000000
  0.021727  0.003736  0.000000      2.000000
  0.043454  0.007472  0.000000      2.000000
  0.065182  0.011209  0.000000      2.000000
  0.086909  0.014945  0.000000      2.000000
  0.108636  0.018681  0.000000      2.000000
  0.130363  0.022417  0.000000      2.000000
  0.000000  0.024285  0.000000      2.000000
  0.021727  0.028021  0.000000      2.000000
  0.043454  0.031758  0.000000      2.000000
  0.065182  0.035494  0.000000      2.000000
  0.086909  0.039230  0.000000      2.000000
  0.108636  0.042966  0.000000      2.000000
  0.130363  0.046702  0.000000      2.000000
 -0.130363  0.001868  0.000000      2.000000
 -0.108636  0.005604  0.000000      2.000000
 -0.086909  0.009340  0.000000      2.000000
 -0.065182  0.013077  0.000000      2.000000
 -0.043454  0.016813  0.000000      2.000000
 -0.021727  0.020549  0.000000      2.000000
  0.000000  0.048570  0.000000      1.000000
  0.021727  0.052307  0.000000      2.000000
  0.043454  0.056043  0.000000      2.000000
  0.065182  0.059779  0.000000      2.000000
  0.086909  0.063515  0.000000      2.000000
  0.108636  0.067251  0.000000      2.000000
  0.130363  0.070987  0.000000      2.000000
  0.000000  0.000000  0.018181      1.000000
  0.021727  0.003736  0.018181      2.000000
  0.043454  0.007472  0.018181      2.000000
  0.065182  0.011209  0.018181      2.000000
  0.086909  0.014945  0.018181      2.000000
  0.108636  0.018681  0.018181      2.000000
  0.130363  0.022417  0.018181      2.000000
  0.000000  0.024285  0.018181      2.000000
  0.021727  0.028021  0.018181      2.000000
  0.043454  0.031758  0.018181      2.000000
  0.065182  0.035494  0.018181      2.000000
  0.086909  0.039230  0.018181      2.000000
  0.108636  0.042966  0.018181      2.000000
  0.130363  0.046702  0.018181      2.000000
 -0.130363  0.001868  0.018181      2.000000
 -0.108636  0.005604  0.018181      2.000000
 -0.086909  0.009340  0.018181      2.000000
 -0.065182  0.013077  0.018181      2.000000
 -0.043454  0.016813  0.018181      2.000000
 -0.021727  0.020549  0.018181      2.000000
  0.000000  0.048570  0.018181      1.000000
  0.021727  0.052307  0.018181      2.000000
  0.043454  0.056043  0.018181      2.000000
  0.065182  0.059779  0.018181      2.000000
  0.086909  0.063515  0.018181      2.000000
  0.108636  0.067251  0.018181      2.000000
  0.130363  0.070987  0.018181      2.000000
 


--------------------------------------------------------------------------------------------------------




 Dimension of arrays:
   k-points           NKPTS =     54   k-points in BZ     NKDIM =     54   number of bands    NBANDS=     68
   number of dos      NEDOS =    301   number of ions     NIONS =     24
   non local maximal  LDIM  =      4   non local SUM 2l+1 LMDIM =      8
   total plane-waves  NPLWV = 192000
   max r-space proj   IRMAX =   2772   max aug-charges    IRDMAX=   6603
   dimension x,y,z NGX =    20 NGY =   60 NGZ =  160
   dimension x,y,z NGXF=    40 NGYF=  120 NGZF=  320
   support grid    NGXF=    40 NGYF=  120 NGZF=  320
   ions per type =              12  12
 NGX,Y,Z   is equivalent  to a cutoff of   9.39,  9.55,  9.67 a.u.
 NGXF,Y,Z  is equivalent  to a cutoff of  18.78, 19.10, 19.34 a.u.


 I would recommend the setting:
   dimension x,y,z NGX =    20 NGY =   59 NGZ =  155
 SYSTEM =  unknown system                          
 POSCAR =  Si12                                    

 Startparameter for this run:
   NWRITE =      2    write-flag & timer
   PREC   = accura    normal or accurate (medium, high low for compatibility)
   ISTART =      0    job   : 0-new  1-cont  2-samecut
   ICHARG =      2    charge: 1-file 2-atom 10-const
   ISPIN  =      1    spin polarized calculation?
   LNONCOLLINEAR =      F non collinear calculations
   LSORBIT =      F    spin-orbit coupling
   INIWAV =      1    electr: 0-lowe 1-rand  2-diag
   LASPH  =      F    aspherical Exc in radial PAW
   METAGGA=      F    non-selfconsistent MetaGGA calc.

 Electronic Relaxation 1
   ENCUT  =  300.0 eV  22.05 Ry    4.70 a.u.   5.00 14.75 38.84*2*pi/ulx,y,z
   ENINI  =  300.0     initial cutoff
   ENAUG  =  342.9 eV  augmentation charge cutoff
   NELM   =     60;   NELMIN=  2; NELMDL= -5     # of ELM steps 
   EDIFF  = 0.1E-05   stopping-criterion for ELM
   LREAL  =      T    real-space projection
   NLSPLINE    = F    spline interpolate recip. space projectors
   LCOMPAT=      F    compatible to vasp.4.4
   GGA_COMPAT  = T    GGA compatible to vasp.4.4-vasp.4.6
   LMAXPAW     = -100 max onsite density
   LMAXMIX     =    2 max onsite mixed and CHGCAR
   VOSKOWN=      0    Vosko Wilk Nusair interpolation
   ROPT   =   -0.00025  -0.00025
 Ionic relaxation
   EDIFFG = 0.1E-04   stopping-criterion for IOM
   NSW    =      0    number of steps for IOM
   NBLOCK =      1;   KBLOCK =      1    inner block; outer block 
   IBRION =     -1    ionic relax: 0-MD 1-quasi-New 2-CG
   NFREE  =      1    steps in history (QN), initial steepest desc. (CG)
   ISIF   =      3    stress and relaxation
   IWAVPR =     10    prediction:  0-non 1-charg 2-wave 3-comb
   ISYM   =      2    0-nonsym 1-usesym 2-fastsym
   LCORR  =      T    Harris-Foulkes like correction to forces

   POTIM  = 0.5000    time-step for ionic-motion
   TEIN   =    0.0    initial temperature
   TEBEG  =    0.0;   TEEND  =   0.0 temperature during run
   SMASS  =  -3.00    Nose mass-parameter (am)
   estimated Nose-frequenzy (Omega)   =  0.10E-29 period in steps =****** mass=  -0.286E-27a.u.
   SCALEE = 1.0000    scale energy and forces
   NPACO  =    256;   APACO  = 16.0  distance and # of slots for P.C.
   PSTRESS=    0.0 pullay stress

  Mass of Ions in am
   POMASS =  30.97 28.09
  Ionic Valenz
   ZVAL   =   5.00  4.00
  Atomic Wigner-Seitz radii
   RWIGS  =  -1.00 -1.00
  virtual crystal weights 
   VCA    =   1.00  1.00
   NELECT =     108.0000    total number of electrons
   NUPDOWN=      -1.0000    fix difference up-down

 DOS related values:
   EMIN   =  10.00;   EMAX   =-10.00  energy-range for DOS
   EFERMI =   0.00
   ISMEAR =     0;   SIGMA  =   0.10  broadening in eV -4-tet -1-fermi 0-gaus

 Electronic relaxation 2 (details)
   IALGO  =     38    algorithm
   LDIAG  =      T    sub-space diagonalisation (order eigenvalues)
   LSUBROT=      F    optimize rotation matrix (better conditioning)
   TURBO    =      0    0=normal 1=particle mesh
   IRESTART =      0    0=no restart 2=restart with 2 vectors
   NREBOOT  =      0    no. of reboots
   NMIN     =      0    reboot dimension
   EREF     =   0.00    reference energy to select bands
   IMIX   =      4    mixing-type and parameters
     AMIX     =   0.40;   BMIX     =  1.00
     AMIX_MAG =   1.60;   BMIX_MAG =  1.00
     AMIN     =   0.10
     WC   =   100.;   INIMIX=   1;  MIXPRE=   1;  MAXMIX= -45

 Intra band minimization:
   WEIMIN = 0.0000     energy-eigenvalue tresh-hold
   EBREAK =  0.37E-08  absolut break condition
   DEPER  =   0.30     relativ break condition  

   TIME   =   0.40     timestep for ELM

  volume/ion in A,a.u.               =      41.76       281.83
  Fermi-wavevector in a.u.,A,eV,Ry     =   0.779018  1.472130  8.256946  0.606868
  Thomas-Fermi vector in A             =   1.882034
 
 Write flags
   LWAVE  =      F    write WAVECAR
   LCHARG =      F    write CHGCAR
   LVTOT  =      F    write LOCPOT, total local potential
   LVHAR  =      F    write LOCPOT, Hartree potential only
   LELF   =      F    write electronic localiz. function (ELF)
   LORBIT =      0    0 simple, 1 ext, 2 COOP (PROOUT)


 Dipole corrections
   LMONO  =      F    monopole corrections only (constant potential shift)
   LDIPOL =      F    correct potential (dipole corrections)
   IDIPOL =      0    1-x, 2-y, 3-z, 4-all directions 
   EPSILON=  1.0000000 bulk dielectric constant

 Exchange correlation treatment:
   GGA     =    BO    GGA type
   LEXCH   =    42    internal setting for exchange type
   VOSKOWN=      0    Vosko Wilk Nusair interpolation
   LHFCALC =     F    Hartree Fock is set to
   LHFONE  =     F    Hartree Fock one center treatment
   AEXX    =    0.0000 exact exchange contribution

 vdW DFT:
   LUSE_VDW   =     T    switch on vdW DFT
   Zab_VDW    =-.8491    correlation parameter
   PARAM1     =0.1833
   PARAM2     =0.2200
   PARAM3     =0.0000

 Linear response parameters
   LEPSILON=     F    determine dielectric tensor
   LRPA    =     F    only Hartree local field effects (RPA)
   LNABLA  =     F    use nabla operator in PAW spheres
   LVEL    =     F    velocity operator in full k-point grid
   LINTERFAST=   F  fast interpolation
   KINTER  =     0    interpolate to denser k-point grid
   CSHIFT  =0.1000    complex shift for real part using Kramers Kronig
   OMEGAMAX=  -1.0    maximum frequency
   DEG_THRESHOLD= 0.2000000E-02 threshold for treating states as degnerate
   RTIME   =    0.100 relaxation time in fs

 Orbital magnetization related:
   ORBITALMAG=     F  switch on orbital magnetization
   LCHIMAG   =     F  perturbation theory with respect to B field
   DQ        =  0.001000  dq finite difference perturbation B field



--------------------------------------------------------------------------------------------------------


 Static calculation
 charge density and potential will be updated during run
 non-spin polarized calculation
 Variant of blocked Davidson
 Davidson routine will perform the subspace rotation
 perform sub-space diagonalisation
    after iterative eigenvector-optimisation
 modified Broyden-mixing scheme, WC =      100.0
 initial mixing is a Kerker type mixing with AMIX =  0.4000 and BMIX =      1.0000
 Hartree-type preconditioning will be used
 using additional bands           14
 real space projection scheme for non local part
 use partial core corrections
 calculate Harris-corrections to forces 
   (improved forces if not selfconsistent)
 use gradient corrections 
 use of overlap-Matrix (Vanderbilt PP)
 Gauss-broadening in eV      SIGMA  =   0.10


--------------------------------------------------------------------------------------------------------


  energy-cutoff  :      300.00
  volume of cell :     1002.32
      direct lattice vectors                 reciprocal lattice vectors
     3.540400000  0.000000000  0.000000000     0.282453960  0.048570342  0.000000000
    -1.770200000 10.294348000  0.000000000     0.000000000  0.097140683  0.000000000
     0.000000000  0.000000000 27.501429000     0.000000000  0.000000000  0.036361747

  length of vectors
     3.540400000 10.445439617 27.501429000     0.286599577  0.097140683  0.036361747


 
 k-points in units of 2pi/SCALE and weight: pymatgen generated KPOINTS with grid den
   0.00000000  0.00000000  0.00000000       0.010
   0.02172723  0.00373618  0.00000000       0.019
   0.04345446  0.00747236  0.00000000       0.019
   0.06518168  0.01120854  0.00000000       0.019
   0.08690891  0.01494472  0.00000000       0.019
   0.10863614  0.01868090  0.00000000       0.019
   0.13036337  0.02241708  0.00000000       0.019
   0.00000000  0.02428517  0.00000000       0.019
   0.02172723  0.02802135  0.00000000       0.019
   0.04345446  0.03175753  0.00000000       0.019
   0.06518168  0.03549371  0.00000000       0.019
   0.08690891  0.03922989  0.00000000       0.019
   0.10863614  0.04296607  0.00000000       0.019
   0.13036337  0.04670225  0.00000000       0.019
  -0.13036337  0.00186809  0.00000000       0.019
  -0.10863614  0.00560427  0.00000000       0.019
  -0.08690891  0.00934045  0.00000000       0.019
  -0.06518168  0.01307663  0.00000000       0.019
  -0.04345446  0.01681281  0.00000000       0.019
  -0.02172723  0.02054899  0.00000000       0.019
   0.00000000  0.04857034  0.00000000       0.010
   0.02172723  0.05230652  0.00000000       0.019
   0.04345446  0.05604270  0.00000000       0.019
   0.06518168  0.05977888  0.00000000       0.019
   0.08690891  0.06351506  0.00000000       0.019
   0.10863614  0.06725124  0.00000000       0.019
   0.13036337  0.07098742  0.00000000       0.019
   0.00000000  0.00000000  0.01818087       0.010
   0.02172723  0.00373618  0.01818087       0.019
   0.04345446  0.00747236  0.01818087       0.019
   0.06518168  0.01120854  0.01818087       0.019
   0.08690891  0.01494472  0.01818087       0.019
   0.10863614  0.01868090  0.01818087       0.019
   0.13036337  0.02241708  0.01818087       0.019
   0.00000000  0.02428517  0.01818087       0.019
   0.02172723  0.02802135  0.01818087       0.019
   0.04345446  0.03175753  0.01818087       0.019
   0.06518168  0.03549371  0.01818087       0.019
   0.08690891  0.03922989  0.01818087       0.019
   0.10863614  0.04296607  0.01818087       0.019
   0.13036337  0.04670225  0.01818087       0.019
  -0.13036337  0.00186809  0.01818087       0.019
  -0.10863614  0.00560427  0.01818087       0.019
  -0.08690891  0.00934045  0.01818087       0.019
  -0.06518168  0.01307663  0.01818087       0.019
  -0.04345446  0.01681281  0.01818087       0.019
  -0.02172723  0.02054899  0.01818087       0.019
   0.00000000  0.04857034  0.01818087       0.010
   0.02172723  0.05230652  0.01818087       0.019
   0.04345446  0.05604270  0.01818087       0.019
   0.06518168  0.05977888  0.01818087       0.019
   0.08690891  0.06351506  0.01818087       0.019
   0.10863614  0.06725124  0.01818087       0.019
   0.13036337  0.07098742  0.01818087       0.019
 
 k-points in reciprocal lattice and weights: pymatgen generated KPOINTS with grid den
   0.00000000  0.00000000  0.00000000       0.010
   0.07692308 -0.00000000  0.00000000       0.019
   0.15384615 -0.00000000  0.00000000       0.019
   0.23076923 -0.00000000  0.00000000       0.019
   0.30769231 -0.00000000  0.00000000       0.019
   0.38461538 -0.00000000  0.00000000       0.019
   0.46153846 -0.00000000  0.00000000       0.019
   0.00000000  0.25000000  0.00000000       0.019
   0.07692308  0.25000000  0.00000000       0.019
   0.15384615  0.25000000  0.00000000       0.019
   0.23076923  0.25000000  0.00000000       0.019
   0.30769231  0.25000000  0.00000000       0.019
   0.38461538  0.25000000  0.00000000       0.019
   0.46153846  0.25000000  0.00000000       0.019
  -0.46153846  0.25000000  0.00000000       0.019
  -0.38461538  0.25000000  0.00000000       0.019
  -0.30769231  0.25000000  0.00000000       0.019
  -0.23076923  0.25000000  0.00000000       0.019
  -0.15384615  0.25000000  0.00000000       0.019
  -0.07692308  0.25000000  0.00000000       0.019
   0.00000000  0.50000000  0.00000000       0.010
   0.07692308  0.50000000  0.00000000       0.019
   0.15384615  0.50000000  0.00000000       0.019
   0.23076923  0.50000000  0.00000000       0.019
   0.30769231  0.50000000  0.00000000       0.019
   0.38461538  0.50000000  0.00000000       0.019
   0.46153846  0.50000000  0.00000000       0.019
   0.00000000  0.00000000  0.50000000       0.010
   0.07692308 -0.00000000  0.50000000       0.019
   0.15384615 -0.00000000  0.50000000       0.019
   0.23076923 -0.00000000  0.50000000       0.019
   0.30769231 -0.00000000  0.50000000       0.019
   0.38461538 -0.00000000  0.50000000       0.019
   0.46153846 -0.00000000  0.50000000       0.019
   0.00000000  0.25000000  0.50000000       0.019
   0.07692308  0.25000000  0.50000000       0.019
   0.15384615  0.25000000  0.50000000       0.019
   0.23076923  0.25000000  0.50000000       0.019
   0.30769231  0.25000000  0.50000000       0.019
   0.38461538  0.25000000  0.50000000       0.019
   0.46153846  0.25000000  0.50000000       0.019
  -0.46153846  0.25000000  0.50000000       0.019
  -0.38461538  0.25000000  0.50000000       0.019
  -0.30769231  0.25000000  0.50000000       0.019
  -0.23076923  0.25000000  0.50000000       0.019
  -0.15384615  0.25000000  0.50000000       0.019
  -0.07692308  0.25000000  0.50000000       0.019
   0.00000000  0.50000000  0.50000000       0.010
   0.07692308  0.50000000  0.50000000       0.019
   0.15384615  0.50000000  0.50000000       0.019
   0.23076923  0.50000000  0.50000000       0.019
   0.30769231  0.50000000  0.50000000       0.019
   0.38461538  0.50000000  0.50000000       0.019
   0.46153846  0.50000000  0.50000000       0.019
 
 position of ions in fractional coordinates (direct lattice) 
   0.11402300  0.22804500  0.23316207
   0.61402300  0.52804500  0.51499159
   0.45808900  0.91617900  0.20939482
   0.95808900  0.21617900  0.49122434
   0.31085400  0.62170900  0.08414979
   0.31085400  0.62170900  0.36597930
   0.99923000  0.99846000  0.08631254
   0.99923000  0.99846000  0.36814206
   0.65492700  0.30985400  0.06041748
   0.65492700  0.30985400  0.34224700
   0.76973800  0.53947500  0.20725292
   0.26973800  0.83947500  0.48908244
   0.93971600  0.87943300  0.15783749
   0.43971600  0.17943300  0.43966701
   0.20515200  0.41030300  0.18578822
   0.70515200  0.71030300  0.46761774
   0.20184900  0.40369900  0.09969156
   0.20184900  0.40369900  0.38152107
   0.56380500  0.12761000  0.10779021
   0.56380500  0.12761000  0.38961973
   0.56710600  0.13421200  0.19387616
   0.06710600  0.43421200  0.47570568
   0.82923400  0.65846800  0.13571444
   0.32923400  0.95846800  0.41754396
 
 position of ions in cartesian coordinates  (Angst):
   0.00000177  2.34757459  6.41229012
   1.23914177  5.43587899 14.16300462
  -0.00000177  9.43146546  5.75865686
   3.00933823  2.22542186 13.50937136
  -0.00000177  6.40008880  2.31423934
  -0.00000177  6.40008880 10.06495384
   1.77020000 10.27849470  2.37371832
   1.77020000 10.27849470 10.12443282
   1.77020000  3.18974491  1.66156717
   1.77020000  3.18974491  9.41228167
   1.77020177  5.55354339  5.69975143
  -0.53105823  8.64184779 13.45046593
   1.77019823  9.05318934  4.34075665
   1.23913823  1.84714574 12.09147115
   0.00000177  4.22380187  5.10944151
   1.23914177  7.31210627 12.86015601
  -0.00000177  4.15581799  2.74166024
  -0.00000177  4.15581799 10.49237474
   1.77020000  1.31366175  2.96438477
   1.77020000  1.31366175 10.71509927
   1.77020000  1.38162503  5.33187152
  -0.53106000  4.46992943 13.08258602
   1.77020000  6.77849874  3.73234107
  -0.53106000  9.86680314 11.48305557
 


--------------------------------------------------------------------------------------------------------


 k-point  1 :   0.0000 0.0000 0.0000  plane waves:   11717
 k-point  2 :   0.0769-0.0000 0.0000  plane waves:   11762
 k-point  3 :   0.1538-0.0000 0.0000  plane waves:   11805
 k-point  4 :   0.2308-0.0000 0.0000  plane waves:   11824
 k-point  5 :   0.3077-0.0000 0.0000  plane waves:   11875
 k-point  6 :   0.3846-0.0000 0.0000  plane waves:   11864
 k-point  7 :   0.4615-0.0000 0.0000  plane waves:   11883
 k-point  8 :   0.0000 0.2500 0.0000  plane waves:   11683
 k-point  9 :   0.0769 0.2500 0.0000  plane waves:   11756
 k-point 10 :   0.1538 0.2500 0.0000  plane waves:   11807
 k-point 11 :   0.2308 0.2500 0.0000  plane waves:   11853
 k-point 12 :   0.3077 0.2500 0.0000  plane waves:   11866
 k-point 13 :   0.3846 0.2500 0.0000  plane waves:   11889
 k-point 14 :   0.4615 0.2500 0.0000  plane waves:   11885
 k-point 15 :  -0.4615 0.2500 0.0000  plane waves:   11886
 k-point 16 :  -0.3846 0.2500 0.0000  plane waves:   11867
 k-point 17 :  -0.3077 0.2500 0.0000  plane waves:   11849
 k-point 18 :  -0.2308 0.2500 0.0000  plane waves:   11827
 k-point 19 :  -0.1538 0.2500 0.0000  plane waves:   11801
 k-point 20 :  -0.0769 0.2500 0.0000  plane waves:   11757
 k-point 21 :   0.0000 0.5000 0.0000  plane waves:   11710
 k-point 22 :   0.0769 0.5000 0.0000  plane waves:   11762
 k-point 23 :   0.1538 0.5000 0.0000  plane waves:   11782
 k-point 24 :   0.2308 0.5000 0.0000  plane waves:   11841
 k-point 25 :   0.3077 0.5000 0.0000  plane waves:   11876
 k-point 26 :   0.3846 0.5000 0.0000  plane waves:   11889
 k-point 27 :   0.4615 0.5000 0.0000  plane waves:   11881
 k-point 28 :   0.0000 0.0000 0.5000  plane waves:   11698
 k-point 29 :   0.0769-0.0000 0.5000  plane waves:   11752
 k-point 30 :   0.1538-0.0000 0.5000  plane waves:   11800
 k-point 31 :   0.2308-0.0000 0.5000  plane waves:   11834
 k-point 32 :   0.3077-0.0000 0.5000  plane waves:   11850
 k-point 33 :   0.3846-0.0000 0.5000  plane waves:   11888
 k-point 34 :   0.4615-0.0000 0.5000  plane waves:   11896
 k-point 35 :   0.0000 0.2500 0.5000  plane waves:   11714
 k-point 36 :   0.0769 0.2500 0.5000  plane waves:   11754
 k-point 37 :   0.1538 0.2500 0.5000  plane waves:   11802
 k-point 38 :   0.2308 0.2500 0.5000  plane waves:   11840
 k-point 39 :   0.3077 0.2500 0.5000  plane waves:   11858
 k-point 40 :   0.3846 0.2500 0.5000  plane waves:   11896
 k-point 41 :   0.4615 0.2500 0.5000  plane waves:   11886
 k-point 42 :  -0.4615 0.2500 0.5000  plane waves:   11852
 k-point 43 :  -0.3846 0.2500 0.5000  plane waves:   11838
 k-point 44 :  -0.3077 0.2500 0.5000  plane waves:   11842
 k-point 45 :  -0.2308 0.2500 0.5000  plane waves:   11840
 k-point 46 :  -0.1538 0.2500 0.5000  plane waves:   11804
 k-point 47 :  -0.0769 0.2500 0.5000  plane waves:   11748
 k-point 48 :   0.0000 0.5000 0.5000  plane waves:   11724
 k-point 49 :   0.0769 0.5000 0.5000  plane waves:   11748
 k-point 50 :   0.1538 0.5000 0.5000  plane waves:   11814
 k-point 51 :   0.2308 0.5000 0.5000  plane waves:   11832
 k-point 52 :   0.3077 0.5000 0.5000  plane waves:   11868
 k-point 53 :   0.3846 0.5000 0.5000  plane waves:   11892
 k-point 54 :   0.4615 0.5000 0.5000  plane waves:   11878

 maximum and minimum number of plane-waves per node :      5964     5832

 maximum number of plane-waves:     11896
 maximum index in each direction: 
   IXMAX=    5   IYMAX=   14   IZMAX=   38
   IXMIN=   -5   IYMIN=  -15   IZMIN=  -39

 WARNING: aliasing errors must be expected set NGX to  22 to avoid them
 NGY is ok and might be reduce to  60
 NGZ is ok and might be reduce to 156
 aliasing errors are usually negligible using standard VASP settings
 and one can safely disregard these warnings

 real space projection operators:
  total allocation   :       3793.25 KBytes
  max/ min on nodes  :       1899.38       1893.88


 parallel 3D FFT for wavefunctions:
    minimum data exchange during FFTs selected (reduces bandwidth)
 parallel 3D FFT for charge:
    minimum data exchange during FFTs selected (reduces bandwidth)


 total amount of memory used by VASP on root node   146493. kBytes
========================================================================

   base      :      30000. kBytes
   nonlr-proj:       3452. kBytes
   fftplans  :       9347. kBytes
   grid      :      14649. kBytes
   one-center:         36. kBytes
   wavefun   :      89009. kBytes
 
     INWAV:  cpu time    0.00: real time    0.00
 Broyden mixing: mesh for mixing (old mesh)
   NGX =  9   NGY = 29   NGZ = 77
  (NGX  = 40   NGY  =120   NGZ  =320)
  gives a total of  20097 points

 initial charge density was supplied:
 charge density of overlapping atoms calculated
 number of electron     108.0000000 magnetization 
 keeping initial charge density in first step


--------------------------------------------------------------------------------------------------------


 Maximum index for non-local projection operator         1333
 Maximum index for augmentation-charges          822 (set IRDMAX)


--------------------------------------------------------------------------------------------------------


 First call to EWALD:  gamma=   0.177
 Maximum number of real-space cells 7x 3x 1
 Maximum number of reciprocal cells 1x 3x 7

 FEWALD executed in parallel
    FEWALD:  cpu time    0.00: real time    0.00


----------------------------------------- Iteration    1(   1)  ---------------------------------------


vdW kernel read from vdw_kernel.bindat
  0.0000  0.2424  0.5071  0.7962  1.1119  1.4567  1.8333  2.2446  2.6937  3.1842
  3.7199  4.3049  4.9438  5.6415  6.4036  7.2358  8.1446  9.1372 10.2212 11.4050
 12.6979 14.1099 15.6519 17.3360 19.1751 21.1837 23.3773 25.7729 28.3892 31.2465
 34.3669 37.7748 41.4965 45.5611 50.0000
 
    POTLOK:  cpu time   16.21: real time   16.21
    SETDIJ:  cpu time    0.01: real time    0.01
     EDDAV:  cpu time   69.91: real time   69.93
       DOS:  cpu time    0.01: real time    0.01
    --------------------------------------------
      LOOP:  cpu time   86.14: real time   86.17

 eigenvalue-minimisations  :  7368
 total energy-change (2. order) : 0.5056275E+03  (-0.2874315E+04)
 number of electron     108.0000000 magnetization 
 augmentation part      108.0000000 magnetization 

 Free energy of the ion-electron system (eV)
  ---------------------------------------------------
  alpha Z        PSCENC =        36.80884744
  Ewald energy   TEWEN  =     11986.84963712
  -Hartree energ DENC   =    -15012.36645334
  -exchange      EXHF   =         0.00000000
  -V(xc)+E(xc)   XCENC  =       -87.32300339
  PAW double counting   =      1056.43050070     -732.41190547
  entropy T*S    EENTRO =        -0.04281140
  eigenvalues    EBANDS =       -96.35859348
  atomic energy  EATOM  =      3354.04126044
  ---------------------------------------------------
  free energy    TOTEN  =       505.62747863 eV

  energy without entropy =      505.67029004  energy(sigma->0) =      505.64888433


--------------------------------------------------------------------------------------------------------




----------------------------------------- Iteration    1(   2)  ---------------------------------------


     EDDAV:  cpu time   87.13: real time   87.15
       DOS:  cpu time    0.01: real time    0.01
    --------------------------------------------
      LOOP:  cpu time   87.14: real time   87.16

 eigenvalue-minimisations  :  9752
 total energy-change (2. order) :-0.5650913E+03  (-0.5501227E+03)
 number of electron     108.0000000 magnetization 
 augmentation part      108.0000000 magnetization 

 Free energy of the ion-electron system (eV)
  ---------------------------------------------------
  alpha Z        PSCENC =        36.80884744
  Ewald energy   TEWEN  =     11986.84963712
  -Hartree energ DENC   =    -15012.36645334
  -exchange      EXHF   =         0.00000000
  -V(xc)+E(xc)   XCENC  =       -87.32300339
  PAW double counting   =      1056.43050070     -732.41190547
  entropy T*S    EENTRO =        -0.02034612
  eigenvalues    EBANDS =      -661.47232661
  atomic energy  EATOM  =      3354.04126044
  ---------------------------------------------------
  free energy    TOTEN  =       -59.46378921 eV

  energy without entropy =      -59.44344310  energy(sigma->0) =      -59.45361616


--------------------------------------------------------------------------------------------------------




----------------------------------------- Iteration    1(   3)  ---------------------------------------


     EDDAV:  cpu time   80.12: real time   80.14
       DOS:  cpu time    0.01: real time    0.01
    --------------------------------------------
      LOOP:  cpu time   80.13: real time   80.15

 eigenvalue-minimisations  :  8796
 total energy-change (2. order) :-0.5764366E+02  (-0.5684736E+02)
 number of electron     108.0000000 magnetization 
 augmentation part      108.0000000 magnetization 

 Free energy of the ion-electron system (eV)
  ---------------------------------------------------
  alpha Z        PSCENC =        36.80884744
  Ewald energy   TEWEN  =     11986.84963712
  -Hartree energ DENC   =    -15012.36645334
  -exchange      EXHF   =         0.00000000
  -V(xc)+E(xc)   XCENC  =       -87.32300339
  PAW double counting   =      1056.43050070     -732.41190547
  entropy T*S    EENTRO =        -0.01026281
  eigenvalues    EBANDS =      -719.12607260
  atomic energy  EATOM  =      3354.04126044
  ---------------------------------------------------
  free energy    TOTEN  =      -117.10745190 eV

  energy without entropy =     -117.09718909  energy(sigma->0) =     -117.10232049


--------------------------------------------------------------------------------------------------------




----------------------------------------- Iteration    1(   4)  ---------------------------------------


     EDDAV:  cpu time   96.28: real time   96.30
       DOS:  cpu time    0.01: real time    0.01
    --------------------------------------------
      LOOP:  cpu time   96.29: real time   96.31

 eigenvalue-minimisations  : 11032
 total energy-change (2. order) :-0.2698050E+01  (-0.2682802E+01)
 number of electron     108.0000000 magnetization 
 augmentation part      108.0000000 magnetization 

 Free energy of the ion-electron system (eV)
  ---------------------------------------------------
  alpha Z        PSCENC =        36.80884744
  Ewald energy   TEWEN  =     11986.84963712
  -Hartree energ DENC   =    -15012.36645334
  -exchange      EXHF   =         0.00000000
  -V(xc)+E(xc)   XCENC  =       -87.32300339
  PAW double counting   =      1056.43050070     -732.41190547
  entropy T*S    EENTRO =        -0.01440233
  eigenvalues    EBANDS =      -721.81998272
  atomic energy  EATOM  =      3354.04126044
  ---------------------------------------------------
  free energy    TOTEN  =      -119.80550154 eV

  energy without entropy =     -119.79109921  energy(sigma->0) =     -119.79830037


--------------------------------------------------------------------------------------------------------




----------------------------------------- Iteration    1(   5)  ---------------------------------------


     EDDAV:  cpu time   88.33: real time   88.36
       DOS:  cpu time    0.01: real time    0.01
    CHARGE:  cpu time    4.79: real time    4.79
    MIXING:  cpu time    0.01: real time    0.01
    --------------------------------------------
      LOOP:  cpu time   93.15: real time   93.18

 eigenvalue-minimisations  :  9912
 total energy-change (2. order) :-0.6283094E-01  (-0.6276587E-01)
 number of electron     107.9999996 magnetization 
 augmentation part       -9.6687458 magnetization 

 Broyden mixing:
  rms(total) = 0.12127E+01    rms(broyden)= 0.12125E+01
  rms(prec ) = 0.13231E+01
  weight for this iteration     100.00

 Free energy of the ion-electron system (eV)
  ---------------------------------------------------
  alpha Z        PSCENC =        36.80884744
  Ewald energy   TEWEN  =     11986.84963712
  -Hartree energ DENC   =    -15012.36645334
  -exchange      EXHF   =         0.00000000
  -V(xc)+E(xc)   XCENC  =       -87.32300339
  PAW double counting   =      1056.43050070     -732.41190547
  entropy T*S    EENTRO =        -0.01441158
  eigenvalues    EBANDS =      -721.88280441
  atomic energy  EATOM  =      3354.04126044
  ---------------------------------------------------
  free energy    TOTEN  =      -119.86833248 eV

  energy without entropy =     -119.85392090  energy(sigma->0) =     -119.86112669


--------------------------------------------------------------------------------------------------------




----------------------------------------- Iteration    1(   6)  ---------------------------------------


    POTLOK:  cpu time   14.72: real time   14.73
    SETDIJ:  cpu time    0.01: real time    0.01
     EDDAV:  cpu time   80.52: real time   80.54
       DOS:  cpu time    0.01: real time    0.01
    CHARGE:  cpu time    4.76: real time    4.76
    MIXING:  cpu time    0.01: real time    0.01
    --------------------------------------------
      LOOP:  cpu time  100.05: real time  100.07

 eigenvalue-minimisations  :  8832
 total energy-change (2. order) : 0.4576399E+01  (-0.1758125E+01)
 number of electron     107.9999995 magnetization 
 augmentation part       -9.5012073 magnetization 

 Broyden mixing:
  rms(total) = 0.63886E+00    rms(broyden)= 0.63884E+00
  rms(prec ) = 0.68620E+00
  weight for this iteration     100.00

 eigenvalues of (default mixing * dielectric matrix)
  average eigenvalue GAMMA=   1.5553
  1.5553

 Free energy of the ion-electron system (eV)
  ---------------------------------------------------
  alpha Z        PSCENC =        36.80884744
  Ewald energy   TEWEN  =     11986.84963712
  -Hartree energ DENC   =    -15067.44603923
  -exchange      EXHF   =         0.00000000
  -V(xc)+E(xc)   XCENC  =       -84.04013985
  PAW double counting   =      1124.60567510     -802.63259939
  entropy T*S    EENTRO =        -0.02731193
  eigenvalues    EBANDS =      -663.45126367
  atomic energy  EATOM  =      3354.04126044
  ---------------------------------------------------
  free energy    TOTEN  =      -115.29193395 eV

  energy without entropy =     -115.26462202  energy(sigma->0) =     -115.27827799


--------------------------------------------------------------------------------------------------------




----------------------------------------- Iteration    1(   7)  ---------------------------------------


    POTLOK:  cpu time   14.72: real time   14.72
    SETDIJ:  cpu time    0.01: real time    0.01
     EDDAV:  cpu time   81.24: real time   81.25
       DOS:  cpu time    0.01: real time    0.01
    CHARGE:  cpu time    4.72: real time    4.72
    MIXING:  cpu time    0.02: real time    0.02
    --------------------------------------------
      LOOP:  cpu time  100.72: real time  100.74

 eigenvalue-minimisations  :  8936
 total energy-change (2. order) : 0.1880267E-01  (-0.1241890E+01)
 number of electron     107.9999996 magnetization 
 augmentation part       -9.4271243 magnetization 

 Broyden mixing:
  rms(total) = 0.34018E+00    rms(broyden)= 0.34014E+00
  rms(prec ) = 0.38435E+00
  weight for this iteration     100.00

 eigenvalues of (default mixing * dielectric matrix)
  average eigenvalue GAMMA=   1.2000
  1.7510  0.6489

 Free energy of the ion-electron system (eV)
  ---------------------------------------------------
  alpha Z        PSCENC =        36.80884744
  Ewald energy   TEWEN  =     11986.84963712
  -Hartree energ DENC   =    -15088.43715632
  -exchange      EXHF   =         0.00000000
  -V(xc)+E(xc)   XCENC  =       -81.44010739
  PAW double counting   =      1168.77842450     -848.06989527
  entropy T*S    EENTRO =        -0.03218834
  eigenvalues    EBANDS =      -643.77195347
  atomic energy  EATOM  =      3354.04126044
  ---------------------------------------------------
  free energy    TOTEN  =      -115.27313128 eV

  energy without entropy =     -115.24094294  energy(sigma->0) =     -115.25703711


--------------------------------------------------------------------------------------------------------




----------------------------------------- Iteration    1(   8)  ---------------------------------------


    POTLOK:  cpu time   14.75: real time   14.75
    SETDIJ:  cpu time    0.01: real time    0.01
     EDDAV:  cpu time   86.06: real time   86.07
       DOS:  cpu time    0.01: real time    0.01
    CHARGE:  cpu time    4.66: real time    4.66
    MIXING:  cpu time    0.01: real time    0.01
    --------------------------------------------
      LOOP:  cpu time  105.50: real time  105.53

 eigenvalue-minimisations  :  9592
 total energy-change (2. order) : 0.9435405E-01  (-0.2573836E+00)
 number of electron     107.9999995 magnetization 
 augmentation part       -9.3988987 magnetization 

 Broyden mixing:
  rms(total) = 0.17203E+00    rms(broyden)= 0.17201E+00
  rms(prec ) = 0.19121E+00
  weight for this iteration     100.00

 eigenvalues of (default mixing * dielectric matrix)
  average eigenvalue GAMMA=   1.2312
  1.9003  1.1837  0.6094

 Free energy of the ion-electron system (eV)
  ---------------------------------------------------
  alpha Z        PSCENC =        36.80884744
  Ewald energy   TEWEN  =     11986.84963712
  -Hartree energ DENC   =    -15095.24026045
  -exchange      EXHF   =         0.00000000
  -V(xc)+E(xc)   XCENC  =       -80.40004897
  PAW double counting   =      1182.53769451     -862.25194867
  entropy T*S    EENTRO =        -0.03312569
  eigenvalues    EBANDS =      -637.49083295
  atomic energy  EATOM  =      3354.04126044
  ---------------------------------------------------
  free energy    TOTEN  =      -115.17877723 eV

  energy without entropy =     -115.14565153  energy(sigma->0) =     -115.16221438


--------------------------------------------------------------------------------------------------------




----------------------------------------- Iteration    1(   9)  ---------------------------------------


    POTLOK:  cpu time   14.75: real time   14.76
    SETDIJ:  cpu time    0.01: real time    0.01
     EDDAV:  cpu time   81.89: real time   81.91
       DOS:  cpu time    0.01: real time    0.01
    CHARGE:  cpu time    4.70: real time    4.70
    MIXING:  cpu time    0.01: real time    0.01
    --------------------------------------------
      LOOP:  cpu time  101.39: real time  101.41

 eigenvalue-minimisations  :  9032
 total energy-change (2. order) : 0.2918247E-01  (-0.4125027E-01)
 number of electron     107.9999995 magnetization 
 augmentation part       -9.3958721 magnetization 

 Broyden mixing:
  rms(total) = 0.87313E-01    rms(broyden)= 0.87309E-01
  rms(prec ) = 0.92581E-01
  weight for this iteration     100.00

 eigenvalues of (default mixing * dielectric matrix)
  average eigenvalue GAMMA=   1.3137
  2.4006  1.3928  0.8950  0.5665

 Free energy of the ion-electron system (eV)
  ---------------------------------------------------
  alpha Z        PSCENC =        36.80884744
  Ewald energy   TEWEN  =     11986.84963712
  -Hartree energ DENC   =    -15105.86578933
  -exchange      EXHF   =         0.00000000
  -V(xc)+E(xc)   XCENC  =       -79.81486835
  PAW double counting   =      1186.79944666     -866.64661234
  entropy T*S    EENTRO =        -0.03040226
  eigenvalues    EBANDS =      -627.29111414
  atomic energy  EATOM  =      3354.04126044
  ---------------------------------------------------
  free energy    TOTEN  =      -115.14959476 eV

  energy without entropy =     -115.11919250  energy(sigma->0) =     -115.13439363


--------------------------------------------------------------------------------------------------------




----------------------------------------- Iteration    1(  10)  ---------------------------------------


    POTLOK:  cpu time   14.74: real time   14.75
    SETDIJ:  cpu time    0.01: real time    0.01
     EDDAV:  cpu time   80.13: real time   80.14
       DOS:  cpu time    0.01: real time    0.01
    CHARGE:  cpu time    4.73: real time    4.73
    MIXING:  cpu time    0.01: real time    0.01
    --------------------------------------------
      LOOP:  cpu time   99.64: real time   99.66

 eigenvalue-minimisations  :  8736
 total energy-change (2. order) :-0.4678128E-02  (-0.1173214E-01)
 number of electron     107.9999995 magnetization 
 augmentation part       -9.3929378 magnetization 

 Broyden mixing:
  rms(total) = 0.28421E-01    rms(broyden)= 0.28417E-01
  rms(prec ) = 0.31677E-01
  weight for this iteration     100.00

 eigenvalues of (default mixing * dielectric matrix)
  average eigenvalue GAMMA=   1.2923
  2.5398  1.2639  1.2639  0.8171  0.5767

 Free energy of the ion-electron system (eV)
  ---------------------------------------------------
  alpha Z        PSCENC =        36.80884744
  Ewald energy   TEWEN  =     11986.84963712
  -Hartree energ DENC   =    -15110.32647135
  -exchange      EXHF   =         0.00000000
  -V(xc)+E(xc)   XCENC  =       -79.37483687
  PAW double counting   =      1187.93412713     -867.83240721
  entropy T*S    EENTRO =        -0.03049184
  eigenvalues    EBANDS =      -623.22393775
  atomic energy  EATOM  =      3354.04126044
  ---------------------------------------------------
  free energy    TOTEN  =      -115.15427289 eV

  energy without entropy =     -115.12378105  energy(sigma->0) =     -115.13902697


--------------------------------------------------------------------------------------------------------




----------------------------------------- Iteration    1(  11)  ---------------------------------------


    POTLOK:  cpu time   14.89: real time   14.90
    SETDIJ:  cpu time    0.01: real time    0.01
     EDDAV:  cpu time   85.87: real time   85.89
       DOS:  cpu time    0.01: real time    0.01
    CHARGE:  cpu time    6.07: real time    6.07
    MIXING:  cpu time    0.01: real time    0.01
    --------------------------------------------
      LOOP:  cpu time  106.88: real time  106.90

 eigenvalue-minimisations  :  9064
 total energy-change (2. order) : 0.7366722E-02  (-0.1621912E-02)
 number of electron     107.9999995 magnetization 
 augmentation part       -9.3926386 magnetization 

 Broyden mixing:
  rms(total) = 0.11727E-01    rms(broyden)= 0.11726E-01
  rms(prec ) = 0.13240E-01
  weight for this iteration     100.00

 eigenvalues of (default mixing * dielectric matrix)
  average eigenvalue GAMMA=   1.3300
  2.6263  1.5146  1.2209  1.2209  0.5772  0.8199

 Free energy of the ion-electron system (eV)
  ---------------------------------------------------
  alpha Z        PSCENC =        36.80884744
  Ewald energy   TEWEN  =     11986.84963712
  -Hartree energ DENC   =    -15111.49032419
  -exchange      EXHF   =         0.00000000
  -V(xc)+E(xc)   XCENC  =       -79.29292137
  PAW double counting   =      1186.98383913     -866.86158225
  entropy T*S    EENTRO =        -0.03080932
  eigenvalues    EBANDS =      -622.15485318
  atomic energy  EATOM  =      3354.04126044
  ---------------------------------------------------
  free energy    TOTEN  =      -115.14690616 eV

  energy without entropy =     -115.11609684  energy(sigma->0) =     -115.13150150


--------------------------------------------------------------------------------------------------------




----------------------------------------- Iteration    1(  12)  ---------------------------------------


    POTLOK:  cpu time   14.98: real time   14.98
    SETDIJ:  cpu time    0.01: real time    0.01
     EDDAV:  cpu time   88.29: real time   88.31
       DOS:  cpu time    0.01: real time    0.01
    CHARGE:  cpu time    4.75: real time    4.75
    MIXING:  cpu time    0.01: real time    0.02
    --------------------------------------------
      LOOP:  cpu time  108.06: real time  108.08

 eigenvalue-minimisations  :  8832
 total energy-change (2. order) : 0.8550552E-02  (-0.5001138E-03)
 number of electron     107.9999995 magnetization 
 augmentation part       -9.3948377 magnetization 

 Broyden mixing:
  rms(total) = 0.54759E-02    rms(broyden)= 0.54749E-02
  rms(prec ) = 0.67055E-02
  weight for this iteration     100.00

 eigenvalues of (default mixing * dielectric matrix)
  average eigenvalue GAMMA=   1.3524
  2.6598  1.9554  1.1906  1.1906  0.5769  1.0168  0.8769

 Free energy of the ion-electron system (eV)
  ---------------------------------------------------
  alpha Z        PSCENC =        36.80884744
  Ewald energy   TEWEN  =     11986.84963712
  -Hartree energ DENC   =    -15112.79662928
  -exchange      EXHF   =         0.00000000
  -V(xc)+E(xc)   XCENC  =       -79.27065642
  PAW double counting   =      1185.61913706     -865.46005966
  entropy T*S    EENTRO =        -0.03079017
  eigenvalues    EBANDS =      -620.89910215
  atomic energy  EATOM  =      3354.04126044
  ---------------------------------------------------
  free energy    TOTEN  =      -115.13835561 eV

  energy without entropy =     -115.10756544  energy(sigma->0) =     -115.12296053


--------------------------------------------------------------------------------------------------------




----------------------------------------- Iteration    1(  13)  ---------------------------------------


    POTLOK:  cpu time   14.72: real time   14.73
    SETDIJ:  cpu time    0.01: real time    0.01
     EDDAV:  cpu time   84.25: real time   84.27
       DOS:  cpu time    0.01: real time    0.01
    CHARGE:  cpu time    4.74: real time    4.74
    MIXING:  cpu time    0.02: real time    0.02
    --------------------------------------------
      LOOP:  cpu time  103.76: real time  103.78

 eigenvalue-minimisations  :  9352
 total energy-change (2. order) : 0.4715351E-02  (-0.5041131E-04)
 number of electron     107.9999995 magnetization 
 augmentation part       -9.3951496 magnetization 

 Broyden mixing:
  rms(total) = 0.25829E-02    rms(broyden)= 0.25827E-02
  rms(prec ) = 0.37769E-02
  weight for this iteration     100.00

 eigenvalues of (default mixing * dielectric matrix)
  average eigenvalue GAMMA=   1.3858
  2.7162  2.1387  0.5772  1.3491  1.1933  1.1933  0.8523  1.0663

 Free energy of the ion-electron system (eV)
  ---------------------------------------------------
  alpha Z        PSCENC =        36.80884744
  Ewald energy   TEWEN  =     11986.84963712
  -Hartree energ DENC   =    -15113.66178962
  -exchange      EXHF   =         0.00000000
  -V(xc)+E(xc)   XCENC  =       -79.26774257
  PAW double counting   =      1184.89453990     -864.71625228
  entropy T*S    EENTRO =        -0.03069074
  eigenvalues    EBANDS =      -620.05144995
  atomic energy  EATOM  =      3354.04126044
  ---------------------------------------------------
  free energy    TOTEN  =      -115.13364026 eV

  energy without entropy =     -115.10294952  energy(sigma->0) =     -115.11829489


--------------------------------------------------------------------------------------------------------




----------------------------------------- Iteration    1(  14)  ---------------------------------------


    POTLOK:  cpu time   14.76: real time   14.76
    SETDIJ:  cpu time    0.01: real time    0.01
     EDDAV:  cpu time   83.65: real time   83.67
       DOS:  cpu time    0.01: real time    0.01
    CHARGE:  cpu time    4.71: real time    4.71
    MIXING:  cpu time    0.02: real time    0.02
    --------------------------------------------
      LOOP:  cpu time  103.17: real time  103.19

 eigenvalue-minimisations  :  9200
 total energy-change (2. order) : 0.2271238E-02  (-0.1835705E-04)
 number of electron     107.9999995 magnetization 
 augmentation part       -9.3948814 magnetization 

 Broyden mixing:
  rms(total) = 0.14057E-02    rms(broyden)= 0.14056E-02
  rms(prec ) = 0.24072E-02
  weight for this iteration     100.00

 eigenvalues of (default mixing * dielectric matrix)
  average eigenvalue GAMMA=   1.4184
  2.8207  2.4677  1.6232  0.5772  1.1989  1.1989  0.8420  1.0187  1.0187

 Free energy of the ion-electron system (eV)
  ---------------------------------------------------
  alpha Z        PSCENC =        36.80884744
  Ewald energy   TEWEN  =     11986.84963712
  -Hartree energ DENC   =    -15114.52090418
  -exchange      EXHF   =         0.00000000
  -V(xc)+E(xc)   XCENC  =       -79.26174355
  PAW double counting   =      1184.60704219     -864.42162258
  entropy T*S    EENTRO =        -0.03068552
  eigenvalues    EBANDS =      -619.20320039
  atomic energy  EATOM  =      3354.04126044
  ---------------------------------------------------
  free energy    TOTEN  =      -115.13136902 eV

  energy without entropy =     -115.10068351  energy(sigma->0) =     -115.11602626


--------------------------------------------------------------------------------------------------------




----------------------------------------- Iteration    1(  15)  ---------------------------------------


    POTLOK:  cpu time   14.75: real time   14.75
    SETDIJ:  cpu time    0.01: real time    0.01
     EDDAV:  cpu time   84.41: real time   84.43
       DOS:  cpu time    0.01: real time    0.01
    CHARGE:  cpu time    4.74: real time    4.75
    MIXING:  cpu time    0.02: real time    0.02
    --------------------------------------------
      LOOP:  cpu time  103.94: real time  103.97

 eigenvalue-minimisations  :  9312
 total energy-change (2. order) : 0.1000010E-02  (-0.6598093E-05)
 number of electron     107.9999995 magnetization 
 augmentation part       -9.3946662 magnetization 

 Broyden mixing:
  rms(total) = 0.87796E-03    rms(broyden)= 0.87791E-03
  rms(prec ) = 0.15715E-02
  weight for this iteration     100.00

 eigenvalues of (default mixing * dielectric matrix)
  average eigenvalue GAMMA=   1.4843
  3.2390  2.6050  1.6149  1.6149  1.1968  1.1968  0.5772  0.8213  0.9884  0.9884

 Free energy of the ion-electron system (eV)
  ---------------------------------------------------
  alpha Z        PSCENC =        36.80884744
  Ewald energy   TEWEN  =     11986.84963712
  -Hartree energ DENC   =    -15115.32623515
  -exchange      EXHF   =         0.00000000
  -V(xc)+E(xc)   XCENC  =       -79.25722850
  PAW double counting   =      1184.46365120     -864.27491033
  entropy T*S    EENTRO =        -0.03067126
  eigenvalues    EBANDS =      -618.40471997
  atomic energy  EATOM  =      3354.04126044
  ---------------------------------------------------
  free energy    TOTEN  =      -115.13036901 eV

  energy without entropy =     -115.09969775  energy(sigma->0) =     -115.11503338


--------------------------------------------------------------------------------------------------------




----------------------------------------- Iteration    1(  16)  ---------------------------------------


    POTLOK:  cpu time   14.78: real time   14.79
    SETDIJ:  cpu time    0.01: real time    0.01
     EDDAV:  cpu time   75.51: real time   75.52
       DOS:  cpu time    0.01: real time    0.01
    CHARGE:  cpu time    4.76: real time    4.76
    MIXING:  cpu time    0.02: real time    0.02
    --------------------------------------------
      LOOP:  cpu time   95.09: real time   95.11

 eigenvalue-minimisations  :  8056
 total energy-change (2. order) : 0.5347424E-04  (-0.6407856E-05)
 number of electron     107.9999995 magnetization 
 augmentation part       -9.3945324 magnetization 

 Broyden mixing:
  rms(total) = 0.52982E-03    rms(broyden)= 0.52979E-03
  rms(prec ) = 0.90326E-03
  weight for this iteration     100.00

 eigenvalues of (default mixing * dielectric matrix)
  average eigenvalue GAMMA=   1.5837
  3.9556  2.7194  2.2064  1.6133  1.2033  1.2033  0.5772  1.0841  1.0841  0.8244
  0.9496

 Free energy of the ion-electron system (eV)
  ---------------------------------------------------
  alpha Z        PSCENC =        36.80884744
  Ewald energy   TEWEN  =     11986.84963712
  -Hartree energ DENC   =    -15116.12672865
  -exchange      EXHF   =         0.00000000
  -V(xc)+E(xc)   XCENC  =       -79.25278526
  PAW double counting   =      1184.41756069     -864.22787843
  entropy T*S    EENTRO =        -0.03067905
  eigenvalues    EBANDS =      -617.60954984
  atomic energy  EATOM  =      3354.04126044
  ---------------------------------------------------
  free energy    TOTEN  =      -115.13031554 eV

  energy without entropy =     -115.09963649  energy(sigma->0) =     -115.11497601


--------------------------------------------------------------------------------------------------------




----------------------------------------- Iteration    1(  17)  ---------------------------------------


    POTLOK:  cpu time   14.78: real time   14.79
    SETDIJ:  cpu time    0.01: real time    0.01
     EDDAV:  cpu time   77.01: real time   77.03
       DOS:  cpu time    0.01: real time    0.01
    CHARGE:  cpu time    4.76: real time    4.76
    MIXING:  cpu time    0.02: real time    0.02
    --------------------------------------------
      LOOP:  cpu time   96.60: real time   96.62

 eigenvalue-minimisations  :  8280
 total energy-change (2. order) :-0.6336380E-03  (-0.1484041E-04)
 number of electron     107.9999995 magnetization 
 augmentation part       -9.3944743 magnetization 

 Broyden mixing:
  rms(total) = 0.30727E-03    rms(broyden)= 0.30724E-03
  rms(prec ) = 0.49821E-03
  weight for this iteration     100.00

 eigenvalues of (default mixing * dielectric matrix)
  average eigenvalue GAMMA=   1.6976
  5.1330  2.7623  2.3193  1.7117  1.7117  1.2054  1.2054  0.5772  1.0032  1.0032
  0.8211  0.9174

 Free energy of the ion-electron system (eV)
  ---------------------------------------------------
  alpha Z        PSCENC =        36.80884744
  Ewald energy   TEWEN  =     11986.84963712
  -Hartree energ DENC   =    -15116.68649282
  -exchange      EXHF   =         0.00000000
  -V(xc)+E(xc)   XCENC  =       -79.24983490
  PAW double counting   =      1184.46109949     -864.27249436
  entropy T*S    EENTRO =        -0.03067131
  eigenvalues    EBANDS =      -617.05230029
  atomic energy  EATOM  =      3354.04126044
  ---------------------------------------------------
  free energy    TOTEN  =      -115.13094918 eV

  energy without entropy =     -115.10027787  energy(sigma->0) =     -115.11561352


--------------------------------------------------------------------------------------------------------




----------------------------------------- Iteration    1(  18)  ---------------------------------------


    POTLOK:  cpu time   14.79: real time   14.79
    SETDIJ:  cpu time    0.01: real time    0.01
     EDDAV:  cpu time   73.38: real time   73.39
       DOS:  cpu time    0.01: real time    0.01
    CHARGE:  cpu time    4.69: real time    4.69
    MIXING:  cpu time    0.02: real time    0.02
    --------------------------------------------
      LOOP:  cpu time   92.90: real time   92.92

 eigenvalue-minimisations  :  7712
 total energy-change (2. order) :-0.1721883E-03  (-0.8326845E-05)
 number of electron     107.9999995 magnetization 
 augmentation part       -9.3944389 magnetization 

 Broyden mixing:
  rms(total) = 0.16973E-03    rms(broyden)= 0.16972E-03
  rms(prec ) = 0.30311E-03
  weight for this iteration     100.00

 eigenvalues of (default mixing * dielectric matrix)
  average eigenvalue GAMMA=   1.7440
  5.8944  2.8470  2.5054  1.9893  0.5772  1.2023  1.2023  1.4007  1.1976  0.8220
  1.0411  1.0411  0.9515

 Free energy of the ion-electron system (eV)
  ---------------------------------------------------
  alpha Z        PSCENC =        36.80884744
  Ewald energy   TEWEN  =     11986.84963712
  -Hartree energ DENC   =    -15116.94379442
  -exchange      EXHF   =         0.00000000
  -V(xc)+E(xc)   XCENC  =       -79.24853692
  PAW double counting   =      1184.47287095     -864.28443599
  entropy T*S    EENTRO =        -0.03067867
  eigenvalues    EBANDS =      -616.79629131
  atomic energy  EATOM  =      3354.04126044
  ---------------------------------------------------
  free energy    TOTEN  =      -115.13112137 eV

  energy without entropy =     -115.10044270  energy(sigma->0) =     -115.11578203


--------------------------------------------------------------------------------------------------------




----------------------------------------- Iteration    1(  19)  ---------------------------------------


    POTLOK:  cpu time   14.75: real time   14.76
    SETDIJ:  cpu time    0.01: real time    0.01
     EDDAV:  cpu time   68.67: real time   68.68
       DOS:  cpu time    0.01: real time    0.01
    CHARGE:  cpu time    4.62: real time    4.62
    MIXING:  cpu time    0.02: real time    0.02
    --------------------------------------------
      LOOP:  cpu time   88.09: real time   88.11

 eigenvalue-minimisations  :  7200
 total energy-change (2. order) :-0.5477504E-04  (-0.1970910E-05)
 number of electron     107.9999995 magnetization 
 augmentation part       -9.3944415 magnetization 

 Broyden mixing:
  rms(total) = 0.11296E-03    rms(broyden)= 0.11295E-03
  rms(prec ) = 0.20495E-03
  weight for this iteration     100.00

 eigenvalues of (default mixing * dielectric matrix)
  average eigenvalue GAMMA=   1.7894
  6.3875  2.9391  2.5774  1.8829  1.6663  1.6663  0.5772  1.2094  1.2094  0.8227
  1.0368  1.0368  1.0443  0.9960

 Free energy of the ion-electron system (eV)
  ---------------------------------------------------
  alpha Z        PSCENC =        36.80884744
  Ewald energy   TEWEN  =     11986.84963712
  -Hartree energ DENC   =    -15117.08124519
  -exchange      EXHF   =         0.00000000
  -V(xc)+E(xc)   XCENC  =       -79.24801219
  PAW double counting   =      1184.47665630     -864.28822635
  entropy T*S    EENTRO =        -0.03068317
  eigenvalues    EBANDS =      -616.65941055
  atomic energy  EATOM  =      3354.04126044
  ---------------------------------------------------
  free energy    TOTEN  =      -115.13117614 eV

  energy without entropy =     -115.10049297  energy(sigma->0) =     -115.11583455


--------------------------------------------------------------------------------------------------------




----------------------------------------- Iteration    1(  20)  ---------------------------------------


    POTLOK:  cpu time   14.76: real time   14.77
    SETDIJ:  cpu time    0.01: real time    0.01
     EDDAV:  cpu time   64.46: real time   64.47
       DOS:  cpu time    0.01: real time    0.01
    CHARGE:  cpu time    4.69: real time    4.69
    MIXING:  cpu time    0.02: real time    0.02
    --------------------------------------------
      LOOP:  cpu time   83.95: real time   83.97

 eigenvalue-minimisations  :  6552
 total energy-change (2. order) :-0.3911265E-04  (-0.1087742E-05)
 number of electron     107.9999995 magnetization 
 augmentation part       -9.3944359 magnetization 

 Broyden mixing:
  rms(total) = 0.76661E-04    rms(broyden)= 0.76656E-04
  rms(prec ) = 0.13613E-03
  weight for this iteration     100.00

 eigenvalues of (default mixing * dielectric matrix)
  average eigenvalue GAMMA=   1.8252
  6.7771  3.2103  2.7011  2.2552  1.8585  0.5772  1.2162  1.2162  1.3394  1.3394
  0.8236  1.0054  1.0054  1.0862  0.9666

 Free energy of the ion-electron system (eV)
  ---------------------------------------------------
  alpha Z        PSCENC =        36.80884744
  Ewald energy   TEWEN  =     11986.84963712
  -Hartree energ DENC   =    -15117.15278667
  -exchange      EXHF   =         0.00000000
  -V(xc)+E(xc)   XCENC  =       -79.24789077
  PAW double counting   =      1184.47624409     -864.28779389
  entropy T*S    EENTRO =        -0.03067992
  eigenvalues    EBANDS =      -616.58805311
  atomic energy  EATOM  =      3354.04126044
  ---------------------------------------------------
  free energy    TOTEN  =      -115.13121525 eV

  energy without entropy =     -115.10053533  energy(sigma->0) =     -115.11587529


--------------------------------------------------------------------------------------------------------




----------------------------------------- Iteration    1(  21)  ---------------------------------------


    POTLOK:  cpu time   14.76: real time   14.77
    SETDIJ:  cpu time    0.01: real time    0.01
     EDDAV:  cpu time   73.31: real time   73.32
       DOS:  cpu time    0.01: real time    0.01
    CHARGE:  cpu time    5.31: real time    5.31
    MIXING:  cpu time    0.02: real time    0.02
    --------------------------------------------
      LOOP:  cpu time   93.43: real time   93.45

 eigenvalue-minimisations  :  7248
 total energy-change (2. order) : 0.9517141E-05  (-0.2382047E-05)
 number of electron     107.9999995 magnetization 
 augmentation part       -9.3944312 magnetization 

 Broyden mixing:
  rms(total) = 0.53896E-04    rms(broyden)= 0.53892E-04
  rms(prec ) = 0.82357E-04
  weight for this iteration     100.00

 eigenvalues of (default mixing * dielectric matrix)
  average eigenvalue GAMMA=   1.8763
  6.9835  3.8157  2.7451  2.4867  1.5947  1.5947  1.5862  1.2124  1.2124  1.4167
  0.5772  1.0291  1.0291  0.8239  0.9568  0.9568

 Free energy of the ion-electron system (eV)
  ---------------------------------------------------
  alpha Z        PSCENC =        36.80884744
  Ewald energy   TEWEN  =     11986.84963712
  -Hartree energ DENC   =    -15117.20187770
  -exchange      EXHF   =         0.00000000
  -V(xc)+E(xc)   XCENC  =       -79.24785003
  PAW double counting   =      1184.47339857     -864.28487291
  entropy T*S    EENTRO =        -0.03068081
  eigenvalues    EBANDS =      -616.53906788
  atomic energy  EATOM  =      3354.04126044
  ---------------------------------------------------
  free energy    TOTEN  =      -115.13120574 eV

  energy without entropy =     -115.10052493  energy(sigma->0) =     -115.11586533


--------------------------------------------------------------------------------------------------------




----------------------------------------- Iteration    1(  22)  ---------------------------------------


    POTLOK:  cpu time   14.81: real time   14.82
    SETDIJ:  cpu time    0.01: real time    0.01
     EDDAV:  cpu time   76.42: real time   76.44
       DOS:  cpu time    0.01: real time    0.01
    CHARGE:  cpu time    6.03: real time    6.03
    MIXING:  cpu time    0.02: real time    0.02
    --------------------------------------------
      LOOP:  cpu time   97.32: real time   97.34

 eigenvalue-minimisations  :  6976
 total energy-change (2. order) : 0.3150792E-04  (-0.1762713E-05)
 number of electron     107.9999995 magnetization 
 augmentation part       -9.3944349 magnetization 

 Broyden mixing:
  rms(total) = 0.30846E-04    rms(broyden)= 0.30844E-04
  rms(prec ) = 0.44376E-04
  weight for this iteration     100.00

 eigenvalues of (default mixing * dielectric matrix)
  average eigenvalue GAMMA=   2.0098
  7.5582  5.5950  2.9213  2.5807  2.0375  1.8436  1.3943  1.3943  0.5772  1.2154
  1.2154  0.8233  1.0129  1.0129  1.0682  0.9582  0.9582

 Free energy of the ion-electron system (eV)
  ---------------------------------------------------
  alpha Z        PSCENC =        36.80884744
  Ewald energy   TEWEN  =     11986.84963712
  -Hartree energ DENC   =    -15117.20749235
  -exchange      EXHF   =         0.00000000
  -V(xc)+E(xc)   XCENC  =       -79.24801874
  PAW double counting   =      1184.47085107     -864.28227590
  entropy T*S    EENTRO =        -0.03068015
  eigenvalues    EBANDS =      -616.53330318
  atomic energy  EATOM  =      3354.04126044
  ---------------------------------------------------
  free energy    TOTEN  =      -115.13117423 eV

  energy without entropy =     -115.10049408  energy(sigma->0) =     -115.11583415


--------------------------------------------------------------------------------------------------------




----------------------------------------- Iteration    1(  23)  ---------------------------------------


    POTLOK:  cpu time   14.99: real time   14.99
    SETDIJ:  cpu time    0.01: real time    0.01
     EDDAV:  cpu time   69.79: real time   69.80
       DOS:  cpu time    0.01: real time    0.01
    CHARGE:  cpu time    4.61: real time    4.61
    MIXING:  cpu time    0.02: real time    0.02
    --------------------------------------------
      LOOP:  cpu time   89.43: real time   89.45

 eigenvalue-minimisations  :  7256
 total energy-change (2. order) : 0.7373221E-04  (-0.1719492E-05)
 number of electron     107.9999995 magnetization 
 augmentation part       -9.3944354 magnetization 

 Broyden mixing:
  rms(total) = 0.16153E-04    rms(broyden)= 0.16149E-04
  rms(prec ) = 0.20091E-04
  weight for this iteration     100.00

 eigenvalues of (default mixing * dielectric matrix)
  average eigenvalue GAMMA=   2.0557
  7.7100  6.4933  2.9670  2.6990  2.2215  1.6220  1.6220  1.4104  1.4104  1.2121
  1.2121  0.5772  1.0493  1.0493  0.8238  0.9955  0.9642  0.9642

 Free energy of the ion-electron system (eV)
  ---------------------------------------------------
  alpha Z        PSCENC =        36.80884744
  Ewald energy   TEWEN  =     11986.84963712
  -Hartree energ DENC   =    -15117.22181751
  -exchange      EXHF   =         0.00000000
  -V(xc)+E(xc)   XCENC  =       -79.24802509
  PAW double counting   =      1184.46948270     -864.28088779
  entropy T*S    EENTRO =        -0.03067942
  eigenvalues    EBANDS =      -616.51891841
  atomic energy  EATOM  =      3354.04126044
  ---------------------------------------------------
  free energy    TOTEN  =      -115.13110050 eV

  energy without entropy =     -115.10042108  energy(sigma->0) =     -115.11576079


[...]
     31      -4.1627      2.00000
     32      -3.9254      2.00000
     33      -3.7120      2.00000
     34      -3.6348      2.00000
     35      -3.2879      2.00000
     36      -3.1537      2.00000
     37      -3.1413      2.00000
     38      -2.9814      2.00000
     39      -2.9307      2.00000
     40      -2.6493      2.00000
     41      -2.5509      2.00000
     42      -2.4636      2.00000
     43      -2.4540      2.00000
     44      -2.0743      2.00000
     45      -2.0393      2.00000
     46      -1.9088      2.00000
     47      -1.8078      2.00000
     48      -1.6843      2.00000
     49      -1.6265      2.00000
     50      -1.3030      2.00000
     51      -1.0090      2.00000
     52      -0.8651      2.00000
     53      -0.3111      2.00000
     54      -0.1340      1.99911
     55       0.3095      0.00320
     56       1.0016      0.00000
     57       1.3118      0.00000
     58       1.4748      0.00000
     59       1.6009      0.00000
     60       1.7023      0.00000
     61       2.1400      0.00000
     62       2.2961      0.00000
     63       2.5957      0.00000
     64       2.7312      0.00000
     65       2.8126      0.00000
     66       2.9605      0.00000
     67       2.9954      0.00000
     68       3.1540      0.00000

 k-point    52 :       0.3077    0.5000    0.5000
  band No.  band energies     occupation 
      1     -14.3532      2.00000
      2     -12.4256      2.00000
      3     -12.2476      2.00000
      4     -12.0797      2.00000
      5     -11.6791      2.00000
      6     -11.5581      2.00000
      7     -11.3496      2.00000
      8     -10.9364      2.00000
      9     -10.8799      2.00000
     10     -10.7234      2.00000
     11     -10.3100      2.00000
     12     -10.1478      2.00000
     13      -9.3949      2.00000
     14      -8.8383      2.00000
     15      -7.9454      2.00000
     16      -7.6918      2.00000
     17      -7.4078      2.00000
     18      -6.9818      2.00000
     19      -6.8898      2.00000
     20      -6.8351      2.00000
     21      -6.4038      2.00000
     22      -6.1022      2.00000
     23      -6.0872      2.00000
     24      -5.8410      2.00000
     25      -5.6536      2.00000
     26      -5.2738      2.00000
     27      -4.8546      2.00000
     28      -4.8118      2.00000
     29      -4.5623      2.00000
     30      -4.3890      2.00000
     31      -4.2512      2.00000
     32      -4.1911      2.00000
     33      -3.9970      2.00000
     34      -3.7469      2.00000
     35      -3.3800      2.00000
     36      -3.1693      2.00000
     37      -3.1198      2.00000
     38      -2.9953      2.00000
     39      -2.8854      2.00000
     40      -2.8252      2.00000
     41      -2.7135      2.00000
     42      -2.5663      2.00000
     43      -2.4360      2.00000
     44      -2.3482      2.00000
     45      -2.1924      2.00000
     46      -2.1185      2.00000
     47      -1.8679      2.00000
     48      -1.7957      2.00000
     49      -1.6730      2.00000
     50      -1.6095      2.00000
     51      -1.2660      2.00000
     52      -1.0873      2.00000
     53      -0.5320      2.00000
     54      -0.3581      2.00000
     55       0.2321      0.06385
     56       0.7138      0.00000
     57       1.0767      0.00000
     58       1.2529      0.00000
     59       1.3959      0.00000
     60       1.4517      0.00000
     61       1.9480      0.00000
     62       2.2474      0.00000
     63       2.3390      0.00000
     64       2.4937      0.00000
     65       2.5481      0.00000
     66       2.6758      0.00000
     67       2.8281      0.00000
     68       2.9878      0.00000

 k-point    53 :       0.3846    0.5000    0.5000
  band No.  band energies     occupation 
      1     -13.9636      2.00000
      2     -11.9495      2.00000
      3     -11.8391      2.00000
      4     -11.5829      2.00000
      5     -11.4457      2.00000
      6     -11.1653      2.00000
      7     -11.0214      2.00000
      8     -10.7556      2.00000
      9     -10.6882      2.00000
     10     -10.5318      2.00000
     11     -10.3869      2.00000
     12     -10.3708      2.00000
     13      -9.4655      2.00000
     14      -8.8225      2.00000
     15      -8.3150      2.00000
     16      -8.1661      2.00000
     17      -7.7925      2.00000
     18      -7.5312      2.00000
     19      -7.3010      2.00000
     20      -7.1600      2.00000
     21      -6.9319      2.00000
     22      -6.6349      2.00000
     23      -6.5735      2.00000
     24      -6.2498      2.00000
     25      -5.6130      2.00000
     26      -5.2162      2.00000
     27      -4.8176      2.00000
     28      -4.5974      2.00000
     29      -4.5490      2.00000
     30      -4.4087      2.00000
     31      -4.2111      2.00000
     32      -4.0520      2.00000
     33      -3.9567      2.00000
     34      -3.8335      2.00000
     35      -3.4515      2.00000
     36      -3.3322      2.00000
     37      -3.2698      2.00000
     38      -3.1105      2.00000
     39      -3.0430      2.00000
     40      -2.9936      2.00000
     41      -2.8825      2.00000
     42      -2.7720      2.00000
     43      -2.5010      2.00000
     44      -2.4451      2.00000
     45      -2.2506      2.00000
     46      -2.1690      2.00000
     47      -2.0337      2.00000
     48      -1.9727      2.00000
     49      -1.7728      2.00000
     50      -1.6136      2.00000
     51      -1.4510      2.00000
     52      -1.3495      2.00000
     53      -0.5438      2.00000
     54      -0.4881      2.00000
     55       0.1533      0.46009
     56       0.5243      0.00000
     57       0.7547      0.00000
     58       1.1039      0.00000
     59       1.3532      0.00000
     60       1.6029      0.00000
     61       1.7400      0.00000
     62       1.9495      0.00000
     63       2.1597      0.00000
     64       2.2400      0.00000
     65       2.2503      0.00000
     66       2.4173      0.00000
     67       2.5671      0.00000
     68       2.8017      0.00000

 k-point    54 :       0.4615    0.5000    0.5000
  band No.  band energies     occupation 
      1     -13.6581      2.00000
      2     -11.7224      2.00000
      3     -11.4058      2.00000
      4     -11.1985      2.00000
      5     -11.0848      2.00000
      6     -10.8826      2.00000
      7     -10.8660      2.00000
      8     -10.7869      2.00000
      9     -10.7622      2.00000
     10     -10.6393      2.00000
     11     -10.5345      2.00000
     12     -10.2552      2.00000
     13      -9.6360      2.00000
     14      -8.5805      2.00000
     15      -8.5205      2.00000
     16      -8.3560      2.00000
     17      -8.0350      2.00000
     18      -7.9746      2.00000
     19      -7.6655      2.00000
     20      -7.4759      2.00000
     21      -7.2499      2.00000
     22      -7.2016      2.00000
     23      -7.0838      2.00000
     24      -6.0852      2.00000
     25      -5.4601      2.00000
     26      -4.8660      2.00000
     27      -4.8352      2.00000
     28      -4.4610      2.00000
     29      -4.3948      2.00000
     30      -4.2630      2.00000
     31      -4.1438      2.00000
     32      -3.9953      2.00000
     33      -3.8823      2.00000
     34      -3.8454      2.00000
     35      -3.6897      2.00000
     36      -3.6153      2.00000
     37      -3.4665      2.00000
     38      -3.3295      2.00000
     39      -3.1747      2.00000
     40      -3.0241      2.00000
     41      -2.9398      2.00000
     42      -2.8699      2.00000
     43      -2.6103      2.00000
     44      -2.5991      2.00000
     45      -2.2959      2.00000
     46      -2.1851      2.00000
     47      -2.1103      2.00000
     48      -2.0125      2.00000
     49      -1.7872      2.00000
     50      -1.6352      2.00000
     51      -1.4443      2.00000
     52      -1.3659      2.00000
     53      -0.6742      2.00000
     54      -0.4470      2.00000
     55       0.1292      0.69070
     56       0.3645      0.00019
     57       0.5715      0.00000
     58       1.0546      0.00000
     59       1.4363      0.00000
     60       1.5864      0.00000
     61       1.6975      0.00000
     62       1.8275      0.00000
     63       1.9706      0.00000
     64       2.1222      0.00000
     65       2.2108      0.00000
     66       2.4005      0.00000
     67       2.4652      0.00000
     68       2.5857      0.00000


--------------------------------------------------------------------------------------------------------


 soft charge-density along one line, spin component           1
         0         1         2         3         4         5         6         7         8         9
 total charge-density along one line
 
 pseudopotential strength for first ion, spin component:           1
 29.759   0.008  -0.000  -0.023  -0.000  -0.000  -0.001  -0.000
  0.008   0.009  -0.000  -0.000   0.000   0.000   0.000  -0.000
 -0.000  -0.000   6.545  -0.001   0.000  -0.003   0.000  -0.000
 -0.023  -0.000  -0.001   6.540  -0.000   0.000  -0.002  -0.000
 -0.000   0.000   0.000  -0.000   6.546  -0.000  -0.000  -0.003
 -0.000   0.000  -0.003   0.000  -0.000   0.015  -0.000   0.000
 -0.001   0.000   0.000  -0.002  -0.000  -0.000   0.015   0.000
 -0.000  -0.000  -0.000  -0.000  -0.003   0.000   0.000   0.015
 total augmentation occupancy for first ion, spin component:           1
  1.813  -0.358   0.006   0.253   0.001   0.005   0.113  -0.000
 -0.358   1.283   0.026   0.853   0.001   0.002  -0.433   0.000
  0.006   0.026   1.143   0.010   0.000  -0.503   0.015  -0.000
  0.253   0.853   0.010   1.291   0.001   0.015  -0.420  -0.000
  0.001   0.001   0.000   0.001   1.145  -0.000  -0.000  -0.527
  0.005   0.002  -0.503   0.015  -0.000   0.291  -0.016   0.000
  0.113  -0.433   0.015  -0.420  -0.000  -0.016   0.228   0.000
 -0.000   0.000  -0.000  -0.000  -0.527   0.000   0.000   0.325


------------------------ aborting loop because EDIFF is reached ----------------------------------------


    CHARGE:  cpu time    4.53: real time    4.53
    FORLOC:  cpu time    0.06: real time    0.06
    FORNL :  cpu time   19.83: real time   19.84
    STRESS:  cpu time   60.40: real time   60.41
    FORCOR:  cpu time   14.80: real time   14.81
    FORHAR:  cpu time    0.15: real time    0.15
    MIXING:  cpu time    0.02: real time    0.02
    OFIELD:  cpu time    0.00: real time    0.00

  FORCE on cell =-STRESS in cart. coord.  units (eV):
  Direction    XX          YY          ZZ          XY          YZ          ZX
  --------------------------------------------------------------------------------------
  Alpha Z    36.80885    36.80885    36.80885
  Ewald   14436.83270 13956.05880-16406.04926    -1.64200   -23.95828    -0.08645
  Hartree 14951.58629 14594.06418-14428.42795     3.29489   -11.27707     3.52014
  E(xc)    -358.79284  -358.89294  -358.17210     0.10979    -0.34321     0.26525
  Local  -30941.68731-30118.05444 29248.09014    -4.20282    37.51540    -8.75265
  n-local  1161.95093  1168.41438  1174.96807    -3.85176     3.93548    -4.11065
  augment  -202.23802  -204.26282  -206.25863    -0.06833     0.10245    -0.10400
  Kinetic   928.99853   945.11586   987.05900     2.55222    -0.74153    -2.46875
  Fock        0.00000     0.00000     0.00000     0.00000     0.00000     0.00000
  -------------------------------------------------------------------------------------
  Total      13.45912    19.25187    48.01812    -3.80802     5.23325   -11.73712
  in kB      21.51398    30.77351    76.75546    -6.08700     8.36518   -18.76141
  external pressure =       43.01 kB  Pullay stress =        0.00 kB


 VOLUME and BASIS-vectors are now :
 -----------------------------------------------------------------------------
  energy-cutoff  :      300.00
  volume of cell :     1002.32
      direct lattice vectors                 reciprocal lattice vectors
     3.540400000  0.000000000  0.000000000     0.282453960  0.048570342  0.000000000
    -1.770200000 10.294348000  0.000000000     0.000000000  0.097140683  0.000000000
     0.000000000  0.000000000 27.501429000     0.000000000  0.000000000  0.036361747

  length of vectors
     3.540400000 10.445439617 27.501429000     0.286599577  0.097140683  0.036361747


 FORCES acting on ions
    electron-ion (+dipol)            ewald-force                    non-local-force                 convergence-correction
 -----------------------------------------------------------------------------------------------
   0.472E-01 0.424E+01 0.312E+02   -.126E-01 -.412E+01 -.266E+02   -.384E-01 -.155E+00 -.455E+01   0.524E-07 0.117E-05 -.588E-05
   -.273E+00 -.160E+02 -.557E+03   0.335E+00 0.164E+02 0.561E+03   0.378E-01 -.393E+00 -.402E+01   0.102E-06 0.899E-06 0.121E-04
   -.659E-02 0.662E+02 0.505E+02   0.745E-02 -.677E+02 -.463E+02   -.884E-03 0.153E+01 -.416E+01   0.913E-08 -.249E-06 -.566E-05
   -.167E+01 0.352E+02 -.557E+03   0.887E+00 -.369E+02 0.562E+03   0.875E+00 0.131E+01 -.397E+01   -.114E-06 -.142E-05 0.959E-05
   -.879E-03 -.571E+02 0.526E+03   0.899E-04 0.587E+02 -.530E+03   -.206E-03 -.154E+01 0.428E+01   -.289E-08 -.111E-05 -.933E-06
   0.547E+00 -.674E+02 -.869E+02   -.620E+00 0.703E+02 0.839E+02   0.688E+00 -.277E+01 0.367E+01   -.264E-06 -.841E-06 -.323E-05
   0.852E-03 0.541E+02 0.526E+03   -.146E-05 -.560E+02 -.531E+03   0.119E-02 0.191E+01 0.415E+01   0.114E-08 0.875E-06 -.860E-06
   0.277E+02 0.956E+02 -.277E+02   -.268E+02 -.971E+02 0.263E+02   -.541E+01 0.206E+01 -.468E+01   0.211E-05 -.215E-06 -.152E-05
   0.475E-03 0.152E+01 0.572E+03   -.837E-04 -.172E+01 -.577E+03   0.126E-02 0.202E+00 0.476E+01   0.461E-10 -.669E-06 -.240E-05
   -.785E+00 -.402E+02 -.117E+02   0.102E+01 0.397E+02 0.844E+01   0.470E+00 0.116E+01 0.207E+01   -.403E-06 0.215E-05 -.612E-05
   -.308E-02 -.650E+02 0.560E+02   -.818E-04 0.670E+02 -.518E+02   0.384E-02 -.196E+01 -.406E+01   -.196E-07 -.527E-06 -.427E-05
   -.301E+00 -.190E+02 -.509E+03   0.848E-02 0.210E+02 0.513E+03   0.168E+00 -.196E+01 -.413E+01   -.985E-07 0.446E-06 0.842E-05
   0.225E-02 0.319E+02 0.209E+03   -.431E-03 -.341E+02 -.209E+03   0.101E-02 0.214E+01 0.347E+00   -.150E-08 0.107E-05 -.384E-05
   0.218E+02 -.232E+02 -.348E+03   -.205E+02 0.226E+02 0.342E+03   -.127E+02 0.116E+02 0.369E+02   -.458E-06 -.208E-05 0.174E-05
   -.239E-02 -.138E+02 0.138E+03   -.247E-03 0.141E+02 -.140E+03   0.122E-03 -.292E+00 0.254E+01   0.987E-08 0.708E-06 -.400E-05
   -.180E+01 -.261E+01 -.287E+03   0.135E+01 0.246E+01 0.287E+03   0.232E-01 -.239E+00 -.117E+01   0.756E-07 0.575E-07 0.379E-05
   0.172E-03 -.557E+01 0.346E+03   0.663E-04 0.604E+01 -.343E+03   0.194E-03 -.473E+00 -.251E+01   0.369E-08 -.756E-06 -.211E-05
   -.125E+01 -.496E+02 -.137E+03   0.713E+00 0.524E+02 0.135E+03   -.541E-01 -.122E+01 0.158E+01   0.157E-06 0.158E-05 -.278E-05
   0.153E-02 0.965E+01 0.336E+03   0.271E-04 -.988E+01 -.333E+03   -.284E-02 0.222E+00 -.254E+01   -.863E-09 0.210E-06 -.274E-05
   -.330E+02 0.120E+02 -.800E+02   0.303E+02 -.112E+02 0.833E+02   0.151E+02 -.596E+01 -.354E+02   -.142E-05 -.137E-05 -.317E-06
   -.272E-01 0.105E+02 0.129E+03   0.238E-02 -.109E+02 -.131E+03   0.269E-01 0.364E+00 0.249E+01   -.166E-07 -.158E-06 -.509E-05
   0.299E+01 -.239E+02 -.330E+03   -.213E+01 0.229E+02 0.329E+03   -.312E+00 0.530E+00 0.209E-01   -.152E-06 -.182E-07 0.414E-05
   0.284E-02 -.310E+02 0.253E+03   -.129E-03 0.331E+02 -.253E+03   -.202E-03 -.209E+01 -.403E+00   0.537E-09 -.998E-06 -.265E-05
   -.181E+02 0.102E+03 -.244E+03   0.154E+02 -.970E+02 0.240E+03   0.523E+01 -.123E+02 0.120E+02   -.101E-05 0.186E-05 0.333E-06
 -----------------------------------------------------------------------------------------------
   -.411E+01 0.825E+01 -.317E+01   -.178E-13 0.142E-13 0.284E-13   0.412E+01 -.825E+01 0.317E+01   -.144E-05 0.614E-06 -.143E-04
 
 
 POSITION                                       TOTAL-FORCE (eV/Angst)
 -----------------------------------------------------------------------------------
      0.00000      2.34757      6.41229        -0.004169     -0.033512      0.034806
      1.23914      5.43588     14.16300         0.099757      0.020104     -0.162880
     -0.00000      9.43147      5.75866        -0.000320     -0.014565      0.075573
      3.00934      2.22542     13.50937         0.090182     -0.406910      0.666442
     -0.00000      6.40009      2.31424        -0.001292     -0.004893      0.002727
     -0.00000      6.40009     10.06495         0.615170      0.068592      0.747966
      1.77020     10.27849      2.37372         0.001738     -0.001935      0.000104
      1.77020     10.27849     10.12443        -4.499285      0.520936     -6.107228
      1.77020      3.18974      1.66157         0.001358     -0.000261      0.010450
      1.77020      3.18974      9.41228         0.706056      0.698292     -1.191880
      1.77020      5.55354      5.69975         0.000374      0.008695      0.096126
     -0.53106      8.64185     13.45047        -0.125004      0.035883     -0.109830
      1.77020      9.05319      4.34076         0.002528     -0.002421      0.011755
      1.23914      1.84715     12.09147       -11.464938     11.045251     31.472142
      0.00000      4.22380      5.10944        -0.002814      0.031890      0.075661
      1.23914      7.31211     12.86016        -0.426717     -0.388255     -1.133251
     -0.00000      4.15582      2.74166         0.000135     -0.003168     -0.022517
     -0.00000      4.15582     10.49237        -0.590831      1.620661      0.420434
      1.77020      1.31366      2.96438        -0.001585     -0.007960     -0.017298
      1.77020      1.31366     10.71510        12.494525     -5.161719    -32.081109
      1.77020      1.38163      5.33187         0.001730     -0.030626     -0.001782
     -0.53106      4.46993     13.08259         0.538701     -0.474469     -0.998025
      1.77020      6.77850      3.73234         0.002217     -0.001524      0.000894
     -0.53106      9.86680     11.48306         2.562485     -7.518085      8.210719
 -----------------------------------------------------------------------------------
    total drift:                                0.007129      0.000912      0.004523


--------------------------------------------------------------------------------------------------------



  FREE ENERGIE OF THE ION-ELECTRON SYSTEM (eV)
  ---------------------------------------------------
  free  energy   TOTEN  =      -115.13106640 eV

  energy  without entropy=     -115.10038664  energy(sigma->0) =     -115.11572652
 


--------------------------------------------------------------------------------------------------------


    POTLOK:  cpu time   14.78: real time   14.78


--------------------------------------------------------------------------------------------------------


     LOOP+:  cpu time 2806.22: real time 2806.88
    4ORBIT:  cpu time    0.00: real time    0.00

 total amount of memory used by VASP on root node   146493. kBytes
========================================================================

   base      :      30000. kBytes
   nonlr-proj:       3452. kBytes
   fftplans  :       9347. kBytes
   grid      :      14649. kBytes
   one-center:         36. kBytes
   wavefun   :      89009. kBytes
 
  
  
 General timing and accounting informations for this job:
 ========================================================
  
                  Total CPU time used (sec):     2822.560
                            User time (sec):     2787.837
                          System time (sec):       34.723
                         Elapsed time (sec):     2824.275
  
                   Maximum memory used (kb):      335024.
                   Average memory used (kb):           0.
  
                          Minor page faults:      8411276
                          Major page faults:            8
                 Voluntary context switches:         1420
