  24  24   0   0
  0.4176334E+02  0.3540400E-09  0.1044544E-08  0.2750143E-08  0.5000000E-15
  1.000000000000000E-004
  CAR 
 unknown system                          
      4.12728189    -16.02841027  301      0.08457893      1.00000000
    -16.028  0.0000E+00  0.0000E+00
    -15.961  0.0000E+00  0.0000E+00
    -15.894  0.0000E+00  0.0000E+00
    -15.827  0.0000E+00  0.0000E+00
    -15.760  0.0000E+00  0.0000E+00
    -15.692  0.0000E+00  0.0000E+00
    -15.625  0.0000E+00  0.0000E+00
    -15.558  0.6176E-13  0.4149E-14
    -15.491  0.5690E-10  0.3827E-11
    -15.424  0.2173E-07  0.1464E-08
    -15.357  0.3468E-05  0.2345E-06
    -15.289  0.2343E-03  0.1598E-04
    -15.222  0.6848E-02  0.4761E-03
    -15.155  0.8947E-01  0.6487E-02
    -15.088  0.5451E+00  0.4311E-01
    -15.021  0.1612E+01  0.1514E+00
    -14.953  0.2392E+01  0.3121E+00
    -14.886  0.2030E+01  0.4485E+00
    -14.819  0.1754E+01  0.5664E+00
    -14.752  0.1744E+01  0.6836E+00
    -14.685  0.1024E+01  0.7524E+00
    -14.618  0.5252E+00  0.7877E+00
    -14.550  0.1052E+01  0.8583E+00
    -14.483  0.1669E+01  0.9705E+00
    -14.416  0.1177E+01  0.1050E+01
    -14.349  0.3645E+00  0.1074E+01
    -14.282  0.1321E+00  0.1083E+01
    -14.214  0.5272E+00  0.1118E+01
    -14.147  0.1391E+01  0.1212E+01
    -14.080  0.1595E+01  0.1319E+01
    -14.013  0.7920E+00  0.1372E+01
    -13.946  0.1715E+00  0.1384E+01
    -13.878  0.5358E-01  0.1387E+01
    -13.811  0.3128E+00  0.1408E+01
    -13.744  0.1100E+01  0.1482E+01
    -13.677  0.1688E+01  0.1596E+01
    -13.610  0.1248E+01  0.1679E+01
    -13.543  0.1093E+01  0.1753E+01
    -13.475  0.2472E+01  0.1919E+01
    -13.408  0.4736E+01  0.2237E+01
    -13.341  0.5911E+01  0.2634E+01
    -13.274  0.5138E+01  0.2979E+01
    -13.207  0.4026E+01  0.3250E+01
    -13.139  0.3169E+01  0.3463E+01
    -13.072  0.2306E+01  0.3618E+01
    -13.005  0.2539E+01  0.3788E+01
    -12.938  0.3980E+01  0.4056E+01
    -12.871  0.4642E+01  0.4368E+01
    -12.803  0.3819E+01  0.4624E+01
    -12.736  0.3010E+01  0.4826E+01
    -12.669  0.3324E+01  0.5050E+01
    -12.602  0.4962E+01  0.5383E+01
    -12.535  0.6693E+01  0.5833E+01
    -12.468  0.6693E+01  0.6282E+01
    -12.400  0.5608E+01  0.6659E+01
    -12.333  0.4666E+01  0.6973E+01
    -12.266  0.4428E+01  0.7270E+01
    -12.199  0.4786E+01  0.7592E+01
    -12.132  0.5446E+01  0.7958E+01
    -12.064  0.6004E+01  0.8361E+01
    -11.997  0.6567E+01  0.8802E+01
    -11.930  0.6959E+01  0.9270E+01
    -11.863  0.6324E+01  0.9695E+01
    -11.796  0.6126E+01  0.1011E+02
    -11.729  0.6522E+01  0.1054E+02
    -11.661  0.6656E+01  0.1099E+02
    -11.594  0.7005E+01  0.1146E+02
    -11.527  0.7945E+01  0.1200E+02
    -11.460  0.9518E+01  0.1264E+02
    -11.393  0.9654E+01  0.1328E+02
    -11.325  0.8010E+01  0.1382E+02
    -11.258  0.7930E+01  0.1435E+02
    -11.191  0.8763E+01  0.1494E+02
    -11.124  0.8621E+01  0.1552E+02
    -11.057  0.9146E+01  0.1614E+02
    -10.989  0.1036E+02  0.1683E+02
    -10.922  0.1020E+02  0.1752E+02
    -10.855  0.9316E+01  0.1814E+02
    -10.788  0.1024E+02  0.1883E+02
    -10.721  0.1088E+02  0.1956E+02
    -10.654  0.9875E+01  0.2023E+02
    -10.586  0.8732E+01  0.2081E+02
    -10.519  0.6590E+01  0.2126E+02
    -10.452  0.4889E+01  0.2158E+02
    -10.385  0.5139E+01  0.2193E+02
    -10.318  0.5217E+01  0.2228E+02
    -10.250  0.4007E+01  0.2255E+02
    -10.183  0.2663E+01  0.2273E+02
    -10.116  0.1958E+01  0.2286E+02
    -10.049  0.1951E+01  0.2299E+02
     -9.982  0.3513E+01  0.2323E+02
     -9.915  0.5234E+01  0.2358E+02
     -9.847  0.4224E+01  0.2386E+02
     -9.780  0.1696E+01  0.2398E+02
     -9.713  0.3244E+00  0.2400E+02
     -9.646  0.3062E-01  0.2400E+02
     -9.579  0.4106E-01  0.2400E+02
     -9.511  0.3500E+00  0.2403E+02
     -9.444  0.1394E+01  0.2412E+02
     -9.377  0.2838E+01  0.2431E+02
     -9.310  0.4056E+01  0.2458E+02
     -9.243  0.5737E+01  0.2497E+02
     -9.175  0.7025E+01  0.2544E+02
     -9.108  0.5909E+01  0.2584E+02
     -9.041  0.4135E+01  0.2612E+02
     -8.974  0.4324E+01  0.2641E+02
     -8.907  0.4656E+01  0.2672E+02
     -8.840  0.4179E+01  0.2700E+02
     -8.772  0.4685E+01  0.2731E+02
     -8.705  0.5210E+01  0.2766E+02
     -8.638  0.4399E+01  0.2796E+02
     -8.571  0.3797E+01  0.2821E+02
     -8.504  0.4618E+01  0.2853E+02
     -8.436  0.6172E+01  0.2894E+02
     -8.369  0.7601E+01  0.2945E+02
     -8.302  0.7560E+01  0.2996E+02
     -8.235  0.5175E+01  0.3031E+02
     -8.168  0.3047E+01  0.3051E+02
     -8.101  0.2750E+01  0.3070E+02
     -8.033  0.2668E+01  0.3087E+02
     -7.966  0.2036E+01  0.3101E+02
     -7.899  0.2186E+01  0.3116E+02
     -7.832  0.3428E+01  0.3139E+02
     -7.765  0.4546E+01  0.3169E+02
     -7.697  0.4722E+01  0.3201E+02
     -7.630  0.4339E+01  0.3230E+02
     -7.563  0.4550E+01  0.3261E+02
     -7.496  0.5229E+01  0.3296E+02
     -7.429  0.6145E+01  0.3337E+02
     -7.361  0.7271E+01  0.3386E+02
     -7.294  0.8257E+01  0.3442E+02
     -7.227  0.8943E+01  0.3502E+02
     -7.160  0.8248E+01  0.3557E+02
     -7.093  0.6418E+01  0.3600E+02
     -7.026  0.5115E+01  0.3635E+02
     -6.958  0.5422E+01  0.3671E+02
     -6.891  0.6791E+01  0.3717E+02
     -6.824  0.8001E+01  0.3770E+02
     -6.757  0.8868E+01  0.3830E+02
     -6.690  0.1036E+02  0.3900E+02
     -6.622  0.1137E+02  0.3976E+02
     -6.555  0.9808E+01  0.4042E+02
     -6.488  0.7749E+01  0.4094E+02
     -6.421  0.5678E+01  0.4132E+02
     -6.354  0.3391E+01  0.4155E+02
     -6.286  0.2915E+01  0.4174E+02
     -6.219  0.4025E+01  0.4201E+02
     -6.152  0.4397E+01  0.4231E+02
     -6.085  0.3248E+01  0.4253E+02
     -6.018  0.2448E+01  0.4269E+02
     -5.951  0.4004E+01  0.4296E+02
     -5.883  0.6195E+01  0.4338E+02
     -5.816  0.7160E+01  0.4386E+02
     -5.749  0.7814E+01  0.4438E+02
     -5.682  0.7956E+01  0.4492E+02
     -5.615  0.7936E+01  0.4545E+02
     -5.547  0.8705E+01  0.4604E+02
     -5.480  0.8819E+01  0.4663E+02
     -5.413  0.7466E+01  0.4713E+02
     -5.346  0.6026E+01  0.4754E+02
     -5.279  0.5922E+01  0.4793E+02
     -5.212  0.6765E+01  0.4839E+02
     -5.144  0.6805E+01  0.4885E+02
     -5.077  0.6011E+01  0.4925E+02
     -5.010  0.7177E+01  0.4973E+02
     -4.943  0.9679E+01  0.5038E+02
     -4.876  0.1036E+02  0.5108E+02
     -4.808  0.9371E+01  0.5171E+02
     -4.741  0.8893E+01  0.5230E+02
     -4.674  0.1026E+02  0.5299E+02
     -4.607  0.1200E+02  0.5380E+02
     -4.540  0.1161E+02  0.5458E+02
     -4.472  0.1008E+02  0.5526E+02
     -4.405  0.9437E+01  0.5589E+02
     -4.338  0.1023E+02  0.5658E+02
     -4.271  0.1209E+02  0.5739E+02
     -4.204  0.1340E+02  0.5829E+02
     -4.137  0.1321E+02  0.5918E+02
     -4.069  0.1202E+02  0.5999E+02
     -4.002  0.1151E+02  0.6076E+02
     -3.935  0.1114E+02  0.6151E+02
     -3.868  0.9880E+01  0.6217E+02
     -3.801  0.9521E+01  0.6281E+02
     -3.733  0.1161E+02  0.6359E+02
     -3.666  0.1380E+02  0.6452E+02
     -3.599  0.1367E+02  0.6544E+02
     -3.532  0.1208E+02  0.6625E+02
     -3.465  0.1217E+02  0.6707E+02
     -3.398  0.1450E+02  0.6804E+02
     -3.330  0.1533E+02  0.6907E+02
     -3.263  0.1443E+02  0.7004E+02
     -3.196  0.1434E+02  0.7100E+02
     -3.129  0.1623E+02  0.7209E+02
     -3.062  0.1866E+02  0.7335E+02
     -2.994  0.1869E+02  0.7460E+02
     -2.927  0.1600E+02  0.7568E+02
     -2.860  0.1286E+02  0.7654E+02
     -2.793  0.1269E+02  0.7739E+02
     -2.726  0.1503E+02  0.7840E+02
     -2.658  0.1665E+02  0.7952E+02
     -2.591  0.1730E+02  0.8069E+02
     -2.524  0.1681E+02  0.8181E+02
     -2.457  0.1499E+02  0.8282E+02
     -2.390  0.1417E+02  0.8377E+02
     -2.323  0.1414E+02  0.8472E+02
     -2.255  0.1318E+02  0.8561E+02
     -2.188  0.1320E+02  0.8650E+02
     -2.121  0.1408E+02  0.8744E+02
     -2.054  0.1334E+02  0.8834E+02
     -1.987  0.1296E+02  0.8921E+02
     -1.919  0.1514E+02  0.9023E+02
     -1.852  0.1766E+02  0.9141E+02
     -1.785  0.1737E+02  0.9258E+02
     -1.718  0.1629E+02  0.9367E+02
     -1.651  0.1506E+02  0.9469E+02
     -1.583  0.1320E+02  0.9557E+02
     -1.516  0.1281E+02  0.9643E+02
     -1.449  0.1393E+02  0.9737E+02
     -1.382  0.1465E+02  0.9835E+02
     -1.315  0.1385E+02  0.9928E+02
     -1.248  0.1166E+02  0.1001E+03
     -1.180  0.9501E+01  0.1007E+03
     -1.113  0.8778E+01  0.1013E+03
     -1.046  0.8786E+01  0.1019E+03
     -0.979  0.9772E+01  0.1025E+03
     -0.912  0.1125E+02  0.1033E+03
     -0.844  0.1042E+02  0.1040E+03
     -0.777  0.8374E+01  0.1046E+03
     -0.710  0.7804E+01  0.1051E+03
     -0.643  0.8452E+01  0.1057E+03
     -0.576  0.8351E+01  0.1062E+03
     -0.509  0.6335E+01  0.1066E+03
     -0.441  0.3232E+01  0.1069E+03
     -0.374  0.1248E+01  0.1069E+03
     -0.307  0.1148E+01  0.1070E+03
     -0.240  0.1516E+01  0.1071E+03
     -0.173  0.1204E+01  0.1072E+03
     -0.105  0.9208E+00  0.1073E+03
     -0.038  0.1961E+01  0.1074E+03
      0.029  0.4172E+01  0.1077E+03
      0.096  0.5922E+01  0.1081E+03
      0.163  0.6441E+01  0.1085E+03
      0.231  0.6490E+01  0.1089E+03
      0.298  0.5699E+01  0.1093E+03
      0.365  0.4456E+01  0.1096E+03
      0.432  0.4094E+01  0.1099E+03
      0.499  0.4234E+01  0.1102E+03
      0.566  0.4220E+01  0.1105E+03
      0.634  0.4327E+01  0.1108E+03
      0.701  0.4683E+01  0.1111E+03
      0.768  0.5130E+01  0.1114E+03
      0.835  0.5920E+01  0.1118E+03
      0.902  0.6434E+01  0.1122E+03
      0.970  0.5881E+01  0.1126E+03
      1.037  0.4975E+01  0.1130E+03
      1.104  0.5473E+01  0.1133E+03
      1.171  0.7215E+01  0.1138E+03
      1.238  0.8428E+01  0.1144E+03
      1.305  0.9768E+01  0.1151E+03
      1.373  0.1059E+02  0.1158E+03
      1.440  0.9815E+01  0.1164E+03
      1.507  0.8982E+01  0.1170E+03
      1.574  0.1021E+02  0.1177E+03
      1.641  0.1209E+02  0.1185E+03
      1.709  0.1254E+02  0.1194E+03
      1.776  0.1261E+02  0.1202E+03
      1.843  0.1223E+02  0.1210E+03
      1.910  0.1128E+02  0.1218E+03
      1.977  0.1118E+02  0.1225E+03
      2.045  0.1228E+02  0.1234E+03
      2.112  0.1305E+02  0.1242E+03
      2.179  0.1292E+02  0.1251E+03
      2.246  0.1343E+02  0.1260E+03
      2.313  0.1376E+02  0.1269E+03
      2.380  0.1358E+02  0.1279E+03
      2.448  0.1477E+02  0.1288E+03
      2.515  0.1543E+02  0.1299E+03
      2.582  0.1439E+02  0.1308E+03
      2.649  0.1401E+02  0.1318E+03
      2.716  0.1375E+02  0.1327E+03
      2.784  0.1166E+02  0.1335E+03
      2.851  0.8742E+01  0.1341E+03
      2.918  0.7364E+01  0.1346E+03
      2.985  0.7069E+01  0.1351E+03
      3.052  0.6494E+01  0.1355E+03
      3.119  0.4732E+01  0.1358E+03
      3.187  0.2214E+01  0.1360E+03
      3.254  0.5795E+00  0.1360E+03
      3.321  0.7825E-01  0.1360E+03
      3.388  0.5131E-02  0.1360E+03
      3.455  0.1556E-03  0.1360E+03
      3.523  0.2101E-05  0.1360E+03
      3.590  0.1229E-07  0.1360E+03
      3.657  0.3057E-10  0.1360E+03
      3.724  0.3178E-13  0.1360E+03
      3.791  0.0000E+00  0.1360E+03
      3.859  0.0000E+00  0.1360E+03
      3.926  0.0000E+00  0.1360E+03
      3.993  0.0000E+00  0.1360E+03
      4.060  0.0000E+00  0.1360E+03
      4.127  0.0000E+00  0.1360E+03
