   24   24    1    1
  0.4176334E+02  0.3540400E-09  0.1044544E-08  0.2750143E-08  0.5000000E-15
  1.000000000000000E-004
  CAR 
 unknown system                          
    108     54     68
 
  0.0000000E+00  0.0000000E+00  0.0000000E+00  0.9615385E-02
    1      -15.028410
    2      -13.527505
    3      -13.390920
    4      -12.806834
    5      -12.786682
    6      -12.467863
    7      -12.074853
    8      -11.750910
    9      -11.455083
   10      -11.418147
   11      -10.978385
   12      -10.014217
   13       -9.156701
   14       -8.342475
   15       -8.014155
   16       -7.814411
   17       -6.821108
   18       -6.775716
   19       -6.480357
   20       -5.942770
   21       -5.821449
   22       -5.593854
   23       -5.151553
   24       -4.735927
   25       -4.439738
   26       -4.235767
   27       -3.705093
   28       -3.620306
   29       -3.416580
   30       -3.124171
   31       -3.075856
   32       -3.042471
   33       -2.983277
   34       -2.831373
   35       -2.612061
   36       -2.482817
   37       -2.427121
   38       -2.371801
   39       -2.358607
   40       -2.078002
   41       -1.974472
   42       -1.849781
   43       -1.728695
   44       -1.717510
   45       -1.630451
   46       -1.619796
   47       -1.553593
   48       -1.419284
   49       -1.350722
   50       -1.128729
   51       -0.961387
   52       -0.602401
   53       -0.569363
   54        0.239289
   55        0.528345
   56        0.824269
   57        1.161513
   58        1.194872
   59        1.257365
   60        1.341009
   61        1.489738
   62        1.656882
   63        1.778918
   64        1.976480
   65        2.083109
   66        2.152118
   67        2.444340
   68        2.596740
 
  0.7692308E-01 -0.1387779E-16  0.0000000E+00  0.1923077E-01
    1      -14.969746
    2      -13.466163
    3      -13.335143
    4      -12.747721
    5      -12.733821
    6      -12.412277
    7      -12.012637
    8      -11.710512
    9      -11.394605
   10      -11.368672
   11      -10.930000
   12       -9.987999
   13       -9.146371
   14       -8.338539
   15       -8.052696
   16       -7.776486
   17       -6.796414
   18       -6.774031
   19       -6.474502
   20       -5.930792
   21       -5.789116
   22       -5.602175
   23       -5.270918
   24       -4.827227
   25       -4.735224
   26       -4.242357
   27       -3.756113
   28       -3.669844
   29       -3.571994
   30       -3.411869
   31       -3.289933
   32       -3.250525
   33       -3.143763
   34       -2.967936
   35       -2.772630
   36       -2.731380
   37       -2.559216
   38       -2.467034
   39       -2.436420
   40       -2.199280
   41       -2.098583
   42       -2.043559
   43       -1.953217
   44       -1.840653
   45       -1.820404
   46       -1.738473
   47       -1.660529
   48       -1.498794
   49       -1.291384
   50       -1.104951
   51       -0.920574
   52       -0.617323
   53       -0.530802
   54        0.186184
   55        0.582667
   56        0.844989
   57        1.140630
   58        1.261697
   59        1.580540
   60        1.604148
   61        1.778331
   62        2.040242
   63        2.144658
   64        2.225714
   65        2.267227
   66        2.461820
   67        2.623902
   68        2.746042
 
  0.1538462E+00 -0.2775558E-16  0.0000000E+00  0.1923077E-01
    1      -14.795615
    2      -13.283217
    3      -13.169307
    4      -12.581775
    5      -12.567024
    6      -12.247557
    7      -11.830321
    8      -11.590138
    9      -11.231531
   10      -11.214607
   11      -10.791177
   12       -9.929108
   13       -9.135611
   14       -8.354470
   15       -8.151529
   16       -7.734324
   17       -6.888155
   18       -6.708652
   19       -6.486421
   20       -6.125936
   21       -5.747763
   22       -5.704844
   23       -5.491728
   24       -4.993985
   25       -4.853651
   26       -4.457111
   27       -4.285148
   28       -4.189907
   29       -4.070485
   30       -3.959480
   31       -3.693216
   32       -3.619020
   33       -3.432418
   34       -3.278579
   35       -3.146068
   36       -2.969206
   37       -2.955494
   38       -2.905022
   39       -2.753553
   40       -2.651495
   41       -2.385586
   42       -2.314377
   43       -2.140514
   44       -2.024669
   45       -1.915531
   46       -1.763842
   47       -1.654190
   48       -1.570024
   49       -1.278397
   50       -1.161153
   51       -0.890054
   52       -0.727264
   53       -0.566050
   54        0.132455
   55        0.444740
   56        0.844986
   57        1.143247
   58        1.298086
   59        1.730916
   60        1.963462
   61        2.263956
   62        2.439723
   63        2.606396
   64        2.649175
   65        2.739759
   66        2.910282
   67        3.022481
   68        3.052828
 
  0.2307692E+00 -0.4163336E-16  0.0000000E+00  0.1923077E-01
    1      -14.512736
    2      -12.982309
    3      -12.898732
    4      -12.324302
    5      -12.282750
    6      -11.980957
    7      -11.543234
    8      -11.399806
    9      -11.012451
   10      -10.950291
   11      -10.588059
   12       -9.931471
   13       -9.161667
   14       -8.478013
   15       -8.344008
   16       -7.809033
   17       -7.207909
   18       -6.680451
   19       -6.620205
   20       -6.507077
   21       -5.920286
   22       -5.729891
   23       -5.579833
   24       -5.326418
   25       -5.217846
   26       -4.936570
   27       -4.792699
   28       -4.632855
   29       -4.577836
   30       -4.490144
   31       -4.172439
   32       -3.949296
   33       -3.778743
   34       -3.680776
   35       -3.466413
   36       -3.428339
   37       -3.089947
   38       -3.002312
   39       -2.977121
   40       -2.715998
   41       -2.582627
   42       -2.518616
   43       -2.421993
   44       -2.166749
   45       -1.890246
   46       -1.823225
   47       -1.723960
   48       -1.507987
   49       -1.446541
   50       -1.338343
   51       -1.003010
   52       -0.916912
   53       -0.702823
   54       -0.309887
   55        0.358232
   56        0.656806
   57        1.143156
   58        1.605244
   59        1.890053
   60        1.916530
   61        2.074319
   62        2.281803
   63        2.401938
   64        2.661607
   65        2.723838
   66        2.867616
   67        2.907269
   68        2.971355
 
  0.3076923E+00 -0.5551115E-16  0.0000000E+00  0.1923077E-01
    1      -14.137263
    2      -12.571395
    3      -12.535776
    4      -11.975793
    5      -11.910694
    6      -11.629433
    7      -11.202501
    8      -11.165307
    9      -10.767957
   10      -10.639425
   11      -10.402116
   12      -10.194066
   13       -9.154837
   14       -8.781500
   15       -8.639649
   16       -8.070411
   17       -7.433132
   18       -6.982597
   19       -6.918393
   20       -6.885465
   21       -6.485610
   22       -6.150491
   23       -5.950678
   24       -5.797642
   25       -5.421349
   26       -5.213387
   27       -5.144464
   28       -4.776771
   29       -4.703046
   30       -4.674134
   31       -4.301518
   32       -4.205363
   33       -4.039049
   34       -3.895873
   35       -3.531945
   36       -3.377279
   37       -3.259802
   38       -3.092375
   39       -3.058633
   40       -2.923918
   41       -2.765837
   42       -2.627127
   43       -2.568091
   44       -2.243369
   45       -2.051629
   46       -1.905778
   47       -1.863876
   48       -1.700883
   49       -1.595637
   50       -1.365030
   51       -1.253980
   52       -1.141650
   53       -0.828365
   54       -0.639905
   55        0.207255
   56        0.483549
   57        0.975225
   58        1.434942
   59        1.662545
   60        1.829302
   61        1.980631
   62        2.183261
   63        2.305260
   64        2.399081
   65        2.455140
   66        2.672958
   67        2.773274
   68        2.877173
 
  0.3846154E+00 -0.8326673E-16  0.0000000E+00  0.1923077E-01
    1      -13.710892
    2      -12.118590
    3      -12.060376
    4      -11.556951
    5      -11.525669
    6      -11.232418
    7      -11.070907
    8      -10.837164
    9      -10.623057
   10      -10.612929
   11      -10.441586
   12      -10.370822
   13       -9.204033
   14       -9.017932
   15       -8.816567
   16       -8.363189
   17       -7.664184
   18       -7.445215
   19       -7.402616
   20       -7.256527
   21       -6.983180
   22       -6.747088
   23       -6.647877
   24       -6.260473
   25       -5.543961
   26       -5.193617
   27       -4.980752
   28       -4.669373
   29       -4.582363
   30       -4.510586
   31       -4.262274
   32       -4.201913
   33       -4.060689
   34       -3.801611
   35       -3.653214
   36       -3.600557
   37       -3.473452
   38       -3.254200
   39       -3.153309
   40       -3.082754
   41       -2.823131
   42       -2.735264
   43       -2.498749
   44       -2.363009
   45       -2.273843
   46       -2.150457
   47       -2.016293
   48       -1.865405
   49       -1.695702
   50       -1.528751
   51       -1.416768
   52       -1.353960
   53       -0.940147
   54       -0.612855
   55        0.065529
   56        0.312184
   57        0.868315
   58        1.334630
   59        1.499267
   60        1.706855
   61        1.759536
   62        2.002692
   63        2.090292
   64        2.167528
   65        2.297143
   66        2.339675
   67        2.630794
   68        2.744809
 
  0.4615385E+00 -0.8326673E-16  0.0000000E+00  0.1923077E-01
    1      -13.360220
    2      -11.770353
    3      -11.487925
    4      -11.456993
    5      -11.134012
    6      -11.010864
    7      -10.931800
    8      -10.830833
    9      -10.800645
   10      -10.715559
   11      -10.620478
   12      -10.305815
   13       -9.409420
   14       -8.940971
   15       -8.674696
   16       -8.425920
   17       -8.065441
   18       -7.866751
   19       -7.593612
   20       -7.556171
   21       -7.273310
   22       -7.182004
   23       -7.162074
   24       -6.482649
   25       -5.487844
   26       -4.983358
   27       -4.900453
   28       -4.600041
   29       -4.490972
   30       -4.286297
   31       -4.205795
   32       -4.047337
   33       -3.931694
   34       -3.842849
   35       -3.813088
   36       -3.688904
   37       -3.557622
   38       -3.417509
   39       -3.242160
   40       -3.077091
   41       -2.996024
   42       -2.807669
   43       -2.686042
   44       -2.598558
   45       -2.346673
   46       -2.203652
   47       -2.106737
   48       -1.900384
   49       -1.738198
   50       -1.655808
   51       -1.511850
   52       -1.371873
   53       -0.964063
   54       -0.618946
   55        0.011209
   56        0.232370
   57        0.787177
   58        1.342520
   59        1.387336
   60        1.576336
   61        1.684719
   62        1.737350
   63        1.924283
   64        2.080524
   65        2.181941
   66        2.389339
   67        2.502338
   68        2.609858
 
  0.0000000E+00  0.2500000E+00  0.0000000E+00  0.1923077E-01
    1      -15.026043
    2      -13.473156
    3      -13.434659
    4      -12.961737
    5      -12.692282
    6      -12.466484
    7      -11.980458
    8      -11.856156
    9      -11.464902
   10      -11.262371
   11      -10.987024
   12       -9.987761
   13       -9.277155
   14       -8.502197
   15       -8.307545
   16       -7.363918
   17       -6.840477
   18       -6.657845
   19       -6.589804
   20       -5.898568
   21       -5.736149
   22       -5.595062
   23       -4.981477
   24       -4.637894
   25       -4.406806
   26       -4.176540
   27       -4.003100
   28       -3.620752
   29       -3.468767
   30       -3.300178
   31       -3.116014
   32       -3.101513
   33       -3.012313
   34       -2.740044
   35       -2.696089
   36       -2.553282
   37       -2.383342
   38       -2.375281
   39       -2.278609
   40       -2.142595
   41       -1.976559
   42       -1.878743
   43       -1.866490
   44       -1.779020
   45       -1.614694
   46       -1.547743
   47       -1.470089
   48       -1.350079
   49       -1.227393
   50       -1.102232
   51       -0.982154
   52       -0.766349
   53       -0.534560
   54        0.090020
   55        0.705279
   56        0.929359
   57        1.140539
   58        1.195227
   59        1.295725
   60        1.404393
   61        1.530960
   62        1.705907
   63        1.797500
   64        1.829920
   65        2.113907
   66        2.271397
   67        2.508584
   68        2.653835
 
  0.7692308E-01  0.2500000E+00  0.0000000E+00  0.1923077E-01
    1      -14.966916
    2      -13.399684
    3      -13.383077
    4      -12.942641
    5      -12.606282
    6      -12.409439
    7      -11.971392
    8      -11.757821
    9      -11.423551
   10      -11.178264
   11      -10.942678
   12       -9.958957
   13       -9.286249
   14       -8.560512
   15       -8.297716
   16       -7.314725
   17       -6.866921
   18       -6.666024
   19       -6.518391
   20       -5.839249
   21       -5.684881
   22       -5.583990
   23       -5.278987
   24       -4.694650
   25       -4.659637
   26       -4.168009
   27       -4.045352
   28       -3.635399
   29       -3.533995
   30       -3.468031
   31       -3.393256
   32       -3.349361
   33       -3.116531
   34       -3.012614
   35       -2.925913
   36       -2.717006
   37       -2.630461
   38       -2.490873
   39       -2.357653
   40       -2.274932
   41       -2.153530
   42       -2.058930
   43       -2.000802
   44       -1.869819
   45       -1.826836
   46       -1.736429
   47       -1.490738
   48       -1.397698
   49       -1.171720
   50       -1.075655
   51       -0.927178
   52       -0.791010
   53       -0.524450
   54        0.051293
   55        0.782117
   56        0.851319
   57        1.114399
   58        1.296543
   59        1.599665
   60        1.643098
   61        1.798478
   62        1.952895
   63        2.067445
   64        2.230193
   65        2.502869
   66        2.521096
   67        2.669564
   68        2.737485
 
  0.1538462E+00  0.2500000E+00  0.0000000E+00  0.1923077E-01
    1      -14.792548
    2      -13.227093
    3      -13.196054
    4      -12.806148
    5      -12.411605
    6      -12.243235
    7      -11.859025
    8      -11.560239
    9      -11.284094
   10      -11.003569
   11      -10.801429
   12       -9.902386
   13       -9.272711
   14       -8.626268
   15       -8.322814
   16       -7.286696
   17       -6.934574
   18       -6.643649
   19       -6.486428
   20       -6.119537
   21       -5.720751
   22       -5.632297
   23       -5.498716
   24       -4.870582
   25       -4.818260
   26       -4.428970
   27       -4.356864
   28       -4.279646
   29       -4.143219
   30       -3.948892
   31       -3.713335
   32       -3.603368
   33       -3.399440
   34       -3.321767
   35       -3.150277
   36       -3.013234
   37       -2.947620
   38       -2.820861
   39       -2.772659
   40       -2.606113
   41       -2.539956
   42       -2.361759
   43       -2.302212
   44       -2.046163
   45       -1.908069
   46       -1.873984
   47       -1.498218
   48       -1.363586
   49       -1.236044
   50       -1.123043
   51       -0.933544
   52       -0.839363
   53       -0.649814
   54        0.127888
   55        0.513851
   56        0.873693
   57        1.049374
   58        1.366429
   59        1.657920
   60        1.771235
   61        2.120608
   62        2.357772
   63        2.695403
   64        2.740069
   65        2.885821
   66        3.021729
   67        3.056720
   68        3.088021
 
  0.2307692E+00  0.2500000E+00  0.0000000E+00  0.1923077E-01
    1      -14.509736
    2      -12.953153
    3      -12.885685
    4      -12.554792
    5      -12.120552
    6      -11.975876
    7      -11.652366
    8      -11.283642
    9      -11.062272
   10      -10.760429
   11      -10.584177
   12       -9.921894
   13       -9.257769
   14       -8.757936
   15       -8.463702
   16       -7.378186
   17       -7.172946
   18       -6.684615
   19       -6.674710
   20       -6.630039
   21       -5.813654
   22       -5.719581
   23       -5.616491
   24       -5.214684
   25       -5.175469
   26       -5.025331
   27       -4.929030
   28       -4.655192
   29       -4.585891
   30       -4.531576
   31       -4.039321
   32       -3.989227
   33       -3.727776
   34       -3.611644
   35       -3.385432
   36       -3.197029
   37       -3.083629
   38       -3.057365
   39       -3.024929
   40       -2.705981
   41       -2.613674
   42       -2.547759
   43       -2.512031
   44       -2.130710
   45       -1.977426
   46       -1.882683
   47       -1.763626
   48       -1.502139
   49       -1.406479
   50       -1.349716
   51       -1.025698
   52       -0.931048
   53       -0.794821
   54       -0.239029
   55        0.370758
   56        0.603587
   57        1.141646
   58        1.434126
   59        1.588813
   60        1.736836
   61        1.935268
   62        2.261013
   63        2.459241
   64        2.587961
   65        2.700332
   66        2.744904
   67        3.043482
   68        3.069497
 
  0.3076923E+00  0.2500000E+00  0.0000000E+00  0.1923077E-01
    1      -14.134657
    2      -12.582721
    3      -12.469210
    4      -12.195765
    5      -11.762638
    6      -11.625308
    7      -11.379691
    8      -10.969952
    9      -10.798487
   10      -10.517044
   11      -10.378876
   12      -10.196346
   13       -9.193125
   14       -8.957077
   15       -8.761920
   16       -7.693178
   17       -7.430564
   18       -7.100704
   19       -7.093011
   20       -6.947522
   21       -6.195280
   22       -6.179590
   23       -5.939652
   24       -5.901055
   25       -5.521337
   26       -5.370074
   27       -5.108763
   28       -4.924295
   29       -4.686538
   30       -4.409512
   31       -4.320826
   32       -4.149536
   33       -3.997859
   34       -3.735442
   35       -3.389346
   36       -3.324882
   37       -3.243983
   38       -3.002124
   39       -2.956115
   40       -2.890617
   41       -2.824850
   42       -2.674233
   43       -2.485468
   44       -2.348770
   45       -2.255457
   46       -1.962114
   47       -1.874668
   48       -1.738219
   49       -1.654349
   50       -1.429616
   51       -1.269758
   52       -1.120834
   53       -0.803955
   54       -0.651668
   55        0.199612
   56        0.395205
   57        0.980195
   58        1.236035
   59        1.277720
   60        1.614117
   61        2.025684
   62        2.133529
   63        2.255326
   64        2.431629
   65        2.492176
   66        2.578382
   67        2.633974
   68        2.923457
 
  0.3846154E+00  0.2500000E+00  0.0000000E+00  0.1923077E-01
    1      -13.709146
    2      -12.148257
    3      -11.965794
    4      -11.745771
    5      -11.434630
    6      -11.231647
    7      -11.134832
    8      -10.714510
    9      -10.681728
   10      -10.586907
   11      -10.454329
   12      -10.298575
   13       -9.204442
   14       -9.005000
   15       -8.946970
   16       -8.097700
   17       -7.766175
   18       -7.714756
   19       -7.348144
   20       -7.299966
   21       -6.802032
   22       -6.680636
   23       -6.646691
   24       -6.432365
   25       -5.564423
   26       -5.328097
   27       -4.973641
   28       -4.768811
   29       -4.577120
   30       -4.408041
   31       -4.313287
   32       -4.100227
   33       -3.849402
   34       -3.733546
   35       -3.596985
   36       -3.397104
   37       -3.338478
   38       -3.264625
   39       -3.111304
   40       -3.090099
   41       -2.914814
   42       -2.752549
   43       -2.618070
   44       -2.447123
   45       -2.299489
   46       -2.185559
   47       -2.055947
   48       -1.859671
   49       -1.684855
   50       -1.500629
   51       -1.455372
   52       -1.385551
   53       -0.974623
   54       -0.676961
   55        0.095947
   56        0.252476
   57        0.784099
   58        1.204745
   59        1.322286
   60        1.505095
   61        1.790476
   62        1.841261
   63        2.026093
   64        2.180947
   65        2.343325
   66        2.460419
   67        2.610868
   68        2.709613
 
  0.4615385E+00  0.2500000E+00  0.0000000E+00  0.1923077E-01
    1      -13.359707
    2      -11.779506
    3      -11.446744
    4      -11.415355
    5      -11.250721
    6      -11.033017
    7      -10.944209
    8      -10.850571
    9      -10.769277
   10      -10.686655
   11      -10.565956
   12      -10.318474
   13       -9.415451
   14       -8.939501
   15       -8.541070
   16       -8.386334
   17       -8.314294
   18       -7.856852
   19       -7.543904
   20       -7.501169
   21       -7.302234
   22       -7.214195
   23       -7.125772
   24       -6.547547
   25       -5.452770
   26       -5.009286
   27       -4.980726
   28       -4.538639
   29       -4.459184
   30       -4.319583
   31       -4.146351
   32       -4.113715
   33       -3.929621
   34       -3.903687
   35       -3.703316
   36       -3.647982
   37       -3.477962
   38       -3.343215
   39       -3.247872
   40       -3.129426
   41       -2.976033
   42       -2.797692
   43       -2.635820
   44       -2.590719
   45       -2.541525
   46       -2.179198
   47       -2.108789
   48       -1.869810
   49       -1.723993
   50       -1.659858
   51       -1.536754
   52       -1.356936
   53       -0.954387
   54       -0.688945
   55        0.022707
   56        0.216939
   57        0.673195
   58        1.358858
   59        1.431476
   60        1.522888
   61        1.574134
   62        1.794516
   63        1.841040
   64        2.099822
   65        2.255349
   66        2.444374
   67        2.485853
   68        2.522653
 
 -0.4615385E+00  0.2500000E+00  0.0000000E+00  0.1923077E-01
    1      -13.360758
    2      -11.773238
    3      -11.521194
    4      -11.438356
    5      -11.057848
    6      -11.025518
    7      -10.917820
    8      -10.808054
    9      -10.794344
   10      -10.741974
   11      -10.689061
   12      -10.305346
   13       -9.402417
   14       -8.956490
   15       -8.743233
   16       -8.419730
   17       -7.930458
   18       -7.861105
   19       -7.590912
   20       -7.555422
   21       -7.267225
   22       -7.220698
   23       -7.191017
   24       -6.486028
   25       -5.442977
   26       -4.920644
   27       -4.750694
   28       -4.677142
   29       -4.559955
   30       -4.359164
   31       -4.235416
   32       -4.006143
   33       -3.979941
   34       -3.871548
   35       -3.837143
   36       -3.740755
   37       -3.623372
   38       -3.436918
   39       -3.339606
   40       -3.108081
   41       -2.804456
   42       -2.726603
   43       -2.686064
   44       -2.595999
   45       -2.369156
   46       -2.155709
   47       -2.152636
   48       -1.917313
   49       -1.732909
   50       -1.645013
   51       -1.487742
   52       -1.290159
   53       -0.913685
   54       -0.630537
   55       -0.032158
   56        0.238461
   57        0.711878
   58        1.288887
   59        1.411636
   60        1.682132
   61        1.751077
   62        1.853104
   63        2.014895
   64        2.162817
   65        2.240130
   66        2.358407
   67        2.430983
   68        2.556637
 
 -0.3846154E+00  0.2500000E+00  0.0000000E+00  0.1923077E-01
    1      -13.711723
    2      -12.108714
    3      -12.085085
    4      -11.549057
    5      -11.471791
    6      -11.229758
    7      -11.052082
    8      -10.917220
    9      -10.625677
   10      -10.615813
   11      -10.437144
   12      -10.379583
   13       -9.209982
   14       -9.016439
   15       -8.728503
   16       -8.476807
   17       -7.674117
   18       -7.427213
   19       -7.316916
   20       -7.210599
   21       -6.997319
   22       -6.796652
   23       -6.652106
   24       -6.265709
   25       -5.469309
   26       -5.041294
   27       -5.016849
   28       -4.825477
   29       -4.675757
   30       -4.389925
   31       -4.266299
   32       -4.154970
   33       -4.086957
   34       -3.923244
   35       -3.716956
   36       -3.667517
   37       -3.405699
   38       -3.380808
   39       -3.193334
   40       -3.128371
   41       -2.763013
   42       -2.657579
   43       -2.511430
   44       -2.385422
   45       -2.238336
   46       -2.154496
   47       -1.934348
   48       -1.854579
   49       -1.704930
   50       -1.531655
   51       -1.391555
   52       -1.266679
   53       -0.889182
   54       -0.588831
   55        0.050164
   56        0.320695
   57        0.835139
   58        1.284952
   59        1.502993
   60        1.780909
   61        1.909857
   62        2.035293
   63        2.155244
   64        2.245932
   65        2.340972
   66        2.446405
   67        2.569818
   68        2.644952
 
 -0.3076923E+00  0.2500000E+00  0.0000000E+00  0.1923077E-01
    1      -14.137745
    2      -12.583133
    3      -12.527731
    4      -11.937608
    5      -11.929306
    6      -11.628800
    7      -11.231209
    8      -11.124042
    9      -10.760469
   10      -10.725959
   11      -10.408098
   12      -10.146657
   13       -9.151986
   14       -8.800729
   15       -8.541030
   16       -8.172912
   17       -7.412419
   18       -6.987932
   19       -6.920086
   20       -6.854856
   21       -6.484112
   22       -6.143719
   23       -5.959740
   24       -5.780481
   25       -5.366416
   26       -5.263123
   27       -5.123368
   28       -4.866882
   29       -4.631362
   30       -4.607812
   31       -4.303027
   32       -4.229172
   33       -4.207227
   34       -3.851495
   35       -3.566050
   36       -3.441560
   37       -3.248803
   38       -3.093804
   39       -3.045494
   40       -2.903127
   41       -2.755564
   42       -2.596683
   43       -2.528098
   44       -2.322692
   45       -2.019608
   46       -1.898930
   47       -1.851287
   48       -1.701559
   49       -1.591165
   50       -1.357482
   51       -1.255671
   52       -1.130204
   53       -0.833963
   54       -0.561364
   55        0.237923
   56        0.507828
   57        0.987664
   58        1.446293
   59        1.681175
   60        1.940325
   61        1.991101
   62        2.066558
   63        2.265400
   64        2.371656
   65        2.442279
   66        2.675664
   67        2.767227
   68        2.787796
 
 -0.2307692E+00  0.2500000E+00  0.0000000E+00  0.1923077E-01
    1      -14.512571
    2      -12.978135
    3      -12.902444
    4      -12.338759
    5      -12.274352
    6      -11.981024
    7      -11.526565
    8      -11.406969
    9      -11.016279
   10      -10.953324
   11      -10.586618
   12       -9.912009
   13       -9.166558
   14       -8.508495
   15       -8.384612
   16       -7.767550
   17       -7.132888
   18       -6.679124
   19       -6.626042
   20       -6.587285
   21       -5.928001
   22       -5.727529
   23       -5.527407
   24       -5.320922
   25       -5.217058
   26       -4.906811
   27       -4.800831
   28       -4.630010
   29       -4.582841
   30       -4.496108
   31       -4.171499
   32       -4.068126
   33       -3.771076
   34       -3.703532
   35       -3.441599
   36       -3.380967
   37       -3.077203
   38       -3.009212
   39       -2.974256
   40       -2.707896
   41       -2.598860
   42       -2.461637
   43       -2.397563
   44       -2.195077
   45       -1.885789
   46       -1.818909
   47       -1.734939
   48       -1.559953
   49       -1.447361
   50       -1.324795
   51       -1.066019
   52       -0.889494
   53       -0.694420
   54       -0.292293
   55        0.429205
   56        0.713060
   57        1.151320
   58        1.613738
   59        1.852251
   60        1.896288
   61        2.031814
   62        2.266694
   63        2.365719
   64        2.455512
   65        2.726387
   66        2.845602
   67        2.929748
   68        2.989747
 
 -0.1538462E+00  0.2500000E+00  0.0000000E+00  0.1923077E-01
    1      -14.794676
    2      -13.261956
    3      -13.187882
    4      -12.653781
    5      -12.523644
    6      -12.247645
    7      -11.746355
    8      -11.675326
    9      -11.248468
   10      -11.141107
   11      -10.789105
   12       -9.911462
   13       -9.179115
   14       -8.371163
   15       -8.359647
   16       -7.520940
   17       -6.815079
   18       -6.654314
   19       -6.539343
   20       -6.253351
   21       -5.739028
   22       -5.664348
   23       -5.447619
   24       -4.923452
   25       -4.827283
   26       -4.421871
   27       -4.320189
   28       -4.259964
   29       -4.143587
   30       -3.917979
   31       -3.707483
   32       -3.627076
   33       -3.398608
   34       -3.249421
   35       -3.181873
   36       -3.103873
   37       -2.947297
   38       -2.889425
   39       -2.739912
   40       -2.562331
   41       -2.491413
   42       -2.304878
   43       -2.170138
   44       -1.980540
   45       -1.858125
   46       -1.762958
   47       -1.611730
   48       -1.582375
   49       -1.273723
   50       -1.151023
   51       -0.972029
   52       -0.736946
   53       -0.606042
   54        0.112286
   55        0.527553
   56        0.904800
   57        1.117438
   58        1.399608
   59        1.728432
   60        1.826186
   61        2.207516
   62        2.433567
   63        2.544125
   64        2.678345
   65        2.791385
   66        2.898601
   67        2.991595
   68        3.107885
 
 -0.7692308E-01  0.2500000E+00  0.0000000E+00  0.1923077E-01
    1      -14.968044
    2      -13.427902
    3      -13.367858
    4      -12.864171
    5      -12.664748