<?xml version="1.0" encoding="ISO-8859-1"?>
<modeling>
 <generator>
  <i name="program" type="string">vasp </i>
  <i name="version" type="string">5.3.5  </i>
  <i name="subversion" type="string">31Mar14 (build Oct 29 2014 16:16:03) complex                          parallel </i>
  <i name="platform" type="string">Linux-UFHPC </i>
  <i name="date" type="string">2016 02 09 </i>
  <i name="time" type="string">17:25:17 </i>
 </generator>
 <incar>
  <i type="string" name="PREC">accurate</i>
  <i type="int" name="IBRION">     2</i>
  <i name="EDIFF">      0.00000100</i>
  <i type="int" name="NSW">     0</i>
  <i type="int" name="ISIF">     3</i>
  <i name="ENCUT">    300.00000000</i>
  <i type="string" name="LREAL"> Auto</i>
  <i type="int" name="ISMEAR">     0</i>
  <i name="SIGMA">      0.10000000</i>
  <i type="logical" name="LWAVE"> F  </i>
  <i type="logical" name="LCHARG"> F  </i>
  <i type="logical" name="LAECHG"> F  </i>
  <i type="string" name="GGA"> Bo</i>
  <i name="PARAM1">      0.18333333</i>
  <i name="PARAM2">      0.22000000</i>
  <i type="logical" name="LUSE_VDW"> T  </i>
  <i name="AGGAC">      0.00000000</i>
 </incar>
 <kpoints>
  <generation param="Gamma">
   <v type="int" name="divisions">      13        4        2 </v>
   <v name="usershift">      0.00000000       0.00000000       0.00000000 </v>
   <v name="genvec1">      0.07692308      -0.00000000       0.00000000 </v>
   <v name="genvec2">      0.00000000       0.25000000       0.00000000 </v>
   <v name="genvec3">      0.00000000       0.00000000       0.50000000 </v>
   <v name="shift">      0.00000000       0.00000000       0.00000000 </v>
  </generation>
  <varray name="kpointlist" >
   <v>       0.00000000       0.00000000       0.00000000 </v>
   <v>       0.07692308      -0.00000000       0.00000000 </v>
   <v>       0.15384615      -0.00000000       0.00000000 </v>
   <v>       0.23076923      -0.00000000       0.00000000 </v>
   <v>       0.30769231      -0.00000000       0.00000000 </v>
   <v>       0.38461538      -0.00000000       0.00000000 </v>
   <v>       0.46153846      -0.00000000       0.00000000 </v>
   <v>       0.00000000       0.25000000       0.00000000 </v>
   <v>       0.07692308       0.25000000       0.00000000 </v>
   <v>       0.15384615       0.25000000       0.00000000 </v>
   <v>       0.23076923       0.25000000       0.00000000 </v>
   <v>       0.30769231       0.25000000       0.00000000 </v>
   <v>       0.38461538       0.25000000       0.00000000 </v>
   <v>       0.46153846       0.25000000       0.00000000 </v>
   <v>      -0.46153846       0.25000000       0.00000000 </v>
   <v>      -0.38461538       0.25000000       0.00000000 </v>
   <v>      -0.30769231       0.25000000       0.00000000 </v>
   <v>      -0.23076923       0.25000000       0.00000000 </v>
   <v>      -0.15384615       0.25000000       0.00000000 </v>
   <v>      -0.07692308       0.25000000       0.00000000 </v>
   <v>       0.00000000       0.50000000       0.00000000 </v>
   <v>       0.07692308       0.50000000       0.00000000 </v>
   <v>       0.15384615       0.50000000       0.00000000 </v>
   <v>       0.23076923       0.50000000       0.00000000 </v>
   <v>       0.30769231       0.50000000       0.00000000 </v>
   <v>       0.38461538       0.50000000       0.00000000 </v>
   <v>       0.46153846       0.50000000       0.00000000 </v>
   <v>       0.00000000       0.00000000       0.50000000 </v>
   <v>       0.07692308      -0.00000000       0.50000000 </v>
   <v>       0.15384615      -0.00000000       0.50000000 </v>
   <v>       0.23076923      -0.00000000       0.50000000 </v>
   <v>       0.30769231      -0.00000000       0.50000000 </v>
   <v>       0.38461538      -0.00000000       0.50000000 </v>
   <v>       0.46153846      -0.00000000       0.50000000 </v>
   <v>       0.00000000       0.25000000       0.50000000 </v>
   <v>       0.07692308       0.25000000       0.50000000 </v>
   <v>       0.15384615       0.25000000       0.50000000 </v>
   <v>       0.23076923       0.25000000       0.50000000 </v>
   <v>       0.30769231       0.25000000       0.50000000 </v>
   <v>       0.38461538       0.25000000       0.50000000 </v>
   <v>       0.46153846       0.25000000       0.50000000 </v>
   <v>      -0.46153846       0.25000000       0.50000000 </v>
   <v>      -0.38461538       0.25000000       0.50000000 </v>
   <v>      -0.30769231       0.25000000       0.50000000 </v>
   <v>      -0.23076923       0.25000000       0.50000000 </v>
   <v>      -0.15384615       0.25000000       0.50000000 </v>
   <v>      -0.07692308       0.25000000       0.50000000 </v>
   <v>       0.00000000       0.50000000       0.50000000 </v>
   <v>       0.07692308       0.50000000       0.50000000 </v>
   <v>       0.15384615       0.50000000       0.50000000 </v>
   <v>       0.23076923       0.50000000       0.50000000 </v>
   <v>       0.30769231       0.50000000       0.50000000 </v>
   <v>       0.38461538       0.50000000       0.50000000 </v>
   <v>       0.46153846       0.50000000       0.50000000 </v>
  </varray>
  <varray name="weights" >
   <v>       0.00961538 </v>
   <v>       0.01923077 </v>
   <v>       0.01923077 </v>
   <v>       0.01923077 </v>
   <v>       0.01923077 </v>
   <v>       0.01923077 </v>
   <v>       0.01923077 </v>
   <v>       0.01923077 </v>
   <v>       0.01923077 </v>
   <v>       0.01923077 </v>
   <v>       0.01923077 </v>
   <v>       0.01923077 </v>
   <v>       0.01923077 </v>
   <v>       0.01923077 </v>
   <v>       0.01923077 </v>
   <v>       0.01923077 </v>
   <v>       0.01923077 </v>
   <v>       0.01923077 </v>
   <v>       0.01923077 </v>
   <v>       0.01923077 </v>
   <v>       0.00961538 </v>
   <v>       0.01923077 </v>
   <v>       0.01923077 </v>
   <v>       0.01923077 </v>
   <v>       0.01923077 </v>
   <v>       0.01923077 </v>
   <v>       0.01923077 </v>
   <v>       0.00961538 </v>
   <v>       0.01923077 </v>
   <v>       0.01923077 </v>
   <v>       0.01923077 </v>
   <v>       0.01923077 </v>
   <v>       0.01923077 </v>
   <v>       0.01923077 </v>
   <v>       0.01923077 </v>
   <v>       0.01923077 </v>
   <v>       0.01923077 </v>
   <v>       0.01923077 </v>
   <v>       0.01923077 </v>
   <v>       0.01923077 </v>
   <v>       0.01923077 </v>
   <v>       0.01923077 </v>
   <v>       0.01923077 </v>
   <v>       0.01923077 </v>
   <v>       0.01923077 </v>
   <v>       0.01923077 </v>
   <v>       0.01923077 </v>
   <v>       0.00961538 </v>
   <v>       0.01923077 </v>
   <v>       0.01923077 </v>
   <v>       0.01923077 </v>
   <v>       0.01923077 </v>
   <v>       0.01923077 </v>
   <v>       0.01923077 </v>
  </varray>
 </kpoints>
 <parameters>
  <separator name="general" >
   <i type="string" name="SYSTEM">unknown system</i>
   <i type="logical" name="LCOMPAT"> F  </i>
  </separator>
  <separator name="electronic" >
   <i type="string" name="PREC">accura</i>
   <i name="ENMAX">    300.00000000</i>
   <i name="ENAUG">    342.92400000</i>
   <i name="EDIFF">      0.00000100</i>
   <i type="int" name="IALGO">    38</i>
   <i type="int" name="IWAVPR">    10</i>
   <i type="int" name="NBANDS">    68</i>
   <i name="NELECT">    108.00000000</i>
   <i type="int" name="TURBO">     0</i>
   <i type="int" name="IRESTART">     0</i>
   <i type="int" name="NREBOOT">     0</i>
   <i type="int" name="NMIN">     0</i>
   <i name="EREF">      0.00000000</i>
   <separator name="electronic smearing" >
    <i type="int" name="ISMEAR">     0</i>
    <i name="SIGMA">      0.10000000</i>
    <i name="KSPACING">      0.50000000</i>
    <i type="logical" name="KGAMMA"> T  </i>
   </separator>
   <separator name="electronic projectors" >
    <i type="logical" name="LREAL"> T  </i>
    <v name="ROPT">     -0.00025000     -0.00025000</v>
    <i type="int" name="LMAXPAW">  -100</i>
    <i type="int" name="LMAXMIX">     2</i>
    <i type="logical" name="NLSPLINE"> F  </i>
   </separator>
   <separator name="electronic startup" >
    <i type="int" name="ISTART">     0</i>
    <i type="int" name="ICHARG">     2</i>
    <i type="int" name="INIWAV">     1</i>
   </separator>
   <separator name="electronic spin" >
    <i type="int" name="ISPIN">     1</i>
    <i type="logical" name="LNONCOLLINEAR"> F  </i>
    <v name="MAGMOM">      1.00000000      1.00000000      1.00000000      1.00000000      1.00000000      1.00000000      1.00000000      1.00000000      1.00000000      1.00000000      1.00000000      1.00000000      1.00000000      1.00000000      1.00000000      1.00000000      1.00000000      1.00000000      1.00000000      1.00000000
      1.00000000      1.00000000      1.00000000      1.00000000</v>
    <i name="NUPDOWN">     -1.00000000</i>
    <i type="logical" name="LSORBIT"> F  </i>
    <v name="SAXIS">      0.00000000      0.00000000      1.00000000</v>
    <i type="logical" name="LSPIRAL"> F  </i>
    <v name="QSPIRAL">      0.00000000      0.00000000      0.00000000</v>
    <i type="logical" name="LZEROZ"> F  </i>
   </separator>
   <separator name="electronic exchange-correlation" >
    <i type="logical" name="LASPH"> F  </i>
    <i type="logical" name="LMETAGGA"> F  </i>
   </separator>
   <separator name="electronic convergence" >
    <i type="int" name="NELM">    60</i>
    <i type="int" name="NELMDL">    -5</i>
    <i type="int" name="NELMIN">     2</i>
    <i name="ENINI">    300.00000000</i>
    <separator name="electronic convergence detail" >
     <i type="logical" name="LDIAG"> T  </i>
     <i type="logical" name="LSUBROT"> F  </i>
     <i name="WEIMIN">      0.00000000</i>
     <i name="EBREAK">      0.00000000</i>
     <i name="DEPER">      0.30000000</i>
     <i type="int" name="NRMM">     4</i>
     <i name="TIME">      0.40000000</i>
    </separator>
   </separator>
   <separator name="electronic mixer" >
    <i name="AMIX">      0.40000000</i>
    <i name="BMIX">      1.00000000</i>
    <i name="AMIN">      0.10000000</i>
    <i name="AMIX_MAG">      1.60000000</i>
    <i name="BMIX_MAG">      1.00000000</i>
    <separator name="electronic mixer details" >
     <i type="int" name="IMIX">     4</i>
     <i type="int" name="MAXMIX">   -45</i>
     <i name="WC">    100.00000000</i>
     <i type="int" name="INIMIX">     1</i>
     <i type="int" name="MIXPRE">     1</i>
     <i type="int" name="MREMOVE">     5</i>
    </separator>
   </separator>
   <separator name="electronic dipolcorrection" >
    <i type="logical" name="LDIPOL"> F  </i>
    <i type="logical" name="LMONO"> F  </i>
    <i type="int" name="IDIPOL">     0</i>
    <i name="EPSILON">      1.00000000</i>
    <v name="DIPOL">   -100.00000000   -100.00000000   -100.00000000</v>
    <i name="EFIELD">      0.00000000</i>
   </separator>
  </separator>
  <separator name="grids" >
   <i type="int" name="NGX">    20</i>
   <i type="int" name="NGY">    60</i>
   <i type="int" name="NGZ">   160</i>
   <i type="int" name="NGXF">    40</i>
   <i type="int" name="NGYF">   120</i>
   <i type="int" name="NGZF">   320</i>
   <i type="logical" name="ADDGRID"> F  </i>
  </separator>
  <separator name="ionic" >
   <i type="int" name="NSW">     0</i>
   <i type="int" name="IBRION">    -1</i>
   <i type="int" name="ISIF">     3</i>
   <i name="PSTRESS">      0.00000000</i>
   <i name="EDIFFG">      0.00001000</i>
   <i type="int" name="NFREE">     1</i>
   <i name="POTIM">      0.50000000</i>
   <i name="SMASS">     -3.00000000</i>
   <i name="SCALEE">      1.00000000</i>
  </separator>
  <separator name="ionic md" >
   <i name="TEBEG">      0.00010000</i>
   <i name="TEEND">      0.00010000</i>
   <i type="int" name="NBLOCK">     1</i>
   <i type="int" name="KBLOCK">     1</i>
   <i type="int" name="NPACO">   256</i>
   <i name="APACO">     16.00000000</i>
  </separator>
  <separator name="symmetry" >
   <i type="int" name="ISYM">     2</i>
   <i name="SYMPREC">      0.00001000</i>
  </separator>
  <separator name="dos" >
   <i type="logical" name="LORBIT"> F  </i>
   <v name="RWIGS">     -1.00000000     -1.00000000</v>
   <i type="int" name="NEDOS">   301</i>
   <i name="EMIN">     10.00000000</i>
   <i name="EMAX">    -10.00000000</i>
   <i name="EFERMI">      0.00000000</i>
  </separator>
  <separator name="writing" >
   <i type="int" name="NWRITE">     2</i>
   <i type="logical" name="LWAVE"> F  </i>
   <i type="logical" name="LCHARG"> F  </i>
   <i type="logical" name="LPARD"> F  </i>
   <i type="logical" name="LVTOT"> F  </i>
   <i type="logical" name="LVHAR"> F  </i>
   <i type="logical" name="LELF"> F  </i>
   <i type="logical" name="LOPTICS"> F  </i>
   <v name="STM">      0.00000000      0.00000000      0.00000000      0.00000000      0.00000000      0.00000000      0.00000000</v>
  </separator>
  <separator name="performance" >
   <i type="int" name="NPAR">     4</i>
   <i type="int" name="NSIM">     4</i>
   <i type="int" name="NBLK">    -1</i>
   <i type="logical" name="LPLANE"> T  </i>
   <i type="logical" name="LSCALAPACK"> T  </i>
   <i type="logical" name="LSCAAWARE"> F  </i>
   <i type="logical" name="LSCALU"> F  </i>
   <i type="logical" name="LASYNC"> F  </i>
   <i type="logical" name="LORBITALREAL"> F  </i>
  </separator>
  <separator name="miscellaneous" >
   <i type="int" name="IDIOT">     3</i>
   <i type="logical" name="LMUSIC"> F  </i>
   <v name="POMASS">     30.97400000     28.08500000</v>
   <v name="DARWINR">      0.00000000      0.00000000</v>
   <v name="DARWINV">      1.00000000      1.00000000</v>
   <i type="logical" name="LCORR"> T  </i>
  </separator>
  <i type="logical" name="GGA_COMPAT"> T  </i>
  <i type="logical" name="LBERRY"> F  </i>
  <i type="int" name="ICORELEVEL">     0</i>
  <i type="logical" name="LDAU"> F  </i>
  <i type="int" name="I_CONSTRAINED_M">     0</i>
  <separator name="electronic exchange-correlation" >
   <i type="string" name="GGA">BO</i>
   <i type="int" name="VOSKOWN">     0</i>
   <i type="logical" name="LHFCALC"> F  </i>
   <i type="string" name="PRECFOCK"></i>
   <i type="logical" name="LSYMGRAD"> F  </i>
   <i type="logical" name="LHFONE"> F  </i>
   <i type="logical" name="LRHFCALC"> F  </i>
   <i type="logical" name="LTHOMAS"> F  </i>
   <i type="logical" name="LMODELHF"> F  </i>
   <i name="ENCUT4O">     -1.00000000</i>
   <i type="int" name="EXXOEP">     0</i>
   <i type="int" name="FOURORBIT">     0</i>
   <i name="AEXX">      0.00000000</i>
   <i name="HFALPHA">      0.00000000</i>
   <i name="MCALPHA">      0.00000000</i>
   <i name="ALDAX">      1.00000000</i>
   <i name="AGGAX">      1.00000000</i>
   <i name="ALDAC">      1.00000000</i>
   <i name="AGGAC">      0.00000000</i>
   <i type="int" name="NKREDX">     1</i>
   <i type="int" name="NKREDY">     1</i>
   <i type="int" name="NKREDZ">     1</i>
   <i type="logical" name="SHIFTRED"> F  </i>
   <i type="logical" name="ODDONLY"> F  </i>
   <i type="logical" name="EVENONLY"> F  </i>
   <i type="int" name="LMAXFOCK">     0</i>
   <i type="int" name="NMAXFOCKAE">     0</i>
   <i type="logical" name="LFOCKAEDFT"> F  </i>
   <i name="HFSCREEN">      0.00000000</i>
   <i name="HFSCREENC">      0.00000000</i>
   <i type="int" name="NBANDSGWLOW">     0</i>
  </separator>
  <separator name="vdW DFT" >
   <i type="logical" name="LUSE_VDW"> T  </i>
   <i name="Zab_VDW">     -0.84910000</i>
   <i name="PARAM1">      0.18333333</i>
   <i name="PARAM2">      0.22000000</i>
   <i name="PARAM3">      0.00000000</i>
  </separator>
  <separator name="model GW" >
   <i type="int" name="MODEL_GW">     0</i>
   <i name="MODEL_EPS0">     25.05800243</i>
   <i name="MODEL_ALPHA">      1.00000000</i>
  </separator>
  <separator name="linear response parameters" >
   <i type="logical" name="LEPSILON"> F  </i>
   <i type="logical" name="LRPA"> F  </i>
   <i type="logical" name="LNABLA"> F  </i>
   <i type="logical" name="LVEL"> F  </i>
   <i type="int" name="KINTER">     0</i>
   <i name="CSHIFT">      0.10000000</i>
   <i name="OMEGAMAX">     -1.00000000</i>
   <i name="DEG_THRESHOLD">      0.00200000</i>
  </separator>
  <separator name="orbital magnetization" >
   <i type="logical" name="NUCIND"> F  </i>
   <v name="MAGPOS">      0.00000000      0.00000000      0.00000000</v>
   <i type="logical" name="LNICSALL"> T  </i>
   <i type="logical" name="ORBITALMAG"> F  </i>
   <i type="logical" name="LMAGBLOCH"> F  </i>
   <i type="logical" name="LCHIMAG"> F  </i>
   <i type="logical" name="LGAUGE"> T  </i>
   <i type="int" name="MAGATOM">     0</i>
   <v name="MAGDIPOL">      0.00000000      0.00000000      0.00000000</v>
   <v name="AVECCONST">      0.00000000      0.00000000      0.00000000</v>
  </separator>
  <separator name="response functions" >
   <i type="logical" name="LADDER"> F  </i>
   <i type="logical" name="LFXC"> F  </i>
   <i type="logical" name="LHARTREE"> T  </i>
   <i type="int" name="IBSE">     0</i>
   <i type="logical" name="LTCTE"> F  </i>
   <i type="logical" name="LTETE"> F  </i>
   <i type="logical" name="LTRIPLET"> F  </i>
   <i type="logical" name="LFXCEPS"> F  </i>
   <i type="logical" name="LFXHEG"> F  </i>
   <i type="logical" name="L2ORDER"> F  </i>
   <i type="logical" name="LUSEW"> F  </i>
   <i name="ENCUTGW">     -2.00000000</i>
   <i name="ENCUTGWSOFT">     -2.00000000</i>
   <i name="ENCUTLF">     -1.00000000</i>
   <i type="int" name="LMAXMP2">    -1</i>
   <i name="SCISSOR">      0.00000000</i>
   <i type="int" name="NOMEGA">     0</i>
   <i type="int" name="NOMEGAR">     0</i>
   <i type="int" name="NBANDSGW">    -1</i>
   <i type="int" name="NBANDSO">    -1</i>
   <i type="int" name="NBANDSV">    -1</i>
   <i type="int" name="NELM">     1</i>
   <i type="int" name="DIM">     3</i>
   <i type="int" name="ANTIRES">     0</i>
   <i name="OMEGAMAX">    -30.00000000</i>
   <i name="OMEGAMIN">    -30.00000000</i>
   <i name="OMEGATL">   -200.00000000</i>
   <i type="int" name="OMEGAGRID">     0</i>
   <i name="CSHIFT">     -0.10000000</i>
   <i type="logical" name="SELFENERGY"> F  </i>
   <i type="logical" name="LSPECTRAL"> F  </i>
   <i type="logical" name="ODDONLYGW"> F  </i>
   <i type="logical" name="EVENONLYGW"> F  </i>
   <i type="int" name="NKREDLFX">     1</i>
   <i type="int" name="NKREDLFY">     1</i>
   <i type="int" name="NKREDLFZ">     1</i>
   <i type="int" name="MAXMEM">  1800</i>
   <i type="int" name="TELESCOPE">     0</i>
   <i type="int" name="TAUPAR">     1</i>
  </separator>
  <separator name="External order field" >
   <i name="OFIELD_KAPPA">      0.00000000</i>
   <v name="OFIELD_K">      0.00000000      0.00000000      0.00000000</v>
   <i name="OFIELD_Q6_NEAR">      0.00000000</i>
   <i name="OFIELD_Q6_FAR">      0.00000000</i>
   <i name="OFIELD_A">      0.00000000</i>
  </separator>
 </parameters>
 <atominfo>
  <atoms>      24 </atoms>
  <types>       2 </types>
  <array name="atoms" >
   <dimension dim="1">ion</dimension>
   <field type="string">element</field>
   <field type="int">atomtype</field>
   <set>
    <rc><c>P </c><c>   1</c></rc>
    <rc><c>P </c><c>   1</c></rc>
    <rc><c>P </c><c>   1</c></rc>
    <rc><c>P </c><c>   1</c></rc>
    <rc><c>P </c><c>   1</c></rc>
    <rc><c>P </c><c>   1</c></rc>
    <rc><c>P </c><c>   1</c></rc>
    <rc><c>P </c><c>   1</c></rc>
    <rc><c>P </c><c>   1</c></rc>
    <rc><c>P </c><c>   1</c></rc>
    <rc><c>P </c><c>   1</c></rc>
    <rc><c>P </c><c>   1</c></rc>
    <rc><c>Si</c><c>   2</c></rc>
    <rc><c>Si</c><c>   2</c></rc>
    <rc><c>Si</c><c>   2</c></rc>
    <rc><c>Si</c><c>   2</c></rc>
    <rc><c>Si</c><c>   2</c></rc>
    <rc><c>Si</c><c>   2</c></rc>
    <rc><c>Si</c><c>   2</c></rc>
    <rc><c>Si</c><c>   2</c></rc>
    <rc><c>Si</c><c>   2</c></rc>
    <rc><c>Si</c><c>   2</c></rc>
    <rc><c>Si</c><c>   2</c></rc>
    <rc><c>Si</c><c>   2</c></rc>
   </set>
  </array>
  <array name="atomtypes" >
   <dimension dim="1">type</dimension>
   <field type="int">atomspertype</field>
   <field type="string">element</field>
   <field>mass</field>
   <field>valence</field>
   <field type="string">pseudopotential</field>
   <set>
    <rc><c>  12</c><c>P </c><c>     30.97400000</c><c>      5.00000000</c><c>  PAW_PBE P 17Jan2003                   </c></rc>
    <rc><c>  12</c><c>Si</c><c>     28.08500000</c><c>      4.00000000</c><c> PAW_PBE Si 05Jan2001                   </c></rc>
   </set>
  </array>
 </atominfo>
 <structure name="initialpos" >
  <crystal>
   <varray name="basis" >
    <v>       3.54040000       0.00000000       0.00000000 </v>
    <v>      -1.77020000      10.29434800       0.00000000 </v>
    <v>       0.00000000       0.00000000      27.50142900 </v>
   </varray>
   <i name="volume">   1002.32009712 </i>
   <varray name="rec_basis" >
    <v>       0.28245396       0.04857034       0.00000000 </v>
    <v>       0.00000000       0.09714068       0.00000000 </v>
    <v>       0.00000000       0.00000000       0.03636175 </v>
   </varray>
  </crystal>
  <varray name="positions" >
   <v>       0.11402300       0.22804500       0.23316207 </v>
   <v>       0.21402300       0.92804500       0.51499159 </v>
   <v>       0.45808900       0.91617900       0.20939482 </v>
   <v>       0.55808900       0.61617900       0.49122434 </v>
   <v>       0.31085400       0.62170900       0.08414979 </v>
   <v>       0.31085400       0.62170900       0.36597930 </v>
   <v>       0.99923000       0.99846000       0.08631254 </v>
   <v>       0.99923000       0.99846000       0.36814206 </v>
   <v>       0.65492700       0.30985400       0.06041748 </v>
   <v>       0.65492700       0.30985400       0.34224700 </v>
   <v>       0.76973800       0.53947500       0.20725292 </v>
   <v>       0.86973800       0.23947500       0.48908244 </v>
   <v>       0.93971600       0.87943300       0.15783749 </v>
   <v>       0.03971600       0.57943300       0.43966701 </v>
   <v>       0.20515200       0.41030300       0.18578822 </v>
   <v>       0.30515200       0.11030300       0.46761774 </v>
   <v>       0.20184900       0.40369900       0.09969156 </v>
   <v>       0.20184900       0.40369900       0.38152107 </v>
   <v>       0.56380500       0.12761000       0.10779021 </v>
   <v>       0.56380500       0.12761000       0.38961973 </v>
   <v>       0.56710600       0.13421200       0.19387616 </v>
   <v>       0.66710600       0.83421200       0.47570568 </v>
   <v>       0.82923400       0.65846800       0.13571444 </v>
   <v>       0.92923400       0.35846800       0.41754396 </v>
  </varray>
 </structure>
 <calculation>
  <scstep>
   <time name="dav">   78.30   78.32</time>
   <time name="total">   94.90   94.93</time>
   <energy>
    <i name="alphaZ">     36.80884744 </i>
    <i name="ewald">  12013.77968243 </i>
    <i name="hartreedc"> -15036.07152996 </i>
    <i name="XCdc">    -87.28207673 </i>
    <i name="pawpsdc">   1056.43050070 </i>
    <i name="pawaedc">   -732.41190547 </i>
    <i name="eentropy">     -0.04438550 </i>
    <i name="bandstr">    -93.60166360 </i>
    <i name="atom">   3354.04126044 </i>
    <i name="e_fr_energy">    511.64872977 </i>
    <i name="e_wo_entrp">    511.69311527 </i>
    <i name="e_0_energy">    511.67092252 </i>
   </energy>
  </scstep>
  <scstep>
   <time name="dav">   96.38   96.40</time>
   <time name="total">   96.39   96.41</time>
   <energy>
    <i name="e_fr_energy">    -54.19450195 </i>
    <i name="e_wo_entrp">    -54.17574687 </i>
    <i name="e_0_energy">    -54.18512441 </i>
   </energy>
  </scstep>
  <scstep>
   <time name="dav">   90.43   90.45</time>
   <time name="total">   90.44   90.46</time>
   <energy>
    <i name="e_fr_energy">   -112.10139598 </i>
    <i name="e_wo_entrp">   -112.08206070 </i>
    <i name="e_0_energy">   -112.09172834 </i>
   </energy>
  </scstep>
  <scstep>
   <time name="dav">  113.89  113.92</time>
   <time name="total">  113.91  113.93</time>
   <energy>
    <i name="e_fr_energy">   -114.92465175 </i>
    <i name="e_wo_entrp">   -114.89908429 </i>
    <i name="e_0_energy">   -114.91186802 </i>
   </energy>
  </scstep>
  <scstep>
   <time name="dav">   98.47   98.50</time>
   <time name="total">  103.22  103.24</time>
   <energy>
    <i name="e_fr_energy">   -114.97168225 </i>
    <i name="e_wo_entrp">   -114.94580922 </i>
    <i name="e_0_energy">   -114.95874573 </i>
   </energy>
  </scstep>
  <scstep>
   <time name="dav">   90.44   90.46</time>
   <time name="total">  109.93  109.95</time>
   <energy>
    <i name="e_fr_energy">   -110.70440683 </i>
    <i name="e_wo_entrp">   -110.68387159 </i>
    <i name="e_0_energy">   -110.69413921 </i>
   </energy>
  </scstep>
  <scstep>
   <time name="dav">   91.79   91.81</time>
   <time name="total">  111.48  111.50</time>
   <energy>
    <i name="e_fr_energy">   -110.82765476 </i>
    <i name="e_wo_entrp">   -110.81435690 </i>
    <i name="e_0_energy">   -110.82100583 </i>
   </energy>
  </scstep>
  <scstep>
   <time name="dav">   90.20   90.22</time>
   <time name="total">  110.12  110.14</time>
   <energy>
    <i name="e_fr_energy">   -110.66846149 </i>
    <i name="e_wo_entrp">   -110.64245800 </i>
    <i name="e_0_energy">   -110.65545975 </i>
   </energy>
  </scstep>
  <scstep>
   <time name="dav">   91.23   91.25</time>
   <time name="total">  111.21  111.23</time>
   <energy>
    <i name="e_fr_energy">   -110.65467304 </i>
    <i name="e_wo_entrp">   -110.62584346 </i>
    <i name="e_0_energy">   -110.64025825 </i>
   </energy>
  </scstep>
  <scstep>
   <time name="dav">   93.22   93.24</time>
   <time name="total">  113.21  113.23</time>
   <energy>
    <i name="e_fr_energy">   -110.66240826 </i>
    <i name="e_wo_entrp">   -110.63464245 </i>
    <i name="e_0_energy">   -110.64852536 </i>
   </energy>
  </scstep>
  <scstep>
   <time name="dav">   95.77   95.79</time>
   <time name="total">  115.63  115.66</time>
   <energy>
    <i name="e_fr_energy">   -110.65087245 </i>
    <i name="e_wo_entrp">   -110.62265710 </i>
    <i name="e_0_energy">   -110.63676477 </i>
   </energy>
  </scstep>
  <scstep>
   <time name="dav">   97.32   97.34</time>
   <time name="total">  117.16  117.18</time>
   <energy>
    <i name="e_fr_energy">   -110.64323078 </i>
    <i name="e_wo_entrp">   -110.61525301 </i>
    <i name="e_0_energy">   -110.62924189 </i>
   </energy>
  </scstep>
  <scstep>
   <time name="dav">   91.41   91.43</time>
   <time name="total">  111.42  111.44</time>
   <energy>
    <i name="e_fr_energy">   -110.63924859 </i>
    <i name="e_wo_entrp">   -110.61103757 </i>
    <i name="e_0_energy">   -110.62514308 </i>
   </energy>
  </scstep>
  <scstep>
   <time name="dav">   94.89   94.91</time>
   <time name="total">  114.95  114.98</time>
   <energy>
    <i name="e_fr_energy">   -110.63700389 </i>
    <i name="e_wo_entrp">   -110.60888156 </i>
    <i name="e_0_energy">   -110.62294272 </i>
   </energy>
  </scstep>
  <scstep>
   <time name="dav">  101.75  101.78</time>
   <time name="total">  121.59  121.62</time>
   <energy>
    <i name="e_fr_energy">   -110.63548633 </i>
    <i name="e_wo_entrp">   -110.60731861 </i>
    <i name="e_0_energy">   -110.62140247 </i>
   </energy>
  </scstep>
  <scstep>
   <time name="dav">   90.27   90.29</time>
   <time name="total">  110.29  110.31</time>
   <energy>
    <i name="e_fr_energy">   -110.63561640 </i>
    <i name="e_wo_entrp">   -110.60745702 </i>
    <i name="e_0_energy">   -110.62153671 </i>
   </energy>
  </scstep>
  <scstep>
   <time name="dav">   88.08   88.10</time>
   <time name="total">  108.18  108.21</time>
   <energy>
    <i name="e_fr_energy">   -110.63605913 </i>
    <i name="e_wo_entrp">   -110.60789306 </i>
    <i name="e_0_energy">   -110.62197609 </i>
   </energy>
  </scstep>
  <scstep>
   <time name="dav">   84.46   84.47</time>
   <time name="total">  104.27  104.29</time>
   <energy>
    <i name="e_fr_energy">   -110.63649629 </i>
    <i name="e_wo_entrp">   -110.60833530 </i>
    <i name="e_0_energy">   -110.62241580 </i>
   </energy>
  </scstep>
  <scstep>
   <time name="dav">   80.05   80.07</time>
   <time name="total">   99.45   99.47</time>
   <energy>
    <i name="e_fr_energy">   -110.63658160 </i>
    <i name="e_wo_entrp">   -110.60841826 </i>
    <i name="e_0_energy">   -110.62249993 </i>
   </energy>
  </scstep>
  <scstep>
   <time name="dav">   62.21   62.23</time>
   <time name="total">   81.16   81.17</time>
   <energy>
    <i name="e_fr_energy">   -110.63655574 </i>
    <i name="e_wo_entrp">   -110.60840055 </i>
    <i name="e_0_energy">   -110.62247814 </i>
   </energy>
  </scstep>
  <scstep>
   <time name="dav">   63.23   63.24</time>
   <time name="total">   82.11   82.13</time>
   <energy>
    <i name="e_fr_energy">   -110.63653862 </i>
    <i name="e_wo_entrp">   -110.60837943 </i>
    <i name="e_0_energy">   -110.62245903 </i>
   </energy>
  </scstep>
  <scstep>
   <time name="dav">   58.99   59.01</time>
   <time name="total">   78.34   78.35</time>
   <energy>
    <i name="e_fr_energy">   -110.63651565 </i>
    <i name="e_wo_entrp">   -110.60835796 </i>
    <i name="e_0_energy">   -110.62243681 </i>
   </energy>
  </scstep>
  <scstep>
   <time name="dav">   65.11   65.13</time>
   <time name="total">   84.67   84.69</time>
   <energy>
    <i name="e_fr_energy">   -110.63647960 </i>
    <i name="e_wo_entrp">   -110.60832218 </i>
    <i name="e_0_energy">   -110.62240089 </i>
   </energy>
  </scstep>
  <scstep>
   <time name="dav">   65.06   65.08</time>
   <time name="total">   84.68   84.70</time>
   <energy>
    <i name="e_fr_energy">   -110.63642919 </i>
    <i name="e_wo_entrp">   -110.60827131 </i>
    <i name="e_0_energy">   -110.62235025 </i>
   </energy>
  </scstep>
  <scstep>
   <time name="dav">   62.09   62.10</time>
   <time name="total">   81.12   81.14</time>
   <energy>
    <i name="e_fr_energy">   -110.63641126 </i>
    <i name="e_wo_entrp">   -110.60825316 </i>
    <i name="e_0_energy">   -110.62233221 </i>
   </energy>
  </scstep>
  <scstep>
   <time name="dav">   61.87   61.88</time>
   <time name="total">   81.17   81.19</time>
   <energy>
    <i name="e_fr_energy">   -110.63640266 </i>
    <i name="e_wo_entrp">   -110.60824446 </i>
    <i name="e_0_energy">   -110.62232356 </i>
   </energy>
  </scstep>
  <scstep>
   <time name="dav">   55.76   55.77</time>
   <time name="total">   75.26   75.28</time>
   <energy>
    <i name="e_fr_energy">   -110.63639897 </i>
    <i name="e_wo_entrp">   -110.60824075 </i>
    <i name="e_0_energy">   -110.62231986 </i>
   </energy>
  </scstep>
  <scstep>
   <time name="dav">   56.02   56.04</time>
   <time name="total">   71.38   71.40</time>
   <energy>
    <i name="alphaZ">     36.80884744 </i>
    <i name="ewald">  12013.77968243 </i>
    <i name="hartreedc"> -15135.86401645 </i>
    <i name="XCdc">    -79.28622530 </i>
    <i name="pawpsdc">   1186.07687457 </i>
    <i name="pawaedc">   -865.98262571 </i>
    <i name="eentropy">     -0.02815823 </i>
    <i name="bandstr">   -620.18203822 </i>
    <i name="atom">   3354.04126044 </i>
    <i name="e_fr_energy">   -110.63639901 </i>
    <i name="e_wo_entrp">   -110.60824078 </i>
    <i name="e_0_energy">   -110.62231990 </i>
   </energy>
  </scstep>
  <structure>
   <crystal>
    <varray name="basis" >
     <v>       3.54040000       0.00000000       0.00000000 </v>
     <v>      -1.77020000      10.29434800       0.00000000 </v>
     <v>       0.00000000       0.00000000      27.50142900 </v>
    </varray>
    <i name="volume">   1002.32009712 </i>
    <varray name="rec_basis" >
     <v>       0.28245396       0.04857034       0.00000000 </v>
     <v>       0.00000000       0.09714068       0.00000000 </v>
     <v>       0.00000000       0.00000000       0.03636175 </v>
    </varray>
   </crystal>
   <varray name="positions" >
    <v>       0.11402300       0.22804500       0.23316207 </v>
    <v>       0.21402300       0.92804500       0.51499159 </v>
    <v>       0.45808900       0.91617900       0.20939482 </v>
    <v>       0.55808900       0.61617900       0.49122434 </v>
    <v>       0.31085400       0.62170900       0.08414979 </v>
    <v>       0.31085400       0.62170900       0.36597930 </v>
    <v>       0.99923000       0.99846000       0.08631254 </v>
    <v>       0.99923000       0.99846000       0.36814206 </v>
    <v>       0.65492700       0.30985400       0.06041748 </v>
    <v>       0.65492700       0.30985400       0.34224700 </v>
    <v>       0.76973800       0.53947500       0.20725292 </v>
    <v>       0.86973800       0.23947500       0.48908244 </v>
    <v>       0.93971600       0.87943300       0.15783749 </v>
    <v>       0.03971600       0.57943300       0.43966701 </v>
    <v>       0.20515200       0.41030300       0.18578822 </v>
    <v>       0.30515200       0.11030300       0.46761774 </v>
    <v>       0.20184900       0.40369900       0.09969156 </v>
    <v>       0.20184900       0.40369900       0.38152107 </v>
    <v>       0.56380500       0.12761000       0.10779021 </v>
    <v>       0.56380500       0.12761000       0.38961973 </v>
    <v>       0.56710600       0.13421200       0.19387616 </v>
    <v>       0.66710600       0.83421200       0.47570568 </v>
    <v>       0.82923400       0.65846800       0.13571444 </v>
    <v>       0.92923400       0.35846800       0.41754396 </v>
   </varray>
  </structure>
  <varray name="forces" >
   <v>       0.07922989      -0.01657750       0.00812692 </v>
   <v>       0.10726465       0.10226080      -0.09851717 </v>
   <v>       0.00003131      -0.01694295       0.11396146 </v>
   <v>       0.20567589      -0.06085016       0.43803981 </v>
   <v>      -0.00007050      -0.01061474       0.01290684 </v>
   <v>      -0.16518354      -0.12563232      -0.33863192 </v>
   <v>       0.00441735       0.01737621       0.00450297 </v>
   <v>      -0.72202227       0.09054716       0.08885364 </v>
   <v>       0.00132881      -0.00080487       0.00385500 </v>
   <v>      -0.05081335      -0.26253472      -0.22003801 </v>
   <v>      -0.00219252       0.00215439       0.10808237 </v>
   <v>       0.35314859       0.52261554       0.45131657 </v>
   <v>       0.00280260       0.00994842       0.01557979 </v>
   <v>      -0.15673416       0.68545950      -0.30219083 </v>
   <v>       0.00314037       0.05850279      -0.00045776 </v>
   <v>      -0.10295672       0.03247865       0.67744791 </v>
   <v>      -0.00420079      -0.01257716      -0.02254210 </v>
   <v>      38.02934051      21.56280003     -42.59043623 </v>
   <v>       0.00649330       0.01448704      -0.04526855 </v>
   <v>      -0.35305043      -2.57922583      -1.43964699 </v>
   <v>      -0.01326030      -0.09582124       0.04683492 </v>
   <v>       0.09262587       0.36207368      -0.50959531 </v>
   <v>       0.00141820       0.00973569      -0.00227449 </v>
   <v>     -37.31643276     -20.28885841      43.60009116 </v>
  </varray>
  <varray name="stress" >
   <v>      58.67190030      29.80789415     -56.30495748 </v>
   <v>      29.80789414      19.12989371     -26.19432628 </v>
   <v>     -56.30495750     -26.19432627      69.02351833 </v>
  </varray>
  <energy>
   <i name="e_fr_energy">   -110.63639901 </i>
   <i name="e_wo_entrp">   -110.62231990 </i>
   <i name="e_0_energy">     -0.02815823 </i>
  </energy>
  <time name="totalsc"> 2902.25 2902.90</time>
  <eigenvalues>
   <array>
    <dimension dim="1">band</dimension>
    <dimension dim="2">kpoint</dimension>
    <dimension dim="3">spin</dimension>
    <field>eigene</field>
    <field>occ</field>
    <set>
     <set comment="spin 1">
      <set comment="kpoint 1">
       <r>  -14.8372    1.0000 </r>
       <r>  -13.7207    1.0000 </r>
       <r>  -12.9743    1.0000 </r>
       <r>  -12.8060    1.0000 </r>
       <r>  -12.6737    1.0000 </r>
       <r>  -12.5355    1.0000 </r>
       <r>  -12.2652    1.0000 </r>
       <r>  -11.6207    1.0000 </r>
       <r>  -11.5973    1.0000 </r>
       <r>  -11.1659    1.0000 </r>
       <r>  -11.1124    1.0000 </r>
       <r>  -10.4452    1.0000 </r>
       <r>   -8.9850    1.0000 </r>
       <r>   -8.2096    1.0000 </r>
       <r>   -8.0110    1.0000 </r>
       <r>   -7.0758    1.0000 </r>
       <r>   -6.9766    1.0000 </r>
       <r>   -6.9145    1.0000 </r>
       <r>   -6.6727    1.0000 </r>
       <r>   -6.3863    1.0000 </r>
       <r>   -5.9904    1.0000 </r>
       <r>   -5.2543    1.0000 </r>
       <r>   -4.9362    1.0000 </r>
       <r>   -4.7788    1.0000 </r>
       <r>   -4.2603    1.0000 </r>
       <r>   -3.9530    1.0000 </r>
       <r>   -3.8495    1.0000 </r>
       <r>   -3.8218    1.0000 </r>
       <r>   -3.4316    1.0000 </r>
       <r>   -3.2911    1.0000 </r>
       <r>   -3.2415    1.0000 </r>
       <r>   -3.0140    1.0000 </r>
       <r>   -2.9083    1.0000 </r>
       <r>   -2.6324    1.0000 </r>
       <r>   -2.6153    1.0000 </r>
       <r>   -2.5823    1.0000 </r>
       <r>   -2.5251    1.0000 </r>
       <r>   -2.2317    1.0000 </r>
       <r>   -2.1033    1.0000 </r>
       <r>   -2.0365    1.0000 </r>
       <r>   -1.9365    1.0000 </r>
       <r>   -1.9019    1.0000 </r>
       <r>   -1.8244    1.0000 </r>
       <r>   -1.8012    1.0000 </r>
       <r>   -1.7382    1.0000 </r>
       <r>   -1.6094    1.0000 </r>
       <r>   -1.5399    1.0000 </r>
       <r>   -1.4041    1.0000 </r>
       <r>   -1.3878    1.0000 </r>
       <r>   -1.2260    1.0000 </r>
       <r>   -1.1019    1.0000 </r>
       <r>   -0.7161    1.0000 </r>
       <r>    0.4171    0.7014 </r>
       <r>    0.5639    0.0608 </r>
       <r>    0.6604    0.0018 </r>
       <r>    0.8716    0.0000 </r>
       <r>    1.0302    0.0000 </r>
       <r>    1.1460    0.0000 </r>
       <r>    1.3545    0.0000 </r>
       <r>    1.5451    0.0000 </r>
       <r>    1.6458    0.0000 </r>
       <r>    1.8048    0.0000 </r>
       <r>    1.9473    0.0000 </r>
       <r>    1.9936    0.0000 </r>
       <r>    2.2109    0.0000 </r>
       <r>    2.2490    0.0000 </r>
       <r>    2.3279    0.0000 </r>
       <r>    2.5085    0.0000 </r>
      </set>
      <set comment="kpoint 2">
       <r>  -14.7825    1.0000 </r>
       <r>  -13.6594    1.0000 </r>
       <r>  -12.9221    1.0000 </r>
       <r>  -12.7512    1.0000 </r>
       <r>  -12.6184    1.0000 </r>
       <r>  -12.4773    1.0000 </r>
       <r>  -12.2029    1.0000 </r>
       <r>  -11.5728    1.0000 </r>
       <r>  -11.5498    1.0000 </r>
       <r>  -11.1176    1.0000 </r>
       <r>  -11.0594    1.0000 </r>
       <r>  -10.4160    1.0000 </r>
       <r>   -8.9595    1.0000 </r>
       <r>   -8.2470    1.0000 </r>
       <r>   -7.9739    1.0000 </r>
       <r>   -7.0683    1.0000 </r>
       <r>   -6.9586    1.0000 </r>
       <r>   -6.8789    1.0000 </r>
       <r>   -6.6670    1.0000 </r>
       <r>   -6.4024    1.0000 </r>
       <r>   -5.9588    1.0000 </r>
       <r>   -5.2769    1.0000 </r>
       <r>   -4.9899    1.0000 </r>
       <r>   -4.8728    1.0000 </r>
       <r>   -4.3312    1.0000 </r>
       <r>   -4.1976    1.0000 </r>
       <r>   -3.9271    1.0000 </r>
       <r>   -3.8351    1.0000 </r>
       <r>   -3.6507    1.0000 </r>
       <r>   -3.4746    1.0000 </r>
       <r>   -3.4226    1.0000 </r>
       <r>   -3.3172    1.0000 </r>
       <r>   -3.0381    1.0000 </r>
       <r>   -2.9365    1.0000 </r>
       <r>   -2.8242    1.0000 </r>
       <r>   -2.6531    1.0000 </r>
       <r>   -2.6085    1.0000 </r>
       <r>   -2.3780    1.0000 </r>
       <r>   -2.2627    1.0000 </r>
       <r>   -2.2089    1.0000 </r>
       <r>   -2.1343    1.0000 </r>
       <r>   -2.0942    1.0000 </r>
       <r>   -2.0063    1.0000 </r>
       <r>   -1.9100    1.0000 </r>
       <r>   -1.8049    1.0000 </r>
       <r>   -1.7020    1.0000 </r>
       <r>   -1.6647    1.0000 </r>
       <r>   -1.4848    1.0000 </r>
       <r>   -1.3879    1.0000 </r>
       <r>   -1.2318    1.0000 </r>
       <r>   -1.0528    1.0000 </r>
       <r>   -0.7510    1.0000 </r>
       <r>    0.4062    0.7523 </r>
       <r>    0.4588    0.4755 </r>
       <r>    0.7462    0.0000 </r>
       <r>    0.9762    0.0000 </r>
       <r>    1.3448    0.0000 </r>
       <r>    1.4497    0.0000 </r>
       <r>    1.5948    0.0000 </r>
       <r>    1.8083    0.0000 </r>
       <r>    1.9669    0.0000 </r>
       <r>    2.0598    0.0000 </r>
       <r>    2.1084    0.0000 </r>
       <r>    2.2258    0.0000 </r>
       <r>    2.2613    0.0000 </r>
       <r>    2.4311    0.0000 </r>
       <r>    2.5046    0.0000 </r>
       <r>    2.5941    0.0000 </r>
      </set>
      <set comment="kpoint 3">
       <r>  -14.6207    1.0000 </r>
       <r>  -13.4764    1.0000 </r>
       <r>  -12.7663    1.0000 </r>
       <r>  -12.5885    1.0000 </r>
       <r>  -12.4544    1.0000 </r>
       <r>  -12.3063    1.0000 </r>
       <r>  -12.0203    1.0000 </r>
       <r>  -11.4350    1.0000 </r>
       <r>  -11.4115    1.0000 </r>
       <r>  -10.9790    1.0000 </r>
       <r>  -10.9072    1.0000 </r>
       <r>  -10.3360    1.0000 </r>
       <r>   -8.8976    1.0000 </r>
       <r>   -8.3444    1.0000 </r>
       <r>   -7.9322    1.0000 </r>
       <r>   -7.1045    1.0000 </r>
       <r>   -6.9021    1.0000 </r>
       <r>   -6.8144    1.0000 </r>
       <r>   -6.6795    1.0000 </r>
       <r>   -6.5226    1.0000 </r>
       <r>   -5.8912    1.0000 </r>
       <r>   -5.6190    1.0000 </r>
       <r>   -5.2257    1.0000 </r>
       <r>   -5.0285    1.0000 </r>
       <r>   -4.4991    1.0000 </r>
       <r>   -4.3886    1.0000 </r>
       <r>   -4.2760    1.0000 </r>
       <r>   -4.2281    1.0000 </r>
       <r>   -4.1336    1.0000 </r>
       <r>   -3.9210    1.0000 </r>
       <r>   -3.8101    1.0000 </r>
       <r>   -3.7009    1.0000 </r>
       <r>   -3.4687    1.0000 </r>
       <r>   -3.2968    1.0000 </r>
       <r>   -3.1486    1.0000 </r>
       <r>   -3.1081    1.0000 </r>
       <r>   -3.0184    1.0000 </r>
       <r>   -2.9004    1.0000 </r>
       <r>   -2.7580    1.0000 </r>
       <r>   -2.5668    1.0000 </r>
       <r>   -2.5111    1.0000 </r>
       <r>   -2.3272    1.0000 </r>
       <r>   -2.1357    1.0000 </r>
       <r>   -1.9837    1.0000 </r>
       <r>   -1.9112    1.0000 </r>
       <r>   -1.8331    1.0000 </r>
       <r>   -1.7272    1.0000 </r>
       <r>   -1.5361    1.0000 </r>
       <r>   -1.4115    1.0000 </r>
       <r>   -1.1985    1.0000 </r>
       <r>   -1.0537    1.0000 </r>
       <r>   -0.8319    1.0000 </r>
       <r>    0.1608    1.0000 </r>
       <r>    0.2758    0.9942 </r>
       <r>    0.8636    0.0000 </r>
       <r>    1.0938    0.0000 </r>
       <r>    1.5439    0.0000 </r>
       <r>    1.6398    0.0000 </r>
       <r>    1.8633    0.0000 </r>
       <r>    2.0924    0.0000 </r>
       <r>    2.2696    0.0000 </r>
       <r>    2.3789    0.0000 </r>
       <r>    2.5027    0.0000 </r>
       <r>    2.5259    0.0000 </r>
       <r>    2.7487    0.0000 </r>
       <r>    2.8197    0.0000 </r>
       <r>    2.8891    0.0000 </r>
       <r>    2.9251    0.0000 </r>
      </set>
      <set comment="kpoint 4">
       <r>  -14.3604    1.0000 </r>
       <r>  -13.1754    1.0000 </r>
       <r>  -12.5099    1.0000 </r>
       <r>  -12.3245    1.0000 </r>
       <r>  -12.1889    1.0000 </r>
       <r>  -12.0354    1.0000 </r>
       <r>  -11.7323    1.0000 </r>
       <r>  -11.2306    1.0000 </r>
       <r>  -11.1979    1.0000 </r>
       <r>  -10.7763    1.0000 </r>
       <r>  -10.6886    1.0000 </r>
       <r>  -10.2206    1.0000 </r>
       <r>   -8.8489    1.0000 </r>
       <r>   -8.5371    1.0000 </r>
       <r>   -8.0064    1.0000 </r>
       <r>   -7.3247    1.0000 </r>
       <r>   -7.0558    1.0000 </r>
       <r>   -6.8715    1.0000 </r>
       <r>   -6.8164    1.0000 </r>
       <r>   -6.6112    1.0000 </r>
       <r>   -6.0299    1.0000 </r>
       <r>   -5.9045    1.0000 </r>
       <r>   -5.5164    1.0000 </r>
       <r>   -5.4653    1.0000 </r>
       <r>   -4.9906    1.0000 </r>
       <r>   -4.8641    1.0000 </r>
       <r>   -4.7895    1.0000 </r>
       <r>   -4.6824    1.0000 </r>
       <r>   -4.4443    1.0000 </r>
       <r>   -4.3308    1.0000 </r>
       <r>   -4.1277    1.0000 </r>
       <r>   -3.9797    1.0000 </r>
       <r>   -3.8824    1.0000 </r>
       <r>   -3.6458    1.0000 </r>
       <r>   -3.5709    1.0000 </r>
       <r>   -3.3344    1.0000 </r>
       <r>   -3.2156    1.0000 </r>
       <r>   -3.1550    1.0000 </r>
       <r>   -3.0595    1.0000 </r>
       <r>   -2.7599    1.0000 </r>
       <r>   -2.6435    1.0000 </r>
       <r>   -2.5942    1.0000 </r>
       <r>   -2.1519    1.0000 </r>
       <r>   -2.0752    1.0000 </r>
       <r>   -1.9989    1.0000 </r>
       <r>   -1.9368    1.0000 </r>
       <r>   -1.8818    1.0000 </r>
       <r>   -1.6669    1.0000 </r>
       <r>   -1.6295    1.0000 </r>
       <r>   -1.3556    1.0000 </r>
       <r>   -1.1642    1.0000 </r>
       <r>   -0.8772    1.0000 </r>
       <r>   -0.1979    1.0000 </r>
       <r>   -0.0339    1.0000 </r>
       <r>    0.8931    0.0000 </r>
       <r>    1.1605    0.0000 </r>
       <r>    1.3553    0.0000 </r>
       <r>    1.7178    0.0000 </r>
       <r>    1.8632    0.0000 </r>
       <r>    1.8940    0.0000 </r>
       <r>    2.1297    0.0000 </r>
       <r>    2.2394    0.0000 </r>
       <r>    2.4636    0.0000 </r>
       <r>    2.5245    0.0000 </r>
       <r>    2.7113    0.0000 </r>
       <r>    2.7674    0.0000 </r>
       <r>    2.8110    0.0000 </r>
       <r>    2.9330    0.0000 </r>
      </set>
      <set comment="kpoint 5">
       <r>  -14.0212    1.0000 </r>
       <r>  -12.7638    1.0000 </r>
       <r>  -12.1613    1.0000 </r>
       <r>  -11.9800    1.0000 </r>
       <r>  -11.8390    1.0000 </r>
       <r>  -11.6991    1.0000 </r>
       <r>  -11.3739    1.0000 </r>
       <r>  -11.0116    1.0000 </r>
       <r>  -10.9542    1.0000 </r>
       <r>  -10.5909    1.0000 </r>
       <r>  -10.5159    1.0000 </r>
       <r>  -10.0370    1.0000 </r>
       <r>   -8.8908    1.0000 </r>
       <r>   -8.8328    1.0000 </r>
       <r>   -8.2661    1.0000 </r>
       <r>   -7.7357    1.0000 </r>
       <r>   -7.4843    1.0000 </r>
       <r>   -7.1804    1.0000 </r>
       <r>   -7.0790    1.0000 </r>
       <r>   -6.7189    1.0000 </r>
       <r>   -6.3589    1.0000 </r>
       <r>   -6.3158    1.0000 </r>
       <r>   -6.1512    1.0000 </r>
       <r>   -5.8864    1.0000 </r>
       <r>   -5.3934    1.0000 </r>
       <r>   -5.2619    1.0000 </r>
       <r>   -4.9740    1.0000 </r>
       <r>   -4.8795    1.0000 </r>
       <r>   -4.7462    1.0000 </r>
       <r>   -4.4770    1.0000 </r>
       <r>   -4.3847    1.0000 </r>
       <r>   -4.2172    1.0000 </r>
       <r>   -3.9412    1.0000 </r>
       <r>   -3.7264    1.0000 </r>
       <r>   -3.5689    1.0000 </r>
       <r>   -3.4794    1.0000 </r>
       <r>   -3.3000    1.0000 </r>
       <r>   -3.2492    1.0000 </r>
       <r>   -3.1101    1.0000 </r>
       <r>   -2.9037    1.0000 </r>
       <r>   -2.7470    1.0000 </r>
       <r>   -2.6061    1.0000 </r>
       <r>   -2.3499    1.0000 </r>
       <r>   -2.2531    1.0000 </r>
       <r>   -2.1850    1.0000 </r>
       <r>   -2.0657    1.0000 </r>
       <r>   -2.0318    1.0000 </r>
       <r>   -1.9072    1.0000 </r>
       <r>   -1.8670    1.0000 </r>
       <r>   -1.5779    1.0000 </r>
       <r>   -1.2648    1.0000 </r>
       <r>   -0.8959    1.0000 </r>
       <r>   -0.5219    1.0000 </r>
       <r>   -0.3230    1.0000 </r>
       <r>    0.7136    0.0001 </r>
       <r>    1.0096    0.0000 </r>
       <r>    1.2666    0.0000 </r>
       <r>    1.4439    0.0000 </r>
       <r>    1.6253    0.0000 </r>
       <r>    1.7918    0.0000 </r>
       <r>    1.8827    0.0000 </r>
       <r>    2.0847    0.0000 </r>
       <r>    2.2103    0.0000 </r>
       <r>    2.3481    0.0000 </r>
       <r>    2.5121    0.0000 </r>
       <r>    2.5999    0.0000 </r>
       <r>    2.6542    0.0000 </r>
       <r>    2.7520    0.0000 </r>
      </set>
      <set comment="kpoint 6">
       <r>  -13.6498    1.0000 </r>
       <r>  -12.2557    1.0000 </r>
       <r>  -11.7418    1.0000 </r>
       <r>  -11.6602    1.0000 </r>
       <r>  -11.4433    1.0000 </r>
       <r>  -11.3655    1.0000 </r>
       <r>  -11.0308    1.0000 </r>
       <r>  -10.8232    1.0000 </r>
       <r>  -10.7981    1.0000 </r>
       <r>  -10.6317    1.0000 </r>
       <r>  -10.4932    1.0000 </r>
       <r>   -9.7473    1.0000 </r>
       <r>   -9.0258    1.0000 </r>
       <r>   -9.0079    1.0000 </r>
       <r>   -8.5581    1.0000 </r>
       <r>   -8.1282    1.0000 </r>
       <r>   -7.8385    1.0000 </r>
       <r>   -7.6358    1.0000 </r>
       <r>   -7.6016    1.0000 </r>
       <r>   -7.1244    1.0000 </r>
       <r>   -6.9291    1.0000 </r>
       <r>   -6.8477    1.0000 </r>
       <r>   -6.5785    1.0000 </r>
       <r>   -6.3242    1.0000 </r>
       <r>   -5.4374    1.0000 </r>
       <r>   -5.3457    1.0000 </r>
       <r>   -5.0046    1.0000 </r>
       <r>   -4.8063    1.0000 </r>
       <r>   -4.7012    1.0000 </r>
       <r>   -4.4118    1.0000 </r>
       <r>   -4.2511    1.0000 </r>
       <r>   -4.2039    1.0000 </r>
       <r>   -3.8498    1.0000 </r>
       <r>   -3.8260    1.0000 </r>
       <r>   -3.6301    1.0000 </r>
       <r>   -3.5548    1.0000 </r>
       <r>   -3.4423    1.0000 </r>
       <r>   -3.3343    1.0000 </r>
       <r>   -3.1667    1.0000 </r>
       <r>   -2.9864    1.0000 </r>
       <r>   -2.7173    1.0000 </r>
       <r>   -2.6601    1.0000 </r>
       <r>   -2.5634    1.0000 </r>
       <r>   -2.4733    1.0000 </r>
       <r>   -2.4084    1.0000 </r>
       <r>   -2.2994    1.0000 </r>
       <r>   -2.2065    1.0000 </r>
       <r>   -2.1275    1.0000 </r>
       <r>   -2.0088    1.0000 </r>
       <r>   -1.6283    1.0000 </r>
       <r>   -1.3415    1.0000 </r>
       <r>   -0.9784    1.0000 </r>
       <r>   -0.7561    1.0000 </r>
       <r>   -0.4278    1.0000 </r>
       <r>    0.4670    0.4295 </r>
       <r>    0.7671    0.0000 </r>
       <r>    1.2243    0.0000 </r>
       <r>    1.3081    0.0000 </r>
       <r>    1.4961    0.0000 </r>
       <r>    1.5990    0.0000 </r>
       <r>    1.7019    0.0000 </r>
       <r>    1.9202    0.0000 </r>
       <r>    2.0834    0.0000 </r>
       <r>    2.1364    0.0000 </r>
       <r>    2.2408    0.0000 </r>
       <r>    2.3299    0.0000 </r>
       <r>    2.5481    0.0000 </r>
       <r>    2.6377    0.0000 </r>
      </set>
      <set comment="kpoint 7">
       <r>  -13.3638    1.0000 </r>
       <r>  -11.6850    1.0000 </r>
       <r>  -11.6323    1.0000 </r>
       <r>  -11.3186    1.0000 </r>
       <r>  -11.1445    1.0000 </r>
       <r>  -11.0175    1.0000 </r>
       <r>  -10.9831    1.0000 </r>
       <r>  -10.9020    1.0000 </r>
       <r>  -10.8128    1.0000 </r>
       <r>  -10.6456    1.0000 </r>
       <r>  -10.5818    1.0000 </r>
       <r>   -9.5919    1.0000 </r>
       <r>   -9.0840    1.0000 </r>
       <r>   -8.8631    1.0000 </r>
       <r>   -8.6237    1.0000 </r>
       <r>   -8.3825    1.0000 </r>
       <r>   -8.2570    1.0000 </r>
       <r>   -8.0200    1.0000 </r>
       <r>   -7.7591    1.0000 </r>
       <r>   -7.4717    1.0000 </r>
       <r>   -7.4306    1.0000 </r>
       <r>   -7.3478    1.0000 </r>
       <r>   -6.9997    1.0000 </r>
       <r>   -6.3083    1.0000 </r>
       <r>   -5.5100    1.0000 </r>
       <r>   -5.1220    1.0000 </r>
       <r>   -5.0809    1.0000 </r>
       <r>   -4.6793    1.0000 </r>
       <r>   -4.4465    1.0000 </r>
       <r>   -4.2444    1.0000 </r>
       <r>   -4.1419    1.0000 </r>
       <r>   -4.0262    1.0000 </r>
       <r>   -3.9989    1.0000 </r>
       <r>   -3.7805    1.0000 </r>
       <r>   -3.7288    1.0000 </r>
       <r>   -3.5857    1.0000 </r>
       <r>   -3.4293    1.0000 </r>
       <r>   -3.3678    1.0000 </r>
       <r>   -3.2301    1.0000 </r>
       <r>   -3.1672    1.0000 </r>
       <r>   -2.9824    1.0000 </r>
       <r>   -2.8809    1.0000 </r>
       <r>   -2.7752    1.0000 </r>
       <r>   -2.5534    1.0000 </r>
       <r>   -2.4701    1.0000 </r>
       <r>   -2.3645    1.0000 </r>
       <r>   -2.3066    1.0000 </r>
       <r>   -2.1802    1.0000 </r>
       <r>   -1.8924    1.0000 </r>
       <r>   -1.6936    1.0000 </r>
       <r>   -1.3805    1.0000 </r>
       <r>   -1.0622    1.0000 </r>
       <r>   -0.8692    1.0000 </r>
       <r>   -0.4572    1.0000 </r>
       <r>    0.3531    0.9240 </r>
       <r>    0.5746    0.0446 </r>
       <r>    1.1820    0.0000 </r>
       <r>    1.3071    0.0000 </r>
       <r>    1.3798    0.0000 </r>
       <r>    1.5273    0.0000 </r>
       <r>    1.6154    0.0000 </r>
       <r>    1.7321    0.0000 </r>
       <r>    1.9055    0.0000 </r>
       <r>    2.0048    0.0000 </r>
       <r>    2.2015    0.0000 </r>
       <r>    2.2846    0.0000 </r>
       <r>    2.3458    0.0000 </r>
       <r>    2.5569    0.0000 </r>
      </set>
      <set comment="kpoint 8">
       <r>  -14.8355    1.0000 </r>
       <r>  -13.6662    1.0000 </r>
       <r>  -13.1477    1.0000 </r>
       <r>  -12.8718    1.0000 </r>
       <r>  -12.6758    1.0000 </r>
       <r>  -12.4426    1.0000 </r>
       <r>  -12.0502    1.0000 </r>
       <r>  -11.6641    1.0000 </r>
       <r>  -11.6397    1.0000 </r>
       <r>  -11.1767    1.0000 </r>
       <r>  -11.1006    1.0000 </r>
       <r>  -10.4072    1.0000 </r>
       <r>   -9.0436    1.0000 </r>
       <r>   -8.6901    1.0000 </r>
       <r>   -7.5794    1.0000 </r>
       <r>   -7.0778    1.0000 </r>
       <r>   -6.9830    1.0000 </r>
       <r>   -6.8504    1.0000 </r>
       <r>   -6.7668    1.0000 </r>
       <r>   -6.1963    1.0000 </r>
       <r>   -5.9146    1.0000 </r>
       <r>   -5.3842    1.0000 </r>
       <r>   -4.8403    1.0000 </r>
       <r>   -4.6596    1.0000 </r>
       <r>   -4.2160    1.0000 </r>
       <r>   -4.1435    1.0000 </r>
       <r>   -3.8543    1.0000 </r>
       <r>   -3.7511    1.0000 </r>
       <r>   -3.5386    1.0000 </r>
       <r>   -3.4027    1.0000 </r>
       <r>   -3.3096    1.0000 </r>
       <r>   -2.9634    1.0000 </r>
       <r>   -2.8830    1.0000 </r>
       <r>   -2.7256    1.0000 </r>
       <r>   -2.5836    1.0000 </r>
       <r>   -2.5359    1.0000 </r>
       <r>   -2.4336    1.0000 </r>
       <r>   -2.3472    1.0000 </r>
       <r>   -2.2208    1.0000 </r>
       <r>   -2.0822    1.0000 </r>
       <r>   -2.0584    1.0000 </r>
       <r>   -1.9823    1.0000 </r>
       <r>   -1.8484    1.0000 </r>
       <r>   -1.8085    1.0000 </r>
       <r>   -1.6116    1.0000 </r>
       <r>   -1.5382    1.0000 </r>
       <r>   -1.4886    1.0000 </r>
       <r>   -1.3913    1.0000 </r>
       <r>   -1.3249    1.0000 </r>
       <r>   -1.1669    1.0000 </r>
       <r>   -1.0339    1.0000 </r>
       <r>   -0.9006    1.0000 </r>
       <r>    0.2455    0.9984 </r>
       <r>    0.5342    0.1297 </r>
       <r>    0.7634    0.0000 </r>
       <r>    0.9874    0.0000 </r>
       <r>    1.0963    0.0000 </r>
       <r>    1.1924    0.0000 </r>
       <r>    1.4487    0.0000 </r>
       <r>    1.5879    0.0000 </r>
       <r>    1.6345    0.0000 </r>
       <r>    1.7142    0.0000 </r>
       <r>    2.0340    0.0000 </r>
       <r>    2.0678    0.0000 </r>
       <r>    2.2450    0.0000 </r>
       <r>    2.3705    0.0000 </r>
       <r>    2.4309    0.0000 </r>
       <r>    2.5080    0.0000 </r>
      </set>
      <set comment="kpoint 9">
       <r>  -14.7804    1.0000 </r>
       <r>  -13.5897    1.0000 </r>
       <r>  -13.1283    1.0000 </r>
       <r>  -12.8275    1.0000 </r>
       <r>  -12.6191    1.0000 </r>
       <r>  -12.3689    1.0000 </r>
       <r>  -11.9495    1.0000 </r>
       <r>  -11.6225    1.0000 </r>
       <r>  -11.5982    1.0000 </r>
       <r>  -11.1327    1.0000 </r>
       <r>  -11.0487    1.0000 </r>
       <r>  -10.3730    1.0000 </r>
       <r>   -9.0259    1.0000 </r>
       <r>   -8.7483    1.0000 </r>
       <r>   -7.5326    1.0000 </r>
       <r>   -7.0879    1.0000 </r>
       <r>   -6.9647    1.0000 </r>
       <r>   -6.8579    1.0000 </r>
       <r>   -6.6983    1.0000 </r>
       <r>   -6.1724    1.0000 </r>
       <r>   -5.8684    1.0000 </r>
       <r>   -5.4028    1.0000 </r>
       <r>   -4.9302    1.0000 </r>
       <r>   -4.8275    1.0000 </r>
       <r>   -4.3087    1.0000 </r>
       <r>   -4.1543    1.0000 </r>
       <r>   -4.0961    1.0000 </r>
       <r>   -3.8140    1.0000 </r>
       <r>   -3.7012    1.0000 </r>
       <r>   -3.5731    1.0000 </r>
       <r>   -3.4688    1.0000 </r>
       <r>   -3.1990    1.0000 </r>
       <r>   -3.0893    1.0000 </r>
       <r>   -2.9095    1.0000 </r>
       <r>   -2.8341    1.0000 </r>
       <r>   -2.6745    1.0000 </r>
       <r>   -2.5579    1.0000 </r>
       <r>   -2.4725    1.0000 </r>
       <r>   -2.3651    1.0000 </r>
       <r>   -2.2571    1.0000 </r>
       <r>   -2.1759    1.0000 </r>
       <r>   -2.1051    1.0000 </r>
       <r>   -2.0094    1.0000 </r>
       <r>   -1.9526    1.0000 </r>
       <r>   -1.8952    1.0000 </r>
       <r>   -1.7048    1.0000 </r>
       <r>   -1.5418    1.0000 </r>
       <r>   -1.4201    1.0000 </r>
       <r>   -1.3097    1.0000 </r>
       <r>   -1.1959    1.0000 </r>
       <r>   -1.0041    1.0000 </r>
       <r>   -0.8966    1.0000 </r>
       <r>    0.2352    0.9990 </r>
       <r>    0.4692    0.4174 </r>
       <r>    0.8235    0.0000 </r>
       <r>    1.1477    0.0000 </r>
       <r>    1.4035    0.0000 </r>
       <r>    1.5148    0.0000 </r>
       <r>    1.6209    0.0000 </r>
       <r>    1.7742    0.0000 </r>
       <r>    1.8515    0.0000 </r>
       <r>    2.0621    0.0000 </r>
       <r>    2.1812    0.0000 </r>
       <r>    2.3407    0.0000 </r>
       <r>    2.3616    0.0000 </r>
       <r>    2.4787    0.0000 </r>
       <r>    2.5304    0.0000 </r>
       <r>    2.8008    0.0000 </r>
      </set>
      <set comment="kpoint 10">
       <r>  -14.6185    1.0000 </r>
       <r>  -13.3936    1.0000 </r>
       <r>  -12.9914    1.0000 </r>
       <r>  -12.6679    1.0000 </r>
       <r>  -12.4533    1.0000 </r>
       <r>  -12.1929    1.0000 </r>
       <r>  -11.7505    1.0000 </r>
       <r>  -11.4838    1.0000 </r>
       <r>  -11.4615    1.0000 </r>
       <r>  -10.9918    1.0000 </r>
       <r>  -10.9048    1.0000 </r>
       <r>  -10.2904    1.0000 </r>
       <r>   -8.9593    1.0000 </r>
       <r>   -8.8135    1.0000 </r>
       <r>   -7.5017    1.0000 </r>
       <r>   -7.1155    1.0000 </r>
       <r>   -6.9802    1.0000 </r>
       <r>   -6.8358    1.0000 </r>
       <r>   -6.6686    1.0000 </r>
       <r>   -6.2579    1.0000 </r>
       <r>   -5.8241    1.0000 </r>
       <r>   -5.5654    1.0000 </r>
       <r>   -5.3908    1.0000 </r>
       <r>   -5.0081    1.0000 </r>
       <r>   -4.5647    1.0000 </r>
       <r>   -4.4957    1.0000 </r>
       <r>   -4.3930    1.0000 </r>
       <r>   -4.1706    1.0000 </r>
       <r>   -4.0988    1.0000 </r>
       <r>   -3.8931    1.0000 </r>
       <r>   -3.7777    1.0000 </r>
       <r>   -3.6615    1.0000 </r>
       <r>   -3.3865    1.0000 </r>
       <r>   -3.2596    1.0000 </r>
       <r>   -3.1438    1.0000 </r>
       <r>   -3.1232    1.0000 </r>
       <r>   -2.9465    1.0000 </r>
       <r>   -2.8266    1.0000 </r>
       <r>   -2.7777    1.0000 </r>
       <r>   -2.6879    1.0000 </r>
       <r>   -2.5320    1.0000 </r>
       <r>   -2.4748    1.0000 </r>
       <r>   -2.1685    1.0000 </r>
       <r>   -2.0963    1.0000 </r>
       <r>   -2.0060    1.0000 </r>
       <r>   -1.8079    1.0000 </r>
       <r>   -1.6670    1.0000 </r>
       <r>   -1.4865    1.0000 </r>
       <r>   -1.3387    1.0000 </r>
       <r>   -1.1988    1.0000 </r>
       <r>   -1.0244    1.0000 </r>
       <r>   -0.8689    1.0000 </r>
       <r>    0.0837    1.0000 </r>
       <r>    0.2474    0.9983 </r>
       <r>    0.8989    0.0000 </r>
       <r>    1.1668    0.0000 </r>
       <r>    1.4537    0.0000 </r>
       <r>    1.5957    0.0000 </r>
       <r>    1.7654    0.0000 </r>
       <r>    1.9586    0.0000 </r>
       <r>    2.1947    0.0000 </r>
       <r>    2.3773    0.0000 </r>
       <r>    2.5902    0.0000 </r>
       <r>    2.7161    0.0000 </r>
       <r>    2.7458    0.0000 </r>
       <r>    2.8937    0.0000 </r>
       <r>    2.9442    0.0000 </r>
       <r>    2.9739    0.0000 </r>
      </set>
      <set comment="kpoint 11">
       <r>  -14.3583    1.0000 </r>
       <r>  -13.0828    1.0000 </r>
       <r>  -12.7393    1.0000 </r>
       <r>  -12.3990    1.0000 </r>
       <r>  -12.1862    1.0000 </r>
       <r>  -11.9300    1.0000 </r>
       <r>  -11.4729    1.0000 </r>
       <r>  -11.2651    1.0000 </r>
       <r>  -11.2450    1.0000 </r>
       <r>  -10.7750    1.0000 </r>
       <r>  -10.7054    1.0000 </r>
       <r>  -10.1742    1.0000 </r>
       <r>   -8.9511    1.0000 </r>
       <r>   -8.8808    1.0000 </r>
       <r>   -7.5857    1.0000 </r>
       <r>   -7.3452    1.0000 </r>
       <r>   -7.1665    1.0000 </r>
       <r>   -6.8788    1.0000 </r>
       <r>   -6.8169    1.0000 </r>
       <r>   -6.4378    1.0000 </r>
       <r>   -6.0036    1.0000 </r>
       <r>   -5.9379    1.0000 </r>
       <r>   -5.6316    1.0000 </r>
       <r>   -5.3891    1.0000 </r>
       <r>   -5.2012    1.0000 </r>
       <r>   -4.8527    1.0000 </r>
       <r>   -4.8403    1.0000 </r>
       <r>   -4.7294    1.0000 </r>
       <r>   -4.4650    1.0000 </r>
       <r>   -4.2295    1.0000 </r>
       <r>   -4.0736    1.0000 </r>
       <r>   -3.8847    1.0000 </r>
       <r>   -3.8008    1.0000 </r>
       <r>   -3.6336    1.0000 </r>
       <r>   -3.3869    1.0000 </r>
       <r>   -3.3176    1.0000 </r>
       <r>   -3.2676    1.0000 </r>
       <r>   -3.0855    1.0000 </r>
       <r>   -2.9823    1.0000 </r>
       <r>   -2.7703    1.0000 </r>
       <r>   -2.7032    1.0000 </r>
       <r>   -2.6784    1.0000 </r>
       <r>   -2.1901    1.0000 </r>
       <r>   -2.1706    1.0000 </r>
       <r>   -2.0634    1.0000 </r>
       <r>   -1.9574    1.0000 </r>
       <r>   -1.9129    1.0000 </r>
       <r>   -1.6722    1.0000 </r>
       <r>   -1.5687    1.0000 </r>
       <r>   -1.3534    1.0000 </r>
       <r>   -1.1395    1.0000 </r>
       <r>   -0.8919    1.0000 </r>
       <r>   -0.2025    1.0000 </r>
       <r>   -0.0636    1.0000 </r>
       <r>    0.8465    0.0000 </r>
       <r>    1.0745    0.0000 </r>
       <r>    1.2000    0.0000 </r>
       <r>    1.3618    0.0000 </r>
       <r>    1.5197    0.0000 </r>
       <r>    1.8948    0.0000 </r>
       <r>    2.1213    0.0000 </r>
       <r>    2.3479    0.0000 </r>
       <r>    2.4178    0.0000 </r>
       <r>    2.5568    0.0000 </r>
       <r>    2.6716    0.0000 </r>
       <r>    2.8643    0.0000 </r>
       <r>    2.9000    0.0000 </r>
       <r>    3.0924    0.0000 </r>
      </set>
      <set comment="kpoint 12">
       <r>  -14.0196    1.0000 </r>
       <r>  -12.6668    1.0000 </r>
       <r>  -12.3794    1.0000 </r>
       <r>  -12.0383    1.0000 </r>
       <r>  -11.8358    1.0000 </r>
       <r>  -11.6229    1.0000 </r>
       <r>  -11.1584    1.0000 </r>
       <r>  -11.0170    1.0000 </r>
       <r>  -10.9873    1.0000 </r>
       <r>  -10.5708    1.0000 </r>
       <r>  -10.5456    1.0000 </r>
       <r>  -10.0015    1.0000 </r>
       <r>   -9.1486    1.0000 </r>
       <r>   -8.8941    1.0000 </r>
       <r>   -7.8943    1.0000 </r>
       <r>   -7.7382    1.0000 </r>
       <r>   -7.5482    1.0000 </r>
       <r>   -7.2877    1.0000 </r>
       <r>   -7.1475    1.0000 </r>
       <r>   -6.5972    1.0000 </r>
       <r>   -6.3828    1.0000 </r>
       <r>   -6.3002    1.0000 </r>
       <r>   -6.1054    1.0000 </r>
       <r>   -6.0527    1.0000 </r>
       <r>   -5.5556    1.0000 </r>
       <r>   -5.2195    1.0000 </r>
       <r>   -5.1143    1.0000 </r>
       <r>   -4.8496    1.0000 </r>
       <r>   -4.5984    1.0000 </r>
       <r>   -4.5037    1.0000 </r>
       <r>   -4.1865    1.0000 </r>
       <r>   -4.0730    1.0000 </r>
       <r>   -3.9861    1.0000 </r>
       <r>   -3.7770    1.0000 </r>
       <r>   -3.5153    1.0000 </r>
       <r>   -3.4290    1.0000 </r>
       <r>   -3.1828    1.0000 </r>
       <r>   -3.1035    1.0000 </r>
       <r>   -3.0542    1.0000 </r>
       <r>   -2.9476    1.0000 </r>
       <r>   -2.6721    1.0000 </r>
       <r>   -2.6154    1.0000 </r>
       <r>   -2.5080    1.0000 </r>
       <r>   -2.3248    1.0000 </r>
       <r>   -2.1565    1.0000 </r>
       <r>   -2.1314    1.0000 </r>
       <r>   -2.0430    1.0000 </r>
       <r>   -1.9245    1.0000 </r>
       <r>   -1.8980    1.0000 </r>
       <r>   -1.5677    1.0000 </r>
       <r>   -1.3104    1.0000 </r>
       <r>   -0.9390    1.0000 </r>
       <r>   -0.5070    1.0000 </r>
       <r>   -0.3359    1.0000 </r>
       <r>    0.5969    0.0220 </r>
       <r>    0.8884    0.0000 </r>
       <r>    1.0672    0.0000 </r>
       <r>    1.0908    0.0000 </r>
       <r>    1.2437    0.0000 </r>
       <r>    1.8546    0.0000 </r>
       <r>    2.0477    0.0000 </r>
       <r>    2.0899    0.0000 </r>
       <r>    2.2614    0.0000 </r>
       <r>    2.3167    0.0000 </r>
       <r>    2.4330    0.0000 </r>
       <r>    2.5076    0.0000 </r>
       <r>    2.6404    0.0000 </r>
       <r>    2.8061    0.0000 </r>
      </set>
      <set comment="kpoint 13">
       <r>  -13.6489    1.0000 </r>
       <r>  -12.1643    1.0000 </r>
       <r>  -11.9284    1.0000 </r>
       <r>  -11.6711    1.0000 </r>
       <r>  -11.4425    1.0000 </r>
       <r>  -11.3650    1.0000 </r>
       <r>  -10.8999    1.0000 </r>
       <r>  -10.8193    1.0000 </r>
       <r>  -10.7788    1.0000 </r>
       <r>  -10.6436    1.0000 </r>
       <r>  -10.4770    1.0000 </r>
       <r>   -9.7494    1.0000 </r>
       <r>   -9.1390    1.0000 </r>
       <r>   -9.0346    1.0000 </r>
       <r>   -8.2944    1.0000 </r>
       <r>   -8.0686    1.0000 </r>
       <r>   -7.9574    1.0000 </r>
       <r>   -7.8948    1.0000 </r>
       <r>   -7.5465    1.0000 </r>
       <r>   -7.0355    1.0000 </r>
       <r>   -6.8817    1.0000 </r>
       <r>   -6.8306    1.0000 </r>
       <r>   -6.6597    1.0000 </r>
       <r>   -6.4052    1.0000 </r>
       <r>   -5.5227    1.0000 </r>
       <r>   -5.3465    1.0000 </r>
       <r>   -4.9970    1.0000 </r>
       <r>   -4.9442    1.0000 </r>
       <r>   -4.6311    1.0000 </r>
       <r>   -4.2929    1.0000 </r>
       <r>   -4.2501    1.0000 </r>
       <r>   -4.0387    1.0000 </r>
       <r>   -3.8568    1.0000 </r>
       <r>   -3.7042    1.0000 </r>
       <r>   -3.5270    1.0000 </r>
       <r>   -3.5014    1.0000 </r>
       <r>   -3.4587    1.0000 </r>
       <r>   -3.2927    1.0000 </r>
       <r>   -3.1229    1.0000 </r>
       <r>   -3.0186    1.0000 </r>
       <r>   -2.8090    1.0000 </r>
       <r>   -2.6446    1.0000 </r>
       <r>   -2.5835    1.0000 </r>
       <r>   -2.4787    1.0000 </r>
       <r>   -2.3616    1.0000 </r>
       <r>   -2.3149    1.0000 </r>
       <r>   -2.2483    1.0000 </r>
       <r>   -2.1351    1.0000 </r>
       <r>   -2.0243    1.0000 </r>
       <r>   -1.6662    1.0000 </r>
       <r>   -1.4258    1.0000 </r>
       <r>   -1.0386    1.0000 </r>
       <r>   -0.7200    1.0000 </r>
       <r>   -0.4612    1.0000 </r>
       <r>    0.4330    0.6189 </r>
       <r>    0.6890    0.0005 </r>
       <r>    1.0357    0.0000 </r>
       <r>    1.1075    0.0000 </r>
       <r>    1.2083    0.0000 </r>
       <r>    1.6349    0.0000 </r>
       <r>    1.8275    0.0000 </r>
       <r>    1.9070    0.0000 </r>
       <r>    2.0040    0.0000 </r>
       <r>    2.0976    0.0000 </r>
       <r>    2.2286    0.0000 </r>
       <r>    2.4202    0.0000 </r>
       <r>    2.4521    0.0000 </r>
       <r>    2.5579    0.0000 </r>
      </set>
      <set comment="kpoint 14">
       <r>  -13.3638    1.0000 </r>
       <r>  -11.6349    1.0000 </r>
       <r>  -11.6091    1.0000 </r>
       <r>  -11.4321    1.0000 </r>
       <r>  -11.1542    1.0000 </r>
       <r>  -11.0398    1.0000 </r>
       <r>  -11.0025    1.0000 </r>
       <r>  -10.8713    1.0000 </r>
       <r>  -10.7598    1.0000 </r>
       <r>  -10.6955    1.0000 </r>
       <r>  -10.5129    1.0000 </r>
       <r>   -9.5965    1.0000 </r>
       <r>   -9.0882    1.0000 </r>
       <r>   -8.7302    1.0000 </r>
       <r>   -8.5789    1.0000 </r>
       <r>   -8.5100    1.0000 </r>
       <r>   -8.4069    1.0000 </r>
       <r>   -7.9357    1.0000 </r>
       <r>   -7.7067    1.0000 </r>
       <r>   -7.5016    1.0000 </r>
       <r>   -7.4367    1.0000 </r>
       <r>   -7.3059    1.0000 </r>
       <r>   -7.0927    1.0000 </r>
       <r>   -6.2955    1.0000 </r>
       <r>   -5.4900    1.0000 </r>
       <r>   -5.1909    1.0000 </r>
       <r>   -5.0575    1.0000 </r>
       <r>   -4.6423    1.0000 </r>
       <r>   -4.4143    1.0000 </r>
       <r>   -4.3190    1.0000 </r>
       <r>   -4.1293    1.0000 </r>
       <r>   -4.0783    1.0000 </r>
       <r>   -3.9318    1.0000 </r>
       <r>   -3.8268    1.0000 </r>
       <r>   -3.6824    1.0000 </r>
       <r>   -3.4983    1.0000 </r>
       <r>   -3.4342    1.0000 </r>
       <r>   -3.3425    1.0000 </r>
       <r>   -3.1835    1.0000 </r>
       <r>   -3.1085    1.0000 </r>
       <r>   -2.9675    1.0000 </r>
       <r>   -2.8293    1.0000 </r>
       <r>   -2.7913    1.0000 </r>
       <r>   -2.7608    1.0000 </r>
       <r>   -2.4286    1.0000 </r>
       <r>   -2.3115    1.0000 </r>
       <r>   -2.2699    1.0000 </r>
       <r>   -2.2116    1.0000 </r>
       <r>   -1.8907    1.0000 </r>
       <r>   -1.7098    1.0000 </r>
       <r>   -1.4429    1.0000 </r>
       <r>   -1.1580    1.0000 </r>
       <r>   -0.8510    1.0000 </r>
       <r>   -0.4477    1.0000 </r>
       <r>    0.3877    0.8274 </r>
       <r>    0.6097    0.0140 </r>
       <r>    1.1796    0.0000 </r>
       <r>    1.2601    0.0000 </r>
       <r>    1.3413    0.0000 </r>
       <r>    1.3951    0.0000 </r>
       <r>    1.6055    0.0000 </r>
       <r>    1.7822    0.0000 </r>
       <r>    1.9195    0.0000 </r>
       <r>    2.0281    0.0000 </r>
       <r>    2.1461    0.0000 </r>
       <r>    2.2945    0.0000 </r>
       <r>    2.3342    0.0000 </r>
       <r>    2.4734    0.0000 </r>
      </set>
      <set comment="kpoint 15">
       <r>  -13.3644    1.0000 </r>
       <r>  -11.7169    1.0000 </r>
       <r>  -11.6285    1.0000 </r>
       <r>  -11.2417    1.0000 </r>
       <r>  -11.1328    1.0000 </r>
       <r>  -10.9799    1.0000 </r>
       <r>  -10.9579    1.0000 </r>
       <r>  -10.9342    1.0000 </r>
       <r>  -10.8772    1.0000 </r>
       <r>  -10.7130    1.0000 </r>
       <r>  -10.5572    1.0000 </r>
       <r>   -9.5830    1.0000 </r>
       <r>   -9.0675    1.0000 </r>
       <r>   -8.9318    1.0000 </r>
       <r>   -8.6174    1.0000 </r>
       <r>   -8.3944    1.0000 </r>
       <r>   -8.1220    1.0000 </r>
       <r>   -8.0218    1.0000 </r>
       <r>   -7.7917    1.0000 </r>
       <r>   -7.4603    1.0000 </r>
       <r>   -7.4209    1.0000 </r>
       <r>   -7.3928    1.0000 </r>
       <r>   -7.0630    1.0000 </r>
       <r>   -6.1942    1.0000 </r>
       <r>   -5.5730    1.0000 </r>
       <r>   -5.0608    1.0000 </r>
       <r>   -4.9090    1.0000 </r>
       <r>   -4.7532    1.0000 </r>
       <r>   -4.5377    1.0000 </r>
       <r>   -4.2026    1.0000 </r>
       <r>   -4.1790    1.0000 </r>
       <r>   -4.0619    1.0000 </r>
       <r>   -4.0235    1.0000 </r>
       <r>   -3.9137    1.0000 </r>
       <r>   -3.8227    1.0000 </r>
       <r>   -3.6072    1.0000 </r>
       <r>   -3.5353    1.0000 </r>
       <r>   -3.3274    1.0000 </r>
       <r>   -3.1315    1.0000 </r>
       <r>   -3.0533    1.0000 </r>
       <r>   -3.0017    1.0000 </r>
       <r>   -2.8610    1.0000 </r>
       <r>   -2.7050    1.0000 </r>
       <r>   -2.5779    1.0000 </r>
       <r>   -2.4669    1.0000 </r>
       <r>   -2.3328    1.0000 </r>
       <r>   -2.2763    1.0000 </r>
       <r>   -2.2044    1.0000 </r>
       <r>   -1.8751    1.0000 </r>
       <r>   -1.6768    1.0000 </r>
       <r>   -1.4065    1.0000 </r>
       <r>   -1.1669    1.0000 </r>
       <r>   -0.8173    1.0000 </r>
       <r>   -0.4582    1.0000 </r>
       <r>    0.4116    0.7276 </r>
       <r>    0.6919    0.0004 </r>
       <r>    1.2006    0.0000 </r>
       <r>    1.2924    0.0000 </r>
       <r>    1.4822    0.0000 </r>
       <r>    1.5770    0.0000 </r>
       <r>    1.6440    0.0000 </r>
       <r>    1.6944    0.0000 </r>
       <r>    2.0556    0.0000 </r>
       <r>    2.1135    0.0000 </r>
       <r>    2.1852    0.0000 </r>
       <r>    2.2419    0.0000 </r>
       <r>    2.3848    0.0000 </r>
       <r>    2.4486    0.0000 </r>
      </set>
      <set comment="kpoint 16">
       <r>  -13.6506    1.0000 </r>
       <r>  -12.2819    1.0000 </r>
       <r>  -11.6569    1.0000 </r>
       <r>  -11.6190    1.0000 </r>
       <r>  -11.4378    1.0000 </r>
       <r>  -11.3983    1.0000 </r>
       <r>  -11.1134    1.0000 </r>
       <r>  -10.9125    1.0000 </r>
       <r>  -10.8002    1.0000 </r>
       <r>  -10.6273    1.0000 </r>
       <r>  -10.3796    1.0000 </r>
       <r>   -9.7824    1.0000 </r>
       <r>   -9.0344    1.0000 </r>
       <r>   -8.9177    1.0000 </r>
       <r>   -8.6738    1.0000 </r>
       <r>   -8.1088    1.0000 </r>
       <r>   -7.8641    1.0000 </r>
       <r>   -7.6268    1.0000 </r>
       <r>   -7.5070    1.0000 </r>
       <r>   -7.0963    1.0000 </r>
       <r>   -6.9747    1.0000 </r>
       <r>   -6.8547    1.0000 </r>
       <r>   -6.6594    1.0000 </r>
       <r>   -6.2068    1.0000 </r>
       <r>   -5.4597    1.0000 </r>
       <r>   -5.2170    1.0000 </r>
       <r>   -5.0303    1.0000 </r>
       <r>   -4.9085    1.0000 </r>
       <r>   -4.5863    1.0000 </r>
       <r>   -4.4432    1.0000 </r>
       <r>   -4.2682    1.0000 </r>
       <r>   -4.2186    1.0000 </r>
       <r>   -3.9687    1.0000 </r>
       <r>   -3.8961    1.0000 </r>
       <r>   -3.7093    1.0000 </r>
       <r>   -3.5872    1.0000 </r>
       <r>   -3.4167    1.0000 </r>
       <r>   -3.3236    1.0000 </r>
       <r>   -3.2298    1.0000 </r>
       <r>   -2.9400    1.0000 </r>
       <r>   -2.7790    1.0000 </r>
       <r>   -2.6938    1.0000 </r>
       <r>   -2.5652    1.0000 </r>
       <r>   -2.4102    1.0000 </r>
       <r>   -2.3065    1.0000 </r>
       <r>   -2.2779    1.0000 </r>
       <r>   -2.1356    1.0000 </r>
       <r>   -2.1030    1.0000 </r>
       <r>   -1.9841    1.0000 </r>
       <r>   -1.6225    1.0000 </r>
       <r>   -1.3269    1.0000 </r>
       <r>   -1.0605    1.0000 </r>
       <r>   -0.7292    1.0000 </r>
       <r>   -0.4373    1.0000 </r>
       <r>    0.5327    0.1341 </r>
       <r>    0.8391    0.0000 </r>
       <r>    1.2312    0.0000 </r>
       <r>    1.3746    0.0000 </r>
       <r>    1.5365    0.0000 </r>
       <r>    1.7173    0.0000 </r>
       <r>    1.7464    0.0000 </r>
       <r>    1.9663    0.0000 </r>
       <r>    2.1027    0.0000 </r>
       <r>    2.2001    0.0000 </r>
       <r>    2.2933    0.0000 </r>
       <r>    2.4028    0.0000 </r>
       <r>    2.4466    0.0000 </r>
       <r>    2.5158    0.0000 </r>
      </set>
      <set comment="kpoint 17">
       <r>  -14.0217    1.0000 </r>
       <r>  -12.7759    1.0000 </r>
       <r>  -12.1196    1.0000 </r>
       <r>  -11.9411    1.0000 </r>
       <r>  -11.8350    1.0000 </r>
       <r>  -11.7402    1.0000 </r>
       <r>  -11.4215    1.0000 </r>
       <r>  -11.0613    1.0000 </r>
       <r>  -10.9463    1.0000 </r>
       <r>  -10.5966    1.0000 </r>
       <r>  -10.4321    1.0000 </r>
       <r>  -10.0612    1.0000 </r>
       <r>   -8.9031    1.0000 </r>
       <r>   -8.7331    1.0000 </r>
       <r>   -8.3692    1.0000 </r>
       <r>   -7.8207    1.0000 </r>
       <r>   -7.3626    1.0000 </r>
       <r>   -7.1846    1.0000 </r>
       <r>   -7.0523    1.0000 </r>
       <r>   -6.7278    1.0000 </r>
       <r>   -6.3730    1.0000 </r>
       <r>   -6.3152    1.0000 </r>
       <r>   -6.1603    1.0000 </r>
       <r>   -5.9011    1.0000 </r>
       <r>   -5.3354    1.0000 </r>
       <r>   -5.2172    1.0000 </r>
       <r>   -5.0684    1.0000 </r>
       <r>   -4.8274    1.0000 </r>
       <r>   -4.7228    1.0000 </r>
       <r>   -4.4790    1.0000 </r>
       <r>   -4.4012    1.0000 </r>
       <r>   -4.2516    1.0000 </r>
       <r>   -4.0194    1.0000 </r>
       <r>   -3.6543    1.0000 </r>
       <r>   -3.6347    1.0000 </r>
       <r>   -3.5534    1.0000 </r>
       <r>   -3.2726    1.0000 </r>
       <r>   -3.2557    1.0000 </r>
       <r>   -3.0881    1.0000 </r>
       <r>   -2.9157    1.0000 </r>
       <r>   -2.7487    1.0000 </r>
       <r>   -2.6729    1.0000 </r>
       <r>   -2.3753    1.0000 </r>
       <r>   -2.1969    1.0000 </r>
       <r>   -2.0866    1.0000 </r>
       <r>   -2.0493    1.0000 </r>
       <r>   -2.0136    1.0000 </r>
       <r>   -1.8913    1.0000 </r>
       <r>   -1.8494    1.0000 </r>
       <r>   -1.5666    1.0000 </r>
       <r>   -1.2104    1.0000 </r>
       <r>   -0.9923    1.0000 </r>
       <r>   -0.5360    1.0000 </r>
       <r>   -0.2950    1.0000 </r>
       <r>    0.6942    0.0003 </r>
       <r>    0.9848    0.0000 </r>
       <r>    1.3272    0.0000 </r>
       <r>    1.5253    0.0000 </r>
       <r>    1.6639    0.0000 </r>
       <r>    1.7989    0.0000 </r>
       <r>    1.8652    0.0000 </r>
       <r>    2.1058    0.0000 </r>
       <r>    2.2089    0.0000 </r>
       <r>    2.3736    0.0000 </r>
       <r>    2.5012    0.0000 </r>
       <r>    2.5731    0.0000 </r>
       <r>    2.6131    0.0000 </r>
       <r>    2.7940    0.0000 </r>
      </set>
      <set comment="kpoint 18">
       <r>  -14.3604    1.0000 </r>
       <r>  -13.1713    1.0000 </r>
       <r>  -12.5245    1.0000 </r>
       <r>  -12.3196    1.0000 </r>
       <r>  -12.1884    1.0000 </r>
       <r>  -12.0367    1.0000 </r>
       <r>  -11.7150    1.0000 </r>
       <r>  -11.2568    1.0000 </r>
       <r>  -11.2029    1.0000 </r>
       <r>  -10.7749    1.0000 </r>
       <r>  -10.6624    1.0000 </r>
       <r>  -10.2123    1.0000 </r>
       <r>   -8.8578    1.0000 </r>
       <r>   -8.5766    1.0000 </r>
       <r>   -7.9658    1.0000 </r>
       <r>   -7.4287    1.0000 </r>
       <r>   -6.9365    1.0000 </r>
       <r>   -6.8446    1.0000 </r>
       <r>   -6.8197    1.0000 </r>
       <r>   -6.6137    1.0000 </r>
       <r>   -6.0669    1.0000 </r>
       <r>   -5.9069    1.0000 </r>
       <r>   -5.5184    1.0000 </r>
       <r>   -5.4930    1.0000 </r>
       <r>   -5.0095    1.0000 </r>
       <r>   -4.8030    1.0000 </r>
       <r>   -4.7621    1.0000 </r>
       <r>   -4.6914    1.0000 </r>
       <r>   -4.4894    1.0000 </r>
       <r>   -4.3468    1.0000 </r>
       <r>   -4.1295    1.0000 </r>
       <r>   -3.9864    1.0000 </r>
       <r>   -3.8859    1.0000 </r>
       <r>   -3.6263    1.0000 </r>
       <r>   -3.5486    1.0000 </r>
       <r>   -3.3619    1.0000 </r>
       <r>   -3.1751    1.0000 </r>
       <r>   -3.1196    1.0000 </r>
       <r>   -3.0516    1.0000 </r>
       <r>   -2.7896    1.0000 </r>
       <r>   -2.6797    1.0000 </r>
       <r>   -2.6036    1.0000 </r>
       <r>   -2.1903    1.0000 </r>
       <r>   -2.0700    1.0000 </r>
       <r>   -1.9983    1.0000 </r>
       <r>   -1.9199    1.0000 </r>
       <r>   -1.8710    1.0000 </r>
       <r>   -1.6764    1.0000 </r>
       <r>   -1.5986    1.0000 </r>
       <r>   -1.3218    1.0000 </r>
       <r>   -1.0952    1.0000 </r>
       <r>   -0.9105    1.0000 </r>
       <r>   -0.2249    1.0000 </r>
       <r>    0.0025    1.0000 </r>
       <r>    0.7545    0.0000 </r>
       <r>    1.1442    0.0000 </r>
       <r>    1.3058    0.0000 </r>
       <r>    1.6684    0.0000 </r>
       <r>    1.8345    0.0000 </r>
[...]
       <r>    2.5370    0.0000 </r>
      </set>
      <set comment="kpoint 54">
       <r>  -13.3643    1.0000 </r>
       <r>  -11.6739    1.0000 </r>
       <r>  -11.6211    1.0000 </r>
       <r>  -11.3402    1.0000 </r>
       <r>  -11.1471    1.0000 </r>
       <r>  -11.0231    1.0000 </r>
       <r>  -10.9797    1.0000 </r>
       <r>  -10.8948    1.0000 </r>
       <r>  -10.7998    1.0000 </r>
       <r>  -10.7381    1.0000 </r>
       <r>  -10.5104    1.0000 </r>
       <r>   -9.5866    1.0000 </r>
       <r>   -9.0726    1.0000 </r>
       <r>   -8.8396    1.0000 </r>
       <r>   -8.6243    1.0000 </r>
       <r>   -8.4186    1.0000 </r>
       <r>   -8.2961    1.0000 </r>
       <r>   -7.9397    1.0000 </r>
       <r>   -7.7494    1.0000 </r>
       <r>   -7.4762    1.0000 </r>
       <r>   -7.4126    1.0000 </r>
       <r>   -7.3373    1.0000 </r>
       <r>   -7.1654    1.0000 </r>
       <r>   -6.1830    1.0000 </r>
       <r>   -5.5593    1.0000 </r>
       <r>   -5.1169    1.0000 </r>
       <r>   -4.9914    1.0000 </r>
       <r>   -4.6531    1.0000 </r>
       <r>   -4.4661    1.0000 </r>
       <r>   -4.2847    1.0000 </r>
       <r>   -4.1446    1.0000 </r>
       <r>   -4.1237    1.0000 </r>
       <r>   -3.9497    1.0000 </r>
       <r>   -3.9361    1.0000 </r>
       <r>   -3.7441    1.0000 </r>
       <r>   -3.6087    1.0000 </r>
       <r>   -3.4315    1.0000 </r>
       <r>   -3.2890    1.0000 </r>
       <r>   -3.2190    1.0000 </r>
       <r>   -3.1107    1.0000 </r>
       <r>   -2.9660    1.0000 </r>
       <r>   -2.8690    1.0000 </r>
       <r>   -2.7006    1.0000 </r>
       <r>   -2.5667    1.0000 </r>
       <r>   -2.4631    1.0000 </r>
       <r>   -2.3080    1.0000 </r>
       <r>   -2.2643    1.0000 </r>
       <r>   -2.1597    1.0000 </r>
       <r>   -1.8945    1.0000 </r>
       <r>   -1.6960    1.0000 </r>
       <r>   -1.5041    1.0000 </r>
       <r>   -1.2309    1.0000 </r>
       <r>   -0.8004    1.0000 </r>
       <r>   -0.4591    1.0000 </r>
       <r>    0.4470    0.5420 </r>
       <r>    0.7304    0.0000 </r>
       <r>    1.1658    0.0000 </r>
       <r>    1.2174    0.0000 </r>
       <r>    1.4200    0.0000 </r>
       <r>    1.5160    0.0000 </r>
       <r>    1.6911    0.0000 </r>
       <r>    1.8367    0.0000 </r>
       <r>    1.8891    0.0000 </r>
       <r>    1.9450    0.0000 </r>
       <r>    2.1276    0.0000 </r>
       <r>    2.1975    0.0000 </r>
       <r>    2.3343    0.0000 </r>
       <r>    2.4118    0.0000 </r>
      </set>
     </set>
    </set>
   </array>
  </eigenvalues>
  <separator name="orbital magnetization" >
   <v name="MAGDIPOLOUT">      0.00000000      0.00000000      0.00000000</v>
  </separator>
  <dos>
   <i name="efermi">      0.45442583 </i>
   <total>
    <array>
     <dimension dim="1">gridpoints</dimension>
     <dimension dim="2">spin</dimension>
     <field>energy</field>
     <field>total</field>
     <field>integrated</field>
     <set>
      <set comment="spin 1">
       <r>   -15.8372     0.0000     0.0000 </r>
       <r>   -15.7708     0.0000     0.0000 </r>
       <r>   -15.7044     0.0000     0.0000 </r>
       <r>   -15.6379     0.0000     0.0000 </r>
       <r>   -15.5715     0.0000     0.0000 </r>
       <r>   -15.5051     0.0000     0.0000 </r>
       <r>   -15.4386     0.0000     0.0000 </r>
       <r>   -15.3722     0.0000     0.0000 </r>
       <r>   -15.3058     0.0000     0.0000 </r>
       <r>   -15.2393     0.0000     0.0000 </r>
       <r>   -15.1729     0.0000     0.0000 </r>
       <r>   -15.1065     0.0002     0.0000 </r>
       <r>   -15.0400     0.0048     0.0003 </r>
       <r>   -14.9736     0.0687     0.0049 </r>
       <r>   -14.9072     0.4578     0.0353 </r>
       <r>   -14.8408     1.4816     0.1337 </r>
       <r>   -14.7743     2.4072     0.2937 </r>
       <r>   -14.7079     2.2328     0.4420 </r>
       <r>   -14.6415     1.9220     0.5697 </r>
       <r>   -14.5750     1.7713     0.6873 </r>
       <r>   -14.5086     1.0415     0.7565 </r>
       <r>   -14.4422     0.7229     0.8045 </r>
       <r>   -14.3757     1.3595     0.8949 </r>
       <r>   -14.3093     1.6318     1.0033 </r>
       <r>   -14.2429     0.8824     1.0619 </r>
       <r>   -14.1764     0.2679     1.0797 </r>
       <r>   -14.1100     0.4356     1.1086 </r>
       <r>   -14.0436     1.2503     1.1917 </r>
       <r>   -13.9771     1.6578     1.3018 </r>
       <r>   -13.9107     0.9718     1.3664 </r>
       <r>   -13.8443     0.2957     1.3860 </r>
       <r>   -13.7778     0.4029     1.4128 </r>
       <r>   -13.7114     1.5380     1.5149 </r>
       <r>   -13.6450     3.1861     1.7266 </r>
       <r>   -13.5785     3.5017     1.9592 </r>
       <r>   -13.5121     2.6391     2.1346 </r>
       <r>   -13.4457     2.4405     2.2967 </r>
       <r>   -13.3792     3.0529     2.4995 </r>
       <r>   -13.3128     3.1187     2.7067 </r>
       <r>   -13.2464     2.3167     2.8606 </r>
       <r>   -13.1800     2.1722     3.0049 </r>
       <r>   -13.1135     2.7901     3.1902 </r>
       <r>   -13.0471     2.9904     3.3889 </r>
       <r>   -12.9807     2.5711     3.5597 </r>
       <r>   -12.9142     2.4972     3.7256 </r>
       <r>   -12.8478     3.3753     3.9498 </r>
       <r>   -12.7814     4.7008     4.2621 </r>
       <r>   -12.7149     5.6625     4.6383 </r>
       <r>   -12.6485     5.9735     5.0351 </r>
       <r>   -12.5821     5.4081     5.3944 </r>
       <r>   -12.5156     4.6650     5.7043 </r>
       <r>   -12.4492     5.0826     6.0419 </r>
       <r>   -12.3828     5.8496     6.4305 </r>
       <r>   -12.3163     6.0277     6.8310 </r>
       <r>   -12.2499     6.0525     7.2330 </r>
       <r>   -12.1835     6.1447     7.6412 </r>
       <r>   -12.1170     5.5364     8.0090 </r>
       <r>   -12.0506     4.8994     8.3345 </r>
       <r>   -11.9842     5.1438     8.6762 </r>
       <r>   -11.9177     5.2386     9.0242 </r>
       <r>   -11.8513     5.0723     9.3612 </r>
       <r>   -11.7849     5.5326     9.7287 </r>
       <r>   -11.7184     7.7879    10.2461 </r>
       <r>   -11.6520    11.2444    10.9931 </r>
       <r>   -11.5856    11.7519    11.7738 </r>
       <r>   -11.5192     9.2276    12.3868 </r>
       <r>   -11.4527     8.5702    12.9561 </r>
       <r>   -11.3863     8.6459    13.5305 </r>
       <r>   -11.3199     7.0855    14.0012 </r>
       <r>   -11.2534     6.4952    14.4327 </r>
       <r>   -11.1870     7.8590    14.9548 </r>
       <r>   -11.1206     9.5636    15.5901 </r>
       <r>   -11.0541    11.1848    16.3331 </r>
       <r>   -10.9877    12.7904    17.1828 </r>
       <r>   -10.9213    12.6934    18.0261 </r>
       <r>   -10.8548    10.8408    18.7463 </r>
       <r>   -10.7884     9.3280    19.3659 </r>
       <r>   -10.7220     8.3971    19.9238 </r>
       <r>   -10.6555     7.5995    20.4286 </r>
       <r>   -10.5891     7.1833    20.9058 </r>
       <r>   -10.5227     6.6490    21.3475 </r>
       <r>   -10.4562     5.9813    21.7449 </r>
       <r>   -10.3898     5.6353    22.1192 </r>
       <r>   -10.3234     5.1020    22.4582 </r>
       <r>   -10.2569     3.9194    22.7186 </r>
       <r>   -10.1905     2.8459    22.9076 </r>
       <r>   -10.1241     2.1396    23.0497 </r>
       <r>   -10.0576     1.8656    23.1737 </r>
       <r>    -9.9912     1.7519    23.2901 </r>
       <r>    -9.9248     1.1231    23.3647 </r>
       <r>    -9.8584     0.7319    23.4133 </r>
       <r>    -9.7919     1.2553    23.4967 </r>
       <r>    -9.7255     1.7373    23.6121 </r>
       <r>    -9.6591     1.6355    23.7208 </r>
       <r>    -9.5926     1.7667    23.8381 </r>
       <r>    -9.5262     1.5736    23.9427 </r>
       <r>    -9.4598     0.7075    23.9897 </r>
       <r>    -9.3933     0.1432    23.9992 </r>
       <r>    -9.3269     0.0263    24.0009 </r>
       <r>    -9.2605     0.1633    24.0118 </r>
       <r>    -9.1940     0.9918    24.0776 </r>
       <r>    -9.1276     3.3287    24.2988 </r>
       <r>    -9.0612     6.6339    24.7395 </r>
       <r>    -8.9947     8.9136    25.3316 </r>
       <r>    -8.9283     9.8836    25.9882 </r>
       <r>    -8.8619     9.4306    26.6147 </r>
       <r>    -8.7954     6.7584    27.0637 </r>
       <r>    -8.7290     4.2482    27.3459 </r>
       <r>    -8.6626     3.7714    27.5965 </r>
       <r>    -8.5961     4.2767    27.8806 </r>
       <r>    -8.5297     4.1606    28.1570 </r>
       <r>    -8.4633     3.4367    28.3853 </r>
       <r>    -8.3968     3.4192    28.6124 </r>
       <r>    -8.3304     3.6791    28.8568 </r>
       <r>    -8.2640     3.4028    29.0829 </r>
       <r>    -8.1975     2.7453    29.2652 </r>
       <r>    -8.1311     2.5051    29.4317 </r>
       <r>    -8.0647     3.3586    29.6548 </r>
       <r>    -7.9983     4.8838    29.9792 </r>
       <r>    -7.9318     5.9260    30.3729 </r>
       <r>    -7.8654     5.6542    30.7485 </r>
       <r>    -7.7990     5.0563    31.0844 </r>
       <r>    -7.7325     4.7429    31.3995 </r>
       <r>    -7.6661     4.4611    31.6959 </r>
       <r>    -7.5997     5.1026    32.0348 </r>
       <r>    -7.5332     6.8012    32.4867 </r>
       <r>    -7.4668     8.3743    33.0430 </r>
       <r>    -7.4004     8.3892    33.6003 </r>
       <r>    -7.3339     6.5350    34.0344 </r>
       <r>    -7.2675     4.6463    34.3431 </r>
       <r>    -7.2011     4.7530    34.6588 </r>
       <r>    -7.1346     7.5047    35.1574 </r>
       <r>    -7.0682    10.6244    35.8632 </r>
       <r>    -7.0018    11.7514    36.6439 </r>
       <r>    -6.9353    11.7505    37.4245 </r>
       <r>    -6.8689    12.2228    38.2365 </r>
       <r>    -6.8025    11.7916    39.0198 </r>
       <r>    -6.7360     9.1873    39.6301 </r>
       <r>    -6.6696     6.8854    40.0875 </r>
       <r>    -6.6032     5.6501    40.4629 </r>
       <r>    -6.5367     4.3368    40.7510 </r>
       <r>    -6.4703     3.7121    40.9976 </r>
       <r>    -6.4039     5.0419    41.3325 </r>
       <r>    -6.3375     6.8479    41.7875 </r>
       <r>    -6.2710     6.8755    42.2442 </r>
       <r>    -6.2046     5.8974    42.6360 </r>
       <r>    -6.1382     5.4015    42.9948 </r>
       <r>    -6.0717     5.2580    43.3441 </r>
       <r>    -6.0053     5.4671    43.7073 </r>
       <r>    -5.9389     6.1145    44.1135 </r>
       <r>    -5.8724     6.2113    44.5261 </r>
       <r>    -5.8060     4.6804    44.8371 </r>
       <r>    -5.7396     3.1334    45.0452 </r>
       <r>    -5.6731     3.1049    45.2515 </r>
       <r>    -5.6067     4.3498    45.5405 </r>
       <r>    -5.5403     6.2035    45.9526 </r>
       <r>    -5.4738     7.3401    46.4402 </r>
       <r>    -5.4074     7.4748    46.9367 </r>
       <r>    -5.3410     6.9616    47.3992 </r>
       <r>    -5.2745     6.1076    47.8050 </r>
       <r>    -5.2081     6.1986    48.2167 </r>
       <r>    -5.1417     6.5917    48.6546 </r>
       <r>    -5.0752     7.2497    49.1363 </r>
       <r>    -5.0088     8.5142    49.7019 </r>
       <r>    -4.9424     9.2228    50.3146 </r>
       <r>    -4.8759     9.7533    50.9625 </r>
       <r>    -4.8095    10.2311    51.6422 </r>
       <r>    -4.7431     9.5839    52.2788 </r>
       <r>    -4.6767     8.5129    52.8444 </r>
       <r>    -4.6102     7.6125    53.3501 </r>
       <r>    -4.5438     7.5296    53.8503 </r>
       <r>    -4.4774     8.8382    54.4374 </r>
       <r>    -4.4109     9.7870    55.0876 </r>
       <r>    -4.3445    10.3022    55.7720 </r>
       <r>    -4.2781    12.0502    56.5725 </r>
       <r>    -4.2116    14.2789    57.5211 </r>
       <r>    -4.1452    15.1143    58.5252 </r>
       <r>    -4.0788    14.1302    59.4639 </r>
       <r>    -4.0123    12.5818    60.2997 </r>
       <r>    -3.9459    12.2703    61.1148 </r>
       <r>    -3.8795    13.1670    61.9895 </r>
       <r>    -3.8130    13.5912    62.8924 </r>
       <r>    -3.7466    12.8710    63.7475 </r>
       <r>    -3.6802    12.2876    64.5638 </r>
       <r>    -3.6137    12.5485    65.3974 </r>
       <r>    -3.5473    12.9479    66.2575 </r>
       <r>    -3.4809    13.5366    67.1568 </r>
       <r>    -3.4144    14.5558    68.1238 </r>
       <r>    -3.3480    15.2731    69.1384 </r>
       <r>    -3.2816    15.3358    70.1572 </r>
       <r>    -3.2151    15.0627    71.1578 </r>
       <r>    -3.1487    15.4653    72.1852 </r>
       <r>    -3.0823    16.2657    73.2658 </r>
       <r>    -3.0159    15.8183    74.3166 </r>
       <r>    -2.9494    14.7916    75.2993 </r>
       <r>    -2.8830    14.0356    76.2317 </r>
       <r>    -2.8166    14.1402    77.1710 </r>
       <r>    -2.7501    15.8581    78.2245 </r>
       <r>    -2.6837    17.2675    79.3716 </r>
       <r>    -2.6173    16.8349    80.4900 </r>
       <r>    -2.5508    15.7820    81.5384 </r>
       <r>    -2.4844    14.4911    82.5011 </r>
       <r>    -2.4180    13.4911    83.3974 </r>
       <r>    -2.3515    13.9950    84.3271 </r>
       <r>    -2.2851    15.8303    85.3787 </r>
       <r>    -2.2187    17.9858    86.5735 </r>
       <r>    -2.1522    19.7088    87.8828 </r>
       <r>    -2.0858    19.9323    89.2070 </r>
       <r>    -2.0194    19.1242    90.4775 </r>
       <r>    -1.9529    18.3436    91.6961 </r>
       <r>    -1.8865    17.6374    92.8677 </r>
       <r>    -1.8201    14.7590    93.8482 </r>
       <r>    -1.7536    11.0736    94.5839 </r>
       <r>    -1.6872    10.6070    95.2885 </r>
       <r>    -1.6208    11.5826    96.0580 </r>
       <r>    -1.5543    11.3470    96.8118 </r>
       <r>    -1.4879    10.6800    97.5212 </r>
       <r>    -1.4215    10.5916    98.2249 </r>
       <r>    -1.3551    10.7620    98.9398 </r>
       <r>    -1.2886    10.0094    99.6048 </r>
       <r>    -1.2222     9.1204   100.2106 </r>
       <r>    -1.1558     9.2920   100.8279 </r>
       <r>    -1.0893     9.8338   101.4812 </r>
       <r>    -1.0229    10.3194   102.1668 </r>
       <r>    -0.9565     9.9238   102.8260 </r>
       <r>    -0.8900     8.8780   103.4158 </r>
       <r>    -0.8236     7.4285   103.9093 </r>
       <r>    -0.7572     5.3259   104.2631 </r>
       <r>    -0.6907     3.3794   104.4876 </r>
       <r>    -0.6243     1.8653   104.6115 </r>
       <r>    -0.5579     1.9088   104.7383 </r>
       <r>    -0.4914     3.7056   104.9845 </r>
       <r>    -0.4250     4.8690   105.3079 </r>
       <r>    -0.3586     4.0618   105.5778 </r>
       <r>    -0.2921     3.0124   105.7779 </r>
       <r>    -0.2257     2.5954   105.9503 </r>
       <r>    -0.1593     2.1436   106.0927 </r>
       <r>    -0.0928     1.7274   106.2075 </r>
       <r>    -0.0264     2.0342   106.3426 </r>
       <r>     0.0400     2.3922   106.5015 </r>
       <r>     0.1065     2.4539   106.6645 </r>
       <r>     0.1729     2.6910   106.8433 </r>
       <r>     0.2393     3.2565   107.0597 </r>
       <r>     0.3057     3.7698   107.3101 </r>
       <r>     0.3722     4.0771   107.5809 </r>
       <r>     0.4386     4.9823   107.9119 </r>
       <r>     0.5050     5.6198   108.2853 </r>
       <r>     0.5715     5.1021   108.6242 </r>
       <r>     0.6379     4.5236   108.9247 </r>
       <r>     0.7043     5.1671   109.2680 </r>
       <r>     0.7708     6.6276   109.7083 </r>
       <r>     0.8372     7.1172   110.1811 </r>
       <r>     0.9036     6.2704   110.5976 </r>
       <r>     0.9701     5.4752   110.9614 </r>
       <r>     1.0365     6.5238   111.3947 </r>
       <r>     1.1029     9.1760   112.0043 </r>
       <r>     1.1694    11.3776   112.7602 </r>
       <r>     1.2358    11.3943   113.5171 </r>
       <r>     1.3022    10.3202   114.2027 </r>
       <r>     1.3687    10.0945   114.8733 </r>
       <r>     1.4351    10.2454   115.5539 </r>
       <r>     1.5015    10.7563   116.2685 </r>
       <r>     1.5680    11.9750   117.0640 </r>
       <r>     1.6344    12.9160   117.9220 </r>
       <r>     1.7008    12.4538   118.7494 </r>
       <r>     1.7673    11.6807   119.5253 </r>
       <r>     1.8337    12.2214   120.3372 </r>
       <r>     1.9001    12.9594   121.1982 </r>
       <r>     1.9666    12.4765   122.0270 </r>
       <r>     2.0330    12.8230   122.8789 </r>
       <r>     2.0994    15.0307   123.8774 </r>
       <r>     2.1658    15.8971   124.9335 </r>
       <r>     2.2323    15.2941   125.9495 </r>
       <r>     2.2987    15.5279   126.9810 </r>
       <r>     2.3651    16.5379   128.0797 </r>
       <r>     2.4316    17.3749   129.2339 </r>
       <r>     2.4980    17.7704   130.4144 </r>
       <r>     2.5644    16.6890   131.5231 </r>
       <r>     2.6309    13.2795   132.4053 </r>
       <r>     2.6973    10.3268   133.0913 </r>
       <r>     2.7637     9.5169   133.7236 </r>
       <r>     2.8302     9.2371   134.3372 </r>
       <r>     2.8966     8.5064   134.9023 </r>
       <r>     2.9630     7.2525   135.3841 </r>
       <r>     3.0295     5.0899   135.7222 </r>
       <r>     3.0959     2.7253   135.9033 </r>
       <r>     3.1623     1.1091   135.9770 </r>
       <r>     3.2288     0.2999   135.9969 </r>
       <r>     3.2952     0.0437   135.9998 </r>
       <r>     3.3616     0.0030   136.0000 </r>
       <r>     3.4281     0.0001   136.0000 </r>
       <r>     3.4945     0.0000   136.0000 </r>
       <r>     3.5609     0.0000   136.0000 </r>
       <r>     3.6274     0.0000   136.0000 </r>
       <r>     3.6938     0.0000   136.0000 </r>
       <r>     3.7602     0.0000   136.0000 </r>
       <r>     3.8266     0.0000   136.0000 </r>
       <r>     3.8931     0.0000   136.0000 </r>
       <r>     3.9595     0.0000   136.0000 </r>
       <r>     4.0259     0.0000   136.0000 </r>
       <r>     4.0924     0.0000   136.0000 </r>
      </set>
     </set>
    </array>
   </total>
  </dos>
 </calculation>
 <structure name="finalpos" >
  <crystal>
   <varray name="basis" >
    <v>       3.54040000       0.00000000       0.00000000 </v>
    <v>      -1.77020000      10.29434800       0.00000000 </v>
    <v>       0.00000000       0.00000000      27.50142900 </v>
   </varray>
   <i name="volume">   1002.32009712 </i>
   <varray name="rec_basis" >
    <v>       0.28245396       0.04857034       0.00000000 </v>
    <v>       0.00000000       0.09714068       0.00000000 </v>
    <v>       0.00000000       0.00000000       0.03636175 </v>
   </varray>
  </crystal>
  <varray name="positions" >
   <v>       0.11402300       0.22804500       0.23316207 </v>
   <v>       0.21402300       0.92804500       0.51499159 </v>
   <v>       0.45808900       0.91617900       0.20939482 </v>
   <v>       0.55808900       0.61617900       0.49122434 </v>
   <v>       0.31085400       0.62170900       0.08414979 </v>
   <v>       0.31085400       0.62170900       0.36597930 </v>
   <v>       0.99923000       0.99846000       0.08631254 </v>
   <v>       0.99923000       0.99846000       0.36814206 </v>
   <v>       0.65492700       0.30985400       0.06041748 </v>
   <v>       0.65492700       0.30985400       0.34224700 </v>
   <v>       0.76973800       0.53947500       0.20725292 </v>
   <v>       0.86973800       0.23947500       0.48908244 </v>
   <v>       0.93971600       0.87943300       0.15783749 </v>
   <v>       0.03971600       0.57943300       0.43966701 </v>
   <v>       0.20515200       0.41030300       0.18578822 </v>
   <v>       0.30515200       0.11030300       0.46761774 </v>
   <v>       0.20184900       0.40369900       0.09969156 </v>
   <v>       0.20184900       0.40369900       0.38152107 </v>
   <v>       0.56380500       0.12761000       0.10779021 </v>
   <v>       0.56380500       0.12761000       0.38961973 </v>
   <v>       0.56710600       0.13421200       0.19387616 </v>
   <v>       0.66710600       0.83421200       0.47570568 </v>
   <v>       0.82923400       0.65846800       0.13571444 </v>
   <v>       0.92923400       0.35846800       0.41754396 </v>
  </varray>
 </structure>
</modeling>
