  24  24   0   0
  0.4176334E+02  0.3540400E-09  0.1044544E-08  0.2750143E-08  0.5000000E-15
  1.000000000000000E-004
  CAR 
 unknown system                          
      4.30093139    -15.08038976  301      0.13148481      1.00000000
    -15.080  0.0000E+00  0.0000E+00
    -15.016  0.0000E+00  0.0000E+00
    -14.951  0.0000E+00  0.0000E+00
    -14.887  0.0000E+00  0.0000E+00
    -14.822  0.0000E+00  0.0000E+00
    -14.757  0.0000E+00  0.0000E+00
    -14.693  0.0000E+00  0.0000E+00
    -14.628  0.3933E-14  0.2541E-15
    -14.564  0.3692E-11  0.2388E-12
    -14.499  0.1552E-08  0.1005E-09
    -14.434  0.2936E-06  0.1907E-07
    -14.370  0.2528E-04  0.1652E-05
    -14.305  0.1006E-02  0.6666E-04
    -14.241  0.1895E-01  0.1291E-02
    -14.176  0.1738E+00  0.1252E-01
    -14.111  0.8014E+00  0.6430E-01
    -14.047  0.1909E+01  0.1876E+00
    -13.982  0.2449E+01  0.3458E+00
    -13.918  0.2088E+01  0.4807E+00
    -13.853  0.1912E+01  0.6042E+00
    -13.788  0.1618E+01  0.7088E+00
    -13.724  0.8805E+00  0.7656E+00
    -13.659  0.8096E+00  0.8180E+00
    -13.594  0.1634E+01  0.9235E+00
    -13.530  0.2244E+01  0.1068E+01
    -13.465  0.2272E+01  0.1215E+01
    -13.401  0.2243E+01  0.1360E+01
    -13.336  0.2476E+01  0.1520E+01
    -13.271  0.3444E+01  0.1743E+01
    -13.207  0.4441E+01  0.2029E+01
    -13.142  0.4265E+01  0.2305E+01
    -13.078  0.3561E+01  0.2535E+01
    -13.013  0.3645E+01  0.2771E+01
    -12.948  0.4590E+01  0.3067E+01
    -12.884  0.5593E+01  0.3428E+01
    -12.819  0.5906E+01  0.3810E+01
    -12.755  0.5022E+01  0.4134E+01
    -12.690  0.3858E+01  0.4384E+01
    -12.625  0.4151E+01  0.4652E+01
    -12.561  0.6245E+01  0.5055E+01
    -12.496  0.7842E+01  0.5562E+01
    -12.432  0.7498E+01  0.6046E+01
    -12.367  0.6359E+01  0.6457E+01
    -12.302  0.5806E+01  0.6832E+01
    -12.238  0.5625E+01  0.7196E+01
    -12.173  0.4765E+01  0.7504E+01
    -12.109  0.3821E+01  0.7750E+01
    -12.044  0.4605E+01  0.8048E+01
    -11.979  0.6572E+01  0.8472E+01
    -11.915  0.7172E+01  0.8936E+01
    -11.850  0.6274E+01  0.9341E+01
    -11.786  0.6165E+01  0.9739E+01
    -11.721  0.7332E+01  0.1021E+02
    -11.656  0.8400E+01  0.1076E+02
    -11.592  0.8525E+01  0.1131E+02
    -11.527  0.8553E+01  0.1186E+02
    -11.463  0.8466E+01  0.1241E+02
    -11.398  0.7257E+01  0.1287E+02
    -11.333  0.6995E+01  0.1333E+02
    -11.269  0.9349E+01  0.1393E+02
    -11.204  0.1086E+02  0.1463E+02
    -11.140  0.9810E+01  0.1527E+02
    -11.075  0.9693E+01  0.1589E+02
    -11.010  0.1093E+02  0.1660E+02
    -10.946  0.1088E+02  0.1730E+02
    -10.881  0.9908E+01  0.1794E+02
    -10.816  0.1057E+02  0.1862E+02
    -10.752  0.1306E+02  0.1947E+02
    -10.687  0.1437E+02  0.2040E+02
    -10.623  0.1289E+02  0.2123E+02
    -10.558  0.9535E+01  0.2185E+02
    -10.493  0.6460E+01  0.2226E+02
    -10.429  0.5393E+01  0.2261E+02
    -10.364  0.4374E+01  0.2289E+02
    -10.300  0.2390E+01  0.2305E+02
    -10.235  0.1426E+01  0.2314E+02
    -10.170  0.1664E+01  0.2325E+02
    -10.106  0.1411E+01  0.2334E+02
    -10.041  0.5908E+00  0.2338E+02
     -9.977  0.1948E+00  0.2339E+02
     -9.912  0.4941E+00  0.2342E+02
     -9.847  0.1317E+01  0.2351E+02
     -9.783  0.1649E+01  0.2361E+02
     -9.718  0.9929E+00  0.2368E+02
     -9.654  0.5841E+00  0.2372E+02
     -9.589  0.1135E+01  0.2379E+02
     -9.524  0.1677E+01  0.2390E+02
     -9.460  0.1168E+01  0.2397E+02
     -9.395  0.3860E+00  0.2400E+02
     -9.331  0.1849E+00  0.2401E+02
     -9.266  0.6528E+00  0.2405E+02
     -9.201  0.1707E+01  0.2416E+02
     -9.137  0.2631E+01  0.2433E+02
     -9.072  0.2615E+01  0.2450E+02
     -9.008  0.1982E+01  0.2463E+02
     -8.943  0.2026E+01  0.2476E+02
     -8.878  0.3276E+01  0.2497E+02
     -8.814  0.5864E+01  0.2535E+02
     -8.749  0.8738E+01  0.2591E+02
     -8.685  0.9259E+01  0.2651E+02
     -8.620  0.7705E+01  0.2701E+02
     -8.555  0.6269E+01  0.2742E+02
     -8.491  0.5393E+01  0.2776E+02
     -8.426  0.5225E+01  0.2810E+02
     -8.362  0.5615E+01  0.2846E+02
     -8.297  0.4905E+01  0.2878E+02
     -8.232  0.3168E+01  0.2899E+02
     -8.168  0.2398E+01  0.2914E+02
     -8.103  0.3059E+01  0.2934E+02
     -8.039  0.4092E+01  0.2960E+02
     -7.974  0.4879E+01  0.2992E+02
     -7.909  0.5420E+01  0.3027E+02
     -7.845  0.5351E+01  0.3061E+02
     -7.780  0.5296E+01  0.3096E+02
     -7.715  0.5361E+01  0.3130E+02
     -7.651  0.4951E+01  0.3162E+02
     -7.586  0.4804E+01  0.3193E+02
     -7.522  0.5036E+01  0.3226E+02
     -7.457  0.5539E+01  0.3262E+02
     -7.392  0.7062E+01  0.3307E+02
     -7.328  0.9207E+01  0.3367E+02
     -7.263  0.9678E+01  0.3429E+02
     -7.199  0.8039E+01  0.3481E+02
     -7.134  0.6957E+01  0.3526E+02
     -7.069  0.7461E+01  0.3574E+02
     -7.005  0.8533E+01  0.3629E+02
     -6.940  0.8980E+01  0.3687E+02
     -6.876  0.8167E+01  0.3740E+02
     -6.811  0.7280E+01  0.3787E+02
     -6.746  0.8167E+01  0.3840E+02
     -6.682  0.1129E+02  0.3913E+02
     -6.617  0.1376E+02  0.4002E+02
     -6.553  0.1228E+02  0.4081E+02
     -6.488  0.8962E+01  0.4139E+02
     -6.423  0.6586E+01  0.4182E+02
     -6.359  0.5582E+01  0.4218E+02
     -6.294  0.5732E+01  0.4255E+02
     -6.230  0.5558E+01  0.4291E+02
     -6.165  0.4734E+01  0.4321E+02
     -6.100  0.3878E+01  0.4346E+02
     -6.036  0.3770E+01  0.4371E+02
     -5.971  0.4773E+01  0.4401E+02
     -5.907  0.5307E+01  0.4436E+02
     -5.842  0.5252E+01  0.4470E+02
     -5.777  0.7019E+01  0.4515E+02
     -5.713  0.1015E+02  0.4581E+02
     -5.648  0.1080E+02  0.4650E+02
     -5.584  0.7740E+01  0.4700E+02
     -5.519  0.4086E+01  0.4727E+02
     -5.454  0.2202E+01  0.4741E+02
     -5.390  0.2738E+01  0.4759E+02
     -5.325  0.4418E+01  0.4787E+02
     -5.261  0.5283E+01  0.4821E+02
     -5.196  0.5389E+01  0.4856E+02
     -5.131  0.4511E+01  0.4885E+02
     -5.067  0.3450E+01  0.4908E+02
     -5.002  0.4248E+01  0.4935E+02
     -4.937  0.6430E+01  0.4977E+02
     -4.873  0.8980E+01  0.5035E+02
     -4.808  0.1071E+02  0.5104E+02
     -4.744  0.1025E+02  0.5170E+02
     -4.679  0.9219E+01  0.5230E+02
     -4.614  0.9037E+01  0.5288E+02
     -4.550  0.9206E+01  0.5347E+02
     -4.485  0.9673E+01  0.5410E+02
     -4.421  0.9635E+01  0.5472E+02
     -4.356  0.9354E+01  0.5533E+02
     -4.291  0.1049E+02  0.5600E+02
     -4.227  0.1261E+02  0.5682E+02
     -4.162  0.1477E+02  0.5777E+02
     -4.098  0.1706E+02  0.5887E+02
     -4.033  0.1794E+02  0.6003E+02
     -3.968  0.1619E+02  0.6108E+02
     -3.904  0.1341E+02  0.6195E+02
     -3.839  0.1171E+02  0.6270E+02
     -3.775  0.1164E+02  0.6345E+02
     -3.710  0.1293E+02  0.6429E+02
     -3.645  0.1427E+02  0.6521E+02
     -3.581  0.1387E+02  0.6611E+02
     -3.516  0.1219E+02  0.6689E+02
     -3.452  0.1161E+02  0.6764E+02
     -3.387  0.1323E+02  0.6850E+02
     -3.322  0.1501E+02  0.6947E+02
     -3.258  0.1478E+02  0.7042E+02
     -3.193  0.1274E+02  0.7125E+02
     -3.129  0.1175E+02  0.7201E+02
     -3.064  0.1389E+02  0.7290E+02
     -2.999  0.1648E+02  0.7397E+02
     -2.935  0.1636E+02  0.7502E+02
     -2.870  0.1468E+02  0.7597E+02
     -2.806  0.1416E+02  0.7689E+02
     -2.741  0.1476E+02  0.7784E+02
     -2.676  0.1419E+02  0.7876E+02
     -2.612  0.1265E+02  0.7957E+02
     -2.547  0.1229E+02  0.8037E+02
     -2.483  0.1278E+02  0.8119E+02
     -2.418  0.1330E+02  0.8205E+02
     -2.353  0.1385E+02  0.8295E+02
     -2.289  0.1388E+02  0.8384E+02
     -2.224  0.1381E+02  0.8474E+02
     -2.160  0.1454E+02  0.8568E+02
     -2.095  0.1517E+02  0.8666E+02
     -2.030  0.1550E+02  0.8766E+02
     -1.966  0.1785E+02  0.8881E+02
     -1.901  0.2124E+02  0.9018E+02
     -1.836  0.2137E+02  0.9156E+02
     -1.772  0.1876E+02  0.9277E+02
     -1.707  0.1625E+02  0.9383E+02
     -1.643  0.1350E+02  0.9470E+02
     -1.578  0.1201E+02  0.9547E+02
     -1.513  0.1351E+02  0.9635E+02
     -1.449  0.1541E+02  0.9734E+02
     -1.384  0.1573E+02  0.9836E+02
     -1.320  0.1431E+02  0.9928E+02
     -1.255  0.1137E+02  0.1000E+03
     -1.190  0.8925E+01  0.1006E+03
     -1.126  0.9053E+01  0.1012E+03
     -1.061  0.1039E+02  0.1019E+03
     -0.997  0.1023E+02  0.1025E+03
     -0.932  0.8773E+01  0.1031E+03
     -0.867  0.6869E+01  0.1035E+03
     -0.803  0.5067E+01  0.1038E+03
     -0.738  0.5020E+01  0.1042E+03
     -0.674  0.6290E+01  0.1046E+03
     -0.609  0.6557E+01  0.1050E+03
     -0.544  0.6042E+01  0.1054E+03
     -0.480  0.6159E+01  0.1058E+03
     -0.415  0.6143E+01  0.1062E+03
     -0.351  0.4832E+01  0.1065E+03
     -0.286  0.3231E+01  0.1067E+03
     -0.221  0.2795E+01  0.1069E+03
     -0.157  0.3568E+01  0.1071E+03
     -0.092  0.3812E+01  0.1074E+03
     -0.028  0.2951E+01  0.1076E+03
      0.037  0.2699E+01  0.1077E+03
      0.102  0.2930E+01  0.1079E+03
      0.166  0.2423E+01  0.1081E+03
      0.231  0.1966E+01  0.1082E+03
      0.295  0.3216E+01  0.1084E+03
      0.360  0.5668E+01  0.1088E+03
      0.425  0.7128E+01  0.1092E+03
      0.489  0.7129E+01  0.1097E+03
      0.554  0.6948E+01  0.1101E+03
      0.618  0.6489E+01  0.1106E+03
      0.683  0.5387E+01  0.1109E+03
      0.748  0.5245E+01  0.1113E+03
      0.812  0.6582E+01  0.1117E+03
      0.877  0.6907E+01  0.1121E+03
      0.942  0.5333E+01  0.1125E+03
      1.006  0.3647E+01  0.1127E+03
      1.071  0.2748E+01  0.1129E+03
      1.135  0.2804E+01  0.1131E+03
      1.200  0.3819E+01  0.1133E+03
      1.265  0.5353E+01  0.1137E+03
      1.329  0.7419E+01  0.1141E+03
      1.394  0.9239E+01  0.1147E+03
      1.458  0.9970E+01  0.1154E+03
      1.523  0.1133E+02  0.1161E+03
      1.588  0.1331E+02  0.1170E+03
      1.652  0.1369E+02  0.1179E+03
      1.717  0.1292E+02  0.1187E+03
      1.781  0.1236E+02  0.1195E+03
      1.846  0.1134E+02  0.1202E+03
      1.911  0.9103E+01  0.1208E+03
      1.975  0.7593E+01  0.1213E+03
      2.040  0.8292E+01  0.1218E+03
      2.104  0.9683E+01  0.1225E+03
      2.169  0.1106E+02  0.1232E+03
      2.234  0.1274E+02  0.1240E+03
      2.298  0.1397E+02  0.1249E+03
      2.363  0.1456E+02  0.1258E+03
      2.427  0.1464E+02  0.1268E+03
      2.492  0.1482E+02  0.1277E+03
      2.557  0.1530E+02  0.1287E+03
      2.621  0.1600E+02  0.1298E+03
      2.686  0.1702E+02  0.1309E+03
      2.750  0.1635E+02  0.1319E+03
      2.815  0.1336E+02  0.1328E+03
      2.880  0.1072E+02  0.1335E+03
      2.944  0.9712E+01  0.1341E+03
      3.009  0.8934E+01  0.1347E+03
      3.073  0.7598E+01  0.1352E+03
      3.138  0.5685E+01  0.1355E+03
      3.203  0.3440E+01  0.1358E+03
      3.267  0.1894E+01  0.1359E+03
      3.332  0.1122E+01  0.1360E+03
      3.396  0.5115E+00  0.1360E+03
      3.461  0.1274E+00  0.1360E+03
      3.526  0.1535E-01  0.1360E+03
      3.590  0.8627E-03  0.1360E+03
      3.655  0.2228E-04  0.1360E+03
      3.719  0.2619E-06  0.1360E+03
      3.784  0.1391E-08  0.1360E+03
      3.849  0.3320E-11  0.1360E+03
      3.913  0.3503E-14  0.1360E+03
      3.978  0.0000E+00  0.1360E+03
      4.043  0.0000E+00  0.1360E+03
      4.107  0.0000E+00  0.1360E+03
      4.172  0.0000E+00  0.1360E+03
      4.236  0.0000E+00  0.1360E+03
      4.301  0.0000E+00  0.1360E+03
