 running on    8 total cores
 distrk:  each k-point on    8 cores,    1 groups
 distr:  one band on    2 cores,    4 groups
 using from now: INCAR     
 vasp.5.3.5 31Mar14 (build Oct 29 2014 16:16:03) complex                        
  
 POSCAR found type information on POSCAR  P  Si
 POSCAR found :  2 types and      24 ions
 scaLAPACK will be used

 ----------------------------------------------------------------------------- 
|                                                                             |
|  ADVICE TO THIS USER RUNNING 'VASP/VAMP'   (HEAR YOUR MASTER'S VOICE ...):  |
|                                                                             |
|      You have switched on vdW-DFT.                                          |
|      This routine was written and supplied by Jiri Klimes.                  |
|      We recommed that you carefully read and cite the following             |
|      publication                                                            |
|      J. Klimes, D.R. Bowler, A. Michelides                                  |
|        J. Phys.: Cond Matt. 22 022201 (2010)                                |
|      J. Klimes, D.R. Bowler, A. Michelides                                  |
|        Phys. Rev. B. 83, 195131 (2011)                                      |
|      and references therein.                                                |
|                                                                             |
 ----------------------------------------------------------------------------- 


 ----------------------------------------------------------------------------- 
|                                                                             |
|  ADVICE TO THIS USER RUNNING 'VASP/VAMP'   (HEAR YOUR MASTER'S VOICE ...):  |
|                                                                             |
|      You enforced a specific xc-type in the INCAR file,                     |
|      a different type was found on the POTCAR file                          |
|          I HOPE YOU KNOW, WHAT YOU ARE  DOING                               |
|                                                                             |
 ----------------------------------------------------------------------------- 

 LDA part: xc-table for Pade appr. of Perdew

 ----------------------------------------------------------------------------- 
|                                                                             |
|           W    W    AA    RRRRR   N    N  II  N    N   GGGG   !!!           |
|           W    W   A  A   R    R  NN   N  II  NN   N  G    G  !!!           |
|           W    W  A    A  R    R  N N  N  II  N N  N  G       !!!           |
|           W WW W  AAAAAA  RRRRR   N  N N  II  N  N N  G  GGG   !            |
|           WW  WW  A    A  R   R   N   NN  II  N   NN  G    G                |
|           W    W  A    A  R    R  N    N  II  N    N   GGGG   !!!           |
|                                                                             |
|      The distance between some ions is very small                           |
|      please check the nearest neigbor list in the OUTCAR file               |
|          I HOPE YOU KNOW, WHAT YOU ARE  DOING                               |
|                                                                             |
 ----------------------------------------------------------------------------- 



 VERY BAD NEWS! internal error in subroutine IBZKPT:
 Reciprocal lattice and k-lattice belong to different class of lattices. Often results are still useful...      96


 VERY BAD NEWS! internal error in subroutine IBZKPT:
 Reciprocal lattice and k-lattice belong to different class of lattices. Often results are still useful...      96


 VERY BAD NEWS! internal error in subroutine IBZKPT:
 Reciprocal lattice and k-lattice belong to different class of lattices. Often results are still useful...      96


 VERY BAD NEWS! internal error in subroutine IBZKPT:
 Reciprocal lattice and k-lattice belong to different class of lattices. Often results are still useful...      96


 VERY BAD NEWS! internal error in subroutine IBZKPT:
 Reciprocal lattice and k-lattice belong to different class of lattices. Often results are still useful...      96


 VERY BAD NEWS! internal error in subroutine IBZKPT:
 Reciprocal lattice and k-lattice belong to different class of lattices. Often results are still useful...      96


 VERY BAD NEWS! internal error in subroutine IBZKPT:
 Reciprocal lattice and k-lattice belong to different class of lattices. Often results are still useful...      96


 VERY BAD NEWS! internal error in subroutine IBZKPT:
 Reciprocal lattice and k-lattice belong to different class of lattices. Often results are still useful...      96
 POSCAR, INCAR and KPOINTS ok, starting setup
 WARNING: small aliasing (wrap around) errors must be expected
 FFT: planning ...
 WAVECAR not read
 entering main loop
       N       E                     dE             d eps       ncg     rms          rms(c)
Total vdW correction in eV:     16.0355639
DAV:   1     0.545854919053E+03    0.54585E+03   -0.28753E+04  7344   0.790E+02
DAV:   2    -0.242984643182E+02   -0.57015E+03   -0.55523E+03  9824   0.191E+02
DAV:   3    -0.847659242072E+02   -0.60467E+02   -0.59592E+02  9564   0.638E+01
DAV:   4    -0.875751291966E+02   -0.28092E+01   -0.27853E+01 11208   0.143E+01
DAV:   5    -0.876293072593E+02   -0.54178E-01   -0.54092E-01 10392   0.215E+00    0.138E+01
Total vdW correction in eV:     16.4813719
DAV:   6    -0.819081613742E+02    0.57211E+01   -0.16644E+01  9292   0.127E+01    0.652E+00
Total vdW correction in eV:     16.8673609
DAV:   7    -0.821345683880E+02   -0.22641E+00   -0.12552E+01  8552   0.892E+00    0.339E+00
Total vdW correction in eV:     17.0457032
DAV:   8    -0.820432167933E+02    0.91352E-01   -0.23105E+00  8864   0.445E+00    0.194E+00
Total vdW correction in eV:     17.1987034
DAV:   9    -0.820512825550E+02   -0.80658E-02   -0.60349E-01  9208   0.204E+00    0.775E-01
Total vdW correction in eV:     17.2677925
DAV:  10    -0.820559677018E+02   -0.46851E-02   -0.90899E-02  8728   0.945E-01    0.309E-01
Total vdW correction in eV:     17.2889970
DAV:  11    -0.820464893069E+02    0.94784E-02   -0.25100E-02  9272   0.430E-01    0.137E-01
Total vdW correction in eV:     17.2979768
DAV:  12    -0.820358797130E+02    0.10610E-01   -0.41795E-03  8968   0.208E-01    0.585E-02
Total vdW correction in eV:     17.3035703
DAV:  13    -0.820309012877E+02    0.49784E-02   -0.93782E-04  9320   0.919E-02    0.288E-02
Total vdW correction in eV:     17.3082276
DAV:  14    -0.820284949491E+02    0.24063E-02   -0.23677E-04  9632   0.437E-02    0.161E-02
Total vdW correction in eV:     17.3120953
DAV:  15    -0.820268880394E+02    0.16069E-02   -0.90986E-05  9376   0.266E-02    0.960E-03
Total vdW correction in eV:     17.3148980
DAV:  16    -0.820268517953E+02    0.36244E-04   -0.49293E-05  8224   0.201E-02    0.581E-03
Total vdW correction in eV:     17.3163890
DAV:  17    -0.820275140699E+02   -0.66227E-03   -0.13070E-04  8408   0.238E-02    0.317E-03
Total vdW correction in eV:     17.3166876
DAV:  18    -0.820276983336E+02   -0.18426E-03   -0.10280E-04  7976   0.183E-02    0.187E-03
Total vdW correction in eV:     17.3164649
DAV:  19    -0.820278144480E+02   -0.11611E-03   -0.34780E-05  7456   0.126E-02    0.124E-03
Total vdW correction in eV:     17.3163249
DAV:  20    -0.820278305632E+02   -0.16115E-04   -0.11116E-05  6752   0.832E-03    0.824E-04
Total vdW correction in eV:     17.3161828
DAV:  21    -0.820278248120E+02    0.57512E-05   -0.24596E-05  7156   0.102E-02    0.619E-04
Total vdW correction in eV:     17.3160884
DAV:  22    -0.820277871993E+02    0.37613E-04   -0.19391E-05  6856   0.110E-02    0.314E-04
Total vdW correction in eV:     17.3160683
DAV:  23    -0.820277262157E+02    0.60984E-04   -0.97488E-06  6928   0.811E-03    0.190E-04
Total vdW correction in eV:     17.3160600
DAV:  24    -0.820277193793E+02    0.68365E-05   -0.76852E-06  6592   0.879E-03    0.917E-05
Total vdW correction in eV:     17.3160557
DAV:  25    -0.820277032732E+02    0.16106E-04   -0.38751E-06  6592   0.680E-03    0.485E-05
Total vdW correction in eV:     17.3160554
DAV:  26    -0.820277046121E+02   -0.13390E-05   -0.42179E-06  6592   0.673E-03    0.241E-05
Total vdW correction in eV:     17.3160537
DAV:  27    -0.820277024022E+02    0.22100E-05   -0.25662E-06  5864   0.602E-03    0.158E-05
Total vdW correction in eV:     17.3160537
DAV:  28    -0.820277014754E+02    0.92679E-06   -0.15598E-06  5744   0.476E-03
Total vdW correction in eV:     17.3160529
Total vdW correction in eV:     17.3160534
   1 F= -.82027701E+02 E0= -.82021551E+02  d E =-.123001E-01
