 vasp.5.3.5 31Mar14 (build Oct 29 2014 16:16:03) complex                        
  
 executed on          Linux-UFHPC date 2016.02.09  18:05:41
 running on    8 total cores
 distrk:  each k-point on    8 cores,    1 groups
 distr:  one band on NCORES_PER_BAND=   2 cores,    4 groups


--------------------------------------------------------------------------------------------------------


 INCAR:
 POTCAR:    PAW_PBE P 17Jan2003                   
 POTCAR:   PAW_PBE Si 05Jan2001                   

 ----------------------------------------------------------------------------- 
|                                                                             |
|  ADVICE TO THIS USER RUNNING 'VASP/VAMP'   (HEAR YOUR MASTER'S VOICE ...):  |
|                                                                             |
|      You have switched on vdW-DFT.                                          |
|      This routine was written and supplied by Jiri Klimes.                  |
|      We recommed that you carefully read and cite the following             |
|      publication                                                            |
|      J. Klimes, D.R. Bowler, A. Michelides                                  |
|        J. Phys.: Cond Matt. 22 022201 (2010)                                |
|      J. Klimes, D.R. Bowler, A. Michelides                                  |
|        Phys. Rev. B. 83, 195131 (2011)                                      |
|      and references therein.                                                |
|                                                                             |
 ----------------------------------------------------------------------------- 

 POTCAR:    PAW_PBE P 17Jan2003                   
   VRHFIN =P : s2p3                                                             
   LEXCH  = PE                                                                  
   EATOM  =   176.0430 eV,   12.9388 Ry                                         
                                                                                
   TITEL  = PAW_PBE P 17Jan2003                                                 
   LULTRA =        F    use ultrasoft PP ?                                      
   IUNSCR =        1    unscreen: 0-lin 1-nonlin 2-no                           
   RPACOR =    1.500    partial core radius                                     
   POMASS =   30.974; ZVAL   =    5.000    mass and valenz                      
   RCORE  =    1.900    outmost cutoff radius                                   
   RWIGS  =    2.330; RWIGS  =    1.233    wigner-seitz radius (au A)           
   ENMAX  =  270.000; ENMIN  =  191.280 eV                                      
   ICORE  =        2    local potential                                         
   LCOR   =        T    correct aug charges                                     
   LPAW   =        T    paw PP                                                  
   EAUG   =  342.924                                                            
   DEXC   =    -.002                                                            
   RMAX   =    2.887    core radius for proj-oper                               
   RAUG   =    1.300    factor for augmentation sphere                          
   RDEP   =    1.931    radius for radial grids                                 
   QCUT   =   -4.330; QGAM   =    8.659    optimization parameters              
                                                                                
   Description                                                                  
     l     E      TYP  RCUT    TYP  RCUT                                        
     0   .000     23  1.900                                                     
     0   .000     23  1.900                                                     
     1   .000     23  1.900                                                     
     1   .000     23  1.900                                                     
     2   .000     23  1.900                                                     
  local pseudopotential read in
  partial core-charges read in
  atomic valenz-charges read in
  non local Contribution for L=           0  read in
    real space projection operators read in
  non local Contribution for L=           0  read in
    real space projection operators read in
  non local Contribution for L=           1  read in
    real space projection operators read in
  non local Contribution for L=           1  read in
    real space projection operators read in
    PAW grid and wavefunctions read in
 
   number of l-projection  operators is LMAX  =           4
   number of lm-projection operators is LMMAX =           8
 
 POTCAR:   PAW_PBE Si 05Jan2001                   
   VRHFIN =Si: s2p2                                                             
   LEXCH  = PE                                                                  
   EATOM  =   103.0669 eV,    7.5752 Ry                                         
                                                                                
   TITEL  = PAW_PBE Si 05Jan2001                                                
   LULTRA =        F    use ultrasoft PP ?                                      
   IUNSCR =        1    unscreen: 0-lin 1-nonlin 2-no                           
   RPACOR =    1.500    partial core radius                                     
   POMASS =   28.085; ZVAL   =    4.000    mass and valenz                      
   RCORE  =    1.900    outmost cutoff radius                                   
   RWIGS  =    2.480; RWIGS  =    1.312    wigner-seitz radius (au A)           
   ENMAX  =  245.345; ENMIN  =  184.009 eV                                      
   ICORE  =        2    local potential                                         
   LCOR   =        T    correct aug charges                                     
   LPAW   =        T    paw PP                                                  
   EAUG   =  322.069                                                            
   DEXC   =    -.007                                                            
   RMAX   =    2.944    core radius for proj-oper                               
   RAUG   =    1.300    factor for augmentation sphere                          
   RDEP   =    1.993    radius for radial grids                                 
   QCUT   =   -4.246; QGAM   =    8.493    optimization parameters              
                                                                                
   Description                                                                  
     l     E      TYP  RCUT    TYP  RCUT                                        
     0   .000     23  1.900                                                     
     0   .000     23  1.900                                                     
     1   .000     23  1.900                                                     
     1   .000     23  1.900                                                     
     2   .000      7  1.900                                                     
  local pseudopotential read in
  partial core-charges read in
  atomic valenz-charges read in
  non local Contribution for L=           0  read in
    real space projection operators read in
  non local Contribution for L=           0  read in
    real space projection operators read in
  non local Contribution for L=           1  read in
    real space projection operators read in
  non local Contribution for L=           1  read in
    real space projection operators read in
    PAW grid and wavefunctions read in
 
   number of l-projection  operators is LMAX  =           4
   number of lm-projection operators is LMMAX =           8
 
 Optimization of the real space projectors (new method)

 maximal supplied QI-value         = 19.84
 optimisation between [QCUT,QGAM] = [  8.73, 17.66] = [ 21.34, 87.33] Ry 
 Optimized for a Real-space Cutoff    1.50 Angstroem

   l    n(q)    QCUT    max X(q) W(low)/X(q) W(high)/X(q)  e(spline) 
   0      8     8.731     6.651    0.16E-04    0.15E-04    0.77E-08
   0      8     8.731    90.285    0.16E-03    0.90E-04    0.16E-06
   1      7     8.731     4.328    0.47E-04    0.36E-04    0.45E-07
   1      7     8.731    54.583    0.13E-03    0.39E-03    0.20E-06
 Optimization of the real space projectors (new method)

 maximal supplied QI-value         = 19.84
 optimisation between [QCUT,QGAM] = [  8.73, 17.66] = [ 21.34, 87.33] Ry 
 Optimized for a Real-space Cutoff    1.46 Angstroem

   l    n(q)    QCUT    max X(q) W(low)/X(q) W(high)/X(q)  e(spline) 
   0      8     8.731     8.708    0.16E-04    0.11E-04    0.68E-08
   0      8     8.731   106.241    0.24E-03    0.77E-04    0.13E-06
   1      7     8.731     5.901    0.34E-04    0.38E-04    0.36E-07
   1      7     8.731    73.241    0.12E-03    0.39E-03    0.15E-06

 ----------------------------------------------------------------------------- 
|                                                                             |
|  ADVICE TO THIS USER RUNNING 'VASP/VAMP'   (HEAR YOUR MASTER'S VOICE ...):  |
|                                                                             |
|      You enforced a specific xc-type in the INCAR file,                     |
|      a different type was found on the POTCAR file                          |
|          I HOPE YOU KNOW, WHAT YOU ARE  DOING                               |
|                                                                             |
 ----------------------------------------------------------------------------- 

  PAW_PBE P 17Jan2003                   :
 energy of atom  1       EATOM= -176.0430
 kinetic energy error for atom=    0.0040 (will be added to EATOM!!)
 PAW_PBE Si 05Jan2001                   :
 energy of atom  2       EATOM= -103.0669
 kinetic energy error for atom=    0.0021 (will be added to EATOM!!)
 
 
 POSCAR: Si12                                    
  positions in direct lattice
  No initial velocities read in
 exchange correlation table for  LEXCH =       42
   RHO(1)=    0.500       N(1)  =     2000
   RHO(2)=  100.500       N(2)  =     4000
 


--------------------------------------------------------------------------------------------------------


 ion  position               nearest neighbor table
   1  0.114  0.228  0.233-  15 2.28  21 2.29  21 2.29
   2  0.514  0.928  0.515-  16 2.28  22 2.29  22 2.29
   3  0.458  0.916  0.209-  21 2.28  13 2.30  13 2.30
   4  0.858  0.616  0.491-  22 2.28  14 2.30  14 2.30
   5  0.311  0.622  0.084-  17 2.28  23 2.30  23 2.30
   6  0.311  0.622  0.366-  14 2.08  18 2.28
   7  0.999  0.998  0.086-  19 2.29  19 2.29  13 2.32
   8  0.999  0.998  0.368-  20 2.29  20 2.29
   9  0.655  0.310  0.060-  19 2.28  17 2.29  17 2.29
  10  0.655  0.310  0.342-  20 2.28  18 2.29  18 2.29  24 2.66  24 2.89
  11  0.770  0.539  0.207-  15 2.29  15 2.29  23 2.32
  12  0.170  0.239  0.489-  16 2.29  16 2.29  24 2.32
  13  0.940  0.879  0.158-   3 2.30   3 2.30   7 2.32  23 2.35
  14  0.340  0.579  0.440-   6 2.08   4 2.30   4 2.30  24 2.35  18 2.42
  15  0.205  0.410  0.186-   1 2.28  11 2.29  11 2.29  17 2.37
  16  0.605  0.110  0.468-  20 2.16   2 2.28  12 2.29  12 2.29
  17  0.202  0.404  0.100-   5 2.28   9 2.29   9 2.29  15 2.37
  18  0.202  0.404  0.382-  24 1.11   6 2.28  10 2.29  10 2.29  14 2.42
  19  0.564  0.128  0.108-   9 2.28   7 2.29   7 2.29  21 2.37
  20  0.564  0.128  0.390-  16 2.16  10 2.28   8 2.29   8 2.29  24 2.96
  21  0.567  0.134  0.194-   3 2.28   1 2.29   1 2.29  19 2.37
  22  0.967  0.834  0.476-   4 2.28   2 2.29   2 2.29
  23  0.829  0.658  0.136-   5 2.30   5 2.30  11 2.32  13 2.35
  24  0.229  0.358  0.418-  18 1.11  12 2.32  14 2.35  10 2.66  10 2.89  20 2.96
 

 ----------------------------------------------------------------------------- 
|                                                                             |
|           W    W    AA    RRRRR   N    N  II  N    N   GGGG   !!!           |
|           W    W   A  A   R    R  NN   N  II  NN   N  G    G  !!!           |
|           W    W  A    A  R    R  N N  N  II  N N  N  G       !!!           |
|           W WW W  AAAAAA  RRRRR   N  N N  II  N  N N  G  GGG   !            |
|           WW  WW  A    A  R   R   N   NN  II  N   NN  G    G                |
|           W    W  A    A  R    R  N    N  II  N    N   GGGG   !!!           |
|                                                                             |
|      The distance between some ions is very small                           |
|      please check the nearest neigbor list in the OUTCAR file               |
|          I HOPE YOU KNOW, WHAT YOU ARE  DOING                               |
|                                                                             |
 ----------------------------------------------------------------------------- 

  LATTYP: Found a base centered orthorhombic cell.
 ALAT       =     3.5404000000
 B/A-ratio  =     5.8153587165
 C/A-ratio  =     7.7678875268
  
  Lattice vectors:
  
 A1 = (   1.7702000000,  10.2943480000,   0.0000000000)
 A2 = (   1.7702000000, -10.2943480000,   0.0000000000)
 A3 = (   0.0000000000,   0.0000000000, -27.5014290000)


Analysis of symmetry for initial positions (statically):
=====================================================================
 Subroutine PRICEL returns:
 Original cell was already a primitive cell.
 

 Routine SETGRP: Setting up the symmetry group for a 
 base centered orthorhombic supercell.


 Subroutine GETGRP returns: Found  1 space group operations
 (whereof  1 operations were pure point group operations)
 out of a pool of  8 trial point group operations.


The static configuration has the point symmetry C_1 .


Analysis of symmetry for dynamics (positions and initial velocities):
=====================================================================
 Subroutine PRICEL returns:
 Original cell was already a primitive cell.
 

 Routine SETGRP: Setting up the symmetry group for a 
 base centered orthorhombic supercell.


 Subroutine GETGRP returns: Found  1 space group operations
 (whereof  1 operations were pure point group operations)
 out of a pool of  8 trial point group operations.


The dynamic configuration has the point symmetry C_1 .
 
 
 KPOINTS: pymatgen generated KPOINTS with grid den

Automatic generation of k-mesh.
Space group operators:
 irot       det(A)        alpha          n_x          n_y          n_z        tau_x        tau_y        tau_z
    1     1.000000     0.000000     1.000000     0.000000     0.000000     0.000000     0.000000     0.000000
 
 Subroutine IBZKPT returns following result:
 ===========================================
 
 Found     54 irreducible k-points:
 
 Following reciprocal coordinates:
            Coordinates               Weight
  0.000000  0.000000  0.000000      1.000000
  0.076923 -0.000000  0.000000      2.000000
  0.153846 -0.000000  0.000000      2.000000
  0.230769 -0.000000  0.000000      2.000000
  0.307692 -0.000000  0.000000      2.000000
  0.384615 -0.000000  0.000000      2.000000
  0.461538 -0.000000  0.000000      2.000000
  0.000000  0.250000  0.000000      2.000000
  0.076923  0.250000  0.000000      2.000000
  0.153846  0.250000  0.000000      2.000000
  0.230769  0.250000  0.000000      2.000000
  0.307692  0.250000  0.000000      2.000000
  0.384615  0.250000  0.000000      2.000000
  0.461538  0.250000  0.000000      2.000000
 -0.461538  0.250000  0.000000      2.000000
 -0.384615  0.250000  0.000000      2.000000
 -0.307692  0.250000  0.000000      2.000000
 -0.230769  0.250000  0.000000      2.000000
 -0.153846  0.250000  0.000000      2.000000
 -0.076923  0.250000  0.000000      2.000000
  0.000000  0.500000  0.000000      1.000000
  0.076923  0.500000  0.000000      2.000000
  0.153846  0.500000  0.000000      2.000000
  0.230769  0.500000  0.000000      2.000000
  0.307692  0.500000  0.000000      2.000000
  0.384615  0.500000  0.000000      2.000000
  0.461538  0.500000  0.000000      2.000000
  0.000000  0.000000  0.500000      1.000000
  0.076923 -0.000000  0.500000      2.000000
  0.153846 -0.000000  0.500000      2.000000
  0.230769 -0.000000  0.500000      2.000000
  0.307692 -0.000000  0.500000      2.000000
  0.384615 -0.000000  0.500000      2.000000
  0.461538 -0.000000  0.500000      2.000000
  0.000000  0.250000  0.500000      2.000000
  0.076923  0.250000  0.500000      2.000000
  0.153846  0.250000  0.500000      2.000000
  0.230769  0.250000  0.500000      2.000000
  0.307692  0.250000  0.500000      2.000000
  0.384615  0.250000  0.500000      2.000000
  0.461538  0.250000  0.500000      2.000000
 -0.461538  0.250000  0.500000      2.000000
 -0.384615  0.250000  0.500000      2.000000
 -0.307692  0.250000  0.500000      2.000000
 -0.230769  0.250000  0.500000      2.000000
 -0.153846  0.250000  0.500000      2.000000
 -0.076923  0.250000  0.500000      2.000000
  0.000000  0.500000  0.500000      1.000000
  0.076923  0.500000  0.500000      2.000000
  0.153846  0.500000  0.500000      2.000000
  0.230769  0.500000  0.500000      2.000000
  0.307692  0.500000  0.500000      2.000000
  0.384615  0.500000  0.500000      2.000000
  0.461538  0.500000  0.500000      2.000000
 
 Following cartesian coordinates:
            Coordinates               Weight
  0.000000  0.000000  0.000000      1.000000
  0.021727  0.003736  0.000000      2.000000
  0.043454  0.007472  0.000000      2.000000
  0.065182  0.011209  0.000000      2.000000
  0.086909  0.014945  0.000000      2.000000
  0.108636  0.018681  0.000000      2.000000
  0.130363  0.022417  0.000000      2.000000
  0.000000  0.024285  0.000000      2.000000
  0.021727  0.028021  0.000000      2.000000
  0.043454  0.031758  0.000000      2.000000
  0.065182  0.035494  0.000000      2.000000
  0.086909  0.039230  0.000000      2.000000
  0.108636  0.042966  0.000000      2.000000
  0.130363  0.046702  0.000000      2.000000
 -0.130363  0.001868  0.000000      2.000000
 -0.108636  0.005604  0.000000      2.000000
 -0.086909  0.009340  0.000000      2.000000
 -0.065182  0.013077  0.000000      2.000000
 -0.043454  0.016813  0.000000      2.000000
 -0.021727  0.020549  0.000000      2.000000
  0.000000  0.048570  0.000000      1.000000
  0.021727  0.052307  0.000000      2.000000
  0.043454  0.056043  0.000000      2.000000
  0.065182  0.059779  0.000000      2.000000
  0.086909  0.063515  0.000000      2.000000
  0.108636  0.067251  0.000000      2.000000
  0.130363  0.070987  0.000000      2.000000
  0.000000  0.000000  0.018181      1.000000
  0.021727  0.003736  0.018181      2.000000
  0.043454  0.007472  0.018181      2.000000
  0.065182  0.011209  0.018181      2.000000
  0.086909  0.014945  0.018181      2.000000
  0.108636  0.018681  0.018181      2.000000
  0.130363  0.022417  0.018181      2.000000
  0.000000  0.024285  0.018181      2.000000
  0.021727  0.028021  0.018181      2.000000
  0.043454  0.031758  0.018181      2.000000
  0.065182  0.035494  0.018181      2.000000
  0.086909  0.039230  0.018181      2.000000
  0.108636  0.042966  0.018181      2.000000
  0.130363  0.046702  0.018181      2.000000
 -0.130363  0.001868  0.018181      2.000000
 -0.108636  0.005604  0.018181      2.000000
 -0.086909  0.009340  0.018181      2.000000
 -0.065182  0.013077  0.018181      2.000000
 -0.043454  0.016813  0.018181      2.000000
 -0.021727  0.020549  0.018181      2.000000
  0.000000  0.048570  0.018181      1.000000
  0.021727  0.052307  0.018181      2.000000
  0.043454  0.056043  0.018181      2.000000
  0.065182  0.059779  0.018181      2.000000
  0.086909  0.063515  0.018181      2.000000
  0.108636  0.067251  0.018181      2.000000
  0.130363  0.070987  0.018181      2.000000
 


--------------------------------------------------------------------------------------------------------




 Dimension of arrays:
   k-points           NKPTS =     54   k-points in BZ     NKDIM =     54   number of bands    NBANDS=     68
   number of dos      NEDOS =    301   number of ions     NIONS =     24
   non local maximal  LDIM  =      4   non local SUM 2l+1 LMDIM =      8
   total plane-waves  NPLWV = 192000
   max r-space proj   IRMAX =   2772   max aug-charges    IRDMAX=   6603
   dimension x,y,z NGX =    20 NGY =   60 NGZ =  160
   dimension x,y,z NGXF=    40 NGYF=  120 NGZF=  320
   support grid    NGXF=    40 NGYF=  120 NGZF=  320
   ions per type =              12  12
 NGX,Y,Z   is equivalent  to a cutoff of   9.39,  9.55,  9.67 a.u.
 NGXF,Y,Z  is equivalent  to a cutoff of  18.78, 19.10, 19.34 a.u.


 I would recommend the setting:
   dimension x,y,z NGX =    20 NGY =   59 NGZ =  155
 SYSTEM =  unknown system                          
 POSCAR =  Si12                                    

 Startparameter for this run:
   NWRITE =      2    write-flag & timer
   PREC   = accura    normal or accurate (medium, high low for compatibility)
   ISTART =      0    job   : 0-new  1-cont  2-samecut
   ICHARG =      2    charge: 1-file 2-atom 10-const
   ISPIN  =      1    spin polarized calculation?
   LNONCOLLINEAR =      F non collinear calculations
   LSORBIT =      F    spin-orbit coupling
   INIWAV =      1    electr: 0-lowe 1-rand  2-diag
   LASPH  =      F    aspherical Exc in radial PAW
   METAGGA=      F    non-selfconsistent MetaGGA calc.

 Electronic Relaxation 1
   ENCUT  =  300.0 eV  22.05 Ry    4.70 a.u.   5.00 14.75 38.84*2*pi/ulx,y,z
   ENINI  =  300.0     initial cutoff
   ENAUG  =  342.9 eV  augmentation charge cutoff
   NELM   =     60;   NELMIN=  2; NELMDL= -5     # of ELM steps 
   EDIFF  = 0.1E-05   stopping-criterion for ELM
   LREAL  =      T    real-space projection
   NLSPLINE    = F    spline interpolate recip. space projectors
   LCOMPAT=      F    compatible to vasp.4.4
   GGA_COMPAT  = T    GGA compatible to vasp.4.4-vasp.4.6
   LMAXPAW     = -100 max onsite density
   LMAXMIX     =    2 max onsite mixed and CHGCAR
   VOSKOWN=      0    Vosko Wilk Nusair interpolation
   ROPT   =   -0.00025  -0.00025
 Ionic relaxation
   EDIFFG = 0.1E-04   stopping-criterion for IOM
   NSW    =      0    number of steps for IOM
   NBLOCK =      1;   KBLOCK =      1    inner block; outer block 
   IBRION =     -1    ionic relax: 0-MD 1-quasi-New 2-CG
   NFREE  =      1    steps in history (QN), initial steepest desc. (CG)
   ISIF   =      3    stress and relaxation
   IWAVPR =     10    prediction:  0-non 1-charg 2-wave 3-comb
   ISYM   =      2    0-nonsym 1-usesym 2-fastsym
   LCORR  =      T    Harris-Foulkes like correction to forces

   POTIM  = 0.5000    time-step for ionic-motion
   TEIN   =    0.0    initial temperature
   TEBEG  =    0.0;   TEEND  =   0.0 temperature during run
   SMASS  =  -3.00    Nose mass-parameter (am)
   estimated Nose-frequenzy (Omega)   =  0.10E-29 period in steps =****** mass=  -0.286E-27a.u.
   SCALEE = 1.0000    scale energy and forces
   NPACO  =    256;   APACO  = 16.0  distance and # of slots for P.C.
   PSTRESS=    0.0 pullay stress

  Mass of Ions in am
   POMASS =  30.97 28.09
  Ionic Valenz
   ZVAL   =   5.00  4.00
  Atomic Wigner-Seitz radii
   RWIGS  =  -1.00 -1.00
  virtual crystal weights 
   VCA    =   1.00  1.00
   NELECT =     108.0000    total number of electrons
   NUPDOWN=      -1.0000    fix difference up-down

 DOS related values:
   EMIN   =  10.00;   EMAX   =-10.00  energy-range for DOS
   EFERMI =   0.00
   ISMEAR =     0;   SIGMA  =   0.10  broadening in eV -4-tet -1-fermi 0-gaus

 Electronic relaxation 2 (details)
   IALGO  =     38    algorithm
   LDIAG  =      T    sub-space diagonalisation (order eigenvalues)
   LSUBROT=      F    optimize rotation matrix (better conditioning)
   TURBO    =      0    0=normal 1=particle mesh
   IRESTART =      0    0=no restart 2=restart with 2 vectors
   NREBOOT  =      0    no. of reboots
   NMIN     =      0    reboot dimension
   EREF     =   0.00    reference energy to select bands
   IMIX   =      4    mixing-type and parameters
     AMIX     =   0.40;   BMIX     =  1.00
     AMIX_MAG =   1.60;   BMIX_MAG =  1.00
     AMIN     =   0.10
     WC   =   100.;   INIMIX=   1;  MIXPRE=   1;  MAXMIX= -45

 Intra band minimization:
   WEIMIN = 0.0000     energy-eigenvalue tresh-hold
   EBREAK =  0.37E-08  absolut break condition
   DEPER  =   0.30     relativ break condition  

   TIME   =   0.40     timestep for ELM

  volume/ion in A,a.u.               =      41.76       281.83
  Fermi-wavevector in a.u.,A,eV,Ry     =   0.779018  1.472130  8.256946  0.606868
  Thomas-Fermi vector in A             =   1.882034
 
 Write flags
   LWAVE  =      F    write WAVECAR
   LCHARG =      F    write CHGCAR
   LVTOT  =      F    write LOCPOT, total local potential
   LVHAR  =      F    write LOCPOT, Hartree potential only
   LELF   =      F    write electronic localiz. function (ELF)
   LORBIT =      0    0 simple, 1 ext, 2 COOP (PROOUT)


 Dipole corrections
   LMONO  =      F    monopole corrections only (constant potential shift)
   LDIPOL =      F    correct potential (dipole corrections)
   IDIPOL =      0    1-x, 2-y, 3-z, 4-all directions 
   EPSILON=  1.0000000 bulk dielectric constant

 Exchange correlation treatment:
   GGA     =    BO    GGA type
   LEXCH   =    42    internal setting for exchange type
   VOSKOWN=      0    Vosko Wilk Nusair interpolation
   LHFCALC =     F    Hartree Fock is set to
   LHFONE  =     F    Hartree Fock one center treatment
   AEXX    =    0.0000 exact exchange contribution

 vdW DFT:
   LUSE_VDW   =     T    switch on vdW DFT
   Zab_VDW    =-.8491    correlation parameter
   PARAM1     =0.1833
   PARAM2     =0.2200
   PARAM3     =0.0000

 Linear response parameters
   LEPSILON=     F    determine dielectric tensor
   LRPA    =     F    only Hartree local field effects (RPA)
   LNABLA  =     F    use nabla operator in PAW spheres
   LVEL    =     F    velocity operator in full k-point grid
   LINTERFAST=   F  fast interpolation
   KINTER  =     0    interpolate to denser k-point grid
   CSHIFT  =0.1000    complex shift for real part using Kramers Kronig
   OMEGAMAX=  -1.0    maximum frequency
   DEG_THRESHOLD= 0.2000000E-02 threshold for treating states as degnerate
   RTIME   =    0.100 relaxation time in fs

 Orbital magnetization related:
   ORBITALMAG=     F  switch on orbital magnetization
   LCHIMAG   =     F  perturbation theory with respect to B field
   DQ        =  0.001000  dq finite difference perturbation B field



--------------------------------------------------------------------------------------------------------


 Static calculation
 charge density and potential will be updated during run
 non-spin polarized calculation
 Variant of blocked Davidson
 Davidson routine will perform the subspace rotation
 perform sub-space diagonalisation
    after iterative eigenvector-optimisation
 modified Broyden-mixing scheme, WC =      100.0
 initial mixing is a Kerker type mixing with AMIX =  0.4000 and BMIX =      1.0000
 Hartree-type preconditioning will be used
 using additional bands           14
 real space projection scheme for non local part
 use partial core corrections
 calculate Harris-corrections to forces 
   (improved forces if not selfconsistent)
 use gradient corrections 
 use of overlap-Matrix (Vanderbilt PP)
 Gauss-broadening in eV      SIGMA  =   0.10


--------------------------------------------------------------------------------------------------------


  energy-cutoff  :      300.00
  volume of cell :     1002.32
      direct lattice vectors                 reciprocal lattice vectors
     3.540400000  0.000000000  0.000000000     0.282453960  0.048570342  0.000000000
    -1.770200000 10.294348000  0.000000000     0.000000000  0.097140683  0.000000000
     0.000000000  0.000000000 27.501429000     0.000000000  0.000000000  0.036361747

  length of vectors
     3.540400000 10.445439617 27.501429000     0.286599577  0.097140683  0.036361747


 
 k-points in units of 2pi/SCALE and weight: pymatgen generated KPOINTS with grid den
   0.00000000  0.00000000  0.00000000       0.010
   0.02172723  0.00373618  0.00000000       0.019
   0.04345446  0.00747236  0.00000000       0.019
   0.06518168  0.01120854  0.00000000       0.019
   0.08690891  0.01494472  0.00000000       0.019
   0.10863614  0.01868090  0.00000000       0.019
   0.13036337  0.02241708  0.00000000       0.019
   0.00000000  0.02428517  0.00000000       0.019
   0.02172723  0.02802135  0.00000000       0.019
   0.04345446  0.03175753  0.00000000       0.019
   0.06518168  0.03549371  0.00000000       0.019
   0.08690891  0.03922989  0.00000000       0.019
   0.10863614  0.04296607  0.00000000       0.019
   0.13036337  0.04670225  0.00000000       0.019
  -0.13036337  0.00186809  0.00000000       0.019
  -0.10863614  0.00560427  0.00000000       0.019
  -0.08690891  0.00934045  0.00000000       0.019
  -0.06518168  0.01307663  0.00000000       0.019
  -0.04345446  0.01681281  0.00000000       0.019
  -0.02172723  0.02054899  0.00000000       0.019
   0.00000000  0.04857034  0.00000000       0.010
   0.02172723  0.05230652  0.00000000       0.019
   0.04345446  0.05604270  0.00000000       0.019
   0.06518168  0.05977888  0.00000000       0.019
   0.08690891  0.06351506  0.00000000       0.019
   0.10863614  0.06725124  0.00000000       0.019
   0.13036337  0.07098742  0.00000000       0.019
   0.00000000  0.00000000  0.01818087       0.010
   0.02172723  0.00373618  0.01818087       0.019
   0.04345446  0.00747236  0.01818087       0.019
   0.06518168  0.01120854  0.01818087       0.019
   0.08690891  0.01494472  0.01818087       0.019
   0.10863614  0.01868090  0.01818087       0.019
   0.13036337  0.02241708  0.01818087       0.019
   0.00000000  0.02428517  0.01818087       0.019
   0.02172723  0.02802135  0.01818087       0.019
   0.04345446  0.03175753  0.01818087       0.019
   0.06518168  0.03549371  0.01818087       0.019
   0.08690891  0.03922989  0.01818087       0.019
   0.10863614  0.04296607  0.01818087       0.019
   0.13036337  0.04670225  0.01818087       0.019
  -0.13036337  0.00186809  0.01818087       0.019
  -0.10863614  0.00560427  0.01818087       0.019
  -0.08690891  0.00934045  0.01818087       0.019
  -0.06518168  0.01307663  0.01818087       0.019
  -0.04345446  0.01681281  0.01818087       0.019
  -0.02172723  0.02054899  0.01818087       0.019
   0.00000000  0.04857034  0.01818087       0.010
   0.02172723  0.05230652  0.01818087       0.019
   0.04345446  0.05604270  0.01818087       0.019
   0.06518168  0.05977888  0.01818087       0.019
   0.08690891  0.06351506  0.01818087       0.019
   0.10863614  0.06725124  0.01818087       0.019
   0.13036337  0.07098742  0.01818087       0.019
 
 k-points in reciprocal lattice and weights: pymatgen generated KPOINTS with grid den
   0.00000000  0.00000000  0.00000000       0.010
   0.07692308 -0.00000000  0.00000000       0.019
   0.15384615 -0.00000000  0.00000000       0.019
   0.23076923 -0.00000000  0.00000000       0.019
   0.30769231 -0.00000000  0.00000000       0.019
   0.38461538 -0.00000000  0.00000000       0.019
   0.46153846 -0.00000000  0.00000000       0.019
   0.00000000  0.25000000  0.00000000       0.019
   0.07692308  0.25000000  0.00000000       0.019
   0.15384615  0.25000000  0.00000000       0.019
   0.23076923  0.25000000  0.00000000       0.019
   0.30769231  0.25000000  0.00000000       0.019
   0.38461538  0.25000000  0.00000000       0.019
   0.46153846  0.25000000  0.00000000       0.019
  -0.46153846  0.25000000  0.00000000       0.019
  -0.38461538  0.25000000  0.00000000       0.019
  -0.30769231  0.25000000  0.00000000       0.019
  -0.23076923  0.25000000  0.00000000       0.019
  -0.15384615  0.25000000  0.00000000       0.019
  -0.07692308  0.25000000  0.00000000       0.019
   0.00000000  0.50000000  0.00000000       0.010
   0.07692308  0.50000000  0.00000000       0.019
   0.15384615  0.50000000  0.00000000       0.019
   0.23076923  0.50000000  0.00000000       0.019
   0.30769231  0.50000000  0.00000000       0.019
   0.38461538  0.50000000  0.00000000       0.019
   0.46153846  0.50000000  0.00000000       0.019
   0.00000000  0.00000000  0.50000000       0.010
   0.07692308 -0.00000000  0.50000000       0.019
   0.15384615 -0.00000000  0.50000000       0.019
   0.23076923 -0.00000000  0.50000000       0.019
   0.30769231 -0.00000000  0.50000000       0.019
   0.38461538 -0.00000000  0.50000000       0.019
   0.46153846 -0.00000000  0.50000000       0.019
   0.00000000  0.25000000  0.50000000       0.019
   0.07692308  0.25000000  0.50000000       0.019
   0.15384615  0.25000000  0.50000000       0.019
   0.23076923  0.25000000  0.50000000       0.019
   0.30769231  0.25000000  0.50000000       0.019
   0.38461538  0.25000000  0.50000000       0.019
   0.46153846  0.25000000  0.50000000       0.019
  -0.46153846  0.25000000  0.50000000       0.019
  -0.38461538  0.25000000  0.50000000       0.019
  -0.30769231  0.25000000  0.50000000       0.019
  -0.23076923  0.25000000  0.50000000       0.019
  -0.15384615  0.25000000  0.50000000       0.019
  -0.07692308  0.25000000  0.50000000       0.019
   0.00000000  0.50000000  0.50000000       0.010
   0.07692308  0.50000000  0.50000000       0.019
   0.15384615  0.50000000  0.50000000       0.019
   0.23076923  0.50000000  0.50000000       0.019
   0.30769231  0.50000000  0.50000000       0.019
   0.38461538  0.50000000  0.50000000       0.019
   0.46153846  0.50000000  0.50000000       0.019
 
 position of ions in fractional coordinates (direct lattice) 
   0.11402300  0.22804500  0.23316207
   0.51402300  0.92804500  0.51499159
   0.45808900  0.91617900  0.20939482
   0.85808900  0.61617900  0.49122434
   0.31085400  0.62170900  0.08414979
   0.31085400  0.62170900  0.36597930
   0.99923000  0.99846000  0.08631254
   0.99923000  0.99846000  0.36814206
   0.65492700  0.30985400  0.06041748
   0.65492700  0.30985400  0.34224700
   0.76973800  0.53947500  0.20725292
   0.16973800  0.23947500  0.48908244
   0.93971600  0.87943300  0.15783749
   0.33971600  0.57943300  0.43966701
   0.20515200  0.41030300  0.18578822
   0.60515200  0.11030300  0.46761774
   0.20184900  0.40369900  0.09969156
   0.20184900  0.40369900  0.38152107
   0.56380500  0.12761000  0.10779021
   0.56380500  0.12761000  0.38961973
   0.56710600  0.13421200  0.19387616
   0.96710600  0.83421200  0.47570568
   0.82923400  0.65846800  0.13571444
   0.22923400  0.35846800  0.41754396
 
 position of ions in cartesian coordinates  (Angst):
   0.00000177  2.34757459  6.41229012
   0.17702177  9.55361819 14.16300462
  -0.00000177  9.43146546  5.75865686
   1.94721823  6.34316106 13.50937136
  -0.00000177  6.40008880  2.31423934
  -0.00000177  6.40008880 10.06495384
   1.77020000 10.27849470  2.37371832
   1.77020000 10.27849470 10.12443282
   1.77020000  3.18974491  1.66156717
   1.77020000  3.18974491  9.41228167
   1.77020177  5.55354339  5.69975143
   0.17702177  2.46523899 13.45046593
   1.77019823  9.05318934  4.34075665
   0.17701823  5.96488494 12.09147115
   0.00000177  4.22380187  5.10944151
   1.94722177  1.13549747 12.86015601
  -0.00000177  4.15581799  2.74166024
  -0.00000177  4.15581799 10.49237474
   1.77020000  1.31366175  2.96438477
   1.77020000  1.31366175 10.71509927
   1.77020000  1.38162503  5.33187152
   1.94722000  8.58766863 13.08258602
   1.77020000  6.77849874  3.73234107
   0.17702000  3.69019434 11.48305557
 


--------------------------------------------------------------------------------------------------------


 k-point  1 :   0.0000 0.0000 0.0000  plane waves:   11717
 k-point  2 :   0.0769-0.0000 0.0000  plane waves:   11762
 k-point  3 :   0.1538-0.0000 0.0000  plane waves:   11805
 k-point  4 :   0.2308-0.0000 0.0000  plane waves:   11824
 k-point  5 :   0.3077-0.0000 0.0000  plane waves:   11875
 k-point  6 :   0.3846-0.0000 0.0000  plane waves:   11864
 k-point  7 :   0.4615-0.0000 0.0000  plane waves:   11883
 k-point  8 :   0.0000 0.2500 0.0000  plane waves:   11683
 k-point  9 :   0.0769 0.2500 0.0000  plane waves:   11756
 k-point 10 :   0.1538 0.2500 0.0000  plane waves:   11807
 k-point 11 :   0.2308 0.2500 0.0000  plane waves:   11853
 k-point 12 :   0.3077 0.2500 0.0000  plane waves:   11866
 k-point 13 :   0.3846 0.2500 0.0000  plane waves:   11889
 k-point 14 :   0.4615 0.2500 0.0000  plane waves:   11885
 k-point 15 :  -0.4615 0.2500 0.0000  plane waves:   11886
 k-point 16 :  -0.3846 0.2500 0.0000  plane waves:   11867
 k-point 17 :  -0.3077 0.2500 0.0000  plane waves:   11849
 k-point 18 :  -0.2308 0.2500 0.0000  plane waves:   11827
 k-point 19 :  -0.1538 0.2500 0.0000  plane waves:   11801
 k-point 20 :  -0.0769 0.2500 0.0000  plane waves:   11757
 k-point 21 :   0.0000 0.5000 0.0000  plane waves:   11710
 k-point 22 :   0.0769 0.5000 0.0000  plane waves:   11762
 k-point 23 :   0.1538 0.5000 0.0000  plane waves:   11782
 k-point 24 :   0.2308 0.5000 0.0000  plane waves:   11841
 k-point 25 :   0.3077 0.5000 0.0000  plane waves:   11876
 k-point 26 :   0.3846 0.5000 0.0000  plane waves:   11889
 k-point 27 :   0.4615 0.5000 0.0000  plane waves:   11881
 k-point 28 :   0.0000 0.0000 0.5000  plane waves:   11698
 k-point 29 :   0.0769-0.0000 0.5000  plane waves:   11752
 k-point 30 :   0.1538-0.0000 0.5000  plane waves:   11800
 k-point 31 :   0.2308-0.0000 0.5000  plane waves:   11834
 k-point 32 :   0.3077-0.0000 0.5000  plane waves:   11850
 k-point 33 :   0.3846-0.0000 0.5000  plane waves:   11888
 k-point 34 :   0.4615-0.0000 0.5000  plane waves:   11896
 k-point 35 :   0.0000 0.2500 0.5000  plane waves:   11714
 k-point 36 :   0.0769 0.2500 0.5000  plane waves:   11754
 k-point 37 :   0.1538 0.2500 0.5000  plane waves:   11802
 k-point 38 :   0.2308 0.2500 0.5000  plane waves:   11840
 k-point 39 :   0.3077 0.2500 0.5000  plane waves:   11858
 k-point 40 :   0.3846 0.2500 0.5000  plane waves:   11896
 k-point 41 :   0.4615 0.2500 0.5000  plane waves:   11886
 k-point 42 :  -0.4615 0.2500 0.5000  plane waves:   11852
 k-point 43 :  -0.3846 0.2500 0.5000  plane waves:   11838
 k-point 44 :  -0.3077 0.2500 0.5000  plane waves:   11842
 k-point 45 :  -0.2308 0.2500 0.5000  plane waves:   11840
 k-point 46 :  -0.1538 0.2500 0.5000  plane waves:   11804
 k-point 47 :  -0.0769 0.2500 0.5000  plane waves:   11748
 k-point 48 :   0.0000 0.5000 0.5000  plane waves:   11724
 k-point 49 :   0.0769 0.5000 0.5000  plane waves:   11748
 k-point 50 :   0.1538 0.5000 0.5000  plane waves:   11814
 k-point 51 :   0.2308 0.5000 0.5000  plane waves:   11832
 k-point 52 :   0.3077 0.5000 0.5000  plane waves:   11868
 k-point 53 :   0.3846 0.5000 0.5000  plane waves:   11892
 k-point 54 :   0.4615 0.5000 0.5000  plane waves:   11878

 maximum and minimum number of plane-waves per node :      5964     5832

 maximum number of plane-waves:     11896
 maximum index in each direction: 
   IXMAX=    5   IYMAX=   14   IZMAX=   38
   IXMIN=   -5   IYMIN=  -15   IZMIN=  -39

 WARNING: aliasing errors must be expected set NGX to  22 to avoid them
 NGY is ok and might be reduce to  60
 NGZ is ok and might be reduce to 156
 aliasing errors are usually negligible using standard VASP settings
 and one can safely disregard these warnings

 real space projection operators:
  total allocation   :       3793.25 KBytes
  max/ min on nodes  :       1899.38       1893.88


 parallel 3D FFT for wavefunctions:
    minimum data exchange during FFTs selected (reduces bandwidth)
 parallel 3D FFT for charge:
    minimum data exchange during FFTs selected (reduces bandwidth)


 total amount of memory used by VASP on root node   146493. kBytes
========================================================================

   base      :      30000. kBytes
   nonlr-proj:       3452. kBytes
   fftplans  :       9347. kBytes
   grid      :      14649. kBytes
   one-center:         36. kBytes
   wavefun   :      89009. kBytes
 
     INWAV:  cpu time    0.00: real time    0.00
 Broyden mixing: mesh for mixing (old mesh)
   NGX =  9   NGY = 29   NGZ = 77
  (NGX  = 40   NGY  =120   NGZ  =320)
  gives a total of  20097 points

 initial charge density was supplied:
 charge density of overlapping atoms calculated
 number of electron     108.0000000 magnetization 
 keeping initial charge density in first step


--------------------------------------------------------------------------------------------------------


 Maximum index for non-local projection operator         1333
 Maximum index for augmentation-charges          822 (set IRDMAX)


--------------------------------------------------------------------------------------------------------


 First call to EWALD:  gamma=   0.177
 Maximum number of real-space cells 7x 3x 1
 Maximum number of reciprocal cells 1x 3x 7

 FEWALD executed in parallel
    FEWALD:  cpu time    0.00: real time    0.00


----------------------------------------- Iteration    1(   1)  ---------------------------------------


vdW kernel read from vdw_kernel.bindat
  0.0000  0.2424  0.5071  0.7962  1.1119  1.4567  1.8333  2.2446  2.6937  3.1842
  3.7199  4.3049  4.9438  5.6415  6.4036  7.2358  8.1446  9.1372 10.2212 11.4050
 12.6979 14.1099 15.6519 17.3360 19.1751 21.1837 23.3773 25.7729 28.3892 31.2465
 34.3669 37.7748 41.4965 45.5611 50.0000
 
    POTLOK:  cpu time   16.60: real time   16.62
    SETDIJ:  cpu time    0.02: real time    0.02
     EDDAV:  cpu time   73.25: real time   73.30
       DOS:  cpu time    0.01: real time    0.01
    --------------------------------------------
      LOOP:  cpu time   89.89: real time   89.96

 eigenvalue-minimisations  :  7344
 total energy-change (2. order) : 0.5458549E+03  (-0.2875266E+04)
 number of electron     108.0000000 magnetization 
 augmentation part      108.0000000 magnetization 

 Free energy of the ion-electron system (eV)
  ---------------------------------------------------
  alpha Z        PSCENC =        36.80884744
  Ewald energy   TEWEN  =     12053.68625696
  -Hartree energ DENC   =    -15040.84202685
  -exchange      EXHF   =         0.00000000
  -V(xc)+E(xc)   XCENC  =       -87.38587599
  PAW double counting   =      1056.43050070     -732.41190547
  entropy T*S    EENTRO =        -0.04720513
  eigenvalues    EBANDS =       -94.42493306
  atomic energy  EATOM  =      3354.04126044
  ---------------------------------------------------
  free energy    TOTEN  =       545.85491905 eV

  energy without entropy =      545.90212418  energy(sigma->0) =      545.87852162


--------------------------------------------------------------------------------------------------------




----------------------------------------- Iteration    1(   2)  ---------------------------------------


     EDDAV:  cpu time   82.04: real time   82.08
       DOS:  cpu time    0.01: real time    0.01
    --------------------------------------------
      LOOP:  cpu time   82.05: real time   82.10

 eigenvalue-minimisations  :  9824
 total energy-change (2. order) :-0.5701534E+03  (-0.5552319E+03)
 number of electron     108.0000000 magnetization 
 augmentation part      108.0000000 magnetization 

 Free energy of the ion-electron system (eV)
  ---------------------------------------------------
  alpha Z        PSCENC =        36.80884744
  Ewald energy   TEWEN  =     12053.68625696
  -Hartree energ DENC   =    -15040.84202685
  -exchange      EXHF   =         0.00000000
  -V(xc)+E(xc)   XCENC  =       -87.38587599
  PAW double counting   =      1056.43050070     -732.41190547
  entropy T*S    EENTRO =        -0.01422201
  eigenvalues    EBANDS =      -664.61129955
  atomic energy  EATOM  =      3354.04126044
  ---------------------------------------------------
  free energy    TOTEN  =       -24.29846432 eV

  energy without entropy =      -24.28424231  energy(sigma->0) =      -24.29135331


--------------------------------------------------------------------------------------------------------




----------------------------------------- Iteration    1(   3)  ---------------------------------------


     EDDAV:  cpu time   81.61: real time   81.69
       DOS:  cpu time    0.01: real time    0.01
    --------------------------------------------
      LOOP:  cpu time   81.62: real time   81.70

 eigenvalue-minimisations  :  9564
 total energy-change (2. order) :-0.6046746E+02  (-0.5959192E+02)
 number of electron     108.0000000 magnetization 
 augmentation part      108.0000000 magnetization 

 Free energy of the ion-electron system (eV)
  ---------------------------------------------------
  alpha Z        PSCENC =        36.80884744
  Ewald energy   TEWEN  =     12053.68625696
  -Hartree energ DENC   =    -15040.84202685
  -exchange      EXHF   =         0.00000000
  -V(xc)+E(xc)   XCENC  =       -87.38587599
  PAW double counting   =      1056.43050070     -732.41190547
  entropy T*S    EENTRO =        -0.01255171
  eigenvalues    EBANDS =      -725.08042974
  atomic energy  EATOM  =      3354.04126044
  ---------------------------------------------------
  free energy    TOTEN  =       -84.76592421 eV

  energy without entropy =      -84.75337250  energy(sigma->0) =      -84.75964835


--------------------------------------------------------------------------------------------------------




----------------------------------------- Iteration    1(   4)  ---------------------------------------


     EDDAV:  cpu time  100.18: real time  100.24
       DOS:  cpu time    0.01: real time    0.01
    --------------------------------------------
      LOOP:  cpu time  100.19: real time  100.25

 eigenvalue-minimisations  : 11208
 total energy-change (2. order) :-0.2809205E+01  (-0.2785312E+01)
 number of electron     108.0000000 magnetization 
 augmentation part      108.0000000 magnetization 

 Free energy of the ion-electron system (eV)
  ---------------------------------------------------
  alpha Z        PSCENC =        36.80884744
  Ewald energy   TEWEN  =     12053.68625696
  -Hartree energ DENC   =    -15040.84202685
  -exchange      EXHF   =         0.00000000
  -V(xc)+E(xc)   XCENC  =       -87.38587599
  PAW double counting   =      1056.43050070     -732.41190547
  entropy T*S    EENTRO =        -0.01541080
  eigenvalues    EBANDS =      -727.88677564
  atomic energy  EATOM  =      3354.04126044
  ---------------------------------------------------
  free energy    TOTEN  =       -87.57512920 eV

  energy without entropy =      -87.55971840  energy(sigma->0) =      -87.56742380


--------------------------------------------------------------------------------------------------------




----------------------------------------- Iteration    1(   5)  ---------------------------------------


     EDDAV:  cpu time   92.52: real time   92.63
       DOS:  cpu time    0.01: real time    0.01
    CHARGE:  cpu time    4.50: real time    4.50
    MIXING:  cpu time    0.01: real time    0.01
    --------------------------------------------
      LOOP:  cpu time   97.04: real time   97.16

 eigenvalue-minimisations  : 10392
 total energy-change (2. order) :-0.5417806E-01  (-0.5409233E-01)
 number of electron     107.9999994 magnetization 
 augmentation part       -9.7760230 magnetization 

 Broyden mixing:
  rms(total) = 0.13792E+01    rms(broyden)= 0.13774E+01
  rms(prec ) = 0.14981E+01
  weight for this iteration     100.00

 Free energy of the ion-electron system (eV)
  ---------------------------------------------------
  alpha Z        PSCENC =        36.80884744
  Ewald energy   TEWEN  =     12053.68625696
  -Hartree energ DENC   =    -15040.84202685
  -exchange      EXHF   =         0.00000000
  -V(xc)+E(xc)   XCENC  =       -87.38587599
  PAW double counting   =      1056.43050070     -732.41190547
  entropy T*S    EENTRO =        -0.01553457
  eigenvalues    EBANDS =      -727.94082993
  atomic energy  EATOM  =      3354.04126044
  ---------------------------------------------------
  free energy    TOTEN  =       -87.62930726 eV

  energy without entropy =      -87.61377269  energy(sigma->0) =      -87.62153997


--------------------------------------------------------------------------------------------------------




----------------------------------------- Iteration    1(   6)  ---------------------------------------


    POTLOK:  cpu time   14.59: real time   14.60
    SETDIJ:  cpu time    0.01: real time    0.01
     EDDAV:  cpu time   78.83: real time   78.91
       DOS:  cpu time    0.01: real time    0.01
    CHARGE:  cpu time    5.49: real time    5.49
    MIXING:  cpu time    0.01: real time    0.01
    --------------------------------------------
      LOOP:  cpu time   98.94: real time   99.04

 eigenvalue-minimisations  :  9292
 total energy-change (2. order) : 0.5721146E+01  (-0.1664401E+01)
 number of electron     107.9999993 magnetization 
 augmentation part       -9.5771363 magnetization 

 Broyden mixing:
  rms(total) = 0.65197E+00    rms(broyden)= 0.65192E+00
  rms(prec ) = 0.70309E+00
  weight for this iteration     100.00

 eigenvalues of (default mixing * dielectric matrix)
  average eigenvalue GAMMA=   1.4582
  1.4582

 Free energy of the ion-electron system (eV)
  ---------------------------------------------------
  alpha Z        PSCENC =        36.80884744
  Ewald energy   TEWEN  =     12053.68625696
  -Hartree energ DENC   =    -15105.58185051
  -exchange      EXHF   =         0.00000000
  -V(xc)+E(xc)   XCENC  =       -83.83996170
  PAW double counting   =      1135.10173162     -813.54545975
  entropy T*S    EENTRO =        -0.02791450
  eigenvalues    EBANDS =      -658.55107139
  atomic energy  EATOM  =      3354.04126044
  ---------------------------------------------------
  free energy    TOTEN  =       -81.90816137 eV

  energy without entropy =      -81.88024688  energy(sigma->0) =      -81.89420413


--------------------------------------------------------------------------------------------------------




----------------------------------------- Iteration    1(   7)  ---------------------------------------


    POTLOK:  cpu time   14.84: real time   14.86
    SETDIJ:  cpu time    0.01: real time    0.01
     EDDAV:  cpu time   89.79: real time   90.01
       DOS:  cpu time    0.01: real time    0.01
    CHARGE:  cpu time    5.50: real time    5.51
    MIXING:  cpu time    0.01: real time    0.02
    --------------------------------------------
      LOOP:  cpu time  110.18: real time  110.42

 eigenvalue-minimisations  :  8552
 total energy-change (2. order) :-0.2264070E+00  (-0.1255220E+01)
 number of electron     107.9999993 magnetization 
 augmentation part       -9.4711145 magnetization 

 Broyden mixing:
  rms(total) = 0.33886E+00    rms(broyden)= 0.33854E+00
  rms(prec ) = 0.37652E+00
  weight for this iteration     100.00

 eigenvalues of (default mixing * dielectric matrix)
  average eigenvalue GAMMA=   1.1985
  0.8389  1.5580

 Free energy of the ion-electron system (eV)
  ---------------------------------------------------
  alpha Z        PSCENC =        36.80884744
  Ewald energy   TEWEN  =     12053.68625696
  -Hartree energ DENC   =    -15112.81281097
  -exchange      EXHF   =         0.00000000
  -V(xc)+E(xc)   XCENC  =       -81.21394508
  PAW double counting   =      1182.73423198     -862.61206625
  entropy T*S    EENTRO =        -0.01166778
  eigenvalues    EBANDS =      -652.75467513
  atomic energy  EATOM  =      3354.04126044
  ---------------------------------------------------
  free energy    TOTEN  =       -82.13456839 eV

  energy without entropy =      -82.12290061  energy(sigma->0) =      -82.12873450


--------------------------------------------------------------------------------------------------------




----------------------------------------- Iteration    1(   8)  ---------------------------------------


    POTLOK:  cpu time   14.87: real time   14.90
    SETDIJ:  cpu time    0.01: real time    0.01
     EDDAV:  cpu time   93.20: real time   93.40
       DOS:  cpu time    0.01: real time    0.01
    CHARGE:  cpu time    5.52: real time    5.53
    MIXING:  cpu time    0.01: real time    0.01
    --------------------------------------------
      LOOP:  cpu time  113.63: real time  113.86

 eigenvalue-minimisations  :  8864
 total energy-change (2. order) : 0.9135159E-01  (-0.2310498E+00)
 number of electron     107.9999993 magnetization 
 augmentation part       -9.4484869 magnetization 

 Broyden mixing:
  rms(total) = 0.19392E+00    rms(broyden)= 0.19387E+00
  rms(prec ) = 0.20405E+00
  weight for this iteration     100.00

 eigenvalues of (default mixing * dielectric matrix)
  average eigenvalue GAMMA=   1.3432
  2.0088  1.3225  0.6982

 Free energy of the ion-electron system (eV)
  ---------------------------------------------------
  alpha Z        PSCENC =        36.80884744
  Ewald energy   TEWEN  =     12053.68625696
  -Hartree energ DENC   =    -15131.66290225
  -exchange      EXHF   =         0.00000000
  -V(xc)+E(xc)   XCENC  =       -80.07186433
  PAW double counting   =      1197.81884892     -878.12819997
  entropy T*S    EENTRO =        -0.01113858
  eigenvalues    EBANDS =      -634.52432543
  atomic energy  EATOM  =      3354.04126044
  ---------------------------------------------------
  free energy    TOTEN  =       -82.04321679 eV

  energy without entropy =      -82.03207822  energy(sigma->0) =      -82.03764751


--------------------------------------------------------------------------------------------------------




----------------------------------------- Iteration    1(   9)  ---------------------------------------


    POTLOK:  cpu time   14.91: real time   14.92
    SETDIJ:  cpu time    0.01: real time    0.01
     EDDAV:  cpu time   95.82: real time   95.90
       DOS:  cpu time    0.01: real time    0.01
    CHARGE:  cpu time    5.47: real time    5.57
    MIXING:  cpu time    0.01: real time    0.01
    --------------------------------------------
      LOOP:  cpu time  116.23: real time  116.43

 eigenvalue-minimisations  :  9208
 total energy-change (2. order) :-0.8065762E-02  (-0.6034908E-01)
 number of electron     107.9999993 magnetization 
 augmentation part       -9.4430216 magnetization 

 Broyden mixing:
  rms(total) = 0.77489E-01    rms(broyden)= 0.77474E-01
  rms(prec ) = 0.83155E-01
  weight for this iteration     100.00

 eigenvalues of (default mixing * dielectric matrix)
  average eigenvalue GAMMA=   1.3087
  2.4197  1.0548  1.0548  0.7054

 Free energy of the ion-electron system (eV)
  ---------------------------------------------------
  alpha Z        PSCENC =        36.80884744
  Ewald energy   TEWEN  =     12053.68625696
  -Hartree energ DENC   =    -15140.09481697
  -exchange      EXHF   =         0.00000000
  -V(xc)+E(xc)   XCENC  =       -79.17369622
  PAW double counting   =      1204.90410449     -885.44038206
  entropy T*S    EENTRO =        -0.01131493
  eigenvalues    EBANDS =      -626.77154170
  atomic energy  EATOM  =      3354.04126044
  ---------------------------------------------------
  free energy    TOTEN  =       -82.05128255 eV

  energy without entropy =      -82.03996762  energy(sigma->0) =      -82.04562509


--------------------------------------------------------------------------------------------------------




----------------------------------------- Iteration    1(  10)  ---------------------------------------


    POTLOK:  cpu time   14.95: real time   14.96
    SETDIJ:  cpu time    0.01: real time    0.01
     EDDAV:  cpu time   92.45: real time   92.55
       DOS:  cpu time    0.01: real time    0.01
    CHARGE:  cpu time    5.49: real time    5.51
    MIXING:  cpu time    0.01: real time    0.01
    --------------------------------------------
      LOOP:  cpu time  112.92: real time  113.06

 eigenvalue-minimisations  :  8728
 total energy-change (2. order) :-0.4685147E-02  (-0.9089853E-02)
 number of electron     107.9999993 magnetization 
 augmentation part       -9.4382433 magnetization 

 Broyden mixing:
  rms(total) = 0.30855E-01    rms(broyden)= 0.30822E-01
  rms(prec ) = 0.33161E-01
  weight for this iteration     100.00

 eigenvalues of (default mixing * dielectric matrix)
  average eigenvalue GAMMA=   1.3270
  2.5433  1.2143  1.2143  0.9575  0.7056

 Free energy of the ion-electron system (eV)
  ---------------------------------------------------
  alpha Z        PSCENC =        36.80884744
  Ewald energy   TEWEN  =     12053.68625696
  -Hartree energ DENC   =    -15144.19506577
  -exchange      EXHF   =         0.00000000
  -V(xc)+E(xc)   XCENC  =       -78.79285885
  PAW double counting   =      1207.12425740     -887.74752330
  entropy T*S    EENTRO =        -0.01261736
  eigenvalues    EBANDS =      -622.96852467
  atomic energy  EATOM  =      3354.04126044
  ---------------------------------------------------
  free energy    TOTEN  =       -82.05596770 eV

  energy without entropy =      -82.04335034  energy(sigma->0) =      -82.04965902


--------------------------------------------------------------------------------------------------------




----------------------------------------- Iteration    1(  11)  ---------------------------------------


    POTLOK:  cpu time   14.96: real time   14.99
    SETDIJ:  cpu time    0.01: real time    0.01
     EDDAV:  cpu time   95.35: real time   95.53
       DOS:  cpu time    0.01: real time    0.01
    CHARGE:  cpu time    5.08: real time    5.09
    MIXING:  cpu time    0.01: real time    0.01
    --------------------------------------------
      LOOP:  cpu time  115.43: real time  115.64

 eigenvalue-minimisations  :  9272
 total energy-change (2. order) : 0.9478395E-02  (-0.2509967E-02)
 number of electron     107.9999993 magnetization 
 augmentation part       -9.4389691 magnetization 

 Broyden mixing:
  rms(total) = 0.13699E-01    rms(broyden)= 0.13696E-01
  rms(prec ) = 0.15466E-01
  weight for this iteration     100.00

 eigenvalues of (default mixing * dielectric matrix)
  average eigenvalue GAMMA=   1.3305
  2.5919  1.6665  1.0677  1.0677  0.7070  0.8825

 Free energy of the ion-electron system (eV)
  ---------------------------------------------------
  alpha Z        PSCENC =        36.80884744
  Ewald energy   TEWEN  =     12053.68625696
  -Hartree energ DENC   =    -15145.53434701
  -exchange      EXHF   =         0.00000000
  -V(xc)+E(xc)   XCENC  =       -78.71535378
  PAW double counting   =      1205.51282105     -886.10074747
  entropy T*S    EENTRO =        -0.01213809
  eigenvalues    EBANDS =      -621.73308885
  atomic energy  EATOM  =      3354.04126044
  ---------------------------------------------------
  free energy    TOTEN  =       -82.04648931 eV

  energy without entropy =      -82.03435121  energy(sigma->0) =      -82.04042026


--------------------------------------------------------------------------------------------------------




----------------------------------------- Iteration    1(  12)  ---------------------------------------


    POTLOK:  cpu time   14.90: real time   14.91
    SETDIJ:  cpu time    0.01: real time    0.01
     EDDAV:  cpu time   74.73: real time   74.84
       DOS:  cpu time    0.01: real time    0.01
    CHARGE:  cpu time    4.20: real time    4.20
    MIXING:  cpu time    0.01: real time    0.01
    --------------------------------------------
      LOOP:  cpu time   93.87: real time   93.98

 eigenvalue-minimisations  :  8968
 total energy-change (2. order) : 0.1060959E-01  (-0.4179524E-03)
 number of electron     107.9999993 magnetization 
 augmentation part       -9.4412057 magnetization 

 Broyden mixing:
  rms(total) = 0.58468E-02    rms(broyden)= 0.58444E-02
  rms(prec ) = 0.71793E-02
  weight for this iteration     100.00

 eigenvalues of (default mixing * dielectric matrix)
  average eigenvalue GAMMA=   1.3409
  2.6621  1.9568  1.0856  1.0856  0.7058  0.9451  0.9451

 Free energy of the ion-electron system (eV)
  ---------------------------------------------------
  alpha Z        PSCENC =        36.80884744
  Ewald energy   TEWEN  =     12053.68625696
  -Hartree energ DENC   =    -15146.65752402
  -exchange      EXHF   =         0.00000000
  -V(xc)+E(xc)   XCENC  =       -78.70302510
  PAW double counting   =      1203.86574335     -884.40855474
  entropy T*S    EENTRO =        -0.01232717
  eigenvalues    EBANDS =      -620.65655689
  atomic energy  EATOM  =      3354.04126044
  ---------------------------------------------------
  free energy    TOTEN  =       -82.03587971 eV

  energy without entropy =      -82.02355255  energy(sigma->0) =      -82.02971613


--------------------------------------------------------------------------------------------------------




----------------------------------------- Iteration    1(  13)  ---------------------------------------


    POTLOK:  cpu time   14.45: real time   14.52
    SETDIJ:  cpu time    0.01: real time    0.01
     EDDAV:  cpu time   80.12: real time   80.18
       DOS:  cpu time    0.01: real time    0.01
    CHARGE:  cpu time    4.50: real time    4.50
    MIXING:  cpu time    0.01: real time    0.01
    --------------------------------------------
      LOOP:  cpu time   99.11: real time   99.24

 eigenvalue-minimisations  :  9320
 total energy-change (2. order) : 0.4978425E-02  (-0.9378181E-04)
 number of electron     107.9999993 magnetization 
 augmentation part       -9.4415779 magnetization 

 Broyden mixing:
  rms(total) = 0.28769E-02    rms(broyden)= 0.28762E-02
  rms(prec ) = 0.41832E-02
  weight for this iteration     100.00

 eigenvalues of (default mixing * dielectric matrix)
  average eigenvalue GAMMA=   1.3615
  2.7128  2.0275  1.4932  1.0564  1.0564  0.7015  0.9220  0.9220

 Free energy of the ion-electron system (eV)
  ---------------------------------------------------
  alpha Z        PSCENC =        36.80884744
  Ewald energy   TEWEN  =     12053.68625696
  -Hartree energ DENC   =    -15147.46393328
  -exchange      EXHF   =         0.00000000
  -V(xc)+E(xc)   XCENC  =       -78.69584342
  PAW double counting   =      1203.12512609     -883.64811024
  entropy T*S    EENTRO =        -0.01226687
  eigenvalues    EBANDS =      -619.87223841
  atomic energy  EATOM  =      3354.04126044
  ---------------------------------------------------
  free energy    TOTEN  =       -82.03090129 eV

  energy without entropy =      -82.01863442  energy(sigma->0) =      -82.02476785


--------------------------------------------------------------------------------------------------------




----------------------------------------- Iteration    1(  14)  ---------------------------------------


    POTLOK:  cpu time   14.60: real time   14.64
    SETDIJ:  cpu time    0.01: real time    0.01
     EDDAV:  cpu time   85.90: real time   85.95
       DOS:  cpu time    0.01: real time    0.01
    CHARGE:  cpu time    4.39: real time    4.40
    MIXING:  cpu time    0.01: real time    0.01
    --------------------------------------------
      LOOP:  cpu time  104.93: real time  105.03

 eigenvalue-minimisations  :  9632
 total energy-change (2. order) : 0.2406339E-02  (-0.2367676E-04)
 number of electron     107.9999993 magnetization 
 augmentation part       -9.4411703 magnetization 

 Broyden mixing:
  rms(total) = 0.16058E-02    rms(broyden)= 0.16052E-02
  rms(prec ) = 0.26554E-02
  weight for this iteration     100.00

 eigenvalues of (default mixing * dielectric matrix)
  average eigenvalue GAMMA=   1.4030
  2.7943  2.4916  1.6597  1.0704  1.0704  1.0016  1.0016  0.7001  0.8370

 Free energy of the ion-electron system (eV)
  ---------------------------------------------------
  alpha Z        PSCENC =        36.80884744
  Ewald energy   TEWEN  =     12053.68625696
  -Hartree energ DENC   =    -15148.40289825
  -exchange      EXHF   =         0.00000000
  -V(xc)+E(xc)   XCENC  =       -78.68871868
  PAW double counting   =      1202.84058845     -883.35665057
  entropy T*S    EENTRO =        -0.01229392
  eigenvalues    EBANDS =      -618.94488682
  atomic energy  EATOM  =      3354.04126044
  ---------------------------------------------------
  free energy    TOTEN  =       -82.02849495 eV

  energy without entropy =      -82.01620103  energy(sigma->0) =      -82.02234799


--------------------------------------------------------------------------------------------------------




----------------------------------------- Iteration    1(  15)  ---------------------------------------


    POTLOK:  cpu time   14.85: real time   14.86
    SETDIJ:  cpu time    0.01: real time    0.01
     EDDAV:  cpu time   83.01: real time   83.27
       DOS:  cpu time    0.01: real time    0.01
    CHARGE:  cpu time    4.32: real time    4.33
    MIXING:  cpu time    0.01: real time    0.02
    --------------------------------------------
      LOOP:  cpu time  102.22: real time  102.52

 eigenvalue-minimisations  :  9376
 total energy-change (2. order) : 0.1606910E-02  (-0.9098634E-05)
 number of electron     107.9999993 magnetization 
 augmentation part       -9.4410229 magnetization 

 Broyden mixing:
  rms(total) = 0.96001E-03    rms(broyden)= 0.95996E-03
  rms(prec ) = 0.16643E-02
  weight for this iteration     100.00

 eigenvalues of (default mixing * dielectric matrix)
  average eigenvalue GAMMA=   1.4580
  3.1358  2.5752  1.5848  1.5848  1.0688  1.0688  0.7019  0.8714  0.9942  0.9942

 Free energy of the ion-electron system (eV)
  ---------------------------------------------------
  alpha Z        PSCENC =        36.80884744
  Ewald energy   TEWEN  =     12053.68625696
  -Hartree energ DENC   =    -15149.31376727
  -exchange      EXHF   =         0.00000000
  -V(xc)+E(xc)   XCENC  =       -78.68494293
  PAW double counting   =      1202.61284211     -883.12331270
  entropy T*S    EENTRO =        -0.01231741
  eigenvalues    EBANDS =      -618.04175467
  atomic energy  EATOM  =      3354.04126044
  ---------------------------------------------------
  free energy    TOTEN  =       -82.02688804 eV

  energy without entropy =      -82.01457063  energy(sigma->0) =      -82.02072933


--------------------------------------------------------------------------------------------------------




----------------------------------------- Iteration    1(  16)  ---------------------------------------


    POTLOK:  cpu time   14.79: real time   14.83
    SETDIJ:  cpu time    0.01: real time    0.01
     EDDAV:  cpu time   74.11: real time   74.27
       DOS:  cpu time    0.01: real time    0.01
    CHARGE:  cpu time    4.31: real time    4.32
    MIXING:  cpu time    0.01: real time    0.01
    --------------------------------------------
      LOOP:  cpu time   93.26: real time   93.46

 eigenvalue-minimisations  :  8224
 total energy-change (2. order) : 0.3624405E-04  (-0.4929251E-05)
 number of electron     107.9999993 magnetization 
 augmentation part       -9.4408911 magnetization 

 Broyden mixing:
  rms(total) = 0.58101E-03    rms(broyden)= 0.58096E-03
  rms(prec ) = 0.10032E-02
  weight for this iteration     100.00

 eigenvalues of (default mixing * dielectric matrix)
  average eigenvalue GAMMA=   1.5491
  3.7838  2.7106  2.2072  1.6260  1.0684  1.0684  0.7013  1.0272  1.0272  0.9101
  0.9101

 Free energy of the ion-electron system (eV)
  ---------------------------------------------------
  alpha Z        PSCENC =        36.80884744
  Ewald energy   TEWEN  =     12053.68625696
  -Hartree energ DENC   =    -15150.03150904
  -exchange      EXHF   =         0.00000000
  -V(xc)+E(xc)   XCENC  =       -78.68027121
  PAW double counting   =      1202.58386796     -883.09384561
  entropy T*S    EENTRO =        -0.01228872
  eigenvalues    EBANDS =      -617.32917002
  atomic energy  EATOM  =      3354.04126044
  ---------------------------------------------------
  free energy    TOTEN  =       -82.02685180 eV

  energy without entropy =      -82.01456308  energy(sigma->0) =      -82.02070744


--------------------------------------------------------------------------------------------------------




----------------------------------------- Iteration    1(  17)  ---------------------------------------


    POTLOK:  cpu time   14.71: real time   14.72
    SETDIJ:  cpu time    0.01: real time    0.01
     EDDAV:  cpu time   91.90: real time   92.01
       DOS:  cpu time    0.01: real time    0.01
    CHARGE:  cpu time    5.54: real time    5.54
    MIXING:  cpu time    0.01: real time    0.01
    --------------------------------------------
      LOOP:  cpu time  112.18: real time  112.31

 eigenvalue-minimisations  :  8408
 total energy-change (2. order) :-0.6622746E-03  (-0.1306954E-04)
 number of electron     107.9999993 magnetization 
 augmentation part       -9.4408143 magnetization 

 Broyden mixing:
  rms(total) = 0.31682E-03    rms(broyden)= 0.31678E-03
  rms(prec ) = 0.54227E-03
  weight for this iteration     100.00

 eigenvalues of (default mixing * dielectric matrix)
  average eigenvalue GAMMA=   1.6616
  5.0515  2.7227  2.3064  1.6051  1.6051  1.0699  1.0699  0.7017  0.9932  0.9932
  0.9104  0.9104

 Free energy of the ion-electron system (eV)
  ---------------------------------------------------
  alpha Z        PSCENC =        36.80884744
  Ewald energy   TEWEN  =     12053.68625696
  -Hartree energ DENC   =    -15150.62373178
  -exchange      EXHF   =         0.00000000
  -V(xc)+E(xc)   XCENC  =       -78.67707961
  PAW double counting   =      1202.62672462     -883.13776524
  entropy T*S    EENTRO =        -0.01230462
  eigenvalues    EBANDS =      -616.73972228
  atomic energy  EATOM  =      3354.04126044
  ---------------------------------------------------
  free energy    TOTEN  =       -82.02751407 eV

  energy without entropy =      -82.01520945  energy(sigma->0) =      -82.02136176


--------------------------------------------------------------------------------------------------------




----------------------------------------- Iteration    1(  18)  ---------------------------------------


    POTLOK:  cpu time   16.27: real time   16.28
    SETDIJ:  cpu time    0.02: real time    0.02
     EDDAV:  cpu time   96.23: real time   96.46
       DOS:  cpu time    0.01: real time    0.01
    CHARGE:  cpu time    5.53: real time    5.54
    MIXING:  cpu time    0.02: real time    0.02
    --------------------------------------------
      LOOP:  cpu time  118.08: real time  118.34

 eigenvalue-minimisations  :  7976
 total energy-change (2. order) :-0.1842637E-03  (-0.1028049E-04)
 number of electron     107.9999993 magnetization 
 augmentation part       -9.4407748 magnetization 

 Broyden mixing:
  rms(total) = 0.18701E-03    rms(broyden)= 0.18699E-03
  rms(prec ) = 0.33112E-03
  weight for this iteration     100.00

 eigenvalues of (default mixing * dielectric matrix)
  average eigenvalue GAMMA=   1.7365
  5.8673  2.8963  2.5530  1.9385  1.5895  1.0697  1.0697  0.7017  1.0301  1.0301
  0.9647  0.9317  0.9317

 Free energy of the ion-electron system (eV)
  ---------------------------------------------------
  alpha Z        PSCENC =        36.80884744
  Ewald energy   TEWEN  =     12053.68625696
  -Hartree energ DENC   =    -15150.93099992
  -exchange      EXHF   =         0.00000000
  -V(xc)+E(xc)   XCENC  =       -78.67553971
  PAW double counting   =      1202.63663028     -883.14778426
  entropy T*S    EENTRO =        -0.01230127
  eigenvalues    EBANDS =      -616.43406828
  atomic energy  EATOM  =      3354.04126044
  ---------------------------------------------------
  free energy    TOTEN  =       -82.02769833 eV

  energy without entropy =      -82.01539706  energy(sigma->0) =      -82.02154770


--------------------------------------------------------------------------------------------------------




----------------------------------------- Iteration    1(  19)  ---------------------------------------


    POTLOK:  cpu time   16.45: real time   16.48
    SETDIJ:  cpu time    0.01: real time    0.01
     EDDAV:  cpu time   90.31: real time   90.44
       DOS:  cpu time    0.01: real time    0.01
    CHARGE:  cpu time    5.59: real time    5.59
    MIXING:  cpu time    0.02: real time    0.02
    --------------------------------------------
      LOOP:  cpu time  112.39: real time  112.55

 eigenvalue-minimisations  :  7456
 total energy-change (2. order) :-0.1161144E-03  (-0.3477986E-05)
 number of electron     107.9999993 magnetization 
 augmentation part       -9.4407717 magnetization 

 Broyden mixing:
  rms(total) = 0.12411E-03    rms(broyden)= 0.12409E-03
  rms(prec ) = 0.21627E-03
  weight for this iteration     100.00

 eigenvalues of (default mixing * dielectric matrix)
  average eigenvalue GAMMA=   1.7570
  6.2784  2.9808  2.6290  2.0181  1.5127  1.5127  1.0677  1.0677  0.7017  1.0013
  1.0013  1.0139  0.9064  0.9064

 Free energy of the ion-electron system (eV)
  ---------------------------------------------------
  alpha Z        PSCENC =        36.80884744
  Ewald energy   TEWEN  =     12053.68625696
  -Hartree energ DENC   =    -15151.10068991
  -exchange      EXHF   =         0.00000000
  -V(xc)+E(xc)   XCENC  =       -78.67487240
  PAW double counting   =      1202.64957487     -883.16094279
  entropy T*S    EENTRO =        -0.01229957
  eigenvalues    EBANDS =      -616.26494950
  atomic energy  EATOM  =      3354.04126044
  ---------------------------------------------------
  free energy    TOTEN  =       -82.02781445 eV

  energy without entropy =      -82.01551488  energy(sigma->0) =      -82.02166466


--------------------------------------------------------------------------------------------------------




----------------------------------------- Iteration    1(  20)  ---------------------------------------


    POTLOK:  cpu time   16.51: real time   16.54
    SETDIJ:  cpu time    0.02: real time    0.02
     EDDAV:  cpu time   87.23: real time   87.39
       DOS:  cpu time    0.01: real time    0.01
    CHARGE:  cpu time    5.65: real time    5.66
    MIXING:  cpu time    0.02: real time    0.02
    --------------------------------------------
      LOOP:  cpu time  109.45: real time  109.64

 eigenvalue-minimisations  :  6752
 total energy-change (2. order) :-0.1611520E-04  (-0.1111644E-05)
 number of electron     107.9999993 magnetization 
 augmentation part       -9.4407684 magnetization 

 Broyden mixing:
  rms(total) = 0.82375E-04    rms(broyden)= 0.82371E-04
  rms(prec ) = 0.14754E-03
  weight for this iteration     100.00

 eigenvalues of (default mixing * dielectric matrix)
  average eigenvalue GAMMA=   1.8060
  6.7245  3.2756  2.6955  2.1724  1.9338  1.0676  1.0676  1.2948  1.2948  0.7017
  1.0059  1.0059  0.9813  0.9345  0.9345

 Free energy of the ion-electron system (eV)
  ---------------------------------------------------
  alpha Z        PSCENC =        36.80884744
  Ewald energy   TEWEN  =     12053.68625696
  -Hartree energ DENC   =    -15151.16091684
  -exchange      EXHF   =         0.00000000
  -V(xc)+E(xc)   XCENC  =       -78.67476749
  PAW double counting   =      1202.64500230     -883.15626167
  entropy T*S    EENTRO =        -0.01230094
  eigenvalues    EBANDS =      -616.20495077
  atomic energy  EATOM  =      3354.04126044
  ---------------------------------------------------
  free energy    TOTEN  =       -82.02783056 eV

  energy without entropy =      -82.01552962  energy(sigma->0) =      -82.02168009


--------------------------------------------------------------------------------------------------------




----------------------------------------- Iteration    1(  21)  ---------------------------------------


    POTLOK:  cpu time   16.59: real time   16.62
    SETDIJ:  cpu time    0.03: real time    0.03
     EDDAV:  cpu time   88.77: real time   88.91
       DOS:  cpu time    0.01: real time    0.01
    CHARGE:  cpu time    5.66: real time    5.66
    MIXING:  cpu time    0.03: real time    0.03
    --------------------------------------------
      LOOP:  cpu time  111.09: real time  111.26

 eigenvalue-minimisations  :  7156
 total energy-change (2. order) : 0.5751188E-05  (-0.2459600E-05)
 number of electron     107.9999993 magnetization 
 augmentation part       -9.4407582 magnetization 

 Broyden mixing:
  rms(total) = 0.61871E-04    rms(broyden)= 0.61864E-04
  rms(prec ) = 0.92709E-04
  weight for this iteration     100.00

 eigenvalues of (default mixing * dielectric matrix)
  average eigenvalue GAMMA=   1.8691
  6.8723  3.8679  2.7293  2.6221  1.7131  1.4998  1.4998  1.5041  1.0658  1.0658
  0.7017  1.0012  1.0012  0.9166  0.9227  0.9227

 Free energy of the ion-electron system (eV)
  ---------------------------------------------------
  alpha Z        PSCENC =        36.80884744
  Ewald energy   TEWEN  =     12053.68625696
  -Hartree energ DENC   =    -15151.22248832
  -exchange      EXHF   =         0.00000000
  -V(xc)+E(xc)   XCENC  =       -78.67468675
  PAW double counting   =      1202.64103590     -883.15221082
  entropy T*S    EENTRO =        -0.01229988
  eigenvalues    EBANDS =      -616.14353979
  atomic energy  EATOM  =      3354.04126044
  ---------------------------------------------------
  free energy    TOTEN  =       -82.02782481 eV

  energy without entropy =      -82.01552493  energy(sigma->0) =      -82.02167487


--------------------------------------------------------------------------------------------------------




----------------------------------------- Iteration    1(  22)  ---------------------------------------


    POTLOK:  cpu time   15.54: real time   15.56
    SETDIJ:  cpu time    0.01: real time    0.01
     EDDAV:  cpu time   85.15: real time   85.32
       DOS:  cpu time    0.01: real time    0.01
    CHARGE:  cpu time    5.56: real time    5.58
    MIXING:  cpu time    0.03: real time    0.03
    --------------------------------------------
      LOOP:  cpu time  106.30: real time  106.52

 eigenvalue-minimisations  :  6856
 total energy-change (2. order) : 0.3761274E-04  (-0.1939064E-05)
 number of electron     107.9999993 magnetization 
 augmentation part       -9.4407654 magnetization 

 Broyden mixing:
  rms(total) = 0.31439E-04    rms(broyden)= 0.31435E-04
  rms(prec ) = 0.44808E-04
  weight for this iteration     100.00

 eigenvalues of (default mixing * dielectric matrix)
  average eigenvalue GAMMA=   1.9756
  7.4318  5.3650  2.9330  2.5420  2.0109  1.8186  1.3806  1.3806  1.0657  1.0657
  0.7017  1.1301  0.9981  0.9981  0.9095  0.9268  0.9268

 Free energy of the ion-electron system (eV)
  ---------------------------------------------------
  alpha Z        PSCENC =        36.80884744
  Ewald energy   TEWEN  =     12053.68625696
  -Hartree energ DENC   =    -15151.22995182
  -exchange      EXHF   =         0.00000000
  -V(xc)+E(xc)   XCENC  =       -78.67488385
  PAW double counting   =      1202.63656263     -883.14763230
  entropy T*S    EENTRO =        -0.01229998
  eigenvalues    EBANDS =      -616.13594674
  atomic energy  EATOM  =      3354.04126044
  ---------------------------------------------------
  free energy    TOTEN  =       -82.02778720 eV

  energy without entropy =      -82.01548722  energy(sigma->0) =      -82.02163721


--------------------------------------------------------------------------------------------------------




----------------------------------------- Iteration    1(  23)  ---------------------------------------


    POTLOK:  cpu time   15.60: real time   15.61
    SETDIJ:  cpu time    0.01: real time    0.01
     EDDAV:  cpu time   83.42: real time   83.69
       DOS:  cpu time    0.02: real time    0.02
    CHARGE:  cpu time    5.30: real time    5.30
    MIXING:  cpu time    0.03: real time    0.03
    --------------------------------------------
      LOOP:  cpu time  104.38: real time  104.67

 eigenvalue-minimisations  :  6928
 total energy-change (2. order) : 0.6098353E-04  (-0.9748780E-06)
 number of electron     107.9999993 magnetization 
 augmentation part       -9.4407637 magnetization 

 Broyden mixing:
[...]
     31      -4.0463      2.00000
     32      -3.9796      2.00000
     33      -3.7873      2.00000
     34      -3.6933      2.00000
     35      -3.5196      2.00000
     36      -3.3100      2.00000
     37      -3.2194      2.00000
     38      -3.0529      2.00000
     39      -3.0452      2.00000
     40      -2.8621      2.00000
     41      -2.5861      2.00000
     42      -2.5227      2.00000
     43      -2.1530      2.00000
     44      -1.9986      2.00000
     45      -1.9066      2.00000
     46      -1.8557      2.00000
     47      -1.7416      2.00000
     48      -1.5179      2.00000
     49      -1.3901      2.00000
     50      -1.3256      2.00000
     51      -1.1052      2.00000
     52      -0.7682      2.00000
     53      -0.5580      2.00000
     54      -0.4685      2.00000
     55       0.6201      0.00000
     56       0.6935      0.00000
     57       1.1457      0.00000
     58       1.4743      0.00000
     59       1.6075      0.00000
     60       1.6664      0.00000
     61       2.2028      0.00000
     62       2.3639      0.00000
     63       2.5796      0.00000
     64       2.7070      0.00000
     65       2.9039      0.00000
     66       2.9825      0.00000
     67       3.0763      0.00000
     68       3.3009      0.00000

 k-point    52 :       0.3077    0.5000    0.5000
  band No.  band energies     occupation 
      1     -13.2330      2.00000
      2     -12.4966      2.00000
      3     -12.3575      2.00000
      4     -12.1469      2.00000
      5     -11.7417      2.00000
      6     -11.6249      2.00000
      7     -11.2455      2.00000
      8     -11.0020      2.00000
      9     -10.7958      2.00000
     10     -10.7358      2.00000
     11     -10.3793      2.00000
     12     -10.1697      2.00000
     13      -8.9077      2.00000
     14      -8.7745      2.00000
     15      -7.8861      2.00000
     16      -7.7616      2.00000
     17      -7.6499      2.00000
     18      -7.0496      2.00000
     19      -6.9561      2.00000
     20      -6.8421      2.00000
     21      -6.5176      2.00000
     22      -6.1798      2.00000
     23      -6.1083      2.00000
     24      -5.9146      2.00000
     25      -5.6624      2.00000
     26      -5.3373      2.00000
     27      -4.8855      2.00000
     28      -4.6912      2.00000
     29      -4.4714      2.00000
     30      -4.3787      2.00000
     31      -4.2907      2.00000
     32      -4.1196      2.00000
     33      -4.0623      2.00000
     34      -3.9518      2.00000
     35      -3.5726      2.00000
     36      -3.4086      2.00000
     37      -3.2335      2.00000
     38      -3.0687      2.00000
     39      -2.9440      2.00000
     40      -2.9010      2.00000
     41      -2.7589      2.00000
     42      -2.5134      2.00000
     43      -2.2930      2.00000
     44      -2.2504      2.00000
     45      -1.9589      2.00000
     46      -1.8937      2.00000
     47      -1.8575      2.00000
     48      -1.7409      2.00000
     49      -1.6851      2.00000
     50      -1.4283      2.00000
     51      -1.3152      2.00000
     52      -1.0509      2.00000
     53      -0.8792      2.00000
     54      -0.7024      2.00000
     55       0.4130      0.00007
     56       0.5568      0.00000
     57       0.9057      0.00000
     58       1.3113      0.00000
     59       1.4019      0.00000
     60       1.6134      0.00000
     61       2.0694      0.00000
     62       2.2123      0.00000
     63       2.3697      0.00000
     64       2.4770      0.00000
     65       2.5696      0.00000
     66       2.6842      0.00000
     67       2.8579      0.00000
     68       3.0056      0.00000

 k-point    53 :       0.3846    0.5000    0.5000
  band No.  band energies     occupation 
      1     -12.8393      2.00000
      2     -12.0211      2.00000
      3     -11.9344      2.00000
      4     -11.6501      2.00000
      5     -11.4880      2.00000
      6     -11.2356      2.00000
      7     -11.0649      2.00000
      8     -10.7585      2.00000
      9     -10.6753      2.00000
     10     -10.6040      2.00000
     11     -10.4458      2.00000
     12      -9.8247      2.00000
     13      -9.0925      2.00000
     14      -8.8921      2.00000
     15      -8.3540      2.00000
     16      -8.2347      2.00000
     17      -7.8974      2.00000
     18      -7.5997      2.00000
     19      -7.3758      2.00000
     20      -7.3237      2.00000
     21      -6.8026      2.00000
     22      -6.7048      2.00000
     23      -6.6438      2.00000
     24      -6.4878      2.00000
     25      -5.7025      2.00000
     26      -5.2788      2.00000
     27      -4.8271      2.00000
     28      -4.6603      2.00000
     29      -4.5096      2.00000
     30      -4.3949      2.00000
     31      -4.1213      2.00000
     32      -4.0278      2.00000
     33      -3.9827      2.00000
     34      -3.8663      2.00000
     35      -3.7276      2.00000
     36      -3.5140      2.00000
     37      -3.3607      2.00000
     38      -3.1817      2.00000
     39      -3.1101      2.00000
     40      -2.8729      2.00000
     41      -2.7977      2.00000
     42      -2.5640      2.00000
     43      -2.5337      2.00000
     44      -2.3327      2.00000
     45      -2.2828      2.00000
     46      -2.1358      2.00000
     47      -2.0489      2.00000
     48      -1.8913      2.00000
     49      -1.7850      2.00000
     50      -1.4852      2.00000
     51      -1.3689      2.00000
     52      -1.3299      2.00000
     53      -1.0041      2.00000
     54      -0.7055      2.00000
     55       0.1011      1.33288
     56       0.4130      0.00007
     57       0.8499      0.00000
     58       1.2867      0.00000
     59       1.5308      0.00000
     60       1.5730      0.00000
     61       1.8382      0.00000
     62       2.0554      0.00000
     63       2.1705      0.00000
     64       2.2211      0.00000
     65       2.3454      0.00000
     66       2.4881      0.00000
     67       2.6722      0.00000
     68       2.7360      0.00000

 k-point    54 :       0.4615    0.5000    0.5000
  band No.  band energies     occupation 
      1     -12.5000      2.00000
      2     -11.7017      2.00000
      3     -11.4761      2.00000
      4     -11.2657      2.00000
      5     -11.1511      2.00000
      6     -11.0332      2.00000
      7     -10.9423      2.00000
      8     -10.8343      2.00000
      9     -10.7059      2.00000
     10     -10.6977      2.00000
     11     -10.6083      2.00000
     12      -9.5564      2.00000
     13      -9.1997      2.00000
     14      -8.7884      2.00000
     15      -8.6492      2.00000
     16      -8.4261      2.00000
     17      -8.1036      2.00000
     18      -7.9994      2.00000
     19      -7.7450      2.00000
     20      -7.5506      2.00000
     21      -7.2801      2.00000
     22      -7.1519      2.00000
     23      -7.0167      2.00000
     24      -6.6447      2.00000
     25      -5.7085      2.00000
     26      -4.9328      2.00000
     27      -4.8538      2.00000
     28      -4.4640      2.00000
     29      -4.2722      2.00000
     30      -4.2206      2.00000
     31      -4.1038      2.00000
     32      -4.0280      2.00000
     33      -3.9328      2.00000
     34      -3.7519      2.00000
     35      -3.6824      2.00000
     36      -3.5688      2.00000
     37      -3.5427      2.00000
     38      -3.4017      2.00000
     39      -3.2410      2.00000
     40      -3.0475      2.00000
     41      -3.0217      2.00000
     42      -2.7555      2.00000
     43      -2.6810      2.00000
     44      -2.4811      2.00000
     45      -2.3667      2.00000
     46      -2.1935      2.00000
     47      -2.1002      2.00000
     48      -1.9084      2.00000
     49      -1.7006      2.00000
     50      -1.5442      2.00000
     51      -1.5055      2.00000
     52      -1.3497      2.00000
     53      -1.0411      2.00000
     54      -0.6333      2.00000
     55      -0.1415      1.99989
     56       0.3328      0.00441
     57       0.8594      0.00000
     58       1.3608      0.00000
     59       1.5282      0.00000
     60       1.6266      0.00000
     61       1.6787      0.00000
     62       1.9001      0.00000
     63       2.0542      0.00000
     64       2.1543      0.00000
     65       2.3338      0.00000
     66       2.3919      0.00000
     67       2.5065      0.00000
     68       2.5937      0.00000


--------------------------------------------------------------------------------------------------------


 soft charge-density along one line, spin component           1
         0         1         2         3         4         5         6         7         8         9
 total charge-density along one line
 
 pseudopotential strength for first ion, spin component:           1
 29.779   0.008  -0.000  -0.022   0.000  -0.000  -0.001  -0.000
  0.008   0.009  -0.000  -0.000  -0.000   0.000   0.000   0.000
 -0.000  -0.000   6.548  -0.001   0.000  -0.003   0.000  -0.000
 -0.022  -0.000  -0.001   6.543   0.000   0.000  -0.002  -0.000
  0.000  -0.000   0.000   0.000   6.549  -0.000  -0.000  -0.003
 -0.000   0.000  -0.003   0.000  -0.000   0.015  -0.000   0.000
 -0.001   0.000   0.000  -0.002  -0.000  -0.000   0.015   0.000
 -0.000   0.000  -0.000  -0.000  -0.003   0.000   0.000   0.015
 total augmentation occupancy for first ion, spin component:           1
  1.814  -0.354   0.004   0.249   0.001   0.003   0.115   0.001
 -0.354   1.294   0.016   0.847   0.003   0.004  -0.431   0.001
  0.004   0.016   1.144   0.011   0.000  -0.503   0.013   0.000
  0.249   0.847   0.011   1.284   0.000   0.013  -0.418   0.001
  0.001   0.003   0.000   0.000   1.148   0.000   0.001  -0.527
  0.003   0.004  -0.503   0.013   0.000   0.291  -0.015  -0.000
  0.115  -0.431   0.013  -0.418   0.001  -0.015   0.227  -0.000
  0.001   0.001   0.000   0.001  -0.527  -0.000  -0.000   0.325


------------------------ aborting loop because EDIFF is reached ----------------------------------------


    CHARGE:  cpu time    4.37: real time    4.38
    FORLOC:  cpu time    0.06: real time    0.06
    FORNL :  cpu time   20.67: real time   20.73
    STRESS:  cpu time   61.29: real time   61.40
    FORCOR:  cpu time   15.92: real time   15.94
    FORHAR:  cpu time    0.20: real time    0.20
    MIXING:  cpu time    0.02: real time    0.02
    OFIELD:  cpu time    0.00: real time    0.00

  FORCE on cell =-STRESS in cart. coord.  units (eV):
  Direction    XX          YY          ZZ          XY          YZ          ZX
  --------------------------------------------------------------------------------------
  Alpha Z    36.80885    36.80885    36.80885
  Ewald   14401.02270 13919.39632-16266.74015   -18.23091   -54.87880    30.44686
  Hartree 14976.08400 14582.15604-14406.99017    -2.00469     7.42066     0.42145
  E(xc)    -361.34084  -361.09042  -360.00535    -0.04127     0.23261    -0.11328
  Local  -30982.98485-30080.65524 29158.92598     7.57934    -9.33276   -11.10113
  n-local  1183.50320  1185.31943  1183.78779     0.41449    -3.77160     2.46857
  augment  -207.42816  -205.51975  -202.32226    -0.95236    -3.53959     0.96836
  Kinetic   960.16661   949.96042   985.50959     2.82439    11.15822     0.30634
  Fock        0.00000     0.00000     0.00000     0.00000     0.00000     0.00000
  -------------------------------------------------------------------------------------
  Total       5.83150    26.37565   128.97427   -10.41102   -52.71127    23.39718
  in kB       9.32147    42.16066   206.16133   -16.64169   -84.25732    37.39966
  external pressure =       85.88 kB  Pullay stress =        0.00 kB


 VOLUME and BASIS-vectors are now :
 -----------------------------------------------------------------------------
  energy-cutoff  :      300.00
  volume of cell :     1002.32
      direct lattice vectors                 reciprocal lattice vectors
     3.540400000  0.000000000  0.000000000     0.282453960  0.048570342  0.000000000
    -1.770200000 10.294348000  0.000000000     0.000000000  0.097140683  0.000000000
     0.000000000  0.000000000 27.501429000     0.000000000  0.000000000  0.036361747

  length of vectors
     3.540400000 10.445439617 27.501429000     0.286599577  0.097140683  0.036361747


 FORCES acting on ions
    electron-ion (+dipol)            ewald-force                    non-local-force                 convergence-correction
 -----------------------------------------------------------------------------------------------
   -.348E-01 0.116E+02 0.316E+02   -.677E-02 -.115E+02 -.272E+02   -.226E-01 -.131E+00 -.433E+01   0.864E-08 -.311E-05 0.284E-05
   -.191E-01 0.131E+02 -.553E+03   0.665E-02 -.127E+02 0.557E+03   -.144E-01 -.349E+00 -.410E+01   -.774E-07 0.312E-05 0.716E-05
   0.345E-02 0.645E+02 0.460E+02   -.356E-04 -.661E+02 -.416E+02   -.426E-02 0.160E+01 -.422E+01   0.478E-07 0.865E-06 0.526E-05
   0.387E+00 0.181E+02 -.524E+03   -.339E+00 -.189E+02 0.528E+03   -.682E-01 0.818E+00 -.351E+01   -.647E-07 -.538E-05 -.322E-05
   0.718E-04 -.576E+02 0.526E+03   0.834E-04 0.592E+02 -.531E+03   -.480E-03 -.153E+01 0.427E+01   0.333E-07 -.256E-05 0.386E-05
   0.304E+01 -.119E+03 -.401E+02   -.314E+01 0.120E+03 0.382E+02   -.186E-01 -.580E+00 -.875E+00   0.271E-06 0.207E-05 -.125E-04
   -.561E-03 0.542E+02 0.526E+03   0.149E-04 -.561E+02 -.530E+03   0.381E-03 0.192E+01 0.416E+01   0.214E-07 0.310E-05 0.892E-05
   -.952E-01 0.111E+03 -.855E+02   0.210E+00 -.114E+03 0.812E+02   0.122E+00 0.254E+01 0.458E+01   -.332E-06 0.524E-05 -.157E-04
   -.441E-03 0.183E+01 0.573E+03   -.847E-04 -.204E+01 -.577E+03   0.149E-02 0.211E+00 0.476E+01   -.202E-07 0.241E-05 -.453E-05
   -.256E+01 -.312E+00 0.997E+01   0.248E+01 0.126E+01 -.124E+02   -.908E+00 -.179E+01 0.693E+00   -.480E-06 -.824E-05 -.101E-04
   0.287E-02 -.671E+02 0.602E+02   0.207E-02 0.690E+02 -.560E+02   -.328E-02 -.191E+01 -.404E+01   -.625E-08 0.119E-06 0.264E-05
   0.435E+00 -.336E+02 -.552E+03   -.269E+00 0.358E+02 0.555E+03   -.894E-01 -.218E+01 -.243E+01   0.468E-06 0.113E-05 -.143E-04
   0.531E-02 0.311E+02 0.208E+03   -.160E-04 -.332E+02 -.208E+03   -.306E-02 0.210E+01 0.310E+00   -.353E-10 0.207E-05 0.902E-05
   -.473E+01 -.419E+02 -.293E+03   0.415E+01 0.448E+02 0.289E+03   0.627E+00 -.350E+01 0.582E+01   0.166E-06 -.377E-05 -.101E-04
   -.383E-02 -.129E+02 0.140E+03   -.724E-03 0.132E+02 -.143E+03   -.106E-02 -.268E+00 0.254E+01   0.503E-08 -.208E-05 0.132E-05
   -.204E+01 0.266E+02 -.348E+03   0.158E+01 -.244E+02 0.344E+03   0.585E+00 -.135E+01 0.633E+01   -.958E-07 0.594E-05 -.133E-04
   0.303E-02 -.534E+01 0.346E+03   0.621E-04 0.580E+01 -.344E+03   -.206E-02 -.465E+00 -.251E+01   0.177E-07 -.326E-05 0.953E-06
   0.129E+02 -.598E+02 -.546E+02   -.276E+02 0.927E+02 -.146E+02   -.657E+01 0.253E+02 -.498E+02   0.144E-06 -.374E-05 -.938E-05
   -.422E-02 0.102E+02 0.335E+03   0.168E-05 -.105E+02 -.333E+03   -.393E-02 0.249E+00 -.252E+01   -.129E-07 0.434E-05 0.642E-05
   0.948E+00 0.501E+02 -.129E+03   -.617E+00 -.532E+02 0.132E+03   -.373E+00 0.125E+01 -.566E+01   -.316E-08 -.255E-05 -.132E-04
   0.532E-01 0.131E+02 0.127E+03   0.529E-03 -.135E+02 -.130E+03   -.379E-01 0.398E+00 0.258E+01   0.497E-09 -.182E-05 0.267E-05
   -.652E-01 0.891E+01 -.294E+03   0.178E-01 -.825E+01 0.295E+03   -.399E-01 -.388E-01 -.134E+01   -.506E-07 0.550E-06 -.485E-05
   -.427E-03 -.320E+02 0.254E+03   -.592E-04 0.342E+02 -.253E+03   0.224E-02 -.218E+01 -.342E+00   -.683E-08 -.785E-06 0.505E-05
   -.143E+02 0.208E+02 -.311E+03   0.236E+02 -.521E+02 0.381E+03   0.128E+02 -.255E+02 0.522E+02   0.251E-06 -.505E-05 -.751E-05
 -----------------------------------------------------------------------------------------------
   -.600E+01 0.544E+01 -.253E+01   -.107E-13 0.284E-13 0.227E-12   0.601E+01 -.544E+01 0.253E+01   0.285E-06 -.114E-04 -.627E-04
 
 
 POSITION                                       TOTAL-FORCE (eV/Angst)
 -----------------------------------------------------------------------------------
      0.00000      2.34757      6.41229        -0.064415     -0.021695      0.066301
      0.17702      9.55362     14.16300        -0.027137      0.007816     -0.334336
     -0.00000      9.43147      5.75866        -0.001109     -0.016283      0.091251
      1.94722      6.34316     13.50937        -0.020949      0.068687      0.211487
     -0.00000      6.40009      2.31424        -0.000591     -0.011850      0.015023
     -0.00000      6.40009     10.06495        -0.124474      0.787514     -2.730274
      1.77020     10.27849      2.37372        -0.000432      0.003134     -0.016224
      1.77020     10.27849     10.12443         0.236959     -0.420390      0.315738
      1.77020      3.18974      1.66157         0.000694      0.002582      0.014155
      1.77020      3.18974      9.41228        -0.989709     -0.839822     -1.710026
      1.77020      5.55354      5.69975         0.001399      0.000126      0.101069
      0.17702      2.46524     13.45047         0.076214     -0.001258      0.660369
      1.77020      9.05319      4.34076         0.001969      0.017692      0.012079
      0.17702      5.96488     12.09147         0.047586     -0.535135      1.275042
      0.00000      4.22380      5.10944        -0.005875      0.012851      0.030237
      1.94722      1.13550     12.86016         0.120171      0.841515      2.667355
     -0.00000      4.15582      2.74166         0.000765     -0.005572     -0.027793
     -0.00000      4.15582     10.49237       -21.256607     58.266686   -118.996265
      1.77020      1.31366      2.96438        -0.008406     -0.022473     -0.024437
      1.77020      1.31366     10.71510        -0.041124     -1.882037     -3.114086
      1.77020      1.38163      5.33187         0.015510     -0.056253     -0.014085
      1.94722      8.58767     13.08259        -0.087643      0.613600     -0.654917
      1.77020      6.77850      3.73234         0.001483      0.025382     -0.001918
      0.17702      3.69019     11.48306        22.125720    -56.834816    122.164254
 -----------------------------------------------------------------------------------
    total drift:                                0.006399      0.000389      0.004029


--------------------------------------------------------------------------------------------------------



  FREE ENERGIE OF THE ION-ELECTRON SYSTEM (eV)
  ---------------------------------------------------
  free  energy   TOTEN  =       -82.02770148 eV

  energy  without entropy=      -82.01540142  energy(sigma->0) =      -82.02155145
 


--------------------------------------------------------------------------------------------------------


    POTLOK:  cpu time   16.13: real time   16.14


--------------------------------------------------------------------------------------------------------


     LOOP+:  cpu time 2905.64: real time 2909.97
    4ORBIT:  cpu time    0.00: real time    0.00

 total amount of memory used by VASP on root node   146493. kBytes
========================================================================

   base      :      30000. kBytes
   nonlr-proj:       3452. kBytes
   fftplans  :       9347. kBytes
   grid      :      14649. kBytes
   one-center:         36. kBytes
   wavefun   :      89009. kBytes
 
  
  
 General timing and accounting informations for this job:
 ========================================================
  
                  Total CPU time used (sec):     2925.037
                            User time (sec):     2882.887
                          System time (sec):       42.151
                         Elapsed time (sec):     2930.546
  
                   Maximum memory used (kb):      335744.
                   Average memory used (kb):           0.
  
                          Minor page faults:      8270360
                          Major page faults:            8
                 Voluntary context switches:         1312
