<?xml version="1.0" encoding="ISO-8859-1"?>
<modeling>
 <generator>
  <i name="program" type="string">vasp </i>
  <i name="version" type="string">5.3.5  </i>
  <i name="subversion" type="string">31Mar14 (build Oct 29 2014 16:16:03) complex                          parallel </i>
  <i name="platform" type="string">Linux-UFHPC </i>
  <i name="date" type="string">2016 02 09 </i>
  <i name="time" type="string">18:05:41 </i>
 </generator>
 <incar>
  <i type="string" name="PREC">accurate</i>
  <i type="int" name="IBRION">     2</i>
  <i name="EDIFF">      0.00000100</i>
  <i type="int" name="NSW">     0</i>
  <i type="int" name="ISIF">     3</i>
  <i name="ENCUT">    300.00000000</i>
  <i type="string" name="LREAL"> Auto</i>
  <i type="int" name="ISMEAR">     0</i>
  <i name="SIGMA">      0.10000000</i>
  <i type="logical" name="LWAVE"> F  </i>
  <i type="logical" name="LCHARG"> F  </i>
  <i type="logical" name="LAECHG"> F  </i>
  <i type="string" name="GGA"> Bo</i>
  <i name="PARAM1">      0.18333333</i>
  <i name="PARAM2">      0.22000000</i>
  <i type="logical" name="LUSE_VDW"> T  </i>
  <i name="AGGAC">      0.00000000</i>
 </incar>
 <kpoints>
  <generation param="Gamma">
   <v type="int" name="divisions">      13        4        2 </v>
   <v name="usershift">      0.00000000       0.00000000       0.00000000 </v>
   <v name="genvec1">      0.07692308      -0.00000000       0.00000000 </v>
   <v name="genvec2">      0.00000000       0.25000000       0.00000000 </v>
   <v name="genvec3">      0.00000000       0.00000000       0.50000000 </v>
   <v name="shift">      0.00000000       0.00000000       0.00000000 </v>
  </generation>
  <varray name="kpointlist" >
   <v>       0.00000000       0.00000000       0.00000000 </v>
   <v>       0.07692308      -0.00000000       0.00000000 </v>
   <v>       0.15384615      -0.00000000       0.00000000 </v>
   <v>       0.23076923      -0.00000000       0.00000000 </v>
   <v>       0.30769231      -0.00000000       0.00000000 </v>
   <v>       0.38461538      -0.00000000       0.00000000 </v>
   <v>       0.46153846      -0.00000000       0.00000000 </v>
   <v>       0.00000000       0.25000000       0.00000000 </v>
   <v>       0.07692308       0.25000000       0.00000000 </v>
   <v>       0.15384615       0.25000000       0.00000000 </v>
   <v>       0.23076923       0.25000000       0.00000000 </v>
   <v>       0.30769231       0.25000000       0.00000000 </v>
   <v>       0.38461538       0.25000000       0.00000000 </v>
   <v>       0.46153846       0.25000000       0.00000000 </v>
   <v>      -0.46153846       0.25000000       0.00000000 </v>
   <v>      -0.38461538       0.25000000       0.00000000 </v>
   <v>      -0.30769231       0.25000000       0.00000000 </v>
   <v>      -0.23076923       0.25000000       0.00000000 </v>
   <v>      -0.15384615       0.25000000       0.00000000 </v>
   <v>      -0.07692308       0.25000000       0.00000000 </v>
   <v>       0.00000000       0.50000000       0.00000000 </v>
   <v>       0.07692308       0.50000000       0.00000000 </v>
   <v>       0.15384615       0.50000000       0.00000000 </v>
   <v>       0.23076923       0.50000000       0.00000000 </v>
   <v>       0.30769231       0.50000000       0.00000000 </v>
   <v>       0.38461538       0.50000000       0.00000000 </v>
   <v>       0.46153846       0.50000000       0.00000000 </v>
   <v>       0.00000000       0.00000000       0.50000000 </v>
   <v>       0.07692308      -0.00000000       0.50000000 </v>
   <v>       0.15384615      -0.00000000       0.50000000 </v>
   <v>       0.23076923      -0.00000000       0.50000000 </v>
   <v>       0.30769231      -0.00000000       0.50000000 </v>
   <v>       0.38461538      -0.00000000       0.50000000 </v>
   <v>       0.46153846      -0.00000000       0.50000000 </v>
   <v>       0.00000000       0.25000000       0.50000000 </v>
   <v>       0.07692308       0.25000000       0.50000000 </v>
   <v>       0.15384615       0.25000000       0.50000000 </v>
   <v>       0.23076923       0.25000000       0.50000000 </v>
   <v>       0.30769231       0.25000000       0.50000000 </v>
   <v>       0.38461538       0.25000000       0.50000000 </v>
   <v>       0.46153846       0.25000000       0.50000000 </v>
   <v>      -0.46153846       0.25000000       0.50000000 </v>
   <v>      -0.38461538       0.25000000       0.50000000 </v>
   <v>      -0.30769231       0.25000000       0.50000000 </v>
   <v>      -0.23076923       0.25000000       0.50000000 </v>
   <v>      -0.15384615       0.25000000       0.50000000 </v>
   <v>      -0.07692308       0.25000000       0.50000000 </v>
   <v>       0.00000000       0.50000000       0.50000000 </v>
   <v>       0.07692308       0.50000000       0.50000000 </v>
   <v>       0.15384615       0.50000000       0.50000000 </v>
   <v>       0.23076923       0.50000000       0.50000000 </v>
   <v>       0.30769231       0.50000000       0.50000000 </v>
   <v>       0.38461538       0.50000000       0.50000000 </v>
   <v>       0.46153846       0.50000000       0.50000000 </v>
  </varray>
  <varray name="weights" >
   <v>       0.00961538 </v>
   <v>       0.01923077 </v>
   <v>       0.01923077 </v>
   <v>       0.01923077 </v>
   <v>       0.01923077 </v>
   <v>       0.01923077 </v>
   <v>       0.01923077 </v>
   <v>       0.01923077 </v>
   <v>       0.01923077 </v>
   <v>       0.01923077 </v>
   <v>       0.01923077 </v>
   <v>       0.01923077 </v>
   <v>       0.01923077 </v>
   <v>       0.01923077 </v>
   <v>       0.01923077 </v>
   <v>       0.01923077 </v>
   <v>       0.01923077 </v>
   <v>       0.01923077 </v>
   <v>       0.01923077 </v>
   <v>       0.01923077 </v>
   <v>       0.00961538 </v>
   <v>       0.01923077 </v>
   <v>       0.01923077 </v>
   <v>       0.01923077 </v>
   <v>       0.01923077 </v>
   <v>       0.01923077 </v>
   <v>       0.01923077 </v>
   <v>       0.00961538 </v>
   <v>       0.01923077 </v>
   <v>       0.01923077 </v>
   <v>       0.01923077 </v>
   <v>       0.01923077 </v>
   <v>       0.01923077 </v>
   <v>       0.01923077 </v>
   <v>       0.01923077 </v>
   <v>       0.01923077 </v>
   <v>       0.01923077 </v>
   <v>       0.01923077 </v>
   <v>       0.01923077 </v>
   <v>       0.01923077 </v>
   <v>       0.01923077 </v>
   <v>       0.01923077 </v>
   <v>       0.01923077 </v>
   <v>       0.01923077 </v>
   <v>       0.01923077 </v>
   <v>       0.01923077 </v>
   <v>       0.01923077 </v>
   <v>       0.00961538 </v>
   <v>       0.01923077 </v>
   <v>       0.01923077 </v>
   <v>       0.01923077 </v>
   <v>       0.01923077 </v>
   <v>       0.01923077 </v>
   <v>       0.01923077 </v>
  </varray>
 </kpoints>
 <parameters>
  <separator name="general" >
   <i type="string" name="SYSTEM">unknown system</i>
   <i type="logical" name="LCOMPAT"> F  </i>
  </separator>
  <separator name="electronic" >
   <i type="string" name="PREC">accura</i>
   <i name="ENMAX">    300.00000000</i>
   <i name="ENAUG">    342.92400000</i>
   <i name="EDIFF">      0.00000100</i>
   <i type="int" name="IALGO">    38</i>
   <i type="int" name="IWAVPR">    10</i>
   <i type="int" name="NBANDS">    68</i>
   <i name="NELECT">    108.00000000</i>
   <i type="int" name="TURBO">     0</i>
   <i type="int" name="IRESTART">     0</i>
   <i type="int" name="NREBOOT">     0</i>
   <i type="int" name="NMIN">     0</i>
   <i name="EREF">      0.00000000</i>
   <separator name="electronic smearing" >
    <i type="int" name="ISMEAR">     0</i>
    <i name="SIGMA">      0.10000000</i>
    <i name="KSPACING">      0.50000000</i>
    <i type="logical" name="KGAMMA"> T  </i>
   </separator>
   <separator name="electronic projectors" >
    <i type="logical" name="LREAL"> T  </i>
    <v name="ROPT">     -0.00025000     -0.00025000</v>
    <i type="int" name="LMAXPAW">  -100</i>
    <i type="int" name="LMAXMIX">     2</i>
    <i type="logical" name="NLSPLINE"> F  </i>
   </separator>
   <separator name="electronic startup" >
    <i type="int" name="ISTART">     0</i>
    <i type="int" name="ICHARG">     2</i>
    <i type="int" name="INIWAV">     1</i>
   </separator>
   <separator name="electronic spin" >
    <i type="int" name="ISPIN">     1</i>
    <i type="logical" name="LNONCOLLINEAR"> F  </i>
    <v name="MAGMOM">      1.00000000      1.00000000      1.00000000      1.00000000      1.00000000      1.00000000      1.00000000      1.00000000      1.00000000      1.00000000      1.00000000      1.00000000      1.00000000      1.00000000      1.00000000      1.00000000      1.00000000      1.00000000      1.00000000      1.00000000
      1.00000000      1.00000000      1.00000000      1.00000000</v>
    <i name="NUPDOWN">     -1.00000000</i>
    <i type="logical" name="LSORBIT"> F  </i>
    <v name="SAXIS">      0.00000000      0.00000000      1.00000000</v>
    <i type="logical" name="LSPIRAL"> F  </i>
    <v name="QSPIRAL">      0.00000000      0.00000000      0.00000000</v>
    <i type="logical" name="LZEROZ"> F  </i>
   </separator>
   <separator name="electronic exchange-correlation" >
    <i type="logical" name="LASPH"> F  </i>
    <i type="logical" name="LMETAGGA"> F  </i>
   </separator>
   <separator name="electronic convergence" >
    <i type="int" name="NELM">    60</i>
    <i type="int" name="NELMDL">    -5</i>
    <i type="int" name="NELMIN">     2</i>
    <i name="ENINI">    300.00000000</i>
    <separator name="electronic convergence detail" >
     <i type="logical" name="LDIAG"> T  </i>
     <i type="logical" name="LSUBROT"> F  </i>
     <i name="WEIMIN">      0.00000000</i>
     <i name="EBREAK">      0.00000000</i>
     <i name="DEPER">      0.30000000</i>
     <i type="int" name="NRMM">     4</i>
     <i name="TIME">      0.40000000</i>
    </separator>
   </separator>
   <separator name="electronic mixer" >
    <i name="AMIX">      0.40000000</i>
    <i name="BMIX">      1.00000000</i>
    <i name="AMIN">      0.10000000</i>
    <i name="AMIX_MAG">      1.60000000</i>
    <i name="BMIX_MAG">      1.00000000</i>
    <separator name="electronic mixer details" >
     <i type="int" name="IMIX">     4</i>
     <i type="int" name="MAXMIX">   -45</i>
     <i name="WC">    100.00000000</i>
     <i type="int" name="INIMIX">     1</i>
     <i type="int" name="MIXPRE">     1</i>
     <i type="int" name="MREMOVE">     5</i>
    </separator>
   </separator>
   <separator name="electronic dipolcorrection" >
    <i type="logical" name="LDIPOL"> F  </i>
    <i type="logical" name="LMONO"> F  </i>
    <i type="int" name="IDIPOL">     0</i>
    <i name="EPSILON">      1.00000000</i>
    <v name="DIPOL">   -100.00000000   -100.00000000   -100.00000000</v>
    <i name="EFIELD">      0.00000000</i>
   </separator>
  </separator>
  <separator name="grids" >
   <i type="int" name="NGX">    20</i>
   <i type="int" name="NGY">    60</i>
   <i type="int" name="NGZ">   160</i>
   <i type="int" name="NGXF">    40</i>
   <i type="int" name="NGYF">   120</i>
   <i type="int" name="NGZF">   320</i>
   <i type="logical" name="ADDGRID"> F  </i>
  </separator>
  <separator name="ionic" >
   <i type="int" name="NSW">     0</i>
   <i type="int" name="IBRION">    -1</i>
   <i type="int" name="ISIF">     3</i>
   <i name="PSTRESS">      0.00000000</i>
   <i name="EDIFFG">      0.00001000</i>
   <i type="int" name="NFREE">     1</i>
   <i name="POTIM">      0.50000000</i>
   <i name="SMASS">     -3.00000000</i>
   <i name="SCALEE">      1.00000000</i>
  </separator>
  <separator name="ionic md" >
   <i name="TEBEG">      0.00010000</i>
   <i name="TEEND">      0.00010000</i>
   <i type="int" name="NBLOCK">     1</i>
   <i type="int" name="KBLOCK">     1</i>
   <i type="int" name="NPACO">   256</i>
   <i name="APACO">     16.00000000</i>
  </separator>
  <separator name="symmetry" >
   <i type="int" name="ISYM">     2</i>
   <i name="SYMPREC">      0.00001000</i>
  </separator>
  <separator name="dos" >
   <i type="logical" name="LORBIT"> F  </i>
   <v name="RWIGS">     -1.00000000     -1.00000000</v>
   <i type="int" name="NEDOS">   301</i>
   <i name="EMIN">     10.00000000</i>
   <i name="EMAX">    -10.00000000</i>
   <i name="EFERMI">      0.00000000</i>
  </separator>
  <separator name="writing" >
   <i type="int" name="NWRITE">     2</i>
   <i type="logical" name="LWAVE"> F  </i>
   <i type="logical" name="LCHARG"> F  </i>
   <i type="logical" name="LPARD"> F  </i>
   <i type="logical" name="LVTOT"> F  </i>
   <i type="logical" name="LVHAR"> F  </i>
   <i type="logical" name="LELF"> F  </i>
   <i type="logical" name="LOPTICS"> F  </i>
   <v name="STM">      0.00000000      0.00000000      0.00000000      0.00000000      0.00000000      0.00000000      0.00000000</v>
  </separator>
  <separator name="performance" >
   <i type="int" name="NPAR">     4</i>
   <i type="int" name="NSIM">     4</i>
   <i type="int" name="NBLK">    -1</i>
   <i type="logical" name="LPLANE"> T  </i>
   <i type="logical" name="LSCALAPACK"> T  </i>
   <i type="logical" name="LSCAAWARE"> F  </i>
   <i type="logical" name="LSCALU"> F  </i>
   <i type="logical" name="LASYNC"> F  </i>
   <i type="logical" name="LORBITALREAL"> F  </i>
  </separator>
  <separator name="miscellaneous" >
   <i type="int" name="IDIOT">     3</i>
   <i type="logical" name="LMUSIC"> F  </i>
   <v name="POMASS">     30.97400000     28.08500000</v>
   <v name="DARWINR">      0.00000000      0.00000000</v>
   <v name="DARWINV">      1.00000000      1.00000000</v>
   <i type="logical" name="LCORR"> T  </i>
  </separator>
  <i type="logical" name="GGA_COMPAT"> T  </i>
  <i type="logical" name="LBERRY"> F  </i>
  <i type="int" name="ICORELEVEL">     0</i>
  <i type="logical" name="LDAU"> F  </i>
  <i type="int" name="I_CONSTRAINED_M">     0</i>
  <separator name="electronic exchange-correlation" >
   <i type="string" name="GGA">BO</i>
   <i type="int" name="VOSKOWN">     0</i>
   <i type="logical" name="LHFCALC"> F  </i>
   <i type="string" name="PRECFOCK"></i>
   <i type="logical" name="LSYMGRAD"> F  </i>
   <i type="logical" name="LHFONE"> F  </i>
   <i type="logical" name="LRHFCALC"> F  </i>
   <i type="logical" name="LTHOMAS"> F  </i>
   <i type="logical" name="LMODELHF"> F  </i>
   <i name="ENCUT4O">     -1.00000000</i>
   <i type="int" name="EXXOEP">     0</i>
   <i type="int" name="FOURORBIT">     0</i>
   <i name="AEXX">      0.00000000</i>
   <i name="HFALPHA">      0.00000000</i>
   <i name="MCALPHA">      0.00000000</i>
   <i name="ALDAX">      1.00000000</i>
   <i name="AGGAX">      1.00000000</i>
   <i name="ALDAC">      1.00000000</i>
   <i name="AGGAC">      0.00000000</i>
   <i type="int" name="NKREDX">     1</i>
   <i type="int" name="NKREDY">     1</i>
   <i type="int" name="NKREDZ">     1</i>
   <i type="logical" name="SHIFTRED"> F  </i>
   <i type="logical" name="ODDONLY"> F  </i>
   <i type="logical" name="EVENONLY"> F  </i>
   <i type="int" name="LMAXFOCK">     0</i>
   <i type="int" name="NMAXFOCKAE">     0</i>
   <i type="logical" name="LFOCKAEDFT"> F  </i>
   <i name="HFSCREEN">      0.00000000</i>
   <i name="HFSCREENC">      0.00000000</i>
   <i type="int" name="NBANDSGWLOW">     0</i>
  </separator>
  <separator name="vdW DFT" >
   <i type="logical" name="LUSE_VDW"> T  </i>
   <i name="Zab_VDW">     -0.84910000</i>
   <i name="PARAM1">      0.18333333</i>
   <i name="PARAM2">      0.22000000</i>
   <i name="PARAM3">      0.00000000</i>
  </separator>
  <separator name="model GW" >
   <i type="int" name="MODEL_GW">     0</i>
   <i name="MODEL_EPS0">     25.05800243</i>
   <i name="MODEL_ALPHA">      1.00000000</i>
  </separator>
  <separator name="linear response parameters" >
   <i type="logical" name="LEPSILON"> F  </i>
   <i type="logical" name="LRPA"> F  </i>
   <i type="logical" name="LNABLA"> F  </i>
   <i type="logical" name="LVEL"> F  </i>
   <i type="int" name="KINTER">     0</i>
   <i name="CSHIFT">      0.10000000</i>
   <i name="OMEGAMAX">     -1.00000000</i>
   <i name="DEG_THRESHOLD">      0.00200000</i>
  </separator>
  <separator name="orbital magnetization" >
   <i type="logical" name="NUCIND"> F  </i>
   <v name="MAGPOS">      0.00000000      0.00000000      0.00000000</v>
   <i type="logical" name="LNICSALL"> T  </i>
   <i type="logical" name="ORBITALMAG"> F  </i>
   <i type="logical" name="LMAGBLOCH"> F  </i>
   <i type="logical" name="LCHIMAG"> F  </i>
   <i type="logical" name="LGAUGE"> T  </i>
   <i type="int" name="MAGATOM">     0</i>
   <v name="MAGDIPOL">      0.00000000      0.00000000      0.00000000</v>
   <v name="AVECCONST">      0.00000000      0.00000000      0.00000000</v>
  </separator>
  <separator name="response functions" >
   <i type="logical" name="LADDER"> F  </i>
   <i type="logical" name="LFXC"> F  </i>
   <i type="logical" name="LHARTREE"> T  </i>
   <i type="int" name="IBSE">     0</i>
   <i type="logical" name="LTCTE"> F  </i>
   <i type="logical" name="LTETE"> F  </i>
   <i type="logical" name="LTRIPLET"> F  </i>
   <i type="logical" name="LFXCEPS"> F  </i>
   <i type="logical" name="LFXHEG"> F  </i>
   <i type="logical" name="L2ORDER"> F  </i>
   <i type="logical" name="LUSEW"> F  </i>
   <i name="ENCUTGW">     -2.00000000</i>
   <i name="ENCUTGWSOFT">     -2.00000000</i>
   <i name="ENCUTLF">     -1.00000000</i>
   <i type="int" name="LMAXMP2">    -1</i>
   <i name="SCISSOR">      0.00000000</i>
   <i type="int" name="NOMEGA">     0</i>
   <i type="int" name="NOMEGAR">     0</i>
   <i type="int" name="NBANDSGW">    -1</i>
   <i type="int" name="NBANDSO">    -1</i>
   <i type="int" name="NBANDSV">    -1</i>
   <i type="int" name="NELM">     1</i>
   <i type="int" name="DIM">     3</i>
   <i type="int" name="ANTIRES">     0</i>
   <i name="OMEGAMAX">    -30.00000000</i>
   <i name="OMEGAMIN">    -30.00000000</i>
   <i name="OMEGATL">   -200.00000000</i>
   <i type="int" name="OMEGAGRID">     0</i>
   <i name="CSHIFT">     -0.10000000</i>
   <i type="logical" name="SELFENERGY"> F  </i>
   <i type="logical" name="LSPECTRAL"> F  </i>
   <i type="logical" name="ODDONLYGW"> F  </i>
   <i type="logical" name="EVENONLYGW"> F  </i>
   <i type="int" name="NKREDLFX">     1</i>
   <i type="int" name="NKREDLFY">     1</i>
   <i type="int" name="NKREDLFZ">     1</i>
   <i type="int" name="MAXMEM">  1800</i>
   <i type="int" name="TELESCOPE">     0</i>
   <i type="int" name="TAUPAR">     1</i>
  </separator>
  <separator name="External order field" >
   <i name="OFIELD_KAPPA">      0.00000000</i>
   <v name="OFIELD_K">      0.00000000      0.00000000      0.00000000</v>
   <i name="OFIELD_Q6_NEAR">      0.00000000</i>
   <i name="OFIELD_Q6_FAR">      0.00000000</i>
   <i name="OFIELD_A">      0.00000000</i>
  </separator>
 </parameters>
 <atominfo>
  <atoms>      24 </atoms>
  <types>       2 </types>
  <array name="atoms" >
   <dimension dim="1">ion</dimension>
   <field type="string">element</field>
   <field type="int">atomtype</field>
   <set>
    <rc><c>P </c><c>   1</c></rc>
    <rc><c>P </c><c>   1</c></rc>
    <rc><c>P </c><c>   1</c></rc>
    <rc><c>P </c><c>   1</c></rc>
    <rc><c>P </c><c>   1</c></rc>
    <rc><c>P </c><c>   1</c></rc>
    <rc><c>P </c><c>   1</c></rc>
    <rc><c>P </c><c>   1</c></rc>
    <rc><c>P </c><c>   1</c></rc>
    <rc><c>P </c><c>   1</c></rc>
    <rc><c>P </c><c>   1</c></rc>
    <rc><c>P </c><c>   1</c></rc>
    <rc><c>Si</c><c>   2</c></rc>
    <rc><c>Si</c><c>   2</c></rc>
    <rc><c>Si</c><c>   2</c></rc>
    <rc><c>Si</c><c>   2</c></rc>
    <rc><c>Si</c><c>   2</c></rc>
    <rc><c>Si</c><c>   2</c></rc>
    <rc><c>Si</c><c>   2</c></rc>
    <rc><c>Si</c><c>   2</c></rc>
    <rc><c>Si</c><c>   2</c></rc>
    <rc><c>Si</c><c>   2</c></rc>
    <rc><c>Si</c><c>   2</c></rc>
    <rc><c>Si</c><c>   2</c></rc>
   </set>
  </array>
  <array name="atomtypes" >
   <dimension dim="1">type</dimension>
   <field type="int">atomspertype</field>
   <field type="string">element</field>
   <field>mass</field>
   <field>valence</field>
   <field type="string">pseudopotential</field>
   <set>
    <rc><c>  12</c><c>P </c><c>     30.97400000</c><c>      5.00000000</c><c>  PAW_PBE P 17Jan2003                   </c></rc>
    <rc><c>  12</c><c>Si</c><c>     28.08500000</c><c>      4.00000000</c><c> PAW_PBE Si 05Jan2001                   </c></rc>
   </set>
  </array>
 </atominfo>
 <structure name="initialpos" >
  <crystal>
   <varray name="basis" >
    <v>       3.54040000       0.00000000       0.00000000 </v>
    <v>      -1.77020000      10.29434800       0.00000000 </v>
    <v>       0.00000000       0.00000000      27.50142900 </v>
   </varray>
   <i name="volume">   1002.32009712 </i>
   <varray name="rec_basis" >
    <v>       0.28245396       0.04857034       0.00000000 </v>
    <v>       0.00000000       0.09714068       0.00000000 </v>
    <v>       0.00000000       0.00000000       0.03636175 </v>
   </varray>
  </crystal>
  <varray name="positions" >
   <v>       0.11402300       0.22804500       0.23316207 </v>
   <v>       0.51402300       0.92804500       0.51499159 </v>
   <v>       0.45808900       0.91617900       0.20939482 </v>
   <v>       0.85808900       0.61617900       0.49122434 </v>
   <v>       0.31085400       0.62170900       0.08414979 </v>
   <v>       0.31085400       0.62170900       0.36597930 </v>
   <v>       0.99923000       0.99846000       0.08631254 </v>
   <v>       0.99923000       0.99846000       0.36814206 </v>
   <v>       0.65492700       0.30985400       0.06041748 </v>
   <v>       0.65492700       0.30985400       0.34224700 </v>
   <v>       0.76973800       0.53947500       0.20725292 </v>
   <v>       0.16973800       0.23947500       0.48908244 </v>
   <v>       0.93971600       0.87943300       0.15783749 </v>
   <v>       0.33971600       0.57943300       0.43966701 </v>
   <v>       0.20515200       0.41030300       0.18578822 </v>
   <v>       0.60515200       0.11030300       0.46761774 </v>
   <v>       0.20184900       0.40369900       0.09969156 </v>
   <v>       0.20184900       0.40369900       0.38152107 </v>
   <v>       0.56380500       0.12761000       0.10779021 </v>
   <v>       0.56380500       0.12761000       0.38961973 </v>
   <v>       0.56710600       0.13421200       0.19387616 </v>
   <v>       0.96710600       0.83421200       0.47570568 </v>
   <v>       0.82923400       0.65846800       0.13571444 </v>
   <v>       0.22923400       0.35846800       0.41754396 </v>
  </varray>
 </structure>
 <calculation>
  <scstep>
   <time name="dav">   73.25   73.30</time>
   <time name="total">   89.89   89.96</time>
   <energy>
    <i name="alphaZ">     36.80884744 </i>
    <i name="ewald">  12053.68625696 </i>
    <i name="hartreedc"> -15040.84202685 </i>
    <i name="XCdc">    -87.38587599 </i>
    <i name="pawpsdc">   1056.43050070 </i>
    <i name="pawaedc">   -732.41190547 </i>
    <i name="eentropy">     -0.04720513 </i>
    <i name="bandstr">    -94.42493306 </i>
    <i name="atom">   3354.04126044 </i>
    <i name="e_fr_energy">    545.85491905 </i>
    <i name="e_wo_entrp">    545.90212418 </i>
    <i name="e_0_energy">    545.87852162 </i>
   </energy>
  </scstep>
  <scstep>
   <time name="dav">   82.04   82.08</time>
   <time name="total">   82.05   82.10</time>
   <energy>
    <i name="e_fr_energy">    -24.29846432 </i>
    <i name="e_wo_entrp">    -24.28424231 </i>
    <i name="e_0_energy">    -24.29135331 </i>
   </energy>
  </scstep>
  <scstep>
   <time name="dav">   81.61   81.69</time>
   <time name="total">   81.62   81.70</time>
   <energy>
    <i name="e_fr_energy">    -84.76592421 </i>
    <i name="e_wo_entrp">    -84.75337250 </i>
    <i name="e_0_energy">    -84.75964835 </i>
   </energy>
  </scstep>
  <scstep>
   <time name="dav">  100.18  100.24</time>
   <time name="total">  100.19  100.25</time>
   <energy>
    <i name="e_fr_energy">    -87.57512920 </i>
    <i name="e_wo_entrp">    -87.55971840 </i>
    <i name="e_0_energy">    -87.56742380 </i>
   </energy>
  </scstep>
  <scstep>
   <time name="dav">   92.52   92.63</time>
   <time name="total">   97.04   97.16</time>
   <energy>
    <i name="e_fr_energy">    -87.62930726 </i>
    <i name="e_wo_entrp">    -87.61377269 </i>
    <i name="e_0_energy">    -87.62153997 </i>
   </energy>
  </scstep>
  <scstep>
   <time name="dav">   78.83   78.91</time>
   <time name="total">   98.94   99.04</time>
   <energy>
    <i name="e_fr_energy">    -81.90816137 </i>
    <i name="e_wo_entrp">    -81.88024688 </i>
    <i name="e_0_energy">    -81.89420413 </i>
   </energy>
  </scstep>
  <scstep>
   <time name="dav">   89.79   90.01</time>
   <time name="total">  110.18  110.42</time>
   <energy>
    <i name="e_fr_energy">    -82.13456839 </i>
    <i name="e_wo_entrp">    -82.12290061 </i>
    <i name="e_0_energy">    -82.12873450 </i>
   </energy>
  </scstep>
  <scstep>
   <time name="dav">   93.20   93.40</time>
   <time name="total">  113.63  113.86</time>
   <energy>
    <i name="e_fr_energy">    -82.04321679 </i>
    <i name="e_wo_entrp">    -82.03207822 </i>
    <i name="e_0_energy">    -82.03764751 </i>
   </energy>
  </scstep>
  <scstep>
   <time name="dav">   95.82   95.90</time>
   <time name="total">  116.23  116.43</time>
   <energy>
    <i name="e_fr_energy">    -82.05128255 </i>
    <i name="e_wo_entrp">    -82.03996762 </i>
    <i name="e_0_energy">    -82.04562509 </i>
   </energy>
  </scstep>
  <scstep>
   <time name="dav">   92.45   92.55</time>
   <time name="total">  112.92  113.06</time>
   <energy>
    <i name="e_fr_energy">    -82.05596770 </i>
    <i name="e_wo_entrp">    -82.04335034 </i>
    <i name="e_0_energy">    -82.04965902 </i>
   </energy>
  </scstep>
  <scstep>
   <time name="dav">   95.35   95.53</time>
   <time name="total">  115.43  115.64</time>
   <energy>
    <i name="e_fr_energy">    -82.04648931 </i>
    <i name="e_wo_entrp">    -82.03435121 </i>
    <i name="e_0_energy">    -82.04042026 </i>
   </energy>
  </scstep>
  <scstep>
   <time name="dav">   74.73   74.84</time>
   <time name="total">   93.87   93.98</time>
   <energy>
    <i name="e_fr_energy">    -82.03587971 </i>
    <i name="e_wo_entrp">    -82.02355255 </i>
    <i name="e_0_energy">    -82.02971613 </i>
   </energy>
  </scstep>
  <scstep>
   <time name="dav">   80.12   80.18</time>
   <time name="total">   99.11   99.24</time>
   <energy>
    <i name="e_fr_energy">    -82.03090129 </i>
    <i name="e_wo_entrp">    -82.01863442 </i>
    <i name="e_0_energy">    -82.02476785 </i>
   </energy>
  </scstep>
  <scstep>
   <time name="dav">   85.90   85.95</time>
   <time name="total">  104.93  105.03</time>
   <energy>
    <i name="e_fr_energy">    -82.02849495 </i>
    <i name="e_wo_entrp">    -82.01620103 </i>
    <i name="e_0_energy">    -82.02234799 </i>
   </energy>
  </scstep>
  <scstep>
   <time name="dav">   83.01   83.27</time>
   <time name="total">  102.22  102.52</time>
   <energy>
    <i name="e_fr_energy">    -82.02688804 </i>
    <i name="e_wo_entrp">    -82.01457063 </i>
    <i name="e_0_energy">    -82.02072933 </i>
   </energy>
  </scstep>
  <scstep>
   <time name="dav">   74.11   74.27</time>
   <time name="total">   93.26   93.46</time>
   <energy>
    <i name="e_fr_energy">    -82.02685180 </i>
    <i name="e_wo_entrp">    -82.01456308 </i>
    <i name="e_0_energy">    -82.02070744 </i>
   </energy>
  </scstep>
  <scstep>
   <time name="dav">   91.90   92.01</time>
   <time name="total">  112.18  112.31</time>
   <energy>
    <i name="e_fr_energy">    -82.02751407 </i>
    <i name="e_wo_entrp">    -82.01520945 </i>
    <i name="e_0_energy">    -82.02136176 </i>
   </energy>
  </scstep>
  <scstep>
   <time name="dav">   96.23   96.46</time>
   <time name="total">  118.08  118.34</time>
   <energy>
    <i name="e_fr_energy">    -82.02769833 </i>
    <i name="e_wo_entrp">    -82.01539706 </i>
    <i name="e_0_energy">    -82.02154770 </i>
   </energy>
  </scstep>
  <scstep>
   <time name="dav">   90.31   90.44</time>
   <time name="total">  112.39  112.55</time>
   <energy>
    <i name="e_fr_energy">    -82.02781445 </i>
    <i name="e_wo_entrp">    -82.01551488 </i>
    <i name="e_0_energy">    -82.02166466 </i>
   </energy>
  </scstep>
  <scstep>
   <time name="dav">   87.23   87.39</time>
   <time name="total">  109.45  109.64</time>
   <energy>
    <i name="e_fr_energy">    -82.02783056 </i>
    <i name="e_wo_entrp">    -82.01552962 </i>
    <i name="e_0_energy">    -82.02168009 </i>
   </energy>
  </scstep>
  <scstep>
   <time name="dav">   88.77   88.91</time>
   <time name="total">  111.09  111.26</time>
   <energy>
    <i name="e_fr_energy">    -82.02782481 </i>
    <i name="e_wo_entrp">    -82.01552493 </i>
    <i name="e_0_energy">    -82.02167487 </i>
   </energy>
  </scstep>
  <scstep>
   <time name="dav">   85.15   85.32</time>
   <time name="total">  106.30  106.52</time>
   <energy>
    <i name="e_fr_energy">    -82.02778720 </i>
    <i name="e_wo_entrp">    -82.01548722 </i>
    <i name="e_0_energy">    -82.02163721 </i>
   </energy>
  </scstep>
  <scstep>
   <time name="dav">   83.42   83.69</time>
   <time name="total">  104.38  104.67</time>
   <energy>
    <i name="e_fr_energy">    -82.02772622 </i>
    <i name="e_wo_entrp">    -82.01542617 </i>
    <i name="e_0_energy">    -82.02157619 </i>
   </energy>
  </scstep>
  <scstep>
   <time name="dav">   63.74   63.79</time>
   <time name="total">   83.94   84.01</time>
   <energy>
    <i name="e_fr_energy">    -82.02771938 </i>
    <i name="e_wo_entrp">    -82.01541948 </i>
    <i name="e_0_energy">    -82.02156943 </i>
   </energy>
  </scstep>
  <scstep>
   <time name="dav">   60.97   61.08</time>
   <time name="total">   80.45   80.56</time>
   <energy>
    <i name="e_fr_energy">    -82.02770327 </i>
    <i name="e_wo_entrp">    -82.01540320 </i>
    <i name="e_0_energy">    -82.02155324 </i>
   </energy>
  </scstep>
  <scstep>
   <time name="dav">   66.06   66.14</time>
   <time name="total">   85.49   85.59</time>
   <energy>
    <i name="e_fr_energy">    -82.02770461 </i>
    <i name="e_wo_entrp">    -82.01540454 </i>
    <i name="e_0_energy">    -82.02155458 </i>
   </energy>
  </scstep>
  <scstep>
   <time name="dav">   59.47   59.49</time>
   <time name="total">   79.26   79.29</time>
   <energy>
    <i name="e_fr_energy">    -82.02770240 </i>
    <i name="e_wo_entrp">    -82.01540236 </i>
    <i name="e_0_energy">    -82.02155238 </i>
   </energy>
  </scstep>
  <scstep>
   <time name="dav">   57.14   57.18</time>
   <time name="total">   72.35   72.41</time>
   <energy>
    <i name="alphaZ">     36.80884744 </i>
    <i name="ewald">  12053.68625696 </i>
    <i name="hartreedc"> -15151.24980652 </i>
    <i name="XCdc">    -78.67485473 </i>
    <i name="pawpsdc">   1202.63793294 </i>
    <i name="pawaedc">   -883.14904527 </i>
    <i name="eentropy">     -0.01230006 </i>
    <i name="bandstr">   -616.11599268 </i>
    <i name="atom">   3354.04126044 </i>
    <i name="e_fr_energy">    -82.02770148 </i>
    <i name="e_wo_entrp">    -82.01540142 </i>
    <i name="e_0_energy">    -82.02155145 </i>
   </energy>
  </scstep>
  <structure>
   <crystal>
    <varray name="basis" >
     <v>       3.54040000       0.00000000       0.00000000 </v>
     <v>      -1.77020000      10.29434800       0.00000000 </v>
     <v>       0.00000000       0.00000000      27.50142900 </v>
    </varray>
    <i name="volume">   1002.32009712 </i>
    <varray name="rec_basis" >
     <v>       0.28245396       0.04857034       0.00000000 </v>
     <v>       0.00000000       0.09714068       0.00000000 </v>
     <v>       0.00000000       0.00000000       0.03636175 </v>
    </varray>
   </crystal>
   <varray name="positions" >
    <v>       0.11402300       0.22804500       0.23316207 </v>
    <v>       0.51402300       0.92804500       0.51499159 </v>
    <v>       0.45808900       0.91617900       0.20939482 </v>
    <v>       0.85808900       0.61617900       0.49122434 </v>
    <v>       0.31085400       0.62170900       0.08414979 </v>
    <v>       0.31085400       0.62170900       0.36597930 </v>
    <v>       0.99923000       0.99846000       0.08631254 </v>
    <v>       0.99923000       0.99846000       0.36814206 </v>
    <v>       0.65492700       0.30985400       0.06041748 </v>
    <v>       0.65492700       0.30985400       0.34224700 </v>
    <v>       0.76973800       0.53947500       0.20725292 </v>
    <v>       0.16973800       0.23947500       0.48908244 </v>
    <v>       0.93971600       0.87943300       0.15783749 </v>
    <v>       0.33971600       0.57943300       0.43966701 </v>
    <v>       0.20515200       0.41030300       0.18578822 </v>
    <v>       0.60515200       0.11030300       0.46761774 </v>
    <v>       0.20184900       0.40369900       0.09969156 </v>
    <v>       0.20184900       0.40369900       0.38152107 </v>
    <v>       0.56380500       0.12761000       0.10779021 </v>
    <v>       0.56380500       0.12761000       0.38961973 </v>
    <v>       0.56710600       0.13421200       0.19387616 </v>
    <v>       0.96710600       0.83421200       0.47570568 </v>
    <v>       0.82923400       0.65846800       0.13571444 </v>
    <v>       0.22923400       0.35846800       0.41754396 </v>
   </varray>
  </structure>
  <varray name="forces" >
   <v>      -0.06441527      -0.02169473       0.06630052 </v>
   <v>      -0.02713736       0.00781579      -0.33433574 </v>
   <v>      -0.00110886      -0.01628311       0.09125083 </v>
   <v>      -0.02094860       0.06868743       0.21148705 </v>
   <v>      -0.00059109      -0.01184997       0.01502308 </v>
   <v>      -0.12447378       0.78751400      -2.73027364 </v>
   <v>      -0.00043182       0.00313398      -0.01622397 </v>
   <v>       0.23695940      -0.42039026       0.31573841 </v>
   <v>       0.00069419       0.00258164       0.01415454 </v>
   <v>      -0.98970909      -0.83982192      -1.71002587 </v>
   <v>       0.00139867       0.00012631       0.10106916 </v>
   <v>       0.07621390      -0.00125791       0.66036854 </v>
   <v>       0.00196883       0.01769179       0.01207893 </v>
   <v>       0.04758576      -0.53513548       1.27504239 </v>
   <v>      -0.00587515       0.01285131       0.03023700 </v>
   <v>       0.12017123       0.84151505       2.66735498 </v>
   <v>       0.00076540      -0.00557184      -0.02779306 </v>
   <v>     -21.25660710      58.26668610    -118.99626544 </v>
   <v>      -0.00840556      -0.02247343      -0.02443668 </v>
   <v>      -0.04112369      -1.88203694      -3.11408573 </v>
   <v>       0.01550973      -0.05625326      -0.01408459 </v>
   <v>      -0.08764261       0.61359994      -0.65491692 </v>
   <v>       0.00148317       0.02538199      -0.00191798 </v>
   <v>      22.12571970     -56.83481648     122.16425416 </v>
  </varray>
  <varray name="stress" >
   <v>       9.32146731     -16.64168777      37.39966310 </v>
   <v>     -16.64168797      42.16065650     -84.25731827 </v>
   <v>      37.39966316     -84.25731793     206.16133362 </v>
  </varray>
  <energy>
   <i name="e_fr_energy">    -82.02770148 </i>
   <i name="e_wo_entrp">    -82.02155145 </i>
   <i name="e_0_energy">     -0.01230006 </i>
  </energy>
  <time name="totalsc"> 2905.64 2909.97</time>
  <eigenvalues>
   <array>
    <dimension dim="1">band</dimension>
    <dimension dim="2">kpoint</dimension>
    <dimension dim="3">spin</dimension>
    <field>eigene</field>
    <field>occ</field>
    <set>
     <set comment="spin 1">
      <set comment="kpoint 1">
       <r>  -14.0804    1.0000 </r>
       <r>  -13.5265    1.0000 </r>
       <r>  -13.0038    1.0000 </r>
       <r>  -12.8047    1.0000 </r>
       <r>  -12.7831    1.0000 </r>
       <r>  -12.4731    1.0000 </r>
       <r>  -12.0732    1.0000 </r>
       <r>  -11.6863    1.0000 </r>
       <r>  -11.4198    1.0000 </r>
       <r>  -11.2887    1.0000 </r>
       <r>  -10.9757    1.0000 </r>
       <r>  -10.8171    1.0000 </r>
       <r>   -8.6187    1.0000 </r>
       <r>   -8.0185    1.0000 </r>
       <r>   -7.8168    1.0000 </r>
       <r>   -7.2823    1.0000 </r>
       <r>   -7.0481    1.0000 </r>
       <r>   -6.7931    1.0000 </r>
       <r>   -6.4806    1.0000 </r>
       <r>   -6.2953    1.0000 </r>
       <r>   -5.8099    1.0000 </r>
       <r>   -5.6041    1.0000 </r>
       <r>   -5.1941    1.0000 </r>
       <r>   -4.9637    1.0000 </r>
       <r>   -4.7266    1.0000 </r>
       <r>   -4.2897    1.0000 </r>
       <r>   -3.7173    1.0000 </r>
       <r>   -3.6518    1.0000 </r>
       <r>   -3.6022    1.0000 </r>
       <r>   -3.1439    1.0000 </r>
       <r>   -3.0443    1.0000 </r>
       <r>   -2.9522    1.0000 </r>
       <r>   -2.8260    1.0000 </r>
       <r>   -2.8185    1.0000 </r>
       <r>   -2.4357    1.0000 </r>
       <r>   -2.3945    1.0000 </r>
       <r>   -2.3781    1.0000 </r>
       <r>   -2.2802    1.0000 </r>
       <r>   -2.0972    1.0000 </r>
       <r>   -2.0336    1.0000 </r>
       <r>   -1.9161    1.0000 </r>
       <r>   -1.8518    1.0000 </r>
       <r>   -1.7869    1.0000 </r>
       <r>   -1.7129    1.0000 </r>
       <r>   -1.6315    1.0000 </r>
       <r>   -1.5576    1.0000 </r>
       <r>   -1.4200    1.0000 </r>
       <r>   -1.4021    1.0000 </r>
       <r>   -1.2190    1.0000 </r>
       <r>   -1.0866    1.0000 </r>
       <r>   -0.8783    1.0000 </r>
       <r>   -0.4876    1.0000 </r>
       <r>   -0.1204    0.9998 </r>
       <r>    0.2836    0.0157 </r>
       <r>    0.4755    0.0000 </r>
       <r>    0.9503    0.0000 </r>
       <r>    1.1377    0.0000 </r>
       <r>    1.2383    0.0000 </r>
       <r>    1.3373    0.0000 </r>
       <r>    1.4154    0.0000 </r>
       <r>    1.5491    0.0000 </r>
       <r>    1.7815    0.0000 </r>
       <r>    2.0028    0.0000 </r>
       <r>    2.0092    0.0000 </r>
       <r>    2.1937    0.0000 </r>
       <r>    2.3424    0.0000 </r>
       <r>    2.4501    0.0000 </r>
       <r>    2.6744    0.0000 </r>
      </set>
      <set comment="kpoint 2">
       <r>  -14.0253    1.0000 </r>
       <r>  -13.4652    1.0000 </r>
       <r>  -12.9550    1.0000 </r>
       <r>  -12.7432    1.0000 </r>
       <r>  -12.7303    1.0000 </r>
       <r>  -12.4175    1.0000 </r>
       <r>  -12.0110    1.0000 </r>
       <r>  -11.6419    1.0000 </r>
       <r>  -11.3708    1.0000 </r>
       <r>  -11.2404    1.0000 </r>
       <r>  -10.9274    1.0000 </r>
       <r>  -10.7806    1.0000 </r>
       <r>   -8.5966    1.0000 </r>
       <r>   -8.0554    1.0000 </r>
       <r>   -7.7797    1.0000 </r>
       <r>   -7.2896    1.0000 </r>
       <r>   -7.0210    1.0000 </r>
       <r>   -6.7614    1.0000 </r>
       <r>   -6.4749    1.0000 </r>
       <r>   -6.3002    1.0000 </r>
       <r>   -5.7774    1.0000 </r>
       <r>   -5.6852    1.0000 </r>
       <r>   -5.3526    1.0000 </r>
       <r>   -4.9765    1.0000 </r>
       <r>   -4.7282    1.0000 </r>
       <r>   -4.2593    1.0000 </r>
       <r>   -3.7522    1.0000 </r>
       <r>   -3.7091    1.0000 </r>
       <r>   -3.6272    1.0000 </r>
       <r>   -3.4352    1.0000 </r>
       <r>   -3.2710    1.0000 </r>
       <r>   -3.2527    1.0000 </r>
       <r>   -3.1730    1.0000 </r>
       <r>   -2.8955    1.0000 </r>
       <r>   -2.7429    1.0000 </r>
       <r>   -2.7051    1.0000 </r>
       <r>   -2.4644    1.0000 </r>
       <r>   -2.3747    1.0000 </r>
       <r>   -2.2300    1.0000 </r>
       <r>   -2.1958    1.0000 </r>
       <r>   -2.0737    1.0000 </r>
       <r>   -2.0198    1.0000 </r>
       <r>   -1.9477    1.0000 </r>
       <r>   -1.8297    1.0000 </r>
       <r>   -1.7999    1.0000 </r>
       <r>   -1.7023    1.0000 </r>
       <r>   -1.6455    1.0000 </r>
       <r>   -1.4875    1.0000 </r>
       <r>   -1.1797    1.0000 </r>
       <r>   -1.0792    1.0000 </r>
       <r>   -0.8831    1.0000 </r>
       <r>   -0.3936    1.0000 </r>
       <r>   -0.1761    1.0000 </r>
       <r>    0.3058    0.0068 </r>
       <r>    0.5156    0.0000 </r>
       <r>    0.8141    0.0000 </r>
       <r>    1.3425    0.0000 </r>
       <r>    1.5267    0.0000 </r>
       <r>    1.7158    0.0000 </r>
       <r>    1.7827    0.0000 </r>
       <r>    1.8270    0.0000 </r>
       <r>    2.1503    0.0000 </r>
       <r>    2.2188    0.0000 </r>
       <r>    2.3170    0.0000 </r>
       <r>    2.3468    0.0000 </r>
       <r>    2.5059    0.0000 </r>
       <r>    2.6338    0.0000 </r>
       <r>    2.7837    0.0000 </r>
      </set>
      <set comment="kpoint 3">
       <r>  -13.8621    1.0000 </r>
       <r>  -13.2823    1.0000 </r>
       <r>  -12.8074    1.0000 </r>
       <r>  -12.5770    1.0000 </r>
       <r>  -12.5603    1.0000 </r>
       <r>  -12.2527    1.0000 </r>
       <r>  -11.8286    1.0000 </r>
       <r>  -11.5148    1.0000 </r>
       <r>  -11.2286    1.0000 </r>
       <r>  -11.1049    1.0000 </r>
       <r>  -10.7886    1.0000 </r>
       <r>  -10.6704    1.0000 </r>
       <r>   -8.5465    1.0000 </r>
       <r>   -8.1519    1.0000 </r>
       <r>   -7.7377    1.0000 </r>
       <r>   -7.3719    1.0000 </r>
       <r>   -6.9547    1.0000 </r>
       <r>   -6.6884    1.0000 </r>
       <r>   -6.4888    1.0000 </r>
       <r>   -6.4095    1.0000 </r>
       <r>   -6.0260    1.0000 </r>
       <r>   -5.7030    1.0000 </r>
       <r>   -5.5463    1.0000 </r>
       <r>   -5.0030    1.0000 </r>
       <r>   -4.8445    1.0000 </r>
       <r>   -4.2696    1.0000 </r>
       <r>   -4.1853    1.0000 </r>
       <r>   -4.0908    1.0000 </r>
       <r>   -4.0654    1.0000 </r>
       <r>   -3.9462    1.0000 </r>
       <r>   -3.7380    1.0000 </r>
       <r>   -3.6515    1.0000 </r>
       <r>   -3.4220    1.0000 </r>
       <r>   -3.2627    1.0000 </r>
       <r>   -3.1445    1.0000 </r>
       <r>   -3.0737    1.0000 </r>
       <r>   -2.9969    1.0000 </r>
       <r>   -2.9484    1.0000 </r>
       <r>   -2.7693    1.0000 </r>
       <r>   -2.6304    1.0000 </r>
       <r>   -2.3676    1.0000 </r>
       <r>   -2.1547    1.0000 </r>
       <r>   -2.1376    1.0000 </r>
       <r>   -1.9682    1.0000 </r>
       <r>   -1.8910    1.0000 </r>
       <r>   -1.7233    1.0000 </r>
       <r>   -1.6771    1.0000 </r>
       <r>   -1.5741    1.0000 </r>
       <r>   -1.2761    1.0000 </r>
       <r>   -1.1759    1.0000 </r>
       <r>   -0.9255    1.0000 </r>
       <r>   -0.4226    1.0000 </r>
       <r>   -0.3076    1.0000 </r>
       <r>    0.0507    0.8732 </r>
       <r>    0.4573    0.0000 </r>
       <r>    0.8495    0.0000 </r>
       <r>    1.4486    0.0000 </r>
       <r>    1.6281    0.0000 </r>
       <r>    2.0046    0.0000 </r>
       <r>    2.2864    0.0000 </r>
       <r>    2.4525    0.0000 </r>
       <r>    2.6193    0.0000 </r>
       <r>    2.6695    0.0000 </r>
       <r>    2.6924    0.0000 </r>
       <r>    2.7722    0.0000 </r>
       <r>    2.9610    0.0000 </r>
       <r>    3.0421    0.0000 </r>
       <r>    3.0759    0.0000 </r>
      </set>
      <set comment="kpoint 4">
       <r>  -13.5975    1.0000 </r>
       <r>  -12.9814    1.0000 </r>
       <r>  -12.5616    1.0000 </r>
       <r>  -12.3201    1.0000 </r>
       <r>  -12.2792    1.0000 </r>
       <r>  -11.9860    1.0000 </r>
       <r>  -11.5412    1.0000 </r>
       <r>  -11.3293    1.0000 </r>
       <r>  -11.0113    1.0000 </r>
       <r>  -10.9173    1.0000 </r>
       <r>  -10.5853    1.0000 </r>
       <r>  -10.4792    1.0000 </r>
       <r>   -8.5422    1.0000 </r>
       <r>   -8.3439    1.0000 </r>
       <r>   -7.8118    1.0000 </r>
       <r>   -7.6366    1.0000 </r>
       <r>   -7.0601    1.0000 </r>
       <r>   -6.7049    1.0000 </r>
       <r>   -6.6481    1.0000 </r>
       <r>   -6.6113    1.0000 </r>
       <r>   -6.2907    1.0000 </r>
       <r>   -5.7934    1.0000 </r>
       <r>   -5.7157    1.0000 </r>
       <r>   -5.3234    1.0000 </r>
       <r>   -5.2059    1.0000 </r>
       <r>   -4.7941    1.0000 </r>
       <r>   -4.6213    1.0000 </r>
       <r>   -4.5895    1.0000 </r>
       <r>   -4.4918    1.0000 </r>
       <r>   -4.1936    1.0000 </r>
       <r>   -4.1205    1.0000 </r>
       <r>   -4.0440    1.0000 </r>
       <r>   -3.8021    1.0000 </r>
       <r>   -3.7037    1.0000 </r>
       <r>   -3.5708    1.0000 </r>
       <r>   -3.4526    1.0000 </r>
       <r>   -3.3225    1.0000 </r>
       <r>   -2.9895    1.0000 </r>
       <r>   -2.9572    1.0000 </r>
       <r>   -2.8449    1.0000 </r>
       <r>   -2.5693    1.0000 </r>
       <r>   -2.4227    1.0000 </r>
       <r>   -2.1996    1.0000 </r>
       <r>   -1.9327    1.0000 </r>
       <r>   -1.8893    1.0000 </r>
       <r>   -1.8046    1.0000 </r>
       <r>   -1.7300    1.0000 </r>
       <r>   -1.5234    1.0000 </r>
       <r>   -1.4485    1.0000 </r>
       <r>   -1.3837    1.0000 </r>
       <r>   -1.1065    1.0000 </r>
       <r>   -0.6896    1.0000 </r>
       <r>   -0.5676    1.0000 </r>
       <r>   -0.4357    1.0000 </r>
       <r>    0.5194    0.0000 </r>
       <r>    0.7817    0.0000 </r>
       <r>    1.2474    0.0000 </r>
       <r>    1.6645    0.0000 </r>
       <r>    1.8879    0.0000 </r>
       <r>    2.0619    0.0000 </r>
       <r>    2.2976    0.0000 </r>
       <r>    2.4177    0.0000 </r>
       <r>    2.6628    0.0000 </r>
       <r>    2.7497    0.0000 </r>
       <r>    2.7900    0.0000 </r>
       <r>    2.9076    0.0000 </r>
       <r>    2.9598    0.0000 </r>
       <r>    3.0744    0.0000 </r>
      </set>
      <set comment="kpoint 5">
       <r>  -13.2470    1.0000 </r>
       <r>  -12.5698    1.0000 </r>
       <r>  -12.2283    1.0000 </r>
       <r>  -11.9719    1.0000 </r>
       <r>  -11.9305    1.0000 </r>
       <r>  -11.6345    1.0000 </r>
       <r>  -11.1894    1.0000 </r>
       <r>  -11.1414    1.0000 </r>
       <r>  -10.7666    1.0000 </r>
       <r>  -10.7394    1.0000 </r>
       <r>  -10.3995    1.0000 </r>
       <r>  -10.1916    1.0000 </r>
       <r>   -8.7583    1.0000 </r>
       <r>   -8.6388    1.0000 </r>
       <r>   -8.0716    1.0000 </r>
       <r>   -7.9522    1.0000 </r>
       <r>   -7.5377    1.0000 </r>
       <r>   -6.9841    1.0000 </r>
       <r>   -6.9153    1.0000 </r>
       <r>   -6.8651    1.0000 </r>
       <r>   -6.5816    1.0000 </r>
       <r>   -6.1473    1.0000 </r>
       <r>   -6.0060    1.0000 </r>
       <r>   -5.9526    1.0000 </r>
       <r>   -5.6215    1.0000 </r>
       <r>   -5.1911    1.0000 </r>
       <r>   -4.7893    1.0000 </r>
       <r>   -4.6917    1.0000 </r>
       <r>   -4.6824    1.0000 </r>
       <r>   -4.4718    1.0000 </r>
       <r>   -4.2980    1.0000 </r>
       <r>   -4.2046    1.0000 </r>
       <r>   -4.1118    1.0000 </r>
       <r>   -3.9151    1.0000 </r>
       <r>   -3.6963    1.0000 </r>
       <r>   -3.3948    1.0000 </r>
       <r>   -3.3385    1.0000 </r>
       <r>   -3.0683    1.0000 </r>
       <r>   -2.9531    1.0000 </r>
       <r>   -2.8873    1.0000 </r>
       <r>   -2.7330    1.0000 </r>
       <r>   -2.5647    1.0000 </r>
       <r>   -2.3142    1.0000 </r>
       <r>   -2.0551    1.0000 </r>
       <r>   -1.9837    1.0000 </r>
       <r>   -1.8915    1.0000 </r>
       <r>   -1.8333    1.0000 </r>
       <r>   -1.6971    1.0000 </r>
       <r>   -1.6823    1.0000 </r>
       <r>   -1.4137    1.0000 </r>
       <r>   -1.3494    1.0000 </r>
       <r>   -1.0894    1.0000 </r>
       <r>   -0.8518    1.0000 </r>
       <r>   -0.6419    1.0000 </r>
       <r>    0.4018    0.0001 </r>
       <r>    0.6195    0.0000 </r>
       <r>    1.0335    0.0000 </r>
       <r>    1.5483    0.0000 </r>
       <r>    1.6576    0.0000 </r>
       <r>    1.8181    0.0000 </r>
       <r>    2.0194    0.0000 </r>
       <r>    2.2247    0.0000 </r>
       <r>    2.3615    0.0000 </r>
       <r>    2.4853    0.0000 </r>
       <r>    2.6415    0.0000 </r>
       <r>    2.7195    0.0000 </r>
       <r>    2.8226    0.0000 </r>
       <r>    2.8816    0.0000 </r>
      </set>
      <set comment="kpoint 6">
       <r>  -12.8466    1.0000 </r>
       <r>  -12.0621    1.0000 </r>
       <r>  -11.8521    1.0000 </r>
       <r>  -11.5989    1.0000 </r>
       <r>  -11.5514    1.0000 </r>
       <r>  -11.2378    1.0000 </r>
       <r>  -11.0514    1.0000 </r>
       <r>  -10.8369    1.0000 </r>
       <r>  -10.6438    1.0000 </r>
       <r>  -10.6113    1.0000 </r>
       <r>  -10.4398    1.0000 </r>
       <r>   -9.8331    1.0000 </r>
       <r>   -9.1080    1.0000 </r>
       <r>   -8.8150    1.0000 </r>
       <r>   -8.3639    1.0000 </r>
       <r>   -8.3155    1.0000 </r>
       <r>   -7.9351    1.0000 </r>
       <r>   -7.4436    1.0000 </r>
       <r>   -7.4049    1.0000 </r>
       <r>   -7.3200    1.0000 </r>
       <r>   -6.8456    1.0000 </r>
       <r>   -6.7414    1.0000 </r>
       <r>   -6.6501    1.0000 </r>
       <r>   -6.3794    1.0000 </r>
       <r>   -5.7130    1.0000 </r>
       <r>   -5.1900    1.0000 </r>
       <r>   -4.8358    1.0000 </r>
       <r>   -4.6253    1.0000 </r>
       <r>   -4.5127    1.0000 </r>
       <r>   -4.4273    1.0000 </r>
       <r>   -4.2228    1.0000 </r>
       <r>   -4.0783    1.0000 </r>
       <r>   -4.0462    1.0000 </r>
       <r>   -3.8889    1.0000 </r>
       <r>   -3.6503    1.0000 </r>
       <r>   -3.6373    1.0000 </r>
       <r>   -3.3758    1.0000 </r>
       <r>   -3.2520    1.0000 </r>
       <r>   -3.1446    1.0000 </r>
       <r>   -2.8376    1.0000 </r>
       <r>   -2.7888    1.0000 </r>
       <r>   -2.5443    1.0000 </r>
       <r>   -2.4910    1.0000 </r>
       <r>   -2.3007    1.0000 </r>
       <r>   -2.2312    1.0000 </r>
       <r>   -2.1186    1.0000 </r>
       <r>   -2.0077    1.0000 </r>
       <r>   -1.9022    1.0000 </r>
       <r>   -1.7951    1.0000 </r>
       <r>   -1.4671    1.0000 </r>
       <r>   -1.4380    1.0000 </r>
       <r>   -1.2721    1.0000 </r>
       <r>   -0.9988    1.0000 </r>
       <r>   -0.7059    1.0000 </r>
       <r>    0.1347    0.4821 </r>
       <r>    0.4441    0.0000 </r>
       <r>    0.9236    0.0000 </r>
       <r>    1.4024    0.0000 </r>
       <r>    1.5413    0.0000 </r>
       <r>    1.7266    0.0000 </r>
       <r>    1.7529    0.0000 </r>
       <r>    2.0827    0.0000 </r>
       <r>    2.2274    0.0000 </r>
       <r>    2.2877    0.0000 </r>
       <r>    2.3506    0.0000 </r>
       <r>    2.5267    0.0000 </r>
       <r>    2.5978    0.0000 </r>
       <r>    2.7746    0.0000 </r>
      </set>
      <set comment="kpoint 7">
       <r>  -12.5026    1.0000 </r>
       <r>  -11.6823    1.0000 </r>
       <r>  -11.4872    1.0000 </r>
       <r>  -11.2927    1.0000 </r>
       <r>  -11.1288    1.0000 </r>
       <r>  -11.0247    1.0000 </r>
       <r>  -10.9398    1.0000 </r>
       <r>  -10.8285    1.0000 </r>
       <r>  -10.7123    1.0000 </r>
       <r>  -10.7021    1.0000 </r>
       <r>  -10.6213    1.0000 </r>
       <r>   -9.5525    1.0000 </r>
       <r>   -9.1844    1.0000 </r>
       <r>   -8.8041    1.0000 </r>
       <r>   -8.6718    1.0000 </r>
       <r>   -8.4259    1.0000 </r>
       <r>   -8.0634    1.0000 </r>
       <r>   -7.9970    1.0000 </r>
       <r>   -7.7439    1.0000 </r>
       <r>   -7.5609    1.0000 </r>
       <r>   -7.2753    1.0000 </r>
       <r>   -7.1621    1.0000 </r>
       <r>   -7.0570    1.0000 </r>
       <r>   -6.5969    1.0000 </r>
       <r>   -5.6947    1.0000 </r>
       <r>   -4.9015    1.0000 </r>
       <r>   -4.8522    1.0000 </r>
       <r>   -4.4877    1.0000 </r>
       <r>   -4.2957    1.0000 </r>
       <r>   -4.2418    1.0000 </r>
       <r>   -4.1101    1.0000 </r>
       <r>   -4.0318    1.0000 </r>
       <r>   -3.9343    1.0000 </r>
       <r>   -3.8129    1.0000 </r>
       <r>   -3.6985    1.0000 </r>
       <r>   -3.5704    1.0000 </r>
       <r>   -3.5348    1.0000 </r>
       <r>   -3.3771    1.0000 </r>
       <r>   -3.2412    1.0000 </r>
       <r>   -3.0413    1.0000 </r>
       <r>   -3.0052    1.0000 </r>
       <r>   -2.7474    1.0000 </r>
       <r>   -2.6757    1.0000 </r>
       <r>   -2.4314    1.0000 </r>
       <r>   -2.3501    1.0000 </r>
       <r>   -2.1963    1.0000 </r>
       <r>   -2.0964    1.0000 </r>
       <r>   -1.9213    1.0000 </r>
       <r>   -1.7041    1.0000 </r>
       <r>   -1.5784    1.0000 </r>
       <r>   -1.5053    1.0000 </r>
       <r>   -1.2951    1.0000 </r>
       <r>   -1.0717    1.0000 </r>
       <r>   -0.6681    1.0000 </r>
       <r>   -0.1151    0.9998 </r>
       <r>    0.3617    0.0006 </r>
       <r>    0.8335    0.0000 </r>
       <r>    1.3786    0.0000 </r>
       <r>    1.5491    0.0000 </r>
       <r>    1.6361    0.0000 </r>
       <r>    1.6865    0.0000 </r>
       <r>    1.8881    0.0000 </r>
       <r>    2.0763    0.0000 </r>
       <r>    2.1235    0.0000 </r>
       <r>    2.3422    0.0000 </r>
       <r>    2.4439    0.0000 </r>
       <r>    2.4805    0.0000 </r>
       <r>    2.5463    0.0000 </r>
      </set>
      <set comment="kpoint 8">
       <r>  -14.0653    1.0000 </r>
       <r>  -13.4715    1.0000 </r>
       <r>  -13.1648    1.0000 </r>
       <r>  -12.9577    1.0000 </r>
       <r>  -12.5949    1.0000 </r>
       <r>  -12.4676    1.0000 </r>
       <r>  -11.8642    1.0000 </r>
       <r>  -11.8137    1.0000 </r>
       <r>  -11.4647    1.0000 </r>
       <r>  -11.2348    1.0000 </r>
       <r>  -10.9849    1.0000 </r>
       <r>  -10.7693    1.0000 </r>
       <r>   -8.7511    1.0000 </r>
       <r>   -8.4995    1.0000 </r>
       <r>   -7.3937    1.0000 </r>
       <r>   -7.1542    1.0000 </r>
       <r>   -6.9849    1.0000 </r>
       <r>   -6.6578    1.0000 </r>
       <r>   -6.5857    1.0000 </r>
       <r>   -6.3250    1.0000 </r>
       <r>   -5.7659    1.0000 </r>
       <r>   -5.6934    1.0000 </r>
       <r>   -5.1830    1.0000 </r>
       <r>   -4.7683    1.0000 </r>
       <r>   -4.6114    1.0000 </r>
       <r>   -4.1727    1.0000 </r>
       <r>   -3.9988    1.0000 </r>
       <r>   -3.8388    1.0000 </r>
       <r>   -3.5340    1.0000 </r>
       <r>   -3.2792    1.0000 </r>
       <r>   -3.1147    1.0000 </r>
       <r>   -2.9714    1.0000 </r>
       <r>   -2.9300    1.0000 </r>
       <r>   -2.6926    1.0000 </r>
       <r>   -2.4328    1.0000 </r>
       <r>   -2.3869    1.0000 </r>
       <r>   -2.3805    1.0000 </r>
       <r>   -2.3084    1.0000 </r>
       <r>   -2.1293    1.0000 </r>
       <r>   -2.0418    1.0000 </r>
       <r>   -1.9324    1.0000 </r>
       <r>   -1.8689    1.0000 </r>
       <r>   -1.8493    1.0000 </r>
       <r>   -1.7312    1.0000 </r>
       <r>   -1.6162    1.0000 </r>
       <r>   -1.4479    1.0000 </r>
       <r>   -1.4047    1.0000 </r>
       <r>   -1.3468    1.0000 </r>
       <r>   -1.1790    1.0000 </r>
       <r>   -1.0879    1.0000 </r>
       <r>   -0.9675    1.0000 </r>
       <r>   -0.5325    1.0000 </r>
       <r>   -0.1246    0.9999 </r>
       <r>    0.3294    0.0026 </r>
       <r>    0.5212    0.0000 </r>
       <r>    0.9623    0.0000 </r>
       <r>    1.1538    0.0000 </r>
       <r>    1.2624    0.0000 </r>
       <r>    1.3711    0.0000 </r>
       <r>    1.3956    0.0000 </r>
       <r>    1.5836    0.0000 </r>
       <r>    1.7882    0.0000 </r>
       <r>    1.9014    0.0000 </r>
       <r>    2.1006    0.0000 </r>
       <r>    2.2793    0.0000 </r>
       <r>    2.5075    0.0000 </r>
       <r>    2.6204    0.0000 </r>
       <r>    2.6876    0.0000 </r>
      </set>
      <set comment="kpoint 9">
       <r>  -14.0072    1.0000 </r>
       <r>  -13.3948    1.0000 </r>
       <r>  -13.1322    1.0000 </r>
       <r>  -12.9385    1.0000 </r>
       <r>  -12.5046    1.0000 </r>
       <r>  -12.4076    1.0000 </r>
       <r>  -11.8086    1.0000 </r>
       <r>  -11.7529    1.0000 </r>
       <r>  -11.4235    1.0000 </r>
       <r>  -11.1770    1.0000 </r>
       <r>  -10.9407    1.0000 </r>
       <r>  -10.7248    1.0000 </r>
       <r>   -8.7510    1.0000 </r>
       <r>   -8.5577    1.0000 </r>
       <r>   -7.3487    1.0000 </r>
       <r>   -7.1344    1.0000 </r>
       <r>   -6.9580    1.0000 </r>
       <r>   -6.6659    1.0000 </r>
       <r>   -6.5156    1.0000 </r>
       <r>   -6.3299    1.0000 </r>
       <r>   -5.8161    1.0000 </r>
       <r>   -5.6744    1.0000 </r>
       <r>   -5.3642    1.0000 </r>
       <r>   -4.7626    1.0000 </r>
       <r>   -4.6471    1.0000 </r>
       <r>   -4.1676    1.0000 </r>
       <r>   -4.0156    1.0000 </r>
       <r>   -3.8975    1.0000 </r>
       <r>   -3.6241    1.0000 </r>
       <r>   -3.4335    1.0000 </r>
       <r>   -3.3572    1.0000 </r>
       <r>   -3.2843    1.0000 </r>
       <r>   -3.0560    1.0000 </r>
       <r>   -2.9973    1.0000 </r>
       <r>   -2.7563    1.0000 </r>
       <r>   -2.6846    1.0000 </r>
       <r>   -2.4932    1.0000 </r>
       <r>   -2.3970    1.0000 </r>
       <r>   -2.2808    1.0000 </r>
       <r>   -2.2379    1.0000 </r>
       <r>   -2.1185    1.0000 </r>
       <r>   -1.9937    1.0000 </r>
       <r>   -1.9835    1.0000 </r>
       <r>   -1.8296    1.0000 </r>
       <r>   -1.7921    1.0000 </r>
       <r>   -1.7168    1.0000 </r>
       <r>   -1.5763    1.0000 </r>
       <r>   -1.3539    1.0000 </r>
       <r>   -1.1701    1.0000 </r>
       <r>   -1.0636    1.0000 </r>
       <r>   -0.9401    1.0000 </r>
       <r>   -0.4459    1.0000 </r>
       <r>   -0.2358    1.0000 </r>
       <r>    0.3954    0.0001 </r>
       <r>    0.5306    0.0000 </r>
       <r>    0.8415    0.0000 </r>
       <r>    1.3403    0.0000 </r>
       <r>    1.5432    0.0000 </r>
       <r>    1.7092    0.0000 </r>
       <r>    1.7971    0.0000 </r>
       <r>    1.8548    0.0000 </r>
       <r>    1.9850    0.0000 </r>
       <r>    2.2511    0.0000 </r>
       <r>    2.4513    0.0000 </r>
       <r>    2.5443    0.0000 </r>
       <r>    2.6642    0.0000 </r>
       <r>    2.6939    0.0000 </r>
       <r>    2.9862    0.0000 </r>
      </set>
      <set comment="kpoint 10">
       <r>  -13.8425    1.0000 </r>
       <r>  -13.1985    1.0000 </r>
       <r>  -12.9842    1.0000 </r>
       <r>  -12.8018    1.0000 </r>
       <r>  -12.3156    1.0000 </r>
       <r>  -12.2373    1.0000 </r>
       <r>  -11.6952    1.0000 </r>
       <r>  -11.5575    1.0000 </r>
       <r>  -11.2841    1.0000 </r>
       <r>  -11.0378    1.0000 </r>
       <r>  -10.7994    1.0000 </r>
       <r>  -10.6154    1.0000 </r>
       <r>   -8.7039    1.0000 </r>
       <r>   -8.6223    1.0000 </r>
       <r>   -7.3211    1.0000 </r>
       <r>   -7.1867    1.0000 </r>
       <r>   -6.9335    1.0000 </r>
       <r>   -6.6442    1.0000 </r>
       <r>   -6.4942    1.0000 </r>
       <r>   -6.4596    1.0000 </r>
       <r>   -5.9901    1.0000 </r>
       <r>   -5.6794    1.0000 </r>
       <r>   -5.6183    1.0000 </r>
       <r>   -4.8749    1.0000 </r>
       <r>   -4.7967    1.0000 </r>
       <r>   -4.3678    1.0000 </r>
       <r>   -4.2952    1.0000 </r>
       <r>   -4.1366    1.0000 </r>
       <r>   -4.0262    1.0000 </r>
       <r>   -3.9334    1.0000 </r>
       <r>   -3.7904    1.0000 </r>
       <r>   -3.6089    1.0000 </r>
       <r>   -3.4977    1.0000 </r>
       <r>   -3.2798    1.0000 </r>
       <r>   -3.1119    1.0000 </r>
       <r>   -3.0190    1.0000 </r>
       <r>   -2.9490    1.0000 </r>
       <r>   -2.8344    1.0000 </r>
       <r>   -2.7164    1.0000 </r>
       <r>   -2.6987    1.0000 </r>
       <r>   -2.5805    1.0000 </r>
       <r>   -2.3031    1.0000 </r>
       <r>   -2.1238    1.0000 </r>
       <r>   -1.9423    1.0000 </r>
       <r>   -1.9177    1.0000 </r>
       <r>   -1.8321    1.0000 </r>
       <r>   -1.5467    1.0000 </r>
       <r>   -1.4669    1.0000 </r>
       <r>   -1.2464    1.0000 </r>
       <r>   -1.1193    1.0000 </r>
       <r>   -0.9700    1.0000 </r>
       <r>   -0.4893    1.0000 </r>
       <r>   -0.3786    1.0000 </r>
       <r>    0.0418    0.8977 </r>
       <r>    0.5933    0.0000 </r>
       <r>    0.8184    0.0000 </r>
       <r>    1.4808    0.0000 </r>
       <r>    1.5584    0.0000 </r>
       <r>    1.7521    0.0000 </r>
       <r>    2.1423    0.0000 </r>
       <r>    2.3857    0.0000 </r>
       <r>    2.5736    0.0000 </r>
       <r>    2.7454    0.0000 </r>
       <r>    2.8075    0.0000 </r>
       <r>    2.9006    0.0000 </r>
       <r>    2.9410    0.0000 </r>
       <r>    3.0890    0.0000 </r>
       <r>    3.1303    0.0000 </r>
      </set>
      <set comment="kpoint 11">
       <r>  -13.5785    1.0000 </r>
       <r>  -12.8875    1.0000 </r>
       <r>  -12.7256    1.0000 </r>
       <r>  -12.5502    1.0000 </r>
       <r>  -12.0413    1.0000 </r>
       <r>  -11.9673    1.0000 </r>
       <r>  -11.5045    1.0000 </r>
       <r>  -11.2811    1.0000 </r>
       <r>  -11.0625    1.0000 </r>
       <r>  -10.8583    1.0000 </r>
       <r>  -10.5820    1.0000 </r>
       <r>  -10.4364    1.0000 </r>
       <r>   -8.7570    1.0000 </r>
       <r>   -8.6612    1.0000 </r>
       <r>   -7.4739    1.0000 </r>
       <r>   -7.3823    1.0000 </r>
       <r>   -7.2139    1.0000 </r>
       <r>   -6.6846    1.0000 </r>
       <r>   -6.6302    1.0000 </r>
       <r>   -6.5919    1.0000 </r>
       <r>   -6.1752    1.0000 </r>
       <r>   -5.9615    1.0000 </r>
       <r>   -5.7968    1.0000 </r>
       <r>   -5.2313    1.0000 </r>
       <r>   -5.1897    1.0000 </r>
       <r>   -5.0068    1.0000 </r>
       <r>   -4.6521    1.0000 </r>
       <r>   -4.5433    1.0000 </r>
       <r>   -4.4903    1.0000 </r>
       <r>   -4.1469    1.0000 </r>
       <r>   -4.0570    1.0000 </r>
       <r>   -3.9842    1.0000 </r>
       <r>   -3.7611    1.0000 </r>
       <r>   -3.6801    1.0000 </r>
       <r>   -3.5324    1.0000 </r>
       <r>   -3.3129    1.0000 </r>
       <r>   -3.1965    1.0000 </r>
       <r>   -3.0760    1.0000 </r>
       <r>   -3.0435    1.0000 </r>
       <r>   -2.8693    1.0000 </r>
       <r>   -2.5998    1.0000 </r>
       <r>   -2.5119    1.0000 </r>
       <r>   -2.1521    1.0000 </r>
       <r>   -1.9813    1.0000 </r>
       <r>   -1.8955    1.0000 </r>
       <r>   -1.8620    1.0000 </r>
       <r>   -1.7423    1.0000 </r>
       <r>   -1.5070    1.0000 </r>
       <r>   -1.3852    1.0000 </r>
       <r>   -1.3337    1.0000 </r>
       <r>   -1.1198    1.0000 </r>
       <r>   -0.7498    1.0000 </r>
       <r>   -0.6017    1.0000 </r>
       <r>   -0.4525    1.0000 </r>
       <r>    0.5876    0.0000 </r>
       <r>    0.7218    0.0000 </r>
       <r>    1.1763    0.0000 </r>
       <r>    1.4899    0.0000 </r>
       <r>    1.6118    0.0000 </r>
       <r>    1.6525    0.0000 </r>
       <r>    2.2116    0.0000 </r>
       <r>    2.3910    0.0000 </r>
       <r>    2.5724    0.0000 </r>
       <r>    2.7157    0.0000 </r>
       <r>    2.8743    0.0000 </r>
       <r>    2.9759    0.0000 </r>
       <r>    3.0759    0.0000 </r>
       <r>    3.2772    0.0000 </r>
      </set>
      <set comment="kpoint 12">
       <r>  -13.2309    1.0000 </r>
       <r>  -12.4716    1.0000 </r>
       <r>  -12.3693    1.0000 </r>
       <r>  -12.1908    1.0000 </r>
       <r>  -11.7198    1.0000 </r>
       <r>  -11.6212    1.0000 </r>
       <r>  -11.2694    1.0000 </r>
       <r>  -10.9673    1.0000 </r>
       <r>  -10.7991    1.0000 </r>
       <r>  -10.7233    1.0000 </r>
       <r>  -10.3764    1.0000 </r>
       <r>  -10.1673    1.0000 </r>
       <r>   -8.9555    1.0000 </r>
       <r>   -8.7811    1.0000 </r>
       <r>   -7.8842    1.0000 </r>
       <r>   -7.7031    1.0000 </r>
       <r>   -7.6515    1.0000 </r>
       <r>   -7.0964    1.0000 </r>
       <r>   -6.9506    1.0000 </r>
       <r>   -6.8268    1.0000 </r>
       <r>   -6.4658    1.0000 </r>
       <r>   -6.2253    1.0000 </r>
       <r>   -6.1584    1.0000 </r>
       <r>   -5.9069    1.0000 </r>
       <r>   -5.6363    1.0000 </r>
       <r>   -5.3592    1.0000 </r>
       <r>   -4.9247    1.0000 </r>
       <r>   -4.7119    1.0000 </r>
       <r>   -4.4209    1.0000 </r>
       <r>   -4.3435    1.0000 </r>
       <r>   -4.2855    1.0000 </r>
       <r>   -4.1354    1.0000 </r>
       <r>   -3.9999    1.0000 </r>
       <r>   -3.9529    1.0000 </r>
       <r>   -3.5453    1.0000 </r>
       <r>   -3.3914    1.0000 </r>
       <r>   -3.3219    1.0000 </r>
       <r>   -3.0055    1.0000 </r>
       <r>   -2.9831    1.0000 </r>
       <r>   -2.8742    1.0000 </r>
       <r>   -2.7770    1.0000 </r>
       <r>   -2.4827    1.0000 </r>
       <r>   -2.3128    1.0000 </r>
       <r>   -2.2527    1.0000 </r>
       <r>   -1.9596    1.0000 </r>
       <r>   -1.9088    1.0000 </r>
       <r>   -1.8530    1.0000 </r>
       <r>   -1.7303    1.0000 </r>
       <r>   -1.6429    1.0000 </r>
       <r>   -1.4316    1.0000 </r>
       <r>   -1.3651    1.0000 </r>
       <r>   -1.0210    1.0000 </r>
       <r>   -0.8994    1.0000 </r>
       <r>   -0.7294    1.0000 </r>
       <r>    0.4127    0.0000 </r>
       <r>    0.5553    0.0000 </r>
       <r>    0.8685    0.0000 </r>
       <r>    1.2513    0.0000 </r>
       <r>    1.3305    0.0000 </r>
       <r>    1.5803    0.0000 </r>
       <r>    2.0610    0.0000 </r>
       <r>    2.2208    0.0000 </r>
       <r>    2.3741    0.0000 </r>
       <r>    2.4934    0.0000 </r>
       <r>    2.6332    0.0000 </r>
       <r>    2.6652    0.0000 </r>
       <r>    2.8539    0.0000 </r>
       <r>    2.9925    0.0000 </r>
      </set>
      <set comment="kpoint 13">
       <r>  -12.8358    1.0000 </r>
       <r>  -11.9750    1.0000 </r>
       <r>  -11.9489    1.0000 </r>
       <r>  -11.7403    1.0000 </r>
       <r>  -11.4716    1.0000 </r>
       <r>  -11.2345    1.0000 </r>
       <r>  -11.0582    1.0000 </r>
       <r>  -10.7092    1.0000 </r>
       <r>  -10.6795    1.0000 </r>
       <r>  -10.5891    1.0000 </r>
       <r>  -10.4519    1.0000 </r>
       <r>   -9.8250    1.0000 </r>
       <r>   -9.0917    1.0000 </r>
       <r>   -8.9457    1.0000 </r>
       <r>   -8.3542    1.0000 </r>
       <r>   -8.0974    1.0000 </r>
       <r>   -7.8983    1.0000 </r>
       <r>   -7.7630    1.0000 </r>
       <r>   -7.3509    1.0000 </r>
       <r>   -7.3030    1.0000 </r>
       <r>   -6.7611    1.0000 </r>
       <r>   -6.6864    1.0000 </r>
       <r>   -6.6402    1.0000 </r>
       <r>   -6.5910    1.0000 </r>
       <r>   -5.6830    1.0000 </r>
       <r>   -5.3231    1.0000 </r>
       <r>   -4.8013    1.0000 </r>
       <r>   -4.7657    1.0000 </r>
       <r>   -4.4805    1.0000 </r>
       <r>   -4.3684    1.0000 </r>
       <r>   -4.1050    1.0000 </r>
       <r>   -4.0116    1.0000 </r>
       <r>   -3.8552    1.0000 </r>
       <r>   -3.8387    1.0000 </r>
       <r>   -3.7570    1.0000 </r>
       <r>   -3.3366    1.0000 </r>
       <r>   -3.3157    1.0000 </r>
       <r>   -3.2711    1.0000 </r>
       <r>   -3.1050    1.0000 </r>
       <r>   -2.9188    1.0000 </r>
       <r>   -2.8504    1.0000 </r>
       <r>   -2.6195    1.0000 </r>
       <r>   -2.5044    1.0000 </r>
       <r>   -2.3303    1.0000 </r>
       <r>   -2.2554    1.0000 </r>
       <r>   -2.1542    1.0000 </r>
       <r>   -2.0553    1.0000 </r>
       <r>   -1.8762    1.0000 </r>
       <r>   -1.7749    1.0000 </r>
       <r>   -1.4953    1.0000 </r>
       <r>   -1.3955    1.0000 </r>
       <r>   -1.3084    1.0000 </r>
       <r>   -1.0306    1.0000 </r>
       <r>   -0.7426    1.0000 </r>
       <r>    0.0946    0.6992 </r>
       <r>    0.4219    0.0000 </r>
       <r>    0.7390    0.0000 </r>
       <r>    1.2188    0.0000 </r>
       <r>    1.3542    0.0000 </r>
       <r>    1.5820    0.0000 </r>
       <r>    1.8315    0.0000 </r>
       <r>    1.9962    0.0000 </r>
       <r>    2.1618    0.0000 </r>
       <r>    2.2145    0.0000 </r>
       <r>    2.4035    0.0000 </r>
       <r>    2.6303    0.0000 </r>
       <r>    2.6853    0.0000 </r>
       <r>    2.7356    0.0000 </r>
      </set>
      <set comment="kpoint 14">
       <r>  -12.4986    1.0000 </r>
       <r>  -11.6980    1.0000 </r>
       <r>  -11.4183    1.0000 </r>
       <r>  -11.2963    1.0000 </r>
       <r>  -11.2444    1.0000 </r>
       <r>  -11.0135    1.0000 </r>
       <r>  -10.9512    1.0000 </r>
       <r>  -10.8493    1.0000 </r>
       <r>  -10.6881    1.0000 </r>
       <r>  -10.6814    1.0000 </r>
       <r>  -10.5680    1.0000 </r>
       <r>   -9.5519    1.0000 </r>
       <r>   -9.2198    1.0000 </r>
       <r>   -8.7894    1.0000 </r>
       <r>   -8.5390    1.0000 </r>
       <r>   -8.3849    1.0000 </r>
       <r>   -8.3130    1.0000 </r>
       <r>   -7.9074    1.0000 </r>
       <r>   -7.8093    1.0000 </r>
       <r>   -7.5076    1.0000 </r>
       <r>   -7.3052    1.0000 </r>
       <r>   -7.1208    1.0000 </r>
       <r>   -7.0316    1.0000 </r>
       <r>   -6.6761    1.0000 </r>
       <r>   -5.6821    1.0000 </r>
       <r>   -5.0021    1.0000 </r>
       <r>   -4.8360    1.0000 </r>
       <r>   -4.4583    1.0000 </r>
       <r>   -4.2542    1.0000 </r>
       <r>   -4.2054    1.0000 </r>
       <r>   -4.1180    1.0000 </r>
       <r>   -4.0801    1.0000 </r>
       <r>   -3.9207    1.0000 </r>
       <r>   -3.6899    1.0000 </r>
       <r>   -3.6411    1.0000 </r>
       <r>   -3.6229    1.0000 </r>
       <r>   -3.4887    1.0000 </r>
       <r>   -3.3147    1.0000 </r>
       <r>   -3.2434    1.0000 </r>
       <r>   -3.0410    1.0000 </r>
       <r>   -2.9883    1.0000 </r>
       <r>   -2.7508    1.0000 </r>
       <r>   -2.6343    1.0000 </r>
       <r>   -2.5825    1.0000 </r>
       <r>   -2.4338    1.0000 </r>
       <r>   -2.1764    1.0000 </r>
       <r>   -2.1040    1.0000 </r>
       <r>   -1.8960    1.0000 </r>
       <r>   -1.6942    1.0000 </r>
       <r>   -1.5545    1.0000 </r>
       <r>   -1.5298    1.0000 </r>
       <r>   -1.3571    1.0000 </r>
       <r>   -1.0460    1.0000 </r>
       <r>   -0.6552    1.0000 </r>
       <r>   -0.1488    1.0000 </r>
       <r>    0.3448    0.0013 </r>
       <r>    0.7906    0.0000 </r>
       <r>    1.4343    0.0000 </r>
       <r>    1.5033    0.0000 </r>
       <r>    1.5803    0.0000 </r>
       <r>    1.6392    0.0000 </r>
       <r>    1.7766    0.0000 </r>
       <r>    2.0362    0.0000 </r>
       <r>    2.1874    0.0000 </r>
       <r>    2.3330    0.0000 </r>
       <r>    2.4686    0.0000 </r>
       <r>    2.5158    0.0000 </r>
       <r>    2.6043    0.0000 </r>
      </set>
      <set comment="kpoint 15">
       <r>  -12.5039    1.0000 </r>
       <r>  -11.6865    1.0000 </r>
       <r>  -11.5205    1.0000 </r>
       <r>  -11.2588    1.0000 </r>
       <r>  -11.0523    1.0000 </r>
       <r>  -11.0472    1.0000 </r>
       <r>  -10.9263    1.0000 </r>
       <r>  -10.7932    1.0000 </r>
       <r>  -10.7433    1.0000 </r>
       <r>  -10.7132    1.0000 </r>
       <r>  -10.6864    1.0000 </r>
       <r>   -9.5570    1.0000 </r>
       <r>   -9.1623    1.0000 </r>
       <r>   -8.8058    1.0000 </r>
       <r>   -8.7399    1.0000 </r>
       <r>   -8.4196    1.0000 </r>
       <r>   -8.0534    1.0000 </r>
       <r>   -7.9284    1.0000 </r>
       <r>   -7.7179    1.0000 </r>
       <r>   -7.5937    1.0000 </r>
       <r>   -7.2668    1.0000 </r>
       <r>   -7.2044    1.0000 </r>
       <r>   -7.0339    1.0000 </r>
       <r>   -6.5708    1.0000 </r>
       <r>   -5.7223    1.0000 </r>
       <r>   -4.8695    1.0000 </r>
       <r>   -4.7135    1.0000 </r>
       <r>   -4.5633    1.0000 </r>
       <r>   -4.3549    1.0000 </r>
       <r>   -4.2796    1.0000 </r>
       <r>   -4.0726    1.0000 </r>
       <r>   -3.9916    1.0000 </r>
       <r>   -3.9872    1.0000 </r>
       <r>   -3.8693    1.0000 </r>
       <r>   -3.6498    1.0000 </r>
       <r>   -3.6318    1.0000 </r>
       <r>   -3.5555    1.0000 </r>
       <r>   -3.4126    1.0000 </r>
       <r>   -3.3467    1.0000 </r>
       <r>   -3.0392    1.0000 </r>
       <r>   -2.8332    1.0000 </r>
       <r>   -2.7331    1.0000 </r>
       <r>   -2.6745    1.0000 </r>
       <r>   -2.4750    1.0000 </r>
       <r>   -2.3735    1.0000 </r>
       <r>   -2.1647    1.0000 </r>
       <r>   -2.1172    1.0000 </r>
       <r>   -1.9360    1.0000 </r>
       <r>   -1.6923    1.0000 </r>
       <r>   -1.5655    1.0000 </r>
       <r>   -1.4912    1.0000 </r>
       <r>   -1.2877    1.0000 </r>
       <r>   -1.0563    1.0000 </r>
       <r>   -0.6498    1.0000 </r>
       <r>   -0.1009    0.9995 </r>
       <r>    0.3382    0.0017 </r>
       <r>    0.9274    0.0000 </r>
       <r>    1.3834    0.0000 </r>
       <r>    1.5124    0.0000 </r>
       <r>    1.6844    0.0000 </r>
       <r>    1.7771    0.0000 </r>
       <r>    1.8164    0.0000 </r>
       <r>    2.1951    0.0000 </r>
       <r>    2.2769    0.0000 </r>
       <r>    2.3540    0.0000 </r>
       <r>    2.3888    0.0000 </r>
       <r>    2.5659    0.0000 </r>
       <r>    2.6343    0.0000 </r>
      </set>
      <set comment="kpoint 16">
       <r>  -12.8500    1.0000 </r>
       <r>  -12.0883    1.0000 </r>
       <r>  -11.8123    1.0000 </r>
       <r>  -11.6352    1.0000 </r>
       <r>  -11.4669    1.0000 </r>
       <r>  -11.2356    1.0000 </r>
       <r>  -11.0573    1.0000 </r>
       <r>  -10.9181    1.0000 </r>
       <r>  -10.6402    1.0000 </r>
       <r>  -10.6136    1.0000 </r>
       <r>  -10.4354    1.0000 </r>
       <r>   -9.8325    1.0000 </r>
       <r>   -9.1092    1.0000 </r>
       <r>   -8.7267    1.0000 </r>
       <r>   -8.4772    1.0000 </r>
       <r>   -8.3127    1.0000 </r>
       <r>   -7.9385    1.0000 </r>
       <r>   -7.4293    1.0000 </r>
       <r>   -7.3420    1.0000 </r>
       <r>   -7.3097    1.0000 </r>
       <r>   -6.8499    1.0000 </r>
       <r>   -6.7892    1.0000 </r>
       <r>   -6.6556    1.0000 </r>
       <r>   -6.2955    1.0000 </r>
       <r>   -5.7537    1.0000 </r>
       <r>   -5.0310    1.0000 </r>
       <r>   -4.8551    1.0000 </r>
       <r>   -4.8256    1.0000 </r>
       <r>   -4.4317    1.0000 </r>
       <r>   -4.3923    1.0000 </r>
       <r>   -4.2581    1.0000 </r>
       <r>   -4.0940    1.0000 </r>
       <r>   -4.0647    1.0000 </r>
       <r>   -3.8522    1.0000 </r>
       <r>   -3.7064    1.0000 </r>
       <r>   -3.6412    1.0000 </r>
       <r>   -3.4216    1.0000 </r>
       <r>   -3.3752    1.0000 </r>
       <r>   -3.1568    1.0000 </r>
       <r>   -2.7793    1.0000 </r>
       <r>   -2.7439    1.0000 </r>
       <r>   -2.6169    1.0000 </r>
       <r>   -2.5011    1.0000 </r>
       <r>   -2.3003    1.0000 </r>
       <r>   -2.2226    1.0000 </r>
       <r>   -2.1094    1.0000 </r>
       <r>   -1.9281    1.0000 </r>
       <r>   -1.9207    1.0000 </r>
       <r>   -1.7827    1.0000 </r>
       <r>   -1.4911    1.0000 </r>
       <r>   -1.4197    1.0000 </r>
       <r>   -1.2186    1.0000 </r>
       <r>   -0.9949    1.0000 </r>
       <r>   -0.6761    1.0000 </r>
       <r>    0.1366    0.4710 </r>
       <r>    0.4402    0.0000 </r>
       <r>    1.0235    0.0000 </r>
       <r>    1.3751    0.0000 </r>
       <r>    1.5279    0.0000 </r>
       <r>    1.7984    0.0000 </r>
       <r>    1.9262    0.0000 </r>
       <r>    2.1461    0.0000 </r>
       <r>    2.2764    0.0000 </r>
       <r>    2.3729    0.0000 </r>
       <r>    2.4390    0.0000 </r>
       <r>    2.5093    0.0000 </r>
       <r>    2.6374    0.0000 </r>
       <r>    2.7358    0.0000 </r>
      </set>
      <set comment="kpoint 17">
       <r>  -13.2490    1.0000 </r>
       <r>  -12.5820    1.0000 </r>
       <r>  -12.2013    1.0000 </r>
       <r>  -11.9645    1.0000 </r>
       <r>  -11.9289    1.0000 </r>
       <r>  -11.6342    1.0000 </r>
       <r>  -11.2310    1.0000 </r>
       <r>  -11.1267    1.0000 </r>
       <r>  -10.7592    1.0000 </r>
       <r>  -10.7529    1.0000 </r>
       <r>  -10.4055    1.0000 </r>
       <r>  -10.1939    1.0000 </r>
       <r>   -8.7517    1.0000 </r>
       <r>   -8.5406    1.0000 </r>
       <r>   -8.1733    1.0000 </r>
       <r>   -7.9518    1.0000 </r>
       <r>   -7.5263    1.0000 </r>
       <r>   -6.9887    1.0000 </r>
       <r>   -6.9286    1.0000 </r>
       <r>   -6.8453    1.0000 </r>
       <r>   -6.5972    1.0000 </r>
       <r>   -6.1377    1.0000 </r>
       <r>   -5.9623    1.0000 </r>
       <r>   -5.9359    1.0000 </r>
       <r>   -5.6629    1.0000 </r>
       <r>   -5.1297    1.0000 </r>
       <r>   -4.8728    1.0000 </r>
       <r>   -4.6575    1.0000 </r>
       <r>   -4.6333    1.0000 </r>
       <r>   -4.5201    1.0000 </r>
       <r>   -4.2929    1.0000 </r>
       <r>   -4.2293    1.0000 </r>
       <r>   -4.1044    1.0000 </r>
       <r>   -3.8842    1.0000 </r>
       <r>   -3.7546    1.0000 </r>
       <r>   -3.4475    1.0000 </r>
       <r>   -3.3620    1.0000 </r>
       <r>   -3.0666    1.0000 </r>
       <r>   -2.9475    1.0000 </r>
       <r>   -2.8350    1.0000 </r>
       <r>   -2.7388    1.0000 </r>
       <r>   -2.5568    1.0000 </r>
       <r>   -2.3577    1.0000 </r>
       <r>   -2.0284    1.0000 </r>
       <r>   -1.9575    1.0000 </r>
       <r>   -1.8773    1.0000 </r>
       <r>   -1.8336    1.0000 </r>
       <r>   -1.7560    1.0000 </r>
       <r>   -1.6796    1.0000 </r>
       <r>   -1.4362    1.0000 </r>
       <r>   -1.2918    1.0000 </r>
       <r>   -1.0973    1.0000 </r>
       <r>   -0.8434    1.0000 </r>
       <r>   -0.6135    1.0000 </r>
       <r>    0.3913    0.0001 </r>
       <r>    0.6334    0.0000 </r>
       <r>    1.0392    0.0000 </r>
       <r>    1.5804    0.0000 </r>
       <r>    1.7069    0.0000 </r>
       <r>    1.9464    0.0000 </r>
       <r>    2.0218    0.0000 </r>
       <r>    2.2673    0.0000 </r>
       <r>    2.3843    0.0000 </r>
       <r>    2.5040    0.0000 </r>
       <r>    2.6800    0.0000 </r>
       <r>    2.7191    0.0000 </r>
       <r>    2.7883    0.0000 </r>
       <r>    2.9052    0.0000 </r>
      </set>
      <set comment="kpoint 18">
       <r>  -13.5958    1.0000 </r>
       <r>  -12.9771    1.0000 </r>
       <r>  -12.5850    1.0000 </r>
       <r>  -12.3346    1.0000 </r>
       <r>  -12.2509    1.0000 </r>
       <r>  -11.9858    1.0000 </r>
       <r>  -11.5238    1.0000 </r>
       <r>  -11.3364    1.0000 </r>
       <r>  -11.0151    1.0000 </r>
       <r>  -10.9198    1.0000 </r>
       <r>  -10.5839    1.0000 </r>
       <r>  -10.4755    1.0000 </r>
       <r>   -8.5514    1.0000 </r>
       <r>   -8.3843    1.0000 </r>
       <r>   -7.7712    1.0000 </r>
       <r>   -7.6127    1.0000 </r>
       <r>   -7.0786    1.0000 </r>
       <r>   -6.7046    1.0000 </r>
       <r>   -6.6443    1.0000 </r>
       <r>   -6.6105    1.0000 </r>
       <r>   -6.3101    1.0000 </r>
       <r>   -5.7741    1.0000 </r>
       <r>   -5.7140    1.0000 </r>
       <r>   -5.3192    1.0000 </r>
       <r>   -5.2315    1.0000 </r>
       <r>   -4.8138    1.0000 </r>
       <r>   -4.5945    1.0000 </r>
       <r>   -4.5463    1.0000 </r>
       <r>   -4.4964    1.0000 </r>
       <r>   -4.2103    1.0000 </r>
       <r>   -4.1480    1.0000 </r>
       <r>   -4.0418    1.0000 </r>
       <r>   -3.7940    1.0000 </r>
       <r>   -3.6884    1.0000 </r>
       <r>   -3.5731    1.0000 </r>
       <r>   -3.4333    1.0000 </r>
       <r>   -3.3461    1.0000 </r>
       <r>   -2.9922    1.0000 </r>
       <r>   -2.9533    1.0000 </r>
       <r>   -2.8288    1.0000 </r>
       <r>   -2.5892    1.0000 </r>
       <r>   -2.4250    1.0000 </r>
       <r>   -2.2058    1.0000 </r>
       <r>   -1.9314    1.0000 </r>
       <r>   -1.8854    1.0000 </r>
       <r>   -1.8064    1.0000 </r>
       <r>   -1.7411    1.0000 </r>
       <r>   -1.5529    1.0000 </r>
       <r>   -1.4488    1.0000 </r>
       <r>   -1.3477    1.0000 </r>
       <r>   -1.1035    1.0000 </r>
       <r>   -0.6936    1.0000 </r>
       <r>   -0.5405    1.0000 </r>
       <r>   -0.4499    1.0000 </r>
       <r>    0.5398    0.0000 </r>
       <r>    0.7747    0.0000 </r>
       <r>    1.2037    0.0000 </r>
       <r>    1.6917    0.0000 </r>
       <r>    1.8498    0.0000 </r>
[...]
       <r>    2.7360    0.0000 </r>
      </set>
      <set comment="kpoint 54">
       <r>  -12.5000    1.0000 </r>
       <r>  -11.7017    1.0000 </r>
       <r>  -11.4761    1.0000 </r>
       <r>  -11.2657    1.0000 </r>
       <r>  -11.1511    1.0000 </r>
       <r>  -11.0332    1.0000 </r>
       <r>  -10.9423    1.0000 </r>
       <r>  -10.8343    1.0000 </r>
       <r>  -10.7059    1.0000 </r>
       <r>  -10.6977    1.0000 </r>
       <r>  -10.6083    1.0000 </r>
       <r>   -9.5564    1.0000 </r>
       <r>   -9.1997    1.0000 </r>
       <r>   -8.7884    1.0000 </r>
       <r>   -8.6492    1.0000 </r>
       <r>   -8.4261    1.0000 </r>
       <r>   -8.1036    1.0000 </r>
       <r>   -7.9994    1.0000 </r>
       <r>   -7.7450    1.0000 </r>
       <r>   -7.5506    1.0000 </r>
       <r>   -7.2801    1.0000 </r>
       <r>   -7.1519    1.0000 </r>
       <r>   -7.0167    1.0000 </r>
       <r>   -6.6447    1.0000 </r>
       <r>   -5.7085    1.0000 </r>
       <r>   -4.9328    1.0000 </r>
       <r>   -4.8538    1.0000 </r>
       <r>   -4.4640    1.0000 </r>
       <r>   -4.2722    1.0000 </r>
       <r>   -4.2206    1.0000 </r>
       <r>   -4.1038    1.0000 </r>
       <r>   -4.0280    1.0000 </r>
       <r>   -3.9328    1.0000 </r>
       <r>   -3.7519    1.0000 </r>
       <r>   -3.6824    1.0000 </r>
       <r>   -3.5688    1.0000 </r>
       <r>   -3.5427    1.0000 </r>
       <r>   -3.4017    1.0000 </r>
       <r>   -3.2410    1.0000 </r>
       <r>   -3.0475    1.0000 </r>
       <r>   -3.0217    1.0000 </r>
       <r>   -2.7555    1.0000 </r>
       <r>   -2.6810    1.0000 </r>
       <r>   -2.4811    1.0000 </r>
       <r>   -2.3667    1.0000 </r>
       <r>   -2.1935    1.0000 </r>
       <r>   -2.1002    1.0000 </r>
       <r>   -1.9084    1.0000 </r>
       <r>   -1.7006    1.0000 </r>
       <r>   -1.5442    1.0000 </r>
       <r>   -1.5055    1.0000 </r>
       <r>   -1.3497    1.0000 </r>
       <r>   -1.0411    1.0000 </r>
       <r>   -0.6333    1.0000 </r>
       <r>   -0.1415    0.9999 </r>
       <r>    0.3328    0.0022 </r>
       <r>    0.8594    0.0000 </r>
       <r>    1.3608    0.0000 </r>
       <r>    1.5282    0.0000 </r>
       <r>    1.6266    0.0000 </r>
       <r>    1.6787    0.0000 </r>
       <r>    1.9001    0.0000 </r>
       <r>    2.0542    0.0000 </r>
       <r>    2.1543    0.0000 </r>
       <r>    2.3338    0.0000 </r>
       <r>    2.3919    0.0000 </r>
       <r>    2.5065    0.0000 </r>
       <r>    2.5937    0.0000 </r>
      </set>
     </set>
    </set>
   </array>
  </eigenvalues>
  <separator name="orbital magnetization" >
   <v name="MAGDIPOLOUT">      0.00000000      0.00000000      0.00000000</v>
  </separator>
  <dos>
   <i name="efermi">      0.13148481 </i>
   <total>
    <array>
     <dimension dim="1">gridpoints</dimension>
     <dimension dim="2">spin</dimension>
     <field>energy</field>
     <field>total</field>
     <field>integrated</field>
     <set>
      <set comment="spin 1">
       <r>   -15.0804     0.0000     0.0000 </r>
       <r>   -15.0158     0.0000     0.0000 </r>
       <r>   -14.9512     0.0000     0.0000 </r>
       <r>   -14.8866     0.0000     0.0000 </r>
       <r>   -14.8220     0.0000     0.0000 </r>
       <r>   -14.7574     0.0000     0.0000 </r>
       <r>   -14.6928     0.0000     0.0000 </r>
       <r>   -14.6282     0.0000     0.0000 </r>
       <r>   -14.5636     0.0000     0.0000 </r>
       <r>   -14.4990     0.0000     0.0000 </r>
       <r>   -14.4343     0.0000     0.0000 </r>
       <r>   -14.3697     0.0000     0.0000 </r>
       <r>   -14.3051     0.0010     0.0001 </r>
       <r>   -14.2405     0.0189     0.0013 </r>
       <r>   -14.1759     0.1738     0.0125 </r>
       <r>   -14.1113     0.8014     0.0643 </r>
       <r>   -14.0467     1.9087     0.1876 </r>
       <r>   -13.9821     2.4486     0.3458 </r>
       <r>   -13.9175     2.0879     0.4807 </r>
       <r>   -13.8529     1.9121     0.6042 </r>
       <r>   -13.7883     1.6183     0.7088 </r>
       <r>   -13.7237     0.8805     0.7656 </r>
       <r>   -13.6591     0.8096     0.8180 </r>
       <r>   -13.5945     1.6335     0.9235 </r>
       <r>   -13.5299     2.2437     1.0684 </r>
       <r>   -13.4653     2.2721     1.2152 </r>
       <r>   -13.4007     2.2429     1.3601 </r>
       <r>   -13.3361     2.4763     1.5201 </r>
       <r>   -13.2715     3.4437     1.7426 </r>
       <r>   -13.2069     4.4408     2.0295 </r>
       <r>   -13.1423     4.2649     2.3050 </r>
       <r>   -13.0777     3.5613     2.5351 </r>
       <r>   -13.0130     3.6451     2.7706 </r>
       <r>   -12.9484     4.5898     3.0671 </r>
       <r>   -12.8838     5.5932     3.4284 </r>
       <r>   -12.8192     5.9064     3.8100 </r>
       <r>   -12.7546     5.0221     4.1345 </r>
       <r>   -12.6900     3.8580     4.3837 </r>
       <r>   -12.6254     4.1507     4.6519 </r>
       <r>   -12.5608     6.2448     5.0553 </r>
       <r>   -12.4962     7.8423     5.5620 </r>
       <r>   -12.4316     7.4982     6.0464 </r>
       <r>   -12.3670     6.3592     6.4572 </r>
       <r>   -12.3024     5.8064     6.8323 </r>
       <r>   -12.2378     5.6245     7.1957 </r>
       <r>   -12.1732     4.7646     7.5035 </r>
       <r>   -12.1086     3.8209     7.7504 </r>
       <r>   -12.0440     4.6051     8.0479 </r>
       <r>   -11.9794     6.5721     8.4724 </r>
       <r>   -11.9148     7.1722     8.9358 </r>
       <r>   -11.8502     6.2741     9.3411 </r>
       <r>   -11.7856     6.1650     9.7394 </r>
       <r>   -11.7210     7.3317    10.2131 </r>
       <r>   -11.6564     8.3999    10.7558 </r>
       <r>   -11.5918     8.5249    11.3065 </r>
       <r>   -11.5271     8.5532    11.8591 </r>
       <r>   -11.4625     8.4664    12.4060 </r>
       <r>   -11.3979     7.2569    12.8749 </r>
       <r>   -11.3333     6.9947    13.3268 </r>
       <r>   -11.2687     9.3490    13.9307 </r>
       <r>   -11.2041    10.8583    14.6322 </r>
       <r>   -11.1395     9.8100    15.2660 </r>
       <r>   -11.0749     9.6925    15.8922 </r>
       <r>   -11.0103    10.9317    16.5984 </r>
       <r>   -10.9457    10.8817    17.3014 </r>
       <r>   -10.8811     9.9085    17.9416 </r>
       <r>   -10.8165    10.5719    18.6246 </r>
       <r>   -10.7519    13.0627    19.4685 </r>
       <r>   -10.6873    14.3698    20.3968 </r>
       <r>   -10.6227    12.8873    21.2294 </r>
       <r>   -10.5581     9.5349    21.8454 </r>
       <r>   -10.4935     6.4600    22.2627 </r>
       <r>   -10.4289     5.3927    22.6111 </r>
       <r>   -10.3643     4.3739    22.8937 </r>
       <r>   -10.2997     2.3901    23.0481 </r>
       <r>   -10.2351     1.4258    23.1402 </r>
       <r>   -10.1705     1.6641    23.2477 </r>
       <r>   -10.1059     1.4106    23.3388 </r>
       <r>   -10.0412     0.5908    23.3770 </r>
       <r>    -9.9766     0.1948    23.3896 </r>
       <r>    -9.9120     0.4941    23.4215 </r>
       <r>    -9.8474     1.3169    23.5066 </r>
       <r>    -9.7828     1.6488    23.6131 </r>
       <r>    -9.7182     0.9929    23.6773 </r>
       <r>    -9.6536     0.5841    23.7150 </r>
       <r>    -9.5890     1.1352    23.7883 </r>
       <r>    -9.5244     1.6775    23.8967 </r>
       <r>    -9.4598     1.1682    23.9722 </r>
       <r>    -9.3952     0.3860    23.9971 </r>
       <r>    -9.3306     0.1849    24.0091 </r>
       <r>    -9.2660     0.6528    24.0512 </r>
       <r>    -9.2014     1.7071    24.1615 </r>
       <r>    -9.1368     2.6314    24.3315 </r>
       <r>    -9.0722     2.6155    24.5005 </r>
       <r>    -9.0076     1.9820    24.6285 </r>
       <r>    -8.9430     2.0258    24.7594 </r>
       <r>    -8.8784     3.2761    24.9711 </r>
       <r>    -8.8138     5.8639    25.3499 </r>
       <r>    -8.7492     8.7381    25.9144 </r>
       <r>    -8.6846     9.2590    26.5126 </r>
       <r>    -8.6199     7.7053    27.0104 </r>
       <r>    -8.5553     6.2689    27.4154 </r>
       <r>    -8.4907     5.3932    27.7638 </r>
       <r>    -8.4261     5.2249    28.1014 </r>
       <r>    -8.3615     5.6151    28.4641 </r>
       <r>    -8.2969     4.9053    28.7810 </r>
       <r>    -8.2323     3.1675    28.9857 </r>
       <r>    -8.1677     2.3976    29.1406 </r>
       <r>    -8.1031     3.0590    29.3382 </r>
       <r>    -8.0385     4.0919    29.6025 </r>
       <r>    -7.9739     4.8794    29.9178 </r>
       <r>    -7.9093     5.4196    30.2679 </r>
       <r>    -7.8447     5.3514    30.6136 </r>
       <r>    -7.7801     5.2957    30.9558 </r>
       <r>    -7.7155     5.3611    31.3021 </r>
       <r>    -7.6509     4.9514    31.6220 </r>
       <r>    -7.5863     4.8044    31.9324 </r>
       <r>    -7.5217     5.0359    32.2577 </r>
       <r>    -7.4571     5.5391    32.6156 </r>
       <r>    -7.3925     7.0618    33.0718 </r>
       <r>    -7.3279     9.2073    33.6666 </r>
       <r>    -7.2633     9.6781    34.2919 </r>
       <r>    -7.1987     8.0388    34.8112 </r>
       <r>    -7.1340     6.9569    35.2607 </r>
       <r>    -7.0694     7.4612    35.7427 </r>
       <r>    -7.0048     8.5333    36.2940 </r>
       <r>    -6.9402     8.9803    36.8741 </r>
       <r>    -6.8756     8.1674    37.4018 </r>
       <r>    -6.8110     7.2796    37.8721 </r>
       <r>    -6.7464     8.1666    38.3997 </r>
       <r>    -6.6818    11.2900    39.1291 </r>
       <r>    -6.6172    13.7616    40.0181 </r>
       <r>    -6.5526    12.2755    40.8112 </r>
       <r>    -6.4880     8.9621    41.3902 </r>
       <r>    -6.4234     6.5856    41.8156 </r>
       <r>    -6.3588     5.5820    42.1762 </r>
       <r>    -6.2942     5.7320    42.5466 </r>
       <r>    -6.2296     5.5576    42.9056 </r>
       <r>    -6.1650     4.7344    43.2115 </r>
       <r>    -6.1004     3.8785    43.4620 </r>
       <r>    -6.0358     3.7704    43.7056 </r>
       <r>    -5.9712     4.7730    44.0140 </r>
       <r>    -5.9066     5.3065    44.3568 </r>
       <r>    -5.8420     5.2516    44.6961 </r>
       <r>    -5.7774     7.0190    45.1495 </r>
       <r>    -5.7128    10.1521    45.8054 </r>
       <r>    -5.6481    10.8031    46.5033 </r>
       <r>    -5.5835     7.7404    47.0034 </r>
       <r>    -5.5189     4.0856    47.2674 </r>
       <r>    -5.4543     2.2017    47.4096 </r>
       <r>    -5.3897     2.7383    47.5865 </r>
       <r>    -5.3251     4.4177    47.8719 </r>
       <r>    -5.2605     5.2826    48.2132 </r>
       <r>    -5.1959     5.3886    48.5613 </r>
       <r>    -5.1313     4.5106    48.8527 </r>
       <r>    -5.0667     3.4495    49.0756 </r>
       <r>    -5.0021     4.2475    49.3500 </r>
       <r>    -4.9375     6.4304    49.7654 </r>
       <r>    -4.8729     8.9801    50.3456 </r>
       <r>    -4.8083    10.7117    51.0376 </r>
       <r>    -4.7437    10.2483    51.6997 </r>
       <r>    -4.6791     9.2188    52.2952 </r>
       <r>    -4.6145     9.0372    52.8791 </r>
       <r>    -4.5499     9.2063    53.4739 </r>
       <r>    -4.4853     9.6733    54.0988 </r>
       <r>    -4.4207     9.6350    54.7213 </r>
       <r>    -4.3561     9.3541    55.3256 </r>
       <r>    -4.2915    10.4892    56.0032 </r>
       <r>    -4.2268    12.6102    56.8179 </r>
       <r>    -4.1622    14.7723    57.7723 </r>
       <r>    -4.0976    17.0617    58.8745 </r>
       <r>    -4.0330    17.9449    60.0338 </r>
       <r>    -3.9684    16.1926    61.0799 </r>
       <r>    -3.9038    13.4074    61.9461 </r>
       <r>    -3.8392    11.7058    62.7024 </r>
       <r>    -3.7746    11.6366    63.4541 </r>
       <r>    -3.7100    12.9263    64.2892 </r>
       <r>    -3.6454    14.2713    65.2112 </r>
       <r>    -3.5808    13.8689    66.1072 </r>
       <r>    -3.5162    12.1853    66.8944 </r>
       <r>    -3.4516    11.6069    67.6443 </r>
       <r>    -3.3870    13.2253    68.4987 </r>
       <r>    -3.3224    15.0062    69.4682 </r>
       <r>    -3.2578    14.7804    70.4230 </r>
       <r>    -3.1932    12.7352    71.2458 </r>
       <r>    -3.1286    11.7536    72.0051 </r>
       <r>    -3.0640    13.8930    72.9027 </r>
       <r>    -2.9994    16.4761    73.9671 </r>
       <r>    -2.9348    16.3575    75.0239 </r>
       <r>    -2.8702    14.6793    75.9722 </r>
       <r>    -2.8056    14.1637    76.8873 </r>
       <r>    -2.7409    14.7557    77.8405 </r>
       <r>    -2.6763    14.1934    78.7575 </r>
       <r>    -2.6117    12.6478    79.5746 </r>
       <r>    -2.5471    12.2934    80.3688 </r>
       <r>    -2.4825    12.7820    81.1946 </r>
       <r>    -2.4179    13.2985    82.0537 </r>
       <r>    -2.3533    13.8490    82.9484 </r>
       <r>    -2.2887    13.8754    83.8448 </r>
       <r>    -2.2241    13.8085    84.7369 </r>
       <r>    -2.1595    14.5399    85.6763 </r>
       <r>    -2.0949    15.1733    86.6565 </r>
       <r>    -2.0303    15.4963    87.6577 </r>
       <r>    -1.9657    17.8488    88.8108 </r>
       <r>    -1.9011    21.2378    90.1828 </r>
       <r>    -1.8365    21.3667    91.5632 </r>
       <r>    -1.7719    18.7567    92.7750 </r>
       <r>    -1.7073    16.2549    93.8251 </r>
       <r>    -1.6427    13.5046    94.6976 </r>
       <r>    -1.5781    12.0149    95.4738 </r>
       <r>    -1.5135    13.5061    96.3463 </r>
       <r>    -1.4489    15.4116    97.3420 </r>
       <r>    -1.3843    15.7292    98.3582 </r>
       <r>    -1.3197    14.3094    99.2826 </r>
       <r>    -1.2550    11.3748   100.0175 </r>
       <r>    -1.1904     8.9250   100.5941 </r>
       <r>    -1.1258     9.0532   101.1790 </r>
       <r>    -1.0612    10.3898   101.8502 </r>
       <r>    -0.9966    10.2295   102.5111 </r>
       <r>    -0.9320     8.7733   103.0779 </r>
       <r>    -0.8674     6.8693   103.5216 </r>
       <r>    -0.8028     5.0669   103.8490 </r>
       <r>    -0.7382     5.0200   104.1733 </r>
       <r>    -0.6736     6.2901   104.5797 </r>
       <r>    -0.6090     6.5574   105.0033 </r>
       <r>    -0.5444     6.0423   105.3937 </r>
       <r>    -0.4798     6.1585   105.7915 </r>
       <r>    -0.4152     6.1432   106.1884 </r>
       <r>    -0.3506     4.8317   106.5006 </r>
       <r>    -0.2860     3.2306   106.7093 </r>
       <r>    -0.2214     2.7953   106.8899 </r>
       <r>    -0.1568     3.5681   107.1204 </r>
       <r>    -0.0922     3.8123   107.3667 </r>
       <r>    -0.0276     2.9511   107.5573 </r>
       <r>     0.0370     2.6994   107.7317 </r>
       <r>     0.1016     2.9297   107.9210 </r>
       <r>     0.1662     2.4226   108.0775 </r>
       <r>     0.2309     1.9662   108.2045 </r>
       <r>     0.2955     3.2165   108.4123 </r>
       <r>     0.3601     5.6676   108.7785 </r>
       <r>     0.4247     7.1284   109.2390 </r>
       <r>     0.4893     7.1293   109.6996 </r>
       <r>     0.5539     6.9478   110.1485 </r>
       <r>     0.6185     6.4893   110.5677 </r>
       <r>     0.6831     5.3869   110.9157 </r>
       <r>     0.7477     5.2450   111.2546 </r>
       <r>     0.8123     6.5821   111.6798 </r>
       <r>     0.8769     6.9075   112.1260 </r>
       <r>     0.9415     5.3328   112.4706 </r>
       <r>     1.0061     3.6473   112.7062 </r>
       <r>     1.0707     2.7475   112.8837 </r>
       <r>     1.1353     2.8042   113.0649 </r>
       <r>     1.1999     3.8194   113.3116 </r>
       <r>     1.2645     5.3531   113.6574 </r>
       <r>     1.3291     7.4186   114.1367 </r>
       <r>     1.3937     9.2393   114.7336 </r>
       <r>     1.4583     9.9695   115.3777 </r>
       <r>     1.5229    11.3267   116.1095 </r>
       <r>     1.5875    13.3065   116.9691 </r>
       <r>     1.6522    13.6885   117.8535 </r>
       <r>     1.7168    12.9238   118.6884 </r>
       <r>     1.7814    12.3613   119.4870 </r>
       <r>     1.8460    11.3429   120.2198 </r>
       <r>     1.9106     9.1030   120.8079 </r>
       <r>     1.9752     7.5934   121.2984 </r>
       <r>     2.0398     8.2916   121.8341 </r>
       <r>     2.1044     9.6833   122.4597 </r>
       <r>     2.1690    11.0563   123.1740 </r>
       <r>     2.2336    12.7449   123.9974 </r>
       <r>     2.2982    13.9674   124.8997 </r>
       <r>     2.3628    14.5633   125.8406 </r>
       <r>     2.4274    14.6437   126.7866 </r>
       <r>     2.4920    14.8238   127.7443 </r>
       <r>     2.5566    15.3008   128.7328 </r>
       <r>     2.6212    16.0004   129.7665 </r>
       <r>     2.6858    17.0181   130.8659 </r>
       <r>     2.7504    16.3518   131.9223 </r>
       <r>     2.8150    13.3610   132.7855 </r>
       <r>     2.8796    10.7162   133.4778 </r>
       <r>     2.9442     9.7123   134.1053 </r>
       <r>     3.0088     8.9338   134.6825 </r>
       <r>     3.0734     7.5978   135.1733 </r>
       <r>     3.1381     5.6846   135.5406 </r>
       <r>     3.2027     3.4404   135.7628 </r>
       <r>     3.2673     1.8942   135.8852 </r>
       <r>     3.3319     1.1217   135.9577 </r>
       <r>     3.3965     0.5115   135.9907 </r>
       <r>     3.4611     0.1274   135.9990 </r>
       <r>     3.5257     0.0153   135.9999 </r>
       <r>     3.5903     0.0009   136.0000 </r>
       <r>     3.6549     0.0000   136.0000 </r>
       <r>     3.7195     0.0000   136.0000 </r>
       <r>     3.7841     0.0000   136.0000 </r>
       <r>     3.8487     0.0000   136.0000 </r>
       <r>     3.9133     0.0000   136.0000 </r>
       <r>     3.9779     0.0000   136.0000 </r>
       <r>     4.0425     0.0000   136.0000 </r>
       <r>     4.1071     0.0000   136.0000 </r>
       <r>     4.1717     0.0000   136.0000 </r>
       <r>     4.2363     0.0000   136.0000 </r>
       <r>     4.3009     0.0000   136.0000 </r>
      </set>
     </set>
    </array>
   </total>
  </dos>
 </calculation>
 <structure name="finalpos" >
  <crystal>
   <varray name="basis" >
    <v>       3.54040000       0.00000000       0.00000000 </v>
    <v>      -1.77020000      10.29434800       0.00000000 </v>
    <v>       0.00000000       0.00000000      27.50142900 </v>
   </varray>
   <i name="volume">   1002.32009712 </i>
   <varray name="rec_basis" >
    <v>       0.28245396       0.04857034       0.00000000 </v>
    <v>       0.00000000       0.09714068       0.00000000 </v>
    <v>       0.00000000       0.00000000       0.03636175 </v>
   </varray>
  </crystal>
  <varray name="positions" >
   <v>       0.11402300       0.22804500       0.23316207 </v>
   <v>       0.51402300       0.92804500       0.51499159 </v>
   <v>       0.45808900       0.91617900       0.20939482 </v>
   <v>       0.85808900       0.61617900       0.49122434 </v>
   <v>       0.31085400       0.62170900       0.08414979 </v>
   <v>       0.31085400       0.62170900       0.36597930 </v>
   <v>       0.99923000       0.99846000       0.08631254 </v>
   <v>       0.99923000       0.99846000       0.36814206 </v>
   <v>       0.65492700       0.30985400       0.06041748 </v>
   <v>       0.65492700       0.30985400       0.34224700 </v>
   <v>       0.76973800       0.53947500       0.20725292 </v>
   <v>       0.16973800       0.23947500       0.48908244 </v>
   <v>       0.93971600       0.87943300       0.15783749 </v>
   <v>       0.33971600       0.57943300       0.43966701 </v>
   <v>       0.20515200       0.41030300       0.18578822 </v>
   <v>       0.60515200       0.11030300       0.46761774 </v>
   <v>       0.20184900       0.40369900       0.09969156 </v>
   <v>       0.20184900       0.40369900       0.38152107 </v>
   <v>       0.56380500       0.12761000       0.10779021 </v>
   <v>       0.56380500       0.12761000       0.38961973 </v>
   <v>       0.56710600       0.13421200       0.19387616 </v>
   <v>       0.96710600       0.83421200       0.47570568 </v>
   <v>       0.82923400       0.65846800       0.13571444 </v>
   <v>       0.22923400       0.35846800       0.41754396 </v>
  </varray>
 </structure>
</modeling>
