  24  24   0   0
  0.4176334E+02  0.3540400E-09  0.1044544E-08  0.2750143E-08  0.5000000E-15
  1.000000000000000E-004
  CAR 
 unknown system                          
      4.16935524    -16.60069443  301     -0.15855292      1.00000000
    -16.601  0.0000E+00  0.0000E+00
    -16.531  0.0000E+00  0.0000E+00
    -16.462  0.0000E+00  0.0000E+00
    -16.393  0.0000E+00  0.0000E+00
    -16.324  0.0000E+00  0.0000E+00
    -16.255  0.0000E+00  0.0000E+00
    -16.185  0.1234E-15  0.8540E-17
    -16.116  0.3248E-12  0.2249E-13
    -16.047  0.2947E-09  0.2042E-10
    -15.978  0.1053E-06  0.7308E-08
    -15.908  0.1498E-04  0.1044E-05
    -15.839  0.8646E-03  0.6090E-04
    -15.770  0.2081E-01  0.1501E-02
    -15.701  0.2164E+00  0.1649E-01
    -15.631  0.1011E+01  0.8650E-01
    -15.562  0.2197E+01  0.2386E+00
    -15.493  0.2428E+01  0.4067E+00
    -15.424  0.2044E+01  0.5483E+00
    -15.354  0.1853E+01  0.6766E+00
    -15.285  0.1146E+01  0.7559E+00
    -15.216  0.8507E+00  0.8148E+00
    -15.147  0.1496E+01  0.9184E+00
    -15.078  0.1521E+01  0.1024E+01
    -15.008  0.6713E+00  0.1070E+01
    -14.939  0.3503E+00  0.1094E+01
    -14.870  0.9866E+00  0.1163E+01
    -14.801  0.1662E+01  0.1278E+01
    -14.731  0.1167E+01  0.1359E+01
    -14.662  0.3785E+00  0.1385E+01
    -14.593  0.3906E+00  0.1412E+01
    -14.524  0.1191E+01  0.1494E+01
    -14.454  0.1672E+01  0.1610E+01
    -14.385  0.1119E+01  0.1688E+01
    -14.316  0.1030E+01  0.1759E+01
    -14.247  0.1632E+01  0.1872E+01
    -14.178  0.1331E+01  0.1964E+01
    -14.108  0.4528E+00  0.1995E+01
    -14.039  0.6308E-01  0.2000E+01
    -13.970  0.3561E-02  0.2000E+01
    -13.901  0.8061E-04  0.2000E+01
    -13.831  0.2081E-05  0.2000E+01
    -13.762  0.9778E-04  0.2000E+01
    -13.693  0.3000E-02  0.2000E+01
    -13.624  0.4152E-01  0.2003E+01
    -13.554  0.2772E+00  0.2022E+01
    -13.485  0.9483E+00  0.2088E+01
    -13.416  0.1785E+01  0.2212E+01
    -13.347  0.2266E+01  0.2368E+01
    -13.277  0.2923E+01  0.2571E+01
    -13.208  0.3894E+01  0.2840E+01
    -13.139  0.3951E+01  0.3114E+01
    -13.070  0.3365E+01  0.3347E+01
    -13.001  0.3450E+01  0.3586E+01
    -12.931  0.3749E+01  0.3845E+01
    -12.862  0.3725E+01  0.4103E+01
    -12.793  0.3876E+01  0.4372E+01
    -12.724  0.4298E+01  0.4669E+01
    -12.654  0.4392E+01  0.4973E+01
    -12.585  0.4654E+01  0.5295E+01
    -12.516  0.5464E+01  0.5674E+01
    -12.447  0.6195E+01  0.6102E+01
    -12.377  0.6601E+01  0.6559E+01
    -12.308  0.5686E+01  0.6953E+01
    -12.239  0.4616E+01  0.7273E+01
    -12.170  0.4479E+01  0.7583E+01
    -12.101  0.4679E+01  0.7907E+01
    -12.031  0.5996E+01  0.8322E+01
    -11.962  0.7902E+01  0.8869E+01
    -11.893  0.8082E+01  0.9429E+01
    -11.824  0.7330E+01  0.9936E+01
    -11.754  0.6889E+01  0.1041E+02
    -11.685  0.6062E+01  0.1083E+02
    -11.616  0.5826E+01  0.1124E+02
    -11.547  0.6619E+01  0.1169E+02
    -11.477  0.8381E+01  0.1227E+02
    -11.408  0.9520E+01  0.1293E+02
    -11.339  0.8565E+01  0.1353E+02
    -11.270  0.8192E+01  0.1409E+02
    -11.200  0.8879E+01  0.1471E+02
    -11.131  0.8653E+01  0.1531E+02
    -11.062  0.8045E+01  0.1586E+02
    -10.993  0.8441E+01  0.1645E+02
    -10.924  0.9648E+01  0.1712E+02
    -10.854  0.1032E+02  0.1783E+02
    -10.785  0.1077E+02  0.1858E+02
    -10.716  0.1047E+02  0.1930E+02
    -10.647  0.9804E+01  0.1998E+02
    -10.577  0.9769E+01  0.2066E+02
    -10.508  0.7812E+01  0.2120E+02
    -10.439  0.5517E+01  0.2158E+02
    -10.370  0.5889E+01  0.2199E+02
    -10.300  0.5566E+01  0.2237E+02
    -10.231  0.2842E+01  0.2257E+02
    -10.162  0.1153E+01  0.2265E+02
    -10.093  0.2350E+01  0.2281E+02
    -10.024  0.4943E+01  0.2315E+02
     -9.954  0.5744E+01  0.2355E+02
     -9.885  0.4364E+01  0.2385E+02
     -9.816  0.2859E+01  0.2405E+02
     -9.747  0.2120E+01  0.2420E+02
     -9.677  0.1209E+01  0.2428E+02
     -9.608  0.4021E+00  0.2431E+02
     -9.539  0.5204E+00  0.2435E+02
     -9.470  0.1373E+01  0.2444E+02
     -9.400  0.1800E+01  0.2457E+02
     -9.331  0.1931E+01  0.2470E+02
     -9.262  0.3308E+01  0.2493E+02
     -9.193  0.5216E+01  0.2529E+02
     -9.123  0.6337E+01  0.2573E+02
     -9.054  0.5982E+01  0.2614E+02
     -8.985  0.4696E+01  0.2647E+02
     -8.916  0.3765E+01  0.2673E+02
     -8.847  0.3627E+01  0.2698E+02
     -8.777  0.4240E+01  0.2727E+02
     -8.708  0.4654E+01  0.2760E+02
     -8.639  0.4202E+01  0.2789E+02
     -8.570  0.3388E+01  0.2812E+02
     -8.500  0.3174E+01  0.2834E+02
     -8.431  0.3979E+01  0.2862E+02
     -8.362  0.5349E+01  0.2899E+02
     -8.293  0.5259E+01  0.2935E+02
     -8.223  0.3349E+01  0.2958E+02
     -8.154  0.2246E+01  0.2974E+02
     -8.085  0.2583E+01  0.2992E+02
     -8.016  0.2726E+01  0.3011E+02
     -7.947  0.2254E+01  0.3026E+02
     -7.877  0.2777E+01  0.3045E+02
     -7.808  0.4523E+01  0.3077E+02
     -7.739  0.6164E+01  0.3119E+02
     -7.670  0.6381E+01  0.3164E+02
     -7.600  0.5672E+01  0.3203E+02
     -7.531  0.5492E+01  0.3241E+02
     -7.462  0.5750E+01  0.3281E+02
     -7.393  0.6894E+01  0.3328E+02
     -7.323  0.8780E+01  0.3389E+02
     -7.254  0.1103E+02  0.3466E+02
     -7.185  0.1227E+02  0.3550E+02
     -7.116  0.1096E+02  0.3626E+02
     -7.046  0.7606E+01  0.3679E+02
     -6.977  0.5092E+01  0.3714E+02
     -6.908  0.5057E+01  0.3749E+02
     -6.839  0.5632E+01  0.3788E+02
     -6.770  0.6207E+01  0.3831E+02
     -6.700  0.8341E+01  0.3889E+02
     -6.631  0.1116E+02  0.3966E+02
     -6.562  0.1055E+02  0.4039E+02
     -6.493  0.7528E+01  0.4091E+02
     -6.423  0.6498E+01  0.4136E+02
     -6.354  0.6459E+01  0.4181E+02
     -6.285  0.6025E+01  0.4223E+02
     -6.216  0.6421E+01  0.4267E+02
     -6.146  0.6626E+01  0.4313E+02
     -6.077  0.5357E+01  0.4350E+02
     -6.008  0.3793E+01  0.4377E+02
     -5.939  0.3417E+01  0.4400E+02
     -5.870  0.3949E+01  0.4428E+02
     -5.800  0.5008E+01  0.4462E+02
     -5.731  0.6829E+01  0.4509E+02
     -5.662  0.8679E+01  0.4570E+02
     -5.593  0.8703E+01  0.4630E+02
     -5.523  0.7051E+01  0.4679E+02
     -5.454  0.5567E+01  0.4717E+02
     -5.385  0.4596E+01  0.4749E+02
     -5.316  0.4441E+01  0.4780E+02
     -5.246  0.4971E+01  0.4814E+02
     -5.177  0.5478E+01  0.4852E+02
     -5.108  0.5905E+01  0.4893E+02
     -5.039  0.7010E+01  0.4942E+02
     -4.969  0.7941E+01  0.4996E+02
     -4.900  0.7448E+01  0.5048E+02
     -4.831  0.7344E+01  0.5099E+02
     -4.762  0.7952E+01  0.5154E+02
     -4.693  0.8507E+01  0.5213E+02
     -4.623  0.9205E+01  0.5277E+02
     -4.554  0.1007E+02  0.5346E+02
     -4.485  0.1099E+02  0.5422E+02
     -4.416  0.1138E+02  0.5501E+02
     -4.346  0.1059E+02  0.5574E+02
     -4.277  0.9497E+01  0.5640E+02
     -4.208  0.9683E+01  0.5707E+02
     -4.139  0.1132E+02  0.5786E+02
     -4.069  0.1422E+02  0.5884E+02
     -4.000  0.1717E+02  0.6003E+02
     -3.931  0.1638E+02  0.6116E+02
     -3.862  0.1183E+02  0.6198E+02
     -3.792  0.9628E+01  0.6265E+02
     -3.723  0.1113E+02  0.6342E+02
     -3.654  0.1162E+02  0.6422E+02
     -3.585  0.1012E+02  0.6492E+02
     -3.516  0.9234E+01  0.6556E+02
     -3.446  0.1066E+02  0.6630E+02
     -3.377  0.1371E+02  0.6725E+02
     -3.308  0.1620E+02  0.6837E+02
     -3.239  0.1726E+02  0.6957E+02
     -3.169  0.1733E+02  0.7077E+02
     -3.100  0.1723E+02  0.7196E+02
     -3.031  0.1835E+02  0.7323E+02
     -2.962  0.1889E+02  0.7454E+02
     -2.892  0.1813E+02  0.7579E+02
     -2.823  0.1660E+02  0.7694E+02
     -2.754  0.1542E+02  0.7801E+02
     -2.685  0.1517E+02  0.7906E+02
     -2.616  0.1547E+02  0.8013E+02
     -2.546  0.1628E+02  0.8126E+02
     -2.477  0.1641E+02  0.8240E+02
     -2.408  0.1593E+02  0.8350E+02
     -2.339  0.1474E+02  0.8452E+02
     -2.269  0.1391E+02  0.8548E+02
     -2.200  0.1475E+02  0.8650E+02
     -2.131  0.1554E+02  0.8758E+02
     -2.062  0.1480E+02  0.8860E+02
     -1.992  0.1473E+02  0.8962E+02
     -1.923  0.1708E+02  0.9081E+02
     -1.854  0.1951E+02  0.9216E+02
     -1.785  0.1951E+02  0.9351E+02
     -1.715  0.1863E+02  0.9480E+02
     -1.646  0.1798E+02  0.9604E+02
     -1.577  0.1492E+02  0.9707E+02
     -1.508  0.1208E+02  0.9791E+02
     -1.439  0.1294E+02  0.9881E+02
     -1.369  0.1527E+02  0.9986E+02
     -1.300  0.1485E+02  0.1009E+03
     -1.231  0.1070E+02  0.1016E+03
     -1.162  0.6900E+01  0.1021E+03
     -1.092  0.6951E+01  0.1026E+03
     -1.023  0.9304E+01  0.1032E+03
     -0.954  0.9708E+01  0.1039E+03
     -0.885  0.7134E+01  0.1044E+03
     -0.815  0.5483E+01  0.1048E+03
     -0.746  0.7154E+01  0.1053E+03
     -0.677  0.7426E+01  0.1058E+03
     -0.608  0.4163E+01  0.1061E+03
     -0.539  0.1783E+01  0.1062E+03
     -0.469  0.2261E+01  0.1064E+03
     -0.400  0.4323E+01  0.1067E+03
     -0.331  0.6163E+01  0.1071E+03
     -0.262  0.6341E+01  0.1075E+03
     -0.192  0.4973E+01  0.1079E+03
     -0.123  0.3746E+01  0.1081E+03
     -0.054  0.3527E+01  0.1084E+03
      0.015  0.3375E+01  0.1086E+03
      0.085  0.2942E+01  0.1088E+03
      0.154  0.3069E+01  0.1090E+03
      0.223  0.3349E+01  0.1093E+03
      0.292  0.2924E+01  0.1095E+03
      0.362  0.2927E+01  0.1097E+03
      0.431  0.3494E+01  0.1099E+03
      0.500  0.2826E+01  0.1101E+03
      0.569  0.1860E+01  0.1102E+03
      0.638  0.2481E+01  0.1104E+03
      0.708  0.3715E+01  0.1107E+03
      0.777  0.3768E+01  0.1109E+03
      0.846  0.2843E+01  0.1111E+03
      0.915  0.2679E+01  0.1113E+03
      0.985  0.3481E+01  0.1115E+03
      1.054  0.5018E+01  0.1119E+03
      1.123  0.6535E+01  0.1123E+03
      1.192  0.7489E+01  0.1129E+03
      1.262  0.8803E+01  0.1135E+03
      1.331  0.9556E+01  0.1141E+03
      1.400  0.9328E+01  0.1148E+03
      1.469  0.9679E+01  0.1154E+03
      1.538  0.1110E+02  0.1162E+03
      1.608  0.1252E+02  0.1171E+03
      1.677  0.1259E+02  0.1179E+03
      1.746  0.1230E+02  0.1188E+03
      1.815  0.1266E+02  0.1197E+03
      1.885  0.1224E+02  0.1205E+03
      1.954  0.1164E+02  0.1213E+03
      2.023  0.1166E+02  0.1221E+03
      2.092  0.1190E+02  0.1230E+03
      2.162  0.1225E+02  0.1238E+03
      2.231  0.1334E+02  0.1247E+03
      2.300  0.1478E+02  0.1258E+03
      2.369  0.1484E+02  0.1268E+03
      2.439  0.1481E+02  0.1278E+03
      2.508  0.1496E+02  0.1288E+03
      2.577  0.1461E+02  0.1299E+03
      2.646  0.1554E+02  0.1309E+03
      2.715  0.1649E+02  0.1321E+03
      2.785  0.1470E+02  0.1331E+03
      2.854  0.1123E+02  0.1339E+03
      2.923  0.8409E+01  0.1345E+03
      2.992  0.7052E+01  0.1349E+03
      3.062  0.6279E+01  0.1354E+03
      3.131  0.5015E+01  0.1357E+03
      3.200  0.2866E+01  0.1359E+03
      3.269  0.9708E+00  0.1360E+03
      3.339  0.1714E+00  0.1360E+03
      3.408  0.1441E-01  0.1360E+03
      3.477  0.5400E-03  0.1360E+03
      3.546  0.8631E-05  0.1360E+03
      3.615  0.5701E-07  0.1360E+03
      3.685  0.1523E-09  0.1360E+03
      3.754  0.1623E-12  0.1360E+03
      3.823  0.0000E+00  0.1360E+03
      3.892  0.0000E+00  0.1360E+03
      3.962  0.0000E+00  0.1360E+03
      4.031  0.0000E+00  0.1360E+03
      4.100  0.0000E+00  0.1360E+03
      4.169  0.0000E+00  0.1360E+03
