   24   24    1    1
  0.4176334E+02  0.3540400E-09  0.1044544E-08  0.2750143E-08  0.5000000E-15
  1.000000000000000E-004
  CAR 
 unknown system                          
    108     54     68
 
  0.0000000E+00  0.0000000E+00  0.0000000E+00  0.9615385E-02
    1      -15.600694
    2      -13.507469
    3      -13.212634
    4      -12.770302
    5      -12.754195
    6      -12.446636
    7      -12.055334
    8      -11.869323
    9      -11.516528
   10      -11.400673
   11      -10.957939
   12      -10.090060
   13       -9.003367
   14       -8.001231
   15       -7.795908
   16       -7.272725
   17       -7.230528
   18       -6.784594
   19       -6.467007
   20       -6.374663
   21       -5.797485
   22       -5.724326
   23       -5.421407
   24       -4.771039
   25       -4.708752
   26       -4.041973
   27       -3.711111
   28       -3.610348
   29       -3.214002
   30       -3.116942
   31       -3.022098
   32       -2.956169
   33       -2.857278
   34       -2.811739
   35       -2.722036
   36       -2.518180
   37       -2.452931
   38       -2.382317
   39       -2.346369
   40       -2.181872
   41       -2.016767
   42       -1.933569
   43       -1.809087
   44       -1.696911
   45       -1.609974
   46       -1.559479
   47       -1.549024
   48       -1.477937
   49       -1.399613
   50       -1.385402
   51       -1.115181
   52       -1.078262
   53       -0.356012
   54        0.155961
   55        0.884690
   56        1.071036
   57        1.169213
   58        1.311195
   59        1.359936
   60        1.375612
   61        1.693208
   62        1.777966
   63        1.997631
   64        2.037467
   65        2.196812
   66        2.368678
   67        2.469594
   68        2.532872
 
  0.7692308E-01 -0.1387779E-16  0.0000000E+00  0.1923077E-01
    1      -15.547865
    2      -13.446122
    3      -13.156921
    4      -12.717452
    5      -12.695759
    6      -12.391007
    7      -11.993271
    8      -11.821212
    9      -11.461277
   10      -11.351774
   11      -10.909560
   12      -10.061477
   13       -8.989658
   14       -8.037625
   15       -7.759408
   16       -7.334005
   17       -7.194840
   18       -6.757391
   19       -6.465753
   20       -6.403765
   21       -6.007662
   22       -5.759674
   23       -5.392494
   24       -4.797151
   25       -4.711278
   26       -4.011647
   27       -3.746274
   28       -3.634490
   29       -3.478505
   30       -3.394755
   31       -3.248393
   32       -3.194464
   33       -3.134273
   34       -2.930357
   35       -2.871602
   36       -2.715936
   37       -2.625207
   38       -2.458389
   39       -2.422102
   40       -2.258652
   41       -2.168836
   42       -2.036840
   43       -2.005874
   44       -1.932607
   45       -1.807487
   46       -1.740088
   47       -1.673391
   48       -1.483251
   49       -1.373174
   50       -1.292807
   51       -1.077582
   52       -0.985398
   53       -0.292694
   54        0.162825
   55        0.723397
   56        1.023117
   57        1.106606
   58        1.518007
   59        1.612329
   60        1.797381
   61        2.001165
   62        2.164553
   63        2.241059
   64        2.327857
   65        2.382727
   66        2.624583
   67        2.648187
   68        2.746815
 
  0.1538462E+00 -0.2775558E-16  0.0000000E+00  0.1923077E-01
    1      -15.392327
    2      -13.263152
    3      -12.991604
    4      -12.560989
    5      -12.521481
    6      -12.226163
    7      -11.811550
    8      -11.679048
    9      -11.300807
   10      -11.209910
   11      -10.770752
   12       -9.987653
   13       -8.974173
   14       -8.133660
   15       -7.726742
   16       -7.667544
   17       -7.121886
   18       -6.730971
   19       -6.633777
   20       -6.465640
   21       -6.167074
   22       -5.685716
   23       -5.406735
   24       -4.867777
   25       -4.826490
   26       -4.239219
   27       -4.162772
   28       -4.047307
   29       -3.971481
   30       -3.923848
   31       -3.756321
   32       -3.657351
   33       -3.387703
   34       -3.322108
   35       -3.235384
   36       -3.120658
   37       -2.937036
   38       -2.888481
   39       -2.658156
   40       -2.571892
   41       -2.435145
   42       -2.330416
   43       -2.233864
   44       -2.111047
   45       -1.915714
   46       -1.776150
   47       -1.697297
   48       -1.621864
   49       -1.323113
   50       -1.142768
   51       -0.977577
   52       -0.697715
   53       -0.412048
   54       -0.093067
   55        0.436619
   56        0.620171
   57        1.095522
   58        1.802803
   59        1.974867
   60        2.268960
   61        2.396764
   62        2.483041
   63        2.632470
   64        2.692066
   65        2.737646
   66        2.900138
   67        2.994069
   68        3.085553
 
  0.2307692E+00 -0.4163336E-16  0.0000000E+00  0.1923077E-01
    1      -15.144575
    2      -12.962160
    3      -12.723595
    4      -12.304439
    5      -12.239264
    6      -11.959351
    7      -11.526517
    8      -11.450981
    9      -11.054266
   10      -10.993272
   11      -10.567660
   12       -9.921697
   13       -9.059228
   14       -8.327041
   15       -8.302810
   16       -7.788381
   17       -7.128772
   18       -6.873754
   19       -6.654616
   20       -6.599843
   21       -6.175053
   22       -5.708338
   23       -5.591246
   24       -5.305827
   25       -5.163962
   26       -4.804360
   27       -4.705156
   28       -4.569652
   29       -4.474042
   30       -4.376957
   31       -4.146777
   32       -4.002121
   33       -3.772824
   34       -3.742993
   35       -3.449646
   36       -3.372487
   37       -3.088630
   38       -2.973017
   39       -2.863988
   40       -2.772212
   41       -2.594667
   42       -2.451996
   43       -2.373933
   44       -2.154284
   45       -1.877890
   46       -1.833211
   47       -1.749686
   48       -1.698180
   49       -1.441619
   50       -1.362799
   51       -1.036747
   52       -0.918947
   53       -0.712863
   54       -0.501544
   55        0.303181
   56        0.892412
   57        1.062930
   58        1.837542
   59        1.882824
   60        2.048648
   61        2.181854
   62        2.333771
   63        2.447849
   64        2.582050
   65        2.682655
   66        2.762210
   67        2.918164
   68        3.002106
 
  0.3076923E+00 -0.5551115E-16  0.0000000E+00  0.1923077E-01
    1      -14.828689
    2      -12.550556
    3      -12.371729
    4      -11.956050
    5      -11.868764
    6      -11.607466
    7      -11.190335
    8      -11.146989
    9      -10.770400
   10      -10.749198
   11      -10.381746
   12      -10.037425
   13       -9.291957
   14       -8.794427
   15       -8.619847
   16       -8.049498
   17       -7.372720
   18       -7.032212
   19       -6.960722
   20       -6.865573
   21       -6.389768
   22       -6.131630
   23       -5.931079
   24       -5.777855
   25       -5.649216
   26       -5.194165
   27       -5.058816
   28       -4.745824
   29       -4.666470
   30       -4.506923
   31       -4.275562
   32       -4.186885
   33       -3.996968
   34       -3.876516
   35       -3.361797
   36       -3.330457
   37       -3.176617
   38       -3.054181
   39       -2.997379
   40       -2.931922
   41       -2.749853
   42       -2.577341
   43       -2.388019
   44       -2.232446
   45       -2.038558
   46       -1.905029
   47       -1.849349
   48       -1.785830
   49       -1.681219
   50       -1.638585
   51       -1.311132
   52       -1.202003
   53       -1.042149
   54       -0.741392
   55        0.021284
   56        0.733166
   57        1.305979
   58        1.602712
   59        1.677405
   60        1.805802
   61        1.978529
   62        2.087901
   63        2.251319
   64        2.376622
   65        2.520079
   66        2.667555
   67        2.797576
   68        2.897824
 
  0.3846154E+00 -0.8326673E-16  0.0000000E+00  0.1923077E-01
    1      -14.497759
    2      -12.044928
    3      -11.993718
    4      -11.536931
    5      -11.457003
    6      -11.209478
    7      -10.924352
    8      -10.814943
    9      -10.595437
   10      -10.577609
   11      -10.422381
   12      -10.332341
   13       -9.464981
   14       -9.152835
   15       -8.796611
   16       -8.342063
   17       -7.727042
   18       -7.425596
   19       -7.380796
   20       -7.221921
   21       -6.835475
   22       -6.727984
   23       -6.627203
   24       -6.258359
   25       -5.508420
   26       -5.192195
   27       -5.015162
   28       -4.589224
   29       -4.494757
   30       -4.366121
   31       -4.195897
   32       -4.101774
   33       -4.041298
   34       -3.924832
   35       -3.622739
   36       -3.425828
   37       -3.236226
   38       -3.193340
   39       -3.060884
   40       -2.997001
   41       -2.763254
   42       -2.704143
   43       -2.542597
   44       -2.431450
   45       -2.254389
   46       -2.137724
   47       -1.996894
   48       -1.862838
   49       -1.797587
   50       -1.684810
   51       -1.541646
   52       -1.391463
   53       -1.284719
   54       -0.734191
   55       -0.256067
   56        0.393587
   57        1.305628
   58        1.444201
   59        1.608733
   60        1.731776
   61        1.768136
   62        1.860133
   63        2.091545
   64        2.217368
   65        2.302200
   66        2.474454
   67        2.629364
   68        2.782617
 
  0.4615385E+00 -0.8326673E-16  0.0000000E+00  0.1923077E-01
    1      -14.261711
    2      -11.777770
    3      -11.466712
    4      -11.114390
    5      -11.094761
    6      -10.909248
    7      -10.823513
    8      -10.809488
    9      -10.695222
   10      -10.605159
   11      -10.601505
   12      -10.359312
   13       -9.773357
   14       -9.236849
   15       -8.655336
   16       -8.404570
   17       -8.045105
   18       -7.847741
   19       -7.588989
   20       -7.536113
   21       -7.252262
   22       -7.153768
   23       -7.122574
   24       -6.412740
   25       -5.205294
   26       -5.010478
   27       -4.877331
   28       -4.482334
   29       -4.450384
   30       -4.237844
   31       -4.102805
   32       -4.012882
   33       -3.913407
   34       -3.806949
   35       -3.751849
   36       -3.569267
   37       -3.476514
   38       -3.232026
   39       -3.209287
   40       -3.016422
   41       -2.925365
   42       -2.885569
   43       -2.722151
   44       -2.638778
   45       -2.322157
   46       -2.169160
   47       -2.101084
   48       -1.937458
   49       -1.824512
   50       -1.640147
   51       -1.577332
   52       -1.476852
   53       -1.372953
   54       -0.771043
   55       -0.341969
   56        0.141394
   57        1.210141
   58        1.397917
   59        1.536820
   60        1.605058
   61        1.669407
   62        1.871059
   63        1.934685
   64        2.085338
   65        2.345019
   66        2.435411
   67        2.502452
   68        2.684633
 
  0.0000000E+00  0.2500000E+00  0.0000000E+00  0.1923077E-01
    1      -15.599938
    2      -13.452192
    3      -13.248462
    4      -12.941979
    5      -12.674738
    6      -12.444978
    7      -12.014609
    8      -11.835929
    9      -11.446710
   10      -11.399298
   11      -10.966675
   12      -10.060809
   13       -9.106620
   14       -8.482772
   15       -7.408426
   16       -7.249514
   17       -7.207034
   18       -6.638360
   19       -6.569674
   20       -6.277955
   21       -5.727549
   22       -5.703052
   23       -5.464152
   24       -4.623461
   25       -4.572284
   26       -4.031856
   27       -3.969414
   28       -3.572610
   29       -3.351971
   30       -3.300741
   31       -3.126135
   32       -3.094161
   33       -2.882477
   34       -2.691576
   35       -2.675992
   36       -2.552412
   37       -2.369830
   38       -2.349866
   39       -2.257392
   40       -2.217295
   41       -2.089326
   42       -1.938584
   43       -1.867037
   44       -1.847425
   45       -1.644155
   46       -1.594872
   47       -1.495070
   48       -1.443102
   49       -1.329454
   50       -1.278675
   51       -1.093007
   52       -1.018156
   53       -0.335745
   54       -0.020556
   55        0.982874
   56        1.079454
   57        1.220781
   58        1.285757
   59        1.417343
   60        1.466145
   61        1.731455
   62        1.772342
   63        1.942328
   64        2.110305
   65        2.269274
   66        2.336676
   67        2.562036
   68        2.655730
 
  0.7692308E-01  0.2500000E+00  0.0000000E+00  0.1923077E-01
    1      -15.546981
    2      -13.375408
    3      -13.198534
    4      -12.922911
    5      -12.598449
    6      -12.387922
    7      -11.989443
    8      -11.736917
    9      -11.405125
   10      -11.326164
   11      -10.922361
   12      -10.026651
   13       -9.113130
   14       -8.541284
   15       -7.415970
   16       -7.261748
   17       -7.165479
   18       -6.647235
   19       -6.498786
   20       -6.312483
   21       -5.958148
   22       -5.667072
   23       -5.481593
   24       -4.660379
   25       -4.574893
   26       -4.081925
   27       -3.966126
   28       -3.632296
   29       -3.532182
   30       -3.418645
   31       -3.353404
   32       -3.221277
   33       -3.052737
   34       -3.001187
   35       -2.979306
   36       -2.732504
   37       -2.625211
   38       -2.498940
   39       -2.440809
   40       -2.263247
   41       -2.158475
   42       -2.095483
   43       -2.025254
   44       -1.969602
   45       -1.800882
   46       -1.720645
   47       -1.647050
   48       -1.413420
   49       -1.365217
   50       -1.212023
   51       -1.035518
   52       -0.939427
   53       -0.285319
   54       -0.016434
   55        0.761333
   56        1.042015
   57        1.188381
   58        1.546262
   59        1.638477
   60        1.811251
   61        1.970563
   62        2.063871
   63        2.268095
   64        2.448435
   65        2.563620
   66        2.621227
   67        2.701654
   68        2.834563
 
  0.1538462E+00  0.2500000E+00  0.0000000E+00  0.1923077E-01
    1      -15.391415
    2      -13.179010
    3      -13.034391
    4      -12.786467
    5      -12.414038
    6      -12.221676
    7      -11.858620
    8      -11.539225
    9      -11.265589
   10      -11.158942
   11      -10.781137
   12       -9.953287
   13       -9.093866
   14       -8.606840
   15       -7.706043
   16       -7.275121
   17       -7.124153
   18       -6.631209
   19       -6.606168
   20       -6.464487
   21       -6.077738
   22       -5.620068
   23       -5.521283
   24       -4.812265
   25       -4.673871
   26       -4.349686
   27       -4.265851
   28       -4.161188
   29       -4.001919
   30       -3.927273
   31       -3.760304
   32       -3.591805
   33       -3.392271
   34       -3.282546
   35       -3.161102
   36       -3.024232
   37       -2.931745
   38       -2.866624
   39       -2.765491
   40       -2.687999
   41       -2.570986
   42       -2.407370
   43       -2.294296
   44       -2.106482
   45       -1.928929
   46       -1.845628
   47       -1.641797
   48       -1.469126
   49       -1.273754
   50       -1.083289
   51       -0.945063
   52       -0.721333
   53       -0.401101
   54       -0.173575
   55        0.407658
   56        0.576489
   57        1.162084
   58        1.670294
   59        1.820928
   60        2.152003
   61        2.373536
   62        2.461026
   63        2.717019
   64        2.755198
   65        2.824070
   66        2.905253
   67        3.078732
   68        3.141210
 
  0.2307692E+00  0.2500000E+00  0.0000000E+00  0.1923077E-01
    1      -15.143767
    2      -12.868034
    3      -12.762167
    4      -12.535193
    5      -12.132605
    6      -11.954171
    7      -11.630075
    8      -11.262610
    9      -11.043755
   10      -10.917457
   11      -10.563865
   12       -9.898407
   13       -9.132659
   14       -8.737982
   15       -8.321111
   16       -7.361018
   17       -7.233336
   18       -6.743420
   19       -6.662899
   20       -6.610326
   21       -6.129563
   22       -5.790759
   23       -5.675743
   24       -5.179421
   25       -5.079472
   26       -4.994302
   27       -4.736905
   28       -4.628172
   29       -4.519093
   30       -4.393812
   31       -4.003104
   32       -3.980407
   33       -3.714261
   34       -3.679091
   35       -3.267712
   36       -3.179190
   37       -3.078167
   38       -3.047571
   39       -2.973566
   40       -2.809691
   41       -2.617889
   42       -2.500356
   43       -2.475090
   44       -2.163815
   45       -1.958337
   46       -1.873131
   47       -1.745517
   48       -1.678723
   49       -1.404327
   50       -1.344500
   51       -0.999177
   52       -0.972912
   53       -0.768773
   54       -0.416395
   55        0.180549
   56        0.888473
   57        1.106882
   58        1.480360
   59        1.623155
   60        1.730606
   61        2.137957
   62        2.259453
   63        2.504767
   64        2.629728
   65        2.727088
   66        2.838422
   67        3.006930
   68        3.074066
 
  0.3076923E+00  0.2500000E+00  0.0000000E+00  0.1923077E-01
    1      -14.828050
    2      -12.453355
    3      -12.398176
    4      -12.176293
    5      -11.779302
    6      -11.603222
    7      -11.326204
    8      -10.948901
    9      -10.780012
   10      -10.654109
   11      -10.358329
   12      -10.038330
   13       -9.291834
   14       -8.937031
   15       -8.802989
   16       -7.671568
   17       -7.526277
   18       -7.079435
   19       -6.929689
   20       -6.909138
   21       -6.361161
   22       -6.160338
   23       -5.889712
   24       -5.848870
   25       -5.643829
   26       -5.351588
   27       -5.055245
   28       -4.905655
   29       -4.504281
   30       -4.387043
   31       -4.291178
   32       -4.040502
   33       -3.979713
   34       -3.754062
   35       -3.336293
   36       -3.306429
   37       -3.068853
   38       -2.972703
   39       -2.872986
   40       -2.821380
   41       -2.794275
   42       -2.555235
   43       -2.471304
   44       -2.339120
   45       -2.269725
   46       -1.945494
   47       -1.857578
   48       -1.795480
   49       -1.717946
   50       -1.652638
   51       -1.349818
   52       -1.257567
   53       -1.048936
   54       -0.699447
   55       -0.069178
   56        0.668448
   57        1.257025
   58        1.302851
   59        1.476756
   60        1.583529
   61        1.909453
   62        2.190311
   63        2.224079
   64        2.449428
   65        2.470098
   66        2.635035
   67        2.781982
   68        2.964004
 
  0.3846154E+00  0.2500000E+00  0.0000000E+00  0.1923077E-01
    1      -14.497416
    2      -12.011566
    3      -11.941950
    4      -11.726463
    5      -11.417695
    6      -11.208892
    7      -11.005937
    8      -10.691284
    9      -10.569019
   10      -10.527485
   11      -10.434917
   12      -10.323565
   13       -9.448411
   14       -9.138052
   15       -8.927041
   16       -8.076571
   17       -7.815268
   18       -7.745989
   19       -7.323189
   20       -7.148928
   21       -6.900793
   22       -6.662010
   23       -6.627032
   24       -6.239478
   25       -5.551378
   26       -5.315243
   27       -4.992286
   28       -4.750355
   29       -4.473329
   30       -4.368886
   31       -4.127315
   32       -4.082429
   33       -3.828863
   34       -3.685533
   35       -3.474978
   36       -3.320371
   37       -3.253633
   38       -3.096372
   39       -3.047235
   40       -2.960217
   41       -2.829625
   42       -2.737449
   43       -2.617993
   44       -2.520164
   45       -2.283322
   46       -2.175159
   47       -2.042895
   48       -1.897084
   49       -1.848781
   50       -1.708280
   51       -1.543014
   52       -1.466386
   53       -1.374209
   54       -0.724441
   55       -0.277923
   56        0.374377
   57        1.223043
   58        1.325240
   59        1.379920
   60        1.538859
   61        1.835909
   62        1.926541
   63        2.061266
   64        2.135158
   65        2.269102
   66        2.576140
   67        2.672150
   68        2.687147
 
  0.4615385E+00  0.2500000E+00  0.0000000E+00  0.1923077E-01
    1      -14.261630
    2      -11.774294
    3      -11.395180
    4      -11.231402
    5      -11.116277
    6      -10.922298
    7      -10.832029
    8      -10.804004
    9      -10.666561
   10      -10.614939
   11      -10.547495
   12      -10.347977
   13       -9.774097
   14       -9.217020
   15       -8.521607
   16       -8.366146
   17       -8.292912
   18       -7.873655
   19       -7.580619
   20       -7.481985
   21       -7.281769
   22       -7.155883
   23       -7.105744
   24       -6.400318
   25       -5.235633
   26       -5.009074
   27       -4.963293
   28       -4.486974
   29       -4.435517
   30       -4.186699
   31       -4.116315
   32       -4.037785
   33       -3.895872
   34       -3.760443
   35       -3.628376
   36       -3.470460
   37       -3.380104
   38       -3.237385
   39       -3.196624
   40       -3.130079
   41       -2.949206
   42       -2.865062
   43       -2.602073
   44       -2.565700
   45       -2.550357
   46       -2.161256
   47       -2.092108
   48       -1.996450
   49       -1.823461
   50       -1.659109
   51       -1.641162
   52       -1.512823
   53       -1.420523
   54       -0.769054
   55       -0.339018
   56        0.178311
   57        1.255978
   58        1.447244
   59        1.518738
   60        1.570089
   61        1.612247
   62        1.734352
   63        1.926481
   64        2.102181
   65        2.282719
   66        2.467902
   67        2.489626
   68        2.543773
 
 -0.4615385E+00  0.2500000E+00  0.0000000E+00  0.1923077E-01
    1      -14.261807
    2      -11.776714
    3      -11.500532
    4      -11.094140
    5      -11.037677
    6      -10.895229
    7      -10.812335
    8      -10.776572
    9      -10.721479
   10      -10.671288
   11      -10.622931
   12      -10.353548
   13       -9.776542
   14       -9.231138
   15       -8.723811
   16       -8.398437
   17       -7.909981
   18       -7.839844
   19       -7.622283
   20       -7.569256
   21       -7.247231
   22       -7.188769
   23       -7.097842
   24       -6.404334
   25       -5.243381
   26       -4.986943
   27       -4.698891
   28       -4.546292
   29       -4.412778
   30       -4.326472
   31       -4.066072
   32       -3.973666
   33       -3.962141
   34       -3.868389
   35       -3.848576
   36       -3.647382
   37       -3.535627
   38       -3.317478
   39       -3.110207
   40       -3.034998
   41       -2.917678
   42       -2.754943
   43       -2.647243
   44       -2.569898
   45       -2.345483
   46       -2.150773
   47       -2.118009
   48       -2.027710
   49       -1.842458
   50       -1.647926
   51       -1.571047
   52       -1.468228
   53       -1.366016
   54       -0.774694
   55       -0.345620
   56        0.214890
   57        1.246988
   58        1.395596
   59        1.551691
   60        1.680969
   61        1.765747
   62        1.797375
   63        1.968887
   64        2.227954
   65        2.384396
   66        2.399985
   67        2.495381
   68        2.624566
 
 -0.3846154E+00  0.2500000E+00  0.0000000E+00  0.1923077E-01
    1      -14.497931
    2      -12.069888
    3      -11.985790
    4      -11.481792
    5      -11.451723
    6      -11.207246
    7      -10.901960
    8      -10.878290
    9      -10.608169
   10      -10.598142
   11      -10.417701
   12      -10.329400
   13       -9.465948
   14       -9.155705
   15       -8.708411
   16       -8.455813
   17       -7.700081
   18       -7.406120
   19       -7.298858
   20       -7.258175
   21       -6.819952
   22       -6.777665
   23       -6.631002
   24       -6.238852
   25       -5.492098
   26       -5.103353
   27       -4.969951
   28       -4.799178
   29       -4.377511
   30       -4.330440
   31       -4.223367
   32       -4.135637
   33       -4.052291
   34       -3.951176
   35       -3.689334
   36       -3.387447
   37       -3.332766
   38       -3.214641
   39       -3.146951
   40       -3.070212
   41       -2.751911
   42       -2.657298
   43       -2.480130
   44       -2.364807
   45       -2.220100
   46       -2.147714
   47       -1.918351
   48       -1.891955
   49       -1.823525
   50       -1.677566
   51       -1.517204
   52       -1.378567
   53       -1.284609
   54       -0.763529
   55       -0.225264
   56        0.440144
   57        1.274517
   58        1.422077
   59        1.534169
   60        1.799277
   61        1.927411
   62        2.069351
   63        2.142247
   64        2.297884
   65        2.428014
   66        2.497452
   67        2.616144
   68        2.678264
 
 -0.3076923E+00  0.2500000E+00  0.0000000E+00  0.1923077E-01
    1      -14.828810
    2      -12.562782
    3      -12.363596
    4      -11.914987
    5      -11.884566
    6      -11.607045
    7      -11.212803
    8      -11.145888
    9      -10.796284
   10      -10.741191
   11      -10.387819
   12      -10.035676
   13       -9.265402
   14       -8.810162
   15       -8.520739
   16       -8.152329
   17       -7.404595
   18       -6.993035
   19       -6.964216
   20       -6.836237
   21       -6.413116
   22       -6.124298
   23       -5.939513
   24       -5.765296
   25       -5.638876
   26       -5.142142
   27       -5.042891
   28       -4.836559
   29       -4.612217
   30       -4.552759
   31       -4.276681
   32       -4.207260
   33       -4.015228
   34       -3.829170
   35       -3.425959
   36       -3.293801
   37       -3.198373
   38       -3.054942
   39       -2.989548
   40       -2.927474
   41       -2.751682
   42       -2.569878
   43       -2.443091
   44       -2.216187
   45       -1.990289
   46       -1.938828
   47       -1.839372
   48       -1.803537
   49       -1.676919
   50       -1.599558
   51       -1.311477
   52       -1.211346
   53       -1.027240
   54       -0.758911
   55        0.024529
   56        0.733105
   57        1.354823
   58        1.573100
   59        1.654577
   60        1.907875
   61        2.013631
   62        2.213976
   63        2.285022
   64        2.386395
   65        2.528550
   66        2.675307
   67        2.749818
   68        2.922931
 
 -0.2307692E+00  0.2500000E+00  0.0000000E+00  0.1923077E-01
    1      -15.144539
    2      -12.957927
    3      -12.725373
    4      -12.318949
    5      -12.233350
    6      -11.959427
    7      -11.514169
    8      -11.460709
    9      -11.044606
   10      -10.996949
   11      -10.566241
   12       -9.922809
   13       -9.029342
   14       -8.368184
   15       -8.330347
   16       -7.747132
   17       -7.238518
   18       -6.736412
   19       -6.650512
   20       -6.603618
   21       -6.193813
   22       -5.711346
   23       -5.616931
   24       -5.302035
   25       -5.155673
   26       -4.811794
   27       -4.705171
   28       -4.562301
   29       -4.478473
   30       -4.419730
   31       -4.140943
   32       -3.972062
   33       -3.747263
   34       -3.728982
   35       -3.431073
   36       -3.368949
   37       -3.075020
   38       -2.967961
   39       -2.855319
   40       -2.728225
   41       -2.596689
   42       -2.435866
   43       -2.414988
   44       -2.234617
   45       -1.890166
   46       -1.864352
   47       -1.779981
   48       -1.705127
   49       -1.436059
   50       -1.351841
   51       -1.030661
   52       -0.906504
   53       -0.692306
   54       -0.490553
   55        0.261618
   56        0.944809
   57        1.117144
   58        1.777301
   59        1.838546
   60        1.991156
   61        2.067469
   62        2.294614
   63        2.407478
   64        2.612219
   65        2.738001
   66        2.862791
   67        2.956568
   68        3.001702
 
 -0.1538462E+00  0.2500000E+00  0.0000000E+00  0.1923077E-01
    1      -15.392046
    2      -13.241695
    3      -13.005889
    4      -12.634002
    5      -12.489499
    6      -12.226108
    7      -11.758268
    8      -11.703707
    9      -11.250969
   10      -11.228504
   11      -10.768719
   12       -9.979071
   13       -8.992527
   14       -8.345437
   15       -7.706381
   16       -7.500404
   17       -7.191966
   18       -6.643215
   19       -6.528817
   20       -6.512758
   21       -6.207266
   22       -5.661128
   23       -5.451529
   24       -4.814953
   25       -4.767388
   26       -4.267628
   27       -4.203454
   28       -4.123601
   29       -4.005834
   30       -3.888256
   31       -3.754782
   32       -3.649919
   33       -3.369394
   34       -3.272195
   35       -3.232446
   36       -3.072746
   37       -2.896757
   38       -2.864830
   39       -2.770390
   40       -2.515596
   41       -2.477900
   42       -2.395210
   43       -2.279584
   44       -2.139199
   45       -1.909150
   46       -1.814257
   47       -1.718166
   48       -1.584334
   49       -1.324215
   50       -1.122594
   51       -0.971596
   52       -0.658806
   53       -0.400951
   54       -0.120929
   55        0.436484
   56        0.674904
   57        1.103164
   58        1.740595
   59        1.835401
   60        2.210870
   61        2.269690
   62        2.497409
   63        2.658887
   64        2.753337
   65        2.813545
   66        2.926841
   67        3.034919
   68        3.169355
 
 -0.7692308E-01  0.2500000E+00  0.0000000E+00  0.1923077E-01
    1      -15.547337
    2      -13.407468
    3      -13.183218
    4      -12.844398
    5      -12.638402