 running on    8 total cores
 distrk:  each k-point on    8 cores,    1 groups
 distr:  one band on    2 cores,    4 groups
 using from now: INCAR     
 vasp.5.3.5 31Mar14 (build Oct 29 2014 16:16:03) complex                        
  
 POSCAR found type information on POSCAR  P  Si
 POSCAR found :  2 types and      24 ions
 scaLAPACK will be used

 ----------------------------------------------------------------------------- 
|                                                                             |
|  ADVICE TO THIS USER RUNNING 'VASP/VAMP'   (HEAR YOUR MASTER'S VOICE ...):  |
|                                                                             |
|      You have switched on vdW-DFT.                                          |
|      This routine was written and supplied by Jiri Klimes.                  |
|      We recommed that you carefully read and cite the following             |
|      publication                                                            |
|      J. Klimes, D.R. Bowler, A. Michelides                                  |
|        J. Phys.: Cond Matt. 22 022201 (2010)                                |
|      J. Klimes, D.R. Bowler, A. Michelides                                  |
|        Phys. Rev. B. 83, 195131 (2011)                                      |
|      and references therein.                                                |
|                                                                             |
 ----------------------------------------------------------------------------- 


 ----------------------------------------------------------------------------- 
|                                                                             |
|  ADVICE TO THIS USER RUNNING 'VASP/VAMP'   (HEAR YOUR MASTER'S VOICE ...):  |
|                                                                             |
|      You enforced a specific xc-type in the INCAR file,                     |
|      a different type was found on the POTCAR file                          |
|          I HOPE YOU KNOW, WHAT YOU ARE  DOING                               |
|                                                                             |
 ----------------------------------------------------------------------------- 

 LDA part: xc-table for Pade appr. of Perdew


 VERY BAD NEWS! internal error in subroutine IBZKPT:
 Reciprocal lattice and k-lattice belong to different class of lattices. Often results are still useful...      96


 VERY BAD NEWS! internal error in subroutine IBZKPT:
 Reciprocal lattice and k-lattice belong to different class of lattices. Often results are still useful...      96


 VERY BAD NEWS! internal error in subroutine IBZKPT:
 Reciprocal lattice and k-lattice belong to different class of lattices. Often results are still useful...      96


 VERY BAD NEWS! internal error in subroutine IBZKPT:
 Reciprocal lattice and k-lattice belong to different class of lattices. Often results are still useful...      96


 VERY BAD NEWS! internal error in subroutine IBZKPT:
 Reciprocal lattice and k-lattice belong to different class of lattices. Often results are still useful...      96


 VERY BAD NEWS! internal error in subroutine IBZKPT:
 Reciprocal lattice and k-lattice belong to different class of lattices. Often results are still useful...      96


 VERY BAD NEWS! internal error in subroutine IBZKPT:
 Reciprocal lattice and k-lattice belong to different class of lattices. Often results are still useful...      96


 VERY BAD NEWS! internal error in subroutine IBZKPT:
 Reciprocal lattice and k-lattice belong to different class of lattices. Often results are still useful...      96
 POSCAR, INCAR and KPOINTS ok, starting setup
 WARNING: small aliasing (wrap around) errors must be expected
 FFT: planning ...
 WAVECAR not read
 entering main loop
       N       E                     dE             d eps       ncg     rms          rms(c)
Total vdW correction in eV:     15.9712528
DAV:   1     0.511958436797E+03    0.51196E+03   -0.28797E+04  7376   0.790E+02
DAV:   2    -0.578560353581E+02   -0.56981E+03   -0.55450E+03  9732   0.191E+02
DAV:   3    -0.116642375928E+03   -0.58786E+02   -0.57870E+02  8964   0.635E+01
DAV:   4    -0.119411358997E+03   -0.27690E+01   -0.27520E+01 11192   0.148E+01
DAV:   5    -0.119467177757E+03   -0.55819E-01   -0.55730E-01  9984   0.211E+00    0.129E+01
Total vdW correction in eV:     16.3813513
DAV:   6    -0.114025026415E+03    0.54422E+01   -0.17547E+01  8924   0.117E+01    0.648E+00
Total vdW correction in eV:     16.8109617
DAV:   7    -0.114202307799E+03   -0.17728E+00   -0.12667E+01  8336   0.859E+00    0.288E+00
Total vdW correction in eV:     16.9410134
DAV:   8    -0.114141254598E+03    0.61053E-01   -0.16760E+00  8872   0.362E+00    0.182E+00
Total vdW correction in eV:     17.0415566
DAV:   9    -0.114153027993E+03   -0.11773E-01   -0.85384E-01  9008   0.210E+00    0.945E-01
Total vdW correction in eV:     17.1448605
DAV:  10    -0.114154115169E+03   -0.10872E-02   -0.24377E-01  9000   0.127E+00    0.319E-01
Total vdW correction in eV:     17.1669469
DAV:  11    -0.114144191897E+03    0.99233E-02   -0.28603E-02  8840   0.582E-01    0.142E-01
Total vdW correction in eV:     17.1766378
DAV:  12    -0.114133803929E+03    0.10388E-01   -0.12169E-02  9144   0.288E-01    0.895E-02
Total vdW correction in eV:     17.1809476
DAV:  13    -0.114129177168E+03    0.46268E-02   -0.16594E-03  9048   0.136E-01    0.337E-02
Total vdW correction in eV:     17.1855444
DAV:  14    -0.114126007334E+03    0.31698E-02   -0.85824E-04  9032   0.785E-02    0.240E-02
Total vdW correction in eV:     17.1884693
DAV:  15    -0.114125059453E+03    0.94788E-03   -0.13925E-04  9040   0.357E-02    0.121E-02
Total vdW correction in eV:     17.1912223
DAV:  16    -0.114124584152E+03    0.47530E-03   -0.10910E-04  8960   0.272E-02    0.101E-02
Total vdW correction in eV:     17.1936659
DAV:  17    -0.114125278003E+03   -0.69385E-03   -0.12482E-04  8216   0.278E-02    0.440E-03
Total vdW correction in eV:     17.1941961
DAV:  18    -0.114125385209E+03   -0.10721E-03   -0.74878E-05  8624   0.179E-02    0.280E-03
Total vdW correction in eV:     17.1940950
DAV:  19    -0.114125555360E+03   -0.17015E-03   -0.79440E-05  7568   0.158E-02    0.151E-03
Total vdW correction in eV:     17.1940103
DAV:  20    -0.114125635404E+03   -0.80044E-04   -0.62704E-06  6552   0.667E-03    0.102E-03
Total vdW correction in eV:     17.1938115
DAV:  21    -0.114125614629E+03    0.20775E-04   -0.26061E-05  6960   0.987E-03    0.660E-04
Total vdW correction in eV:     17.1936550
DAV:  22    -0.114125603119E+03    0.11510E-04   -0.11599E-05  6752   0.903E-03    0.532E-04
Total vdW correction in eV:     17.1935698
DAV:  23    -0.114125530682E+03    0.72437E-04   -0.11900E-05  6796   0.909E-03    0.248E-04
Total vdW correction in eV:     17.1935644
DAV:  24    -0.114125501008E+03    0.29675E-04   -0.29720E-06  5968   0.644E-03    0.123E-04
Total vdW correction in eV:     17.1935639
DAV:  25    -0.114125485901E+03    0.15107E-04   -0.67772E-06  6616   0.818E-03    0.921E-05
Total vdW correction in eV:     17.1935673
DAV:  26    -0.114125488035E+03   -0.21342E-05   -0.19619E-06  6392   0.513E-03    0.358E-05
Total vdW correction in eV:     17.1935689
DAV:  27    -0.114125488996E+03   -0.96113E-06   -0.27298E-06  5988   0.569E-03
Total vdW correction in eV:     17.1935678
Total vdW correction in eV:     17.1935686
   1 F= -.11412549E+03 E0= -.11411624E+03  d E =-.184925E-01
