<?xml version="1.0" encoding="ISO-8859-1"?>
<modeling>
 <generator>
  <i name="program" type="string">vasp </i>
  <i name="version" type="string">5.3.5  </i>
  <i name="subversion" type="string">31Mar14 (build Oct 29 2014 16:16:03) complex                          parallel </i>
  <i name="platform" type="string">Linux-UFHPC </i>
  <i name="date" type="string">2016 02 09 </i>
  <i name="time" type="string">17:25:17 </i>
 </generator>
 <incar>
  <i type="string" name="PREC">accurate</i>
  <i type="int" name="IBRION">     2</i>
  <i name="EDIFF">      0.00000100</i>
  <i type="int" name="NSW">     0</i>
  <i type="int" name="ISIF">     3</i>
  <i name="ENCUT">    300.00000000</i>
  <i type="string" name="LREAL"> Auto</i>
  <i type="int" name="ISMEAR">     0</i>
  <i name="SIGMA">      0.10000000</i>
  <i type="logical" name="LWAVE"> F  </i>
  <i type="logical" name="LCHARG"> F  </i>
  <i type="logical" name="LAECHG"> F  </i>
  <i type="string" name="GGA"> Bo</i>
  <i name="PARAM1">      0.18333333</i>
  <i name="PARAM2">      0.22000000</i>
  <i type="logical" name="LUSE_VDW"> T  </i>
  <i name="AGGAC">      0.00000000</i>
 </incar>
 <kpoints>
  <generation param="Gamma">
   <v type="int" name="divisions">      13        4        2 </v>
   <v name="usershift">      0.00000000       0.00000000       0.00000000 </v>
   <v name="genvec1">      0.07692308      -0.00000000       0.00000000 </v>
   <v name="genvec2">      0.00000000       0.25000000       0.00000000 </v>
   <v name="genvec3">      0.00000000       0.00000000       0.50000000 </v>
   <v name="shift">      0.00000000       0.00000000       0.00000000 </v>
  </generation>
  <varray name="kpointlist" >
   <v>       0.00000000       0.00000000       0.00000000 </v>
   <v>       0.07692308      -0.00000000       0.00000000 </v>
   <v>       0.15384615      -0.00000000       0.00000000 </v>
   <v>       0.23076923      -0.00000000       0.00000000 </v>
   <v>       0.30769231      -0.00000000       0.00000000 </v>
   <v>       0.38461538      -0.00000000       0.00000000 </v>
   <v>       0.46153846      -0.00000000       0.00000000 </v>
   <v>       0.00000000       0.25000000       0.00000000 </v>
   <v>       0.07692308       0.25000000       0.00000000 </v>
   <v>       0.15384615       0.25000000       0.00000000 </v>
   <v>       0.23076923       0.25000000       0.00000000 </v>
   <v>       0.30769231       0.25000000       0.00000000 </v>
   <v>       0.38461538       0.25000000       0.00000000 </v>
   <v>       0.46153846       0.25000000       0.00000000 </v>
   <v>      -0.46153846       0.25000000       0.00000000 </v>
   <v>      -0.38461538       0.25000000       0.00000000 </v>
   <v>      -0.30769231       0.25000000       0.00000000 </v>
   <v>      -0.23076923       0.25000000       0.00000000 </v>
   <v>      -0.15384615       0.25000000       0.00000000 </v>
   <v>      -0.07692308       0.25000000       0.00000000 </v>
   <v>       0.00000000       0.50000000       0.00000000 </v>
   <v>       0.07692308       0.50000000       0.00000000 </v>
   <v>       0.15384615       0.50000000       0.00000000 </v>
   <v>       0.23076923       0.50000000       0.00000000 </v>
   <v>       0.30769231       0.50000000       0.00000000 </v>
   <v>       0.38461538       0.50000000       0.00000000 </v>
   <v>       0.46153846       0.50000000       0.00000000 </v>
   <v>       0.00000000       0.00000000       0.50000000 </v>
   <v>       0.07692308      -0.00000000       0.50000000 </v>
   <v>       0.15384615      -0.00000000       0.50000000 </v>
   <v>       0.23076923      -0.00000000       0.50000000 </v>
   <v>       0.30769231      -0.00000000       0.50000000 </v>
   <v>       0.38461538      -0.00000000       0.50000000 </v>
   <v>       0.46153846      -0.00000000       0.50000000 </v>
   <v>       0.00000000       0.25000000       0.50000000 </v>
   <v>       0.07692308       0.25000000       0.50000000 </v>
   <v>       0.15384615       0.25000000       0.50000000 </v>
   <v>       0.23076923       0.25000000       0.50000000 </v>
   <v>       0.30769231       0.25000000       0.50000000 </v>
   <v>       0.38461538       0.25000000       0.50000000 </v>
   <v>       0.46153846       0.25000000       0.50000000 </v>
   <v>      -0.46153846       0.25000000       0.50000000 </v>
   <v>      -0.38461538       0.25000000       0.50000000 </v>
   <v>      -0.30769231       0.25000000       0.50000000 </v>
   <v>      -0.23076923       0.25000000       0.50000000 </v>
   <v>      -0.15384615       0.25000000       0.50000000 </v>
   <v>      -0.07692308       0.25000000       0.50000000 </v>
   <v>       0.00000000       0.50000000       0.50000000 </v>
   <v>       0.07692308       0.50000000       0.50000000 </v>
   <v>       0.15384615       0.50000000       0.50000000 </v>
   <v>       0.23076923       0.50000000       0.50000000 </v>
   <v>       0.30769231       0.50000000       0.50000000 </v>
   <v>       0.38461538       0.50000000       0.50000000 </v>
   <v>       0.46153846       0.50000000       0.50000000 </v>
  </varray>
  <varray name="weights" >
   <v>       0.00961538 </v>
   <v>       0.01923077 </v>
   <v>       0.01923077 </v>
   <v>       0.01923077 </v>
   <v>       0.01923077 </v>
   <v>       0.01923077 </v>
   <v>       0.01923077 </v>
   <v>       0.01923077 </v>
   <v>       0.01923077 </v>
   <v>       0.01923077 </v>
   <v>       0.01923077 </v>
   <v>       0.01923077 </v>
   <v>       0.01923077 </v>
   <v>       0.01923077 </v>
   <v>       0.01923077 </v>
   <v>       0.01923077 </v>
   <v>       0.01923077 </v>
   <v>       0.01923077 </v>
   <v>       0.01923077 </v>
   <v>       0.01923077 </v>
   <v>       0.00961538 </v>
   <v>       0.01923077 </v>
   <v>       0.01923077 </v>
   <v>       0.01923077 </v>
   <v>       0.01923077 </v>
   <v>       0.01923077 </v>
   <v>       0.01923077 </v>
   <v>       0.00961538 </v>
   <v>       0.01923077 </v>
   <v>       0.01923077 </v>
   <v>       0.01923077 </v>
   <v>       0.01923077 </v>
   <v>       0.01923077 </v>
   <v>       0.01923077 </v>
   <v>       0.01923077 </v>
   <v>       0.01923077 </v>
   <v>       0.01923077 </v>
   <v>       0.01923077 </v>
   <v>       0.01923077 </v>
   <v>       0.01923077 </v>
   <v>       0.01923077 </v>
   <v>       0.01923077 </v>
   <v>       0.01923077 </v>
   <v>       0.01923077 </v>
   <v>       0.01923077 </v>
   <v>       0.01923077 </v>
   <v>       0.01923077 </v>
   <v>       0.00961538 </v>
   <v>       0.01923077 </v>
   <v>       0.01923077 </v>
   <v>       0.01923077 </v>
   <v>       0.01923077 </v>
   <v>       0.01923077 </v>
   <v>       0.01923077 </v>
  </varray>
 </kpoints>
 <parameters>
  <separator name="general" >
   <i type="string" name="SYSTEM">unknown system</i>
   <i type="logical" name="LCOMPAT"> F  </i>
  </separator>
  <separator name="electronic" >
   <i type="string" name="PREC">accura</i>
   <i name="ENMAX">    300.00000000</i>
   <i name="ENAUG">    342.92400000</i>
   <i name="EDIFF">      0.00000100</i>
   <i type="int" name="IALGO">    38</i>
   <i type="int" name="IWAVPR">    10</i>
   <i type="int" name="NBANDS">    68</i>
   <i name="NELECT">    108.00000000</i>
   <i type="int" name="TURBO">     0</i>
   <i type="int" name="IRESTART">     0</i>
   <i type="int" name="NREBOOT">     0</i>
   <i type="int" name="NMIN">     0</i>
   <i name="EREF">      0.00000000</i>
   <separator name="electronic smearing" >
    <i type="int" name="ISMEAR">     0</i>
    <i name="SIGMA">      0.10000000</i>
    <i name="KSPACING">      0.50000000</i>
    <i type="logical" name="KGAMMA"> T  </i>
   </separator>
   <separator name="electronic projectors" >
    <i type="logical" name="LREAL"> T  </i>
    <v name="ROPT">     -0.00025000     -0.00025000</v>
    <i type="int" name="LMAXPAW">  -100</i>
    <i type="int" name="LMAXMIX">     2</i>
    <i type="logical" name="NLSPLINE"> F  </i>
   </separator>
   <separator name="electronic startup" >
    <i type="int" name="ISTART">     0</i>
    <i type="int" name="ICHARG">     2</i>
    <i type="int" name="INIWAV">     1</i>
   </separator>
   <separator name="electronic spin" >
    <i type="int" name="ISPIN">     1</i>
    <i type="logical" name="LNONCOLLINEAR"> F  </i>
    <v name="MAGMOM">      1.00000000      1.00000000      1.00000000      1.00000000      1.00000000      1.00000000      1.00000000      1.00000000      1.00000000      1.00000000      1.00000000      1.00000000      1.00000000      1.00000000      1.00000000      1.00000000      1.00000000      1.00000000      1.00000000      1.00000000
      1.00000000      1.00000000      1.00000000      1.00000000</v>
    <i name="NUPDOWN">     -1.00000000</i>
    <i type="logical" name="LSORBIT"> F  </i>
    <v name="SAXIS">      0.00000000      0.00000000      1.00000000</v>
    <i type="logical" name="LSPIRAL"> F  </i>
    <v name="QSPIRAL">      0.00000000      0.00000000      0.00000000</v>
    <i type="logical" name="LZEROZ"> F  </i>
   </separator>
   <separator name="electronic exchange-correlation" >
    <i type="logical" name="LASPH"> F  </i>
    <i type="logical" name="LMETAGGA"> F  </i>
   </separator>
   <separator name="electronic convergence" >
    <i type="int" name="NELM">    60</i>
    <i type="int" name="NELMDL">    -5</i>
    <i type="int" name="NELMIN">     2</i>
    <i name="ENINI">    300.00000000</i>
    <separator name="electronic convergence detail" >
     <i type="logical" name="LDIAG"> T  </i>
     <i type="logical" name="LSUBROT"> F  </i>
     <i name="WEIMIN">      0.00000000</i>
     <i name="EBREAK">      0.00000000</i>
     <i name="DEPER">      0.30000000</i>
     <i type="int" name="NRMM">     4</i>
     <i name="TIME">      0.40000000</i>
    </separator>
   </separator>
   <separator name="electronic mixer" >
    <i name="AMIX">      0.40000000</i>
    <i name="BMIX">      1.00000000</i>
    <i name="AMIN">      0.10000000</i>
    <i name="AMIX_MAG">      1.60000000</i>
    <i name="BMIX_MAG">      1.00000000</i>
    <separator name="electronic mixer details" >
     <i type="int" name="IMIX">     4</i>
     <i type="int" name="MAXMIX">   -45</i>
     <i name="WC">    100.00000000</i>
     <i type="int" name="INIMIX">     1</i>
     <i type="int" name="MIXPRE">     1</i>
     <i type="int" name="MREMOVE">     5</i>
    </separator>
   </separator>
   <separator name="electronic dipolcorrection" >
    <i type="logical" name="LDIPOL"> F  </i>
    <i type="logical" name="LMONO"> F  </i>
    <i type="int" name="IDIPOL">     0</i>
    <i name="EPSILON">      1.00000000</i>
    <v name="DIPOL">   -100.00000000   -100.00000000   -100.00000000</v>
    <i name="EFIELD">      0.00000000</i>
   </separator>
  </separator>
  <separator name="grids" >
   <i type="int" name="NGX">    20</i>
   <i type="int" name="NGY">    60</i>
   <i type="int" name="NGZ">   160</i>
   <i type="int" name="NGXF">    40</i>
   <i type="int" name="NGYF">   120</i>
   <i type="int" name="NGZF">   320</i>
   <i type="logical" name="ADDGRID"> F  </i>
  </separator>
  <separator name="ionic" >
   <i type="int" name="NSW">     0</i>
   <i type="int" name="IBRION">    -1</i>
   <i type="int" name="ISIF">     3</i>
   <i name="PSTRESS">      0.00000000</i>
   <i name="EDIFFG">      0.00001000</i>
   <i type="int" name="NFREE">     1</i>
   <i name="POTIM">      0.50000000</i>
   <i name="SMASS">     -3.00000000</i>
   <i name="SCALEE">      1.00000000</i>
  </separator>
  <separator name="ionic md" >
   <i name="TEBEG">      0.00010000</i>
   <i name="TEEND">      0.00010000</i>
   <i type="int" name="NBLOCK">     1</i>
   <i type="int" name="KBLOCK">     1</i>
   <i type="int" name="NPACO">   256</i>
   <i name="APACO">     16.00000000</i>
  </separator>
  <separator name="symmetry" >
   <i type="int" name="ISYM">     2</i>
   <i name="SYMPREC">      0.00001000</i>
  </separator>
  <separator name="dos" >
   <i type="logical" name="LORBIT"> F  </i>
   <v name="RWIGS">     -1.00000000     -1.00000000</v>
   <i type="int" name="NEDOS">   301</i>
   <i name="EMIN">     10.00000000</i>
   <i name="EMAX">    -10.00000000</i>
   <i name="EFERMI">      0.00000000</i>
  </separator>
  <separator name="writing" >
   <i type="int" name="NWRITE">     2</i>
   <i type="logical" name="LWAVE"> F  </i>
   <i type="logical" name="LCHARG"> F  </i>
   <i type="logical" name="LPARD"> F  </i>
   <i type="logical" name="LVTOT"> F  </i>
   <i type="logical" name="LVHAR"> F  </i>
   <i type="logical" name="LELF"> F  </i>
   <i type="logical" name="LOPTICS"> F  </i>
   <v name="STM">      0.00000000      0.00000000      0.00000000      0.00000000      0.00000000      0.00000000      0.00000000</v>
  </separator>
  <separator name="performance" >
   <i type="int" name="NPAR">     4</i>
   <i type="int" name="NSIM">     4</i>
   <i type="int" name="NBLK">    -1</i>
   <i type="logical" name="LPLANE"> T  </i>
   <i type="logical" name="LSCALAPACK"> T  </i>
   <i type="logical" name="LSCAAWARE"> F  </i>
   <i type="logical" name="LSCALU"> F  </i>
   <i type="logical" name="LASYNC"> F  </i>
   <i type="logical" name="LORBITALREAL"> F  </i>
  </separator>
  <separator name="miscellaneous" >
   <i type="int" name="IDIOT">     3</i>
   <i type="logical" name="LMUSIC"> F  </i>
   <v name="POMASS">     30.97400000     28.08500000</v>
   <v name="DARWINR">      0.00000000      0.00000000</v>
   <v name="DARWINV">      1.00000000      1.00000000</v>
   <i type="logical" name="LCORR"> T  </i>
  </separator>
  <i type="logical" name="GGA_COMPAT"> T  </i>
  <i type="logical" name="LBERRY"> F  </i>
  <i type="int" name="ICORELEVEL">     0</i>
  <i type="logical" name="LDAU"> F  </i>
  <i type="int" name="I_CONSTRAINED_M">     0</i>
  <separator name="electronic exchange-correlation" >
   <i type="string" name="GGA">BO</i>
   <i type="int" name="VOSKOWN">     0</i>
   <i type="logical" name="LHFCALC"> F  </i>
   <i type="string" name="PRECFOCK"></i>
   <i type="logical" name="LSYMGRAD"> F  </i>
   <i type="logical" name="LHFONE"> F  </i>
   <i type="logical" name="LRHFCALC"> F  </i>
   <i type="logical" name="LTHOMAS"> F  </i>
   <i type="logical" name="LMODELHF"> F  </i>
   <i name="ENCUT4O">     -1.00000000</i>
   <i type="int" name="EXXOEP">     0</i>
   <i type="int" name="FOURORBIT">     0</i>
   <i name="AEXX">      0.00000000</i>
   <i name="HFALPHA">      0.00000000</i>
   <i name="MCALPHA">      0.00000000</i>
   <i name="ALDAX">      1.00000000</i>
   <i name="AGGAX">      1.00000000</i>
   <i name="ALDAC">      1.00000000</i>
   <i name="AGGAC">      0.00000000</i>
   <i type="int" name="NKREDX">     1</i>
   <i type="int" name="NKREDY">     1</i>
   <i type="int" name="NKREDZ">     1</i>
   <i type="logical" name="SHIFTRED"> F  </i>
   <i type="logical" name="ODDONLY"> F  </i>
   <i type="logical" name="EVENONLY"> F  </i>
   <i type="int" name="LMAXFOCK">     0</i>
   <i type="int" name="NMAXFOCKAE">     0</i>
   <i type="logical" name="LFOCKAEDFT"> F  </i>
   <i name="HFSCREEN">      0.00000000</i>
   <i name="HFSCREENC">      0.00000000</i>
   <i type="int" name="NBANDSGWLOW">     0</i>
  </separator>
  <separator name="vdW DFT" >
   <i type="logical" name="LUSE_VDW"> T  </i>
   <i name="Zab_VDW">     -0.84910000</i>
   <i name="PARAM1">      0.18333333</i>
   <i name="PARAM2">      0.22000000</i>
   <i name="PARAM3">      0.00000000</i>
  </separator>
  <separator name="model GW" >
   <i type="int" name="MODEL_GW">     0</i>
   <i name="MODEL_EPS0">     25.05800243</i>
   <i name="MODEL_ALPHA">      1.00000000</i>
  </separator>
  <separator name="linear response parameters" >
   <i type="logical" name="LEPSILON"> F  </i>
   <i type="logical" name="LRPA"> F  </i>
   <i type="logical" name="LNABLA"> F  </i>
   <i type="logical" name="LVEL"> F  </i>
   <i type="int" name="KINTER">     0</i>
   <i name="CSHIFT">      0.10000000</i>
   <i name="OMEGAMAX">     -1.00000000</i>
   <i name="DEG_THRESHOLD">      0.00200000</i>
  </separator>
  <separator name="orbital magnetization" >
   <i type="logical" name="NUCIND"> F  </i>
   <v name="MAGPOS">      0.00000000      0.00000000      0.00000000</v>
   <i type="logical" name="LNICSALL"> T  </i>
   <i type="logical" name="ORBITALMAG"> F  </i>
   <i type="logical" name="LMAGBLOCH"> F  </i>
   <i type="logical" name="LCHIMAG"> F  </i>
   <i type="logical" name="LGAUGE"> T  </i>
   <i type="int" name="MAGATOM">     0</i>
   <v name="MAGDIPOL">      0.00000000      0.00000000      0.00000000</v>
   <v name="AVECCONST">      0.00000000      0.00000000      0.00000000</v>
  </separator>
  <separator name="response functions" >
   <i type="logical" name="LADDER"> F  </i>
   <i type="logical" name="LFXC"> F  </i>
   <i type="logical" name="LHARTREE"> T  </i>
   <i type="int" name="IBSE">     0</i>
   <i type="logical" name="LTCTE"> F  </i>
   <i type="logical" name="LTETE"> F  </i>
   <i type="logical" name="LTRIPLET"> F  </i>
   <i type="logical" name="LFXCEPS"> F  </i>
   <i type="logical" name="LFXHEG"> F  </i>
   <i type="logical" name="L2ORDER"> F  </i>
   <i type="logical" name="LUSEW"> F  </i>
   <i name="ENCUTGW">     -2.00000000</i>
   <i name="ENCUTGWSOFT">     -2.00000000</i>
   <i name="ENCUTLF">     -1.00000000</i>
   <i type="int" name="LMAXMP2">    -1</i>
   <i name="SCISSOR">      0.00000000</i>
   <i type="int" name="NOMEGA">     0</i>
   <i type="int" name="NOMEGAR">     0</i>
   <i type="int" name="NBANDSGW">    -1</i>
   <i type="int" name="NBANDSO">    -1</i>
   <i type="int" name="NBANDSV">    -1</i>
   <i type="int" name="NELM">     1</i>
   <i type="int" name="DIM">     3</i>
   <i type="int" name="ANTIRES">     0</i>
   <i name="OMEGAMAX">    -30.00000000</i>
   <i name="OMEGAMIN">    -30.00000000</i>
   <i name="OMEGATL">   -200.00000000</i>
   <i type="int" name="OMEGAGRID">     0</i>
   <i name="CSHIFT">     -0.10000000</i>
   <i type="logical" name="SELFENERGY"> F  </i>
   <i type="logical" name="LSPECTRAL"> F  </i>
   <i type="logical" name="ODDONLYGW"> F  </i>
   <i type="logical" name="EVENONLYGW"> F  </i>
   <i type="int" name="NKREDLFX">     1</i>
   <i type="int" name="NKREDLFY">     1</i>
   <i type="int" name="NKREDLFZ">     1</i>
   <i type="int" name="MAXMEM">  1800</i>
   <i type="int" name="TELESCOPE">     0</i>
   <i type="int" name="TAUPAR">     1</i>
  </separator>
  <separator name="External order field" >
   <i name="OFIELD_KAPPA">      0.00000000</i>
   <v name="OFIELD_K">      0.00000000      0.00000000      0.00000000</v>
   <i name="OFIELD_Q6_NEAR">      0.00000000</i>
   <i name="OFIELD_Q6_FAR">      0.00000000</i>
   <i name="OFIELD_A">      0.00000000</i>
  </separator>
 </parameters>
 <atominfo>
  <atoms>      24 </atoms>
  <types>       2 </types>
  <array name="atoms" >
   <dimension dim="1">ion</dimension>
   <field type="string">element</field>
   <field type="int">atomtype</field>
   <set>
    <rc><c>P </c><c>   1</c></rc>
    <rc><c>P </c><c>   1</c></rc>
    <rc><c>P </c><c>   1</c></rc>
    <rc><c>P </c><c>   1</c></rc>
    <rc><c>P </c><c>   1</c></rc>
    <rc><c>P </c><c>   1</c></rc>
    <rc><c>P </c><c>   1</c></rc>
    <rc><c>P </c><c>   1</c></rc>
    <rc><c>P </c><c>   1</c></rc>
    <rc><c>P </c><c>   1</c></rc>
    <rc><c>P </c><c>   1</c></rc>
    <rc><c>P </c><c>   1</c></rc>
    <rc><c>Si</c><c>   2</c></rc>
    <rc><c>Si</c><c>   2</c></rc>
    <rc><c>Si</c><c>   2</c></rc>
    <rc><c>Si</c><c>   2</c></rc>
    <rc><c>Si</c><c>   2</c></rc>
    <rc><c>Si</c><c>   2</c></rc>
    <rc><c>Si</c><c>   2</c></rc>
    <rc><c>Si</c><c>   2</c></rc>
    <rc><c>Si</c><c>   2</c></rc>
    <rc><c>Si</c><c>   2</c></rc>
    <rc><c>Si</c><c>   2</c></rc>
    <rc><c>Si</c><c>   2</c></rc>
   </set>
  </array>
  <array name="atomtypes" >
   <dimension dim="1">type</dimension>
   <field type="int">atomspertype</field>
   <field type="string">element</field>
   <field>mass</field>
   <field>valence</field>
   <field type="string">pseudopotential</field>
   <set>
    <rc><c>  12</c><c>P </c><c>     30.97400000</c><c>      5.00000000</c><c>  PAW_PBE P 17Jan2003                   </c></rc>
    <rc><c>  12</c><c>Si</c><c>     28.08500000</c><c>      4.00000000</c><c> PAW_PBE Si 05Jan2001                   </c></rc>
   </set>
  </array>
 </atominfo>
 <structure name="initialpos" >
  <crystal>
   <varray name="basis" >
    <v>       3.54040000       0.00000000       0.00000000 </v>
    <v>      -1.77020000      10.29434800       0.00000000 </v>
    <v>       0.00000000       0.00000000      27.50142900 </v>
   </varray>
   <i name="volume">   1002.32009712 </i>
   <varray name="rec_basis" >
    <v>       0.28245396       0.04857034       0.00000000 </v>
    <v>       0.00000000       0.09714068       0.00000000 </v>
    <v>       0.00000000       0.00000000       0.03636175 </v>
   </varray>
  </crystal>
  <varray name="positions" >
   <v>       0.11402300       0.22804500       0.23316207 </v>
   <v>       0.11402300       0.52804500       0.51499159 </v>
   <v>       0.45808900       0.91617900       0.20939482 </v>
   <v>       0.45808900       0.21617900       0.49122434 </v>
   <v>       0.31085400       0.62170900       0.08414979 </v>
   <v>       0.31085400       0.62170900       0.36597930 </v>
   <v>       0.99923000       0.99846000       0.08631254 </v>
   <v>       0.99923000       0.99846000       0.36814206 </v>
   <v>       0.65492700       0.30985400       0.06041748 </v>
   <v>       0.65492700       0.30985400       0.34224700 </v>
   <v>       0.76973800       0.53947500       0.20725292 </v>
   <v>       0.76973800       0.83947500       0.48908244 </v>
   <v>       0.93971600       0.87943300       0.15783749 </v>
   <v>       0.93971600       0.17943300       0.43966701 </v>
   <v>       0.20515200       0.41030300       0.18578822 </v>
   <v>       0.20515200       0.71030300       0.46761774 </v>
   <v>       0.20184900       0.40369900       0.09969156 </v>
   <v>       0.20184900       0.40369900       0.38152107 </v>
   <v>       0.56380500       0.12761000       0.10779021 </v>
   <v>       0.56380500       0.12761000       0.38961973 </v>
   <v>       0.56710600       0.13421200       0.19387616 </v>
   <v>       0.56710600       0.43421200       0.47570568 </v>
   <v>       0.82923400       0.65846800       0.13571444 </v>
   <v>       0.82923400       0.95846800       0.41754396 </v>
  </varray>
 </structure>
 <calculation>
  <scstep>
   <time name="dav">   85.34   85.37</time>
   <time name="total">  107.05  107.08</time>
   <energy>
    <i name="alphaZ">     36.80884744 </i>
    <i name="ewald">  11988.66978024 </i>
    <i name="hartreedc"> -15013.98123831 </i>
    <i name="XCdc">    -87.24697436 </i>
    <i name="pawpsdc">   1056.43050070 </i>
    <i name="pawaedc">   -732.41190547 </i>
    <i name="eentropy">     -0.04331054 </i>
    <i name="bandstr">    -95.69901141 </i>
    <i name="atom">   3354.04126044 </i>
    <i name="e_fr_energy">    506.56794874 </i>
    <i name="e_wo_entrp">    506.61125928 </i>
    <i name="e_0_energy">    506.58960401 </i>
   </energy>
  </scstep>
  <scstep>
   <time name="dav">  103.20  103.22</time>
   <time name="total">  103.21  103.24</time>
   <energy>
    <i name="e_fr_energy">    -58.82146325 </i>
    <i name="e_wo_entrp">    -58.79224749 </i>
    <i name="e_0_energy">    -58.80685537 </i>
   </energy>
  </scstep>
  <scstep>
   <time name="dav">  126.63  126.66</time>
   <time name="total">  126.64  126.68</time>
   <energy>
    <i name="e_fr_energy">   -116.73327009 </i>
    <i name="e_wo_entrp">   -116.70981112 </i>
    <i name="e_0_energy">   -116.72154060 </i>
   </energy>
  </scstep>
  <scstep>
   <time name="dav">  117.48  117.50</time>
   <time name="total">  117.49  117.52</time>
   <energy>
    <i name="e_fr_energy">   -119.49043342 </i>
    <i name="e_wo_entrp">   -119.46591458 </i>
    <i name="e_0_energy">   -119.47817400 </i>
   </energy>
  </scstep>
  <scstep>
   <time name="dav">  108.83  108.86</time>
   <time name="total">  114.77  114.80</time>
   <energy>
    <i name="e_fr_energy">   -119.54103853 </i>
    <i name="e_wo_entrp">   -119.51647900 </i>
    <i name="e_0_energy">   -119.52875877 </i>
   </energy>
  </scstep>
  <scstep>
   <time name="dav">  120.33  120.36</time>
   <time name="total">  142.91  142.96</time>
   <energy>
    <i name="e_fr_energy">   -115.00121572 </i>
    <i name="e_wo_entrp">   -114.96989158 </i>
    <i name="e_0_energy">   -114.98555365 </i>
   </energy>
  </scstep>
  <scstep>
   <time name="dav">   99.83   99.85</time>
   <time name="total">  120.31  120.34</time>
   <energy>
    <i name="e_fr_energy">   -114.81417556 </i>
    <i name="e_wo_entrp">   -114.79110877 </i>
    <i name="e_0_energy">   -114.80264216 </i>
   </energy>
  </scstep>
  <scstep>
   <time name="dav">   99.43   99.45</time>
   <time name="total">  119.85  119.88</time>
   <energy>
    <i name="e_fr_energy">   -114.81424304 </i>
    <i name="e_wo_entrp">   -114.78762527 </i>
    <i name="e_0_energy">   -114.80093415 </i>
   </energy>
  </scstep>
  <scstep>
   <time name="dav">  102.14  102.17</time>
   <time name="total">  122.39  122.42</time>
   <energy>
    <i name="e_fr_energy">   -114.78762166 </i>
    <i name="e_wo_entrp">   -114.75899142 </i>
    <i name="e_0_energy">   -114.77330654 </i>
   </energy>
  </scstep>
  <scstep>
   <time name="dav">   89.85   89.87</time>
   <time name="total">  110.76  110.78</time>
   <energy>
    <i name="e_fr_energy">   -114.78991346 </i>
    <i name="e_wo_entrp">   -114.76166208 </i>
    <i name="e_0_energy">   -114.77578777 </i>
   </energy>
  </scstep>
  <scstep>
   <time name="dav">   87.06   87.08</time>
   <time name="total">  106.53  106.55</time>
   <energy>
    <i name="e_fr_energy">   -114.78514929 </i>
    <i name="e_wo_entrp">   -114.75714439 </i>
    <i name="e_0_energy">   -114.77114684 </i>
   </energy>
  </scstep>
  <scstep>
   <time name="dav">   83.45   83.47</time>
   <time name="total">  103.18  103.20</time>
   <energy>
    <i name="e_fr_energy">   -114.77857331 </i>
    <i name="e_wo_entrp">   -114.75059616 </i>
    <i name="e_0_energy">   -114.76458473 </i>
   </energy>
  </scstep>
  <scstep>
   <time name="dav">   82.33   82.34</time>
   <time name="total">  103.09  103.12</time>
   <energy>
    <i name="e_fr_energy">   -114.77446461 </i>
    <i name="e_wo_entrp">   -114.74645392 </i>
    <i name="e_0_energy">   -114.76045926 </i>
   </energy>
  </scstep>
  <scstep>
   <time name="dav">   84.47   84.49</time>
   <time name="total">  104.21  104.23</time>
   <energy>
    <i name="e_fr_energy">   -114.77211515 </i>
    <i name="e_wo_entrp">   -114.74410439 </i>
    <i name="e_0_energy">   -114.75810977 </i>
   </energy>
  </scstep>
  <scstep>
   <time name="dav">   83.16   83.18</time>
   <time name="total">  104.21  104.24</time>
   <energy>
    <i name="e_fr_energy">   -114.77117198 </i>
    <i name="e_wo_entrp">   -114.74314819 </i>
    <i name="e_0_energy">   -114.75716008 </i>
   </energy>
  </scstep>
  <scstep>
   <time name="dav">   77.59   77.60</time>
   <time name="total">   97.31   97.33</time>
   <energy>
    <i name="e_fr_energy">   -114.77100246 </i>
    <i name="e_wo_entrp">   -114.74298184 </i>
    <i name="e_0_energy">   -114.75699215 </i>
   </energy>
  </scstep>
  <scstep>
   <time name="dav">   80.46   80.48</time>
   <time name="total">  101.24  101.28</time>
   <energy>
    <i name="e_fr_energy">   -114.77140031 </i>
    <i name="e_wo_entrp">   -114.74338226 </i>
    <i name="e_0_energy">   -114.75739129 </i>
   </energy>
  </scstep>
  <scstep>
   <time name="dav">   96.50   96.52</time>
   <time name="total">  117.46  117.49</time>
   <energy>
    <i name="e_fr_energy">   -114.77170585 </i>
    <i name="e_wo_entrp">   -114.74368649 </i>
    <i name="e_0_energy">   -114.75769617 </i>
   </energy>
  </scstep>
  <scstep>
   <time name="dav">   87.16   87.18</time>
   <time name="total">  107.25  107.28</time>
   <energy>
    <i name="e_fr_energy">   -114.77187479 </i>
    <i name="e_wo_entrp">   -114.74385633 </i>
    <i name="e_0_energy">   -114.75786556 </i>
   </energy>
  </scstep>
  <scstep>
   <time name="dav">   79.60   79.62</time>
   <time name="total">  100.11  100.14</time>
   <energy>
    <i name="e_fr_energy">   -114.77189606 </i>
    <i name="e_wo_entrp">   -114.74387719 </i>
    <i name="e_0_energy">   -114.75788663 </i>
   </energy>
  </scstep>
  <scstep>
   <time name="dav">   84.01   84.03</time>
   <time name="total">  107.23  107.25</time>
   <energy>
    <i name="e_fr_energy">   -114.77188961 </i>
    <i name="e_wo_entrp">   -114.74386944 </i>
    <i name="e_0_energy">   -114.75787952 </i>
   </energy>
  </scstep>
  <scstep>
   <time name="dav">   67.33   67.34</time>
   <time name="total">   90.28   90.30</time>
   <energy>
    <i name="e_fr_energy">   -114.77186776 </i>
    <i name="e_wo_entrp">   -114.74384793 </i>
    <i name="e_0_energy">   -114.75785785 </i>
   </energy>
  </scstep>
  <scstep>
   <time name="dav">   67.20   67.22</time>
   <time name="total">   88.73   88.75</time>
   <energy>
    <i name="e_fr_energy">   -114.77179019 </i>
    <i name="e_wo_entrp">   -114.74377053 </i>
    <i name="e_0_energy">   -114.75778036 </i>
   </energy>
  </scstep>
  <scstep>
   <time name="dav">   63.18   63.20</time>
   <time name="total">   84.26   84.28</time>
   <energy>
    <i name="e_fr_energy">   -114.77177170 </i>
    <i name="e_wo_entrp">   -114.74375191 </i>
    <i name="e_0_energy">   -114.75776181 </i>
   </energy>
  </scstep>
  <scstep>
   <time name="dav">   67.72   67.73</time>
   <time name="total">   87.53   87.55</time>
   <energy>
    <i name="e_fr_energy">   -114.77176122 </i>
    <i name="e_wo_entrp">   -114.74374140 </i>
    <i name="e_0_energy">   -114.75775131 </i>
   </energy>
  </scstep>
  <scstep>
   <time name="dav">   62.34   62.35</time>
   <time name="total">   77.51   77.52</time>
   <energy>
    <i name="alphaZ">     36.80884744 </i>
    <i name="ewald">  11988.66978024 </i>
    <i name="hartreedc"> -15118.28176269 </i>
    <i name="XCdc">    -79.18098261 </i>
    <i name="pawpsdc">   1189.19902961 </i>
    <i name="pawaedc">   -868.95450910 </i>
    <i name="eentropy">     -0.02801976 </i>
    <i name="bandstr">   -617.04540427 </i>
    <i name="atom">   3354.04126044 </i>
    <i name="e_fr_energy">   -114.77176068 </i>
    <i name="e_wo_entrp">   -114.74374092 </i>
    <i name="e_0_energy">   -114.75775080 </i>
   </energy>
  </scstep>
  <structure>
   <crystal>
    <varray name="basis" >
     <v>       3.54040000       0.00000000       0.00000000 </v>
     <v>      -1.77020000      10.29434800       0.00000000 </v>
     <v>       0.00000000       0.00000000      27.50142900 </v>
    </varray>
    <i name="volume">   1002.32009712 </i>
    <varray name="rec_basis" >
     <v>       0.28245396       0.04857034       0.00000000 </v>
     <v>       0.00000000       0.09714068       0.00000000 </v>
     <v>       0.00000000       0.00000000       0.03636175 </v>
    </varray>
   </crystal>
   <varray name="positions" >
    <v>       0.11402300       0.22804500       0.23316207 </v>
    <v>       0.11402300       0.52804500       0.51499159 </v>
    <v>       0.45808900       0.91617900       0.20939482 </v>
    <v>       0.45808900       0.21617900       0.49122434 </v>
    <v>       0.31085400       0.62170900       0.08414979 </v>
    <v>       0.31085400       0.62170900       0.36597930 </v>
    <v>       0.99923000       0.99846000       0.08631254 </v>
    <v>       0.99923000       0.99846000       0.36814206 </v>
    <v>       0.65492700       0.30985400       0.06041748 </v>
    <v>       0.65492700       0.30985400       0.34224700 </v>
    <v>       0.76973800       0.53947500       0.20725292 </v>
    <v>       0.76973800       0.83947500       0.48908244 </v>
    <v>       0.93971600       0.87943300       0.15783749 </v>
    <v>       0.93971600       0.17943300       0.43966701 </v>
    <v>       0.20515200       0.41030300       0.18578822 </v>
    <v>       0.20515200       0.71030300       0.46761774 </v>
    <v>       0.20184900       0.40369900       0.09969156 </v>
    <v>       0.20184900       0.40369900       0.38152107 </v>
    <v>       0.56380500       0.12761000       0.10779021 </v>
    <v>       0.56380500       0.12761000       0.38961973 </v>
    <v>       0.56710600       0.13421200       0.19387616 </v>
    <v>       0.56710600       0.43421200       0.47570568 </v>
    <v>       0.82923400       0.65846800       0.13571444 </v>
    <v>       0.82923400       0.95846800       0.41754396 </v>
   </varray>
  </structure>
  <varray name="forces" >
   <v>      -0.00089779      -0.01306335       0.01229812 </v>
   <v>      -0.04057762       0.07972739       0.07428917 </v>
   <v>       0.00116109      -0.01704126       0.08198592 </v>
   <v>       0.08976983       0.16244978       0.81654918 </v>
   <v>      -0.00084025      -0.00306418       0.00391796 </v>
   <v>      -0.49601463       0.28309599       1.22166561 </v>
   <v>      -0.00192565       0.00463962       0.00467065 </v>
   <v>      14.75246809       8.99138134     -37.64114242 </v>
   <v>       0.00102910      -0.00059199       0.01318737 </v>
   <v>      -0.47701320       0.43787359      -0.80658404 </v>
   <v>       0.00052361       0.00412994       0.09809323 </v>
   <v>       0.27632431       0.05397447      -0.47504008 </v>
   <v>       0.00244733      -0.00401965       0.01418892 </v>
   <v>       4.27170324       3.32714068       7.30516727 </v>
   <v>      -0.00278849       0.01689939       0.04978119 </v>
   <v>       0.23789953      -0.58693437      -1.35459757 </v>
   <v>      -0.00026079       0.00152428      -0.01960444 </v>
   <v>       0.45522837       0.82362472       0.34070865 </v>
   <v>      -0.00435846      -0.00636058      -0.03297430 </v>
   <v>      -4.34495897      -0.64316290      -6.30901375 </v>
   <v>       0.00092082      -0.02212466       0.02144754 </v>
   <v>      -0.64096252      -0.34520780      -0.47775184 </v>
   <v>       0.00141155       0.00539127      -0.00027844 </v>
   <v>     -14.08028852     -12.55028173      37.05903611 </v>
  </varray>
  <varray name="stress" >
   <v>      23.63354552       7.68107428     -20.62951983 </v>
   <v>       7.68107433      17.05404963     -19.73407495 </v>
   <v>     -20.62952000     -19.73407501      89.24008631 </v>
  </varray>
  <energy>
   <i name="e_fr_energy">   -114.77176068 </i>
   <i name="e_wo_entrp">   -114.75775080 </i>
   <i name="e_0_energy">     -0.02801976 </i>
  </energy>
  <time name="totalsc"> 2894.43 2895.14</time>
  <eigenvalues>
   <array>
    <dimension dim="1">band</dimension>
    <dimension dim="2">kpoint</dimension>
    <dimension dim="3">spin</dimension>
    <field>eigene</field>
    <field>occ</field>
    <set>
     <set comment="spin 1">
      <set comment="kpoint 1">
       <r>  -15.3892    1.0000 </r>
       <r>  -13.5458    1.0000 </r>
       <r>  -12.9419    1.0000 </r>
       <r>  -12.8057    1.0000 </r>
       <r>  -12.5711    1.0000 </r>
       <r>  -12.4836    1.0000 </r>
       <r>  -12.0998    1.0000 </r>
       <r>  -11.9655    1.0000 </r>
       <r>  -11.4541    1.0000 </r>
       <r>  -11.4374    1.0000 </r>
       <r>  -10.9952    1.0000 </r>
       <r>   -9.8982    1.0000 </r>
       <r>   -8.9495    1.0000 </r>
       <r>   -8.0383    1.0000 </r>
       <r>   -7.8347    1.0000 </r>
       <r>   -7.4554    1.0000 </r>
       <r>   -6.8635    1.0000 </r>
       <r>   -6.7164    1.0000 </r>
       <r>   -6.4950    1.0000 </r>
       <r>   -6.2522    1.0000 </r>
       <r>   -5.8277    1.0000 </r>
       <r>   -5.4197    1.0000 </r>
       <r>   -4.9981    1.0000 </r>
       <r>   -4.7409    1.0000 </r>
       <r>   -4.6364    1.0000 </r>
       <r>   -3.9214    1.0000 </r>
       <r>   -3.8284    1.0000 </r>
       <r>   -3.6912    1.0000 </r>
       <r>   -3.4177    1.0000 </r>
       <r>   -3.1327    1.0000 </r>
       <r>   -3.0614    1.0000 </r>
       <r>   -2.9693    1.0000 </r>
       <r>   -2.8482    1.0000 </r>
       <r>   -2.8015    1.0000 </r>
       <r>   -2.5562    1.0000 </r>
       <r>   -2.4608    1.0000 </r>
       <r>   -2.3984    1.0000 </r>
       <r>   -2.3763    1.0000 </r>
       <r>   -2.1570    1.0000 </r>
       <r>   -2.1019    1.0000 </r>
       <r>   -1.9457    1.0000 </r>
       <r>   -1.8281    1.0000 </r>
       <r>   -1.7326    1.0000 </r>
       <r>   -1.6616    1.0000 </r>
       <r>   -1.6477    1.0000 </r>
       <r>   -1.5980    1.0000 </r>
       <r>   -1.4703    1.0000 </r>
       <r>   -1.4371    1.0000 </r>
       <r>   -1.2946    1.0000 </r>
       <r>   -1.1676    1.0000 </r>
       <r>   -1.0223    1.0000 </r>
       <r>   -0.8118    1.0000 </r>
       <r>   -0.5496    1.0000 </r>
       <r>    0.0059    0.8179 </r>
       <r>    0.6133    0.0000 </r>
       <r>    1.1558    0.0000 </r>
       <r>    1.2056    0.0000 </r>
       <r>    1.3184    0.0000 </r>
       <r>    1.4721    0.0000 </r>
       <r>    1.6482    0.0000 </r>
       <r>    1.7102    0.0000 </r>
       <r>    1.9670    0.0000 </r>
       <r>    1.9775    0.0000 </r>
       <r>    2.0471    0.0000 </r>
       <r>    2.1633    0.0000 </r>
       <r>    2.4148    0.0000 </r>
       <r>    2.4444    0.0000 </r>
       <r>    2.6598    0.0000 </r>
      </set>
      <set comment="kpoint 2">
       <r>  -15.3387    1.0000 </r>
       <r>  -13.4844    1.0000 </r>
       <r>  -12.8893    1.0000 </r>
       <r>  -12.7535    1.0000 </r>
       <r>  -12.5133    1.0000 </r>
       <r>  -12.4279    1.0000 </r>
       <r>  -12.0381    1.0000 </r>
       <r>  -11.9119    1.0000 </r>
       <r>  -11.4041    1.0000 </r>
       <r>  -11.3885    1.0000 </r>
       <r>  -10.9468    1.0000 </r>
       <r>   -9.8695    1.0000 </r>
       <r>   -8.9337    1.0000 </r>
       <r>   -8.0753    1.0000 </r>
       <r>   -7.7976    1.0000 </r>
       <r>   -7.4414    1.0000 </r>
       <r>   -6.8314    1.0000 </r>
       <r>   -6.6941    1.0000 </r>
       <r>   -6.4892    1.0000 </r>
       <r>   -6.2507    1.0000 </r>
       <r>   -5.7942    1.0000 </r>
       <r>   -5.4768    1.0000 </r>
       <r>   -5.2310    1.0000 </r>
       <r>   -4.8048    1.0000 </r>
       <r>   -4.7041    1.0000 </r>
       <r>   -3.9491    1.0000 </r>
       <r>   -3.8134    1.0000 </r>
       <r>   -3.7079    1.0000 </r>
       <r>   -3.5709    1.0000 </r>
       <r>   -3.4072    1.0000 </r>
       <r>   -3.3029    1.0000 </r>
       <r>   -3.2420    1.0000 </r>
       <r>   -3.0923    1.0000 </r>
       <r>   -2.9558    1.0000 </r>
       <r>   -2.7555    1.0000 </r>
       <r>   -2.7053    1.0000 </r>
       <r>   -2.4863    1.0000 </r>
       <r>   -2.4686    1.0000 </r>
       <r>   -2.3573    1.0000 </r>
       <r>   -2.1997    1.0000 </r>
       <r>   -2.1391    1.0000 </r>
       <r>   -2.0738    1.0000 </r>
       <r>   -1.9695    1.0000 </r>
       <r>   -1.8893    1.0000 </r>
       <r>   -1.8409    1.0000 </r>
       <r>   -1.7032    1.0000 </r>
       <r>   -1.5239    1.0000 </r>
       <r>   -1.4452    1.0000 </r>
       <r>   -1.1313    1.0000 </r>
       <r>   -1.0815    1.0000 </r>
       <r>   -0.9649    1.0000 </r>
       <r>   -0.8325    1.0000 </r>
       <r>   -0.4382    1.0000 </r>
       <r>    0.0120    0.7942 </r>
       <r>    0.8458    0.0000 </r>
       <r>    1.1025    0.0000 </r>
       <r>    1.4847    0.0000 </r>
       <r>    1.5608    0.0000 </r>
       <r>    1.7043    0.0000 </r>
       <r>    1.7630    0.0000 </r>
       <r>    2.1171    0.0000 </r>
       <r>    2.1472    0.0000 </r>
       <r>    2.2196    0.0000 </r>
       <r>    2.2837    0.0000 </r>
       <r>    2.3490    0.0000 </r>
       <r>    2.6029    0.0000 </r>
       <r>    2.6409    0.0000 </r>
       <r>    2.7643    0.0000 </r>
      </set>
      <set comment="kpoint 3">
       <r>  -15.1904    1.0000 </r>
       <r>  -13.3014    1.0000 </r>
       <r>  -12.7337    1.0000 </r>
       <r>  -12.5977    1.0000 </r>
       <r>  -12.3431    1.0000 </r>
       <r>  -12.2629    1.0000 </r>
       <r>  -11.8577    1.0000 </r>
       <r>  -11.7533    1.0000 </r>
       <r>  -11.2588    1.0000 </r>
       <r>  -11.2464    1.0000 </r>
       <r>  -10.8081    1.0000 </r>
       <r>   -9.7940    1.0000 </r>
       <r>   -8.9073    1.0000 </r>
       <r>   -8.1719    1.0000 </r>
       <r>   -7.7553    1.0000 </r>
       <r>   -7.4491    1.0000 </r>
       <r>   -6.7688    1.0000 </r>
       <r>   -6.6694    1.0000 </r>
       <r>   -6.5027    1.0000 </r>
       <r>   -6.4025    1.0000 </r>
       <r>   -5.9071    1.0000 </r>
       <r>   -5.7190    1.0000 </r>
       <r>   -5.3231    1.0000 </r>
       <r>   -4.9054    1.0000 </r>
       <r>   -4.8399    1.0000 </r>
       <r>   -4.2333    1.0000 </r>
       <r>   -4.1997    1.0000 </r>
       <r>   -4.0903    1.0000 </r>
       <r>   -3.9831    1.0000 </r>
       <r>   -3.9032    1.0000 </r>
       <r>   -3.6997    1.0000 </r>
       <r>   -3.6545    1.0000 </r>
       <r>   -3.4856    1.0000 </r>
       <r>   -3.3918    1.0000 </r>
       <r>   -3.1718    1.0000 </r>
       <r>   -3.0222    1.0000 </r>
       <r>   -2.9735    1.0000 </r>
       <r>   -2.9018    1.0000 </r>
       <r>   -2.7977    1.0000 </r>
       <r>   -2.6078    1.0000 </r>
       <r>   -2.3912    1.0000 </r>
       <r>   -2.3432    1.0000 </r>
       <r>   -2.1642    1.0000 </r>
       <r>   -2.0181    1.0000 </r>
       <r>   -1.9388    1.0000 </r>
       <r>   -1.7527    1.0000 </r>
       <r>   -1.6662    1.0000 </r>
       <r>   -1.4116    1.0000 </r>
       <r>   -1.1939    1.0000 </r>
       <r>   -0.9988    1.0000 </r>
       <r>   -0.9474    1.0000 </r>
       <r>   -0.6342    1.0000 </r>
       <r>   -0.2498    1.0000 </r>
       <r>    0.1700    0.0787 </r>
       <r>    0.4551    0.0000 </r>
       <r>    0.9259    0.0000 </r>
       <r>    1.5165    0.0000 </r>
       <r>    1.7269    0.0000 </r>
       <r>    1.9410    0.0000 </r>
       <r>    2.2393    0.0000 </r>
       <r>    2.3690    0.0000 </r>
       <r>    2.4288    0.0000 </r>
       <r>    2.6100    0.0000 </r>
       <r>    2.6595    0.0000 </r>
       <r>    2.6802    0.0000 </r>
       <r>    2.9009    0.0000 </r>
       <r>    2.9521    0.0000 </r>
       <r>    3.0546    0.0000 </r>
      </set>
      <set comment="kpoint 4">
       <r>  -14.9561    1.0000 </r>
       <r>  -13.0004    1.0000 </r>
       <r>  -12.4842    1.0000 </r>
       <r>  -12.3414    1.0000 </r>
       <r>  -12.0713    1.0000 </r>
       <r>  -11.9964    1.0000 </r>
       <r>  -11.5749    1.0000 </r>
       <r>  -11.4985    1.0000 </r>
       <r>  -11.0353    1.0000 </r>
       <r>  -11.0292    1.0000 </r>
       <r>  -10.6051    1.0000 </r>
       <r>   -9.7130    1.0000 </r>
       <r>   -8.9430    1.0000 </r>
       <r>   -8.3636    1.0000 </r>
       <r>   -7.8288    1.0000 </r>
       <r>   -7.6906    1.0000 </r>
       <r>   -6.9598    1.0000 </r>
       <r>   -6.6985    1.0000 </r>
       <r>   -6.6405    1.0000 </r>
       <r>   -6.5754    1.0000 </r>
       <r>   -6.0283    1.0000 </r>
       <r>   -5.7421    1.0000 </r>
       <r>   -5.5501    1.0000 </r>
       <r>   -5.3424    1.0000 </r>
       <r>   -5.1489    1.0000 </r>
       <r>   -4.8188    1.0000 </r>
       <r>   -4.7312    1.0000 </r>
       <r>   -4.6077    1.0000 </r>
       <r>   -4.5145    1.0000 </r>
       <r>   -4.3952    1.0000 </r>
       <r>   -4.1886    1.0000 </r>
       <r>   -4.0125    1.0000 </r>
       <r>   -3.7869    1.0000 </r>
       <r>   -3.7060    1.0000 </r>
       <r>   -3.4745    1.0000 </r>
       <r>   -3.3381    1.0000 </r>
       <r>   -3.2083    1.0000 </r>
       <r>   -3.0009    1.0000 </r>
       <r>   -2.8793    1.0000 </r>
       <r>   -2.6853    1.0000 </r>
       <r>   -2.5332    1.0000 </r>
       <r>   -2.5010    1.0000 </r>
       <r>   -2.4140    1.0000 </r>
       <r>   -2.0780    1.0000 </r>
       <r>   -1.9149    1.0000 </r>
       <r>   -1.8299    1.0000 </r>
       <r>   -1.7420    1.0000 </r>
       <r>   -1.4888    1.0000 </r>
       <r>   -1.4385    1.0000 </r>
       <r>   -1.1232    1.0000 </r>
       <r>   -1.0795    1.0000 </r>
       <r>   -0.6840    1.0000 </r>
       <r>   -0.4643    1.0000 </r>
       <r>   -0.1806    0.9998 </r>
       <r>    0.4653    0.0000 </r>
       <r>    0.7530    0.0000 </r>
       <r>    1.2835    0.0000 </r>
       <r>    1.6986    0.0000 </r>
       <r>    1.8611    0.0000 </r>
       <r>    2.0191    0.0000 </r>
       <r>    2.2499    0.0000 </r>
       <r>    2.3312    0.0000 </r>
       <r>    2.4007    0.0000 </r>
       <r>    2.6748    0.0000 </r>
       <r>    2.7766    0.0000 </r>
       <r>    2.8733    0.0000 </r>
       <r>    2.9358    0.0000 </r>
       <r>    3.0693    0.0000 </r>
      </set>
      <set comment="kpoint 5">
       <r>  -14.6618    1.0000 </r>
       <r>  -12.5886    1.0000 </r>
       <r>  -12.1654    1.0000 </r>
       <r>  -11.9930    1.0000 </r>
       <r>  -11.7215    1.0000 </r>
       <r>  -11.6462    1.0000 </r>
       <r>  -11.2264    1.0000 </r>
       <r>  -11.1697    1.0000 </r>
       <r>  -10.7861    1.0000 </r>
       <r>  -10.7756    1.0000 </r>
       <r>  -10.4194    1.0000 </r>
       <r>   -9.7281    1.0000 </r>
       <r>   -9.1025    1.0000 </r>
       <r>   -8.6586    1.0000 </r>
       <r>   -8.1118    1.0000 </r>
       <r>   -8.0893    1.0000 </r>
       <r>   -7.2838    1.0000 </r>
       <r>   -7.0006    1.0000 </r>
       <r>   -6.9046    1.0000 </r>
       <r>   -6.6746    1.0000 </r>
       <r>   -6.3427    1.0000 </r>
       <r>   -6.1659    1.0000 </r>
       <r>   -5.9763    1.0000 </r>
       <r>   -5.9493    1.0000 </r>
       <r>   -5.5296    1.0000 </r>
       <r>   -5.2162    1.0000 </r>
       <r>   -4.9938    1.0000 </r>
       <r>   -4.7835    1.0000 </r>
       <r>   -4.7073    1.0000 </r>
       <r>   -4.5930    1.0000 </r>
       <r>   -4.3265    1.0000 </r>
       <r>   -4.2308    1.0000 </r>
       <r>   -4.1541    1.0000 </r>
       <r>   -3.7601    1.0000 </r>
       <r>   -3.4038    1.0000 </r>
       <r>   -3.2519    1.0000 </r>
       <r>   -3.1304    1.0000 </r>
       <r>   -3.0763    1.0000 </r>
       <r>   -2.9957    1.0000 </r>
       <r>   -2.8150    1.0000 </r>
       <r>   -2.7674    1.0000 </r>
       <r>   -2.6183    1.0000 </r>
       <r>   -2.4152    1.0000 </r>
       <r>   -2.1323    1.0000 </r>
       <r>   -2.0490    1.0000 </r>
       <r>   -1.9008    1.0000 </r>
       <r>   -1.8739    1.0000 </r>
       <r>   -1.7238    1.0000 </r>
       <r>   -1.6838    1.0000 </r>
       <r>   -1.3204    1.0000 </r>
       <r>   -1.2209    1.0000 </r>
       <r>   -1.0563    1.0000 </r>
       <r>   -0.6960    1.0000 </r>
       <r>   -0.4799    1.0000 </r>
       <r>    0.2562    0.0042 </r>
       <r>    0.5200    0.0000 </r>
       <r>    0.9962    0.0000 </r>
       <r>    1.4988    0.0000 </r>
       <r>    1.5907    0.0000 </r>
       <r>    1.7732    0.0000 </r>
       <r>    1.9826    0.0000 </r>
       <r>    2.2223    0.0000 </r>
       <r>    2.3528    0.0000 </r>
       <r>    2.4787    0.0000 </r>
       <r>    2.6512    0.0000 </r>
       <r>    2.6795    0.0000 </r>
       <r>    2.8098    0.0000 </r>
       <r>    2.8849    0.0000 </r>
      </set>
      <set comment="kpoint 6">
       <r>  -14.3613    1.0000 </r>
       <r>  -12.0804    1.0000 </r>
       <r>  -11.8484    1.0000 </r>
       <r>  -11.5738    1.0000 </r>
       <r>  -11.3381    1.0000 </r>
       <r>  -11.2511    1.0000 </r>
       <r>  -10.8810    1.0000 </r>
       <r>  -10.8416    1.0000 </r>
       <r>  -10.6311    1.0000 </r>
       <r>  -10.5880    1.0000 </r>
       <r>  -10.4599    1.0000 </r>
       <r>   -9.8725    1.0000 </r>
       <r>   -9.2744    1.0000 </r>
       <r>   -8.8348    1.0000 </r>
       <r>   -8.4650    1.0000 </r>
       <r>   -8.3817    1.0000 </r>
       <r>   -7.6731    1.0000 </r>
       <r>   -7.4633    1.0000 </r>
       <r>   -7.4195    1.0000 </r>
       <r>   -7.0014    1.0000 </r>
       <r>   -6.7941    1.0000 </r>
       <r>   -6.7614    1.0000 </r>
       <r>   -6.6612    1.0000 </r>
       <r>   -6.2172    1.0000 </r>
       <r>   -5.6243    1.0000 </r>
       <r>   -5.2201    1.0000 </r>
       <r>   -5.0092    1.0000 </r>
       <r>   -4.6423    1.0000 </r>
       <r>   -4.5342    1.0000 </r>
       <r>   -4.4460    1.0000 </r>
       <r>   -4.2585    1.0000 </r>
       <r>   -4.1948    1.0000 </r>
       <r>   -4.0736    1.0000 </r>
       <r>   -3.7796    1.0000 </r>
       <r>   -3.6598    1.0000 </r>
       <r>   -3.2787    1.0000 </r>
       <r>   -3.2145    1.0000 </r>
       <r>   -3.1673    1.0000 </r>
       <r>   -3.0542    1.0000 </r>
       <r>   -2.9999    1.0000 </r>
       <r>   -2.7964    1.0000 </r>
       <r>   -2.6216    1.0000 </r>
       <r>   -2.4503    1.0000 </r>
       <r>   -2.2992    1.0000 </r>
       <r>   -2.2116    1.0000 </r>
       <r>   -2.0969    1.0000 </r>
       <r>   -2.0336    1.0000 </r>
       <r>   -1.8847    1.0000 </r>
       <r>   -1.8059    1.0000 </r>
       <r>   -1.4929    1.0000 </r>
       <r>   -1.4225    1.0000 </r>
       <r>   -1.2772    1.0000 </r>
       <r>   -0.8917    1.0000 </r>
       <r>   -0.5451    1.0000 </r>
       <r>    0.0642    0.5328 </r>
       <r>    0.2724    0.0021 </r>
       <r>    0.6687    0.0000 </r>
       <r>    1.2866    0.0000 </r>
       <r>    1.3979    0.0000 </r>
       <r>    1.6916    0.0000 </r>
       <r>    1.7248    0.0000 </r>
       <r>    2.0486    0.0000 </r>
       <r>    2.2320    0.0000 </r>
       <r>    2.2662    0.0000 </r>
       <r>    2.3681    0.0000 </r>
       <r>    2.6264    0.0000 </r>
       <r>    2.6952    0.0000 </r>
       <r>    2.8135    0.0000 </r>
      </set>
      <set comment="kpoint 7">
       <r>  -14.1542    1.0000 </r>
       <r>  -11.6757    1.0000 </r>
       <r>  -11.5058    1.0000 </r>
       <r>  -11.1513    1.0000 </r>
       <r>  -10.9714    1.0000 </r>
       <r>  -10.9517    1.0000 </r>
       <r>  -10.8479    1.0000 </r>
       <r>  -10.7341    1.0000 </r>
       <r>  -10.6614    1.0000 </r>
       <r>  -10.6385    1.0000 </r>
       <r>  -10.6146    1.0000 </r>
       <r>   -9.8354    1.0000 </r>
       <r>   -9.4989    1.0000 </r>
       <r>   -8.6938    1.0000 </r>
       <r>   -8.6841    1.0000 </r>
       <r>   -8.4446    1.0000 </r>
       <r>   -8.0837    1.0000 </r>
       <r>   -7.8130    1.0000 </r>
       <r>   -7.5755    1.0000 </r>
       <r>   -7.5080    1.0000 </r>
       <r>   -7.2910    1.0000 </r>
       <r>   -7.1854    1.0000 </r>
       <r>   -7.0792    1.0000 </r>
       <r>   -6.1224    1.0000 </r>
       <r>   -5.6037    1.0000 </r>
       <r>   -5.0500    1.0000 </r>
       <r>   -4.9182    1.0000 </r>
       <r>   -4.5095    1.0000 </r>
       <r>   -4.4340    1.0000 </r>
       <r>   -4.2797    1.0000 </r>
       <r>   -4.0883    1.0000 </r>
       <r>   -3.9998    1.0000 </r>
       <r>   -3.9418    1.0000 </r>
       <r>   -3.8339    1.0000 </r>
       <r>   -3.6710    1.0000 </r>
       <r>   -3.5951    1.0000 </r>
       <r>   -3.4148    1.0000 </r>
       <r>   -3.2588    1.0000 </r>
       <r>   -3.1740    1.0000 </r>
       <r>   -3.0172    1.0000 </r>
       <r>   -2.9377    1.0000 </r>
       <r>   -2.6998    1.0000 </r>
       <r>   -2.5733    1.0000 </r>
       <r>   -2.3769    1.0000 </r>
       <r>   -2.3209    1.0000 </r>
       <r>   -2.2057    1.0000 </r>
       <r>   -2.0991    1.0000 </r>
       <r>   -1.9590    1.0000 </r>
       <r>   -1.7238    1.0000 </r>
       <r>   -1.6598    1.0000 </r>
       <r>   -1.5196    1.0000 </r>
       <r>   -1.2358    1.0000 </r>
       <r>   -1.0254    1.0000 </r>
       <r>   -0.5250    1.0000 </r>
       <r>   -0.0690    0.9754 </r>
       <r>    0.1013    0.3294 </r>
       <r>    0.4125    0.0000 </r>
       <r>    1.1654    0.0000 </r>
       <r>    1.3678    0.0000 </r>
       <r>    1.5581    0.0000 </r>
       <r>    1.6520    0.0000 </r>
       <r>    1.8390    0.0000 </r>
       <r>    2.0695    0.0000 </r>
       <r>    2.2437    0.0000 </r>
       <r>    2.3755    0.0000 </r>
       <r>    2.4575    0.0000 </r>
       <r>    2.6060    0.0000 </r>
       <r>    2.6840    0.0000 </r>
      </set>
      <set comment="kpoint 8">
       <r>  -15.3883    1.0000 </r>
       <r>  -13.4904    1.0000 </r>
       <r>  -12.9985    1.0000 </r>
       <r>  -12.9783    1.0000 </r>
       <r>  -12.5037    1.0000 </r>
       <r>  -12.4498    1.0000 </r>
       <r>  -12.0279    1.0000 </r>
       <r>  -11.8695    1.0000 </r>
       <r>  -11.4834    1.0000 </r>
       <r>  -11.4527    1.0000 </r>
       <r>  -11.0042    1.0000 </r>
       <r>   -9.8587    1.0000 </r>
       <r>   -8.9893    1.0000 </r>
       <r>   -8.5206    1.0000 </r>
       <r>   -7.5817    1.0000 </r>
       <r>   -7.3910    1.0000 </r>
       <r>   -6.7705    1.0000 </r>
       <r>   -6.6723    1.0000 </r>
       <r>   -6.5966    1.0000 </r>
       <r>   -6.0988    1.0000 </r>
       <r>   -5.7506    1.0000 </r>
       <r>   -5.2417    1.0000 </r>
       <r>   -5.0334    1.0000 </r>
       <r>   -4.6549    1.0000 </r>
       <r>   -4.6095    1.0000 </r>
       <r>   -4.0579    1.0000 </r>
       <r>   -3.9628    1.0000 </r>
       <r>   -3.7112    1.0000 </r>
       <r>   -3.4196    1.0000 </r>
       <r>   -3.2856    1.0000 </r>
       <r>   -3.1329    1.0000 </r>
       <r>   -3.0448    1.0000 </r>
       <r>   -2.8385    1.0000 </r>
       <r>   -2.7138    1.0000 </r>
       <r>   -2.5508    1.0000 </r>
       <r>   -2.4649    1.0000 </r>
       <r>   -2.4004    1.0000 </r>
       <r>   -2.3723    1.0000 </r>
       <r>   -2.2107    1.0000 </r>
       <r>   -2.1551    1.0000 </r>
       <r>   -1.9813    1.0000 </r>
       <r>   -1.9177    1.0000 </r>
       <r>   -1.8850    1.0000 </r>
       <r>   -1.7198    1.0000 </r>
       <r>   -1.6330    1.0000 </r>
       <r>   -1.5537    1.0000 </r>
       <r>   -1.3799    1.0000 </r>
       <r>   -1.3668    1.0000 </r>
       <r>   -1.2321    1.0000 </r>
       <r>   -1.1295    1.0000 </r>
       <r>   -0.9714    1.0000 </r>
       <r>   -0.9135    1.0000 </r>
       <r>   -0.3973    1.0000 </r>
       <r>    0.0841    0.4210 </r>
       <r>    0.5728    0.0000 </r>
       <r>    1.1768    0.0000 </r>
       <r>    1.2215    0.0000 </r>
       <r>    1.3761    0.0000 </r>
       <r>    1.5110    0.0000 </r>
       <r>    1.6740    0.0000 </r>
       <r>    1.7253    0.0000 </r>
       <r>    1.8233    0.0000 </r>
       <r>    1.9463    0.0000 </r>
       <r>    2.2354    0.0000 </r>
       <r>    2.3064    0.0000 </r>
       <r>    2.4142    0.0000 </r>
       <r>    2.5745    0.0000 </r>
       <r>    2.6574    0.0000 </r>
      </set>
      <set comment="kpoint 9">
       <r>  -15.3376    1.0000 </r>
       <r>  -13.4136    1.0000 </r>
       <r>  -12.9623    1.0000 </r>
       <r>  -12.9509    1.0000 </r>
       <r>  -12.4423    1.0000 </r>
       <r>  -12.3760    1.0000 </r>
       <r>  -11.9863    1.0000 </r>
       <r>  -11.7716    1.0000 </r>
       <r>  -11.4420    1.0000 </r>
       <r>  -11.4015    1.0000 </r>
       <r>  -10.9599    1.0000 </r>
       <r>   -9.8251    1.0000 </r>
       <r>   -8.9716    1.0000 </r>
       <r>   -8.5791    1.0000 </r>
       <r>   -7.5966    1.0000 </r>
       <r>   -7.3430    1.0000 </r>
       <r>   -6.7597    1.0000 </r>
       <r>   -6.6813    1.0000 </r>
       <r>   -6.5300    1.0000 </r>
       <r>   -6.0115    1.0000 </r>
       <r>   -5.7021    1.0000 </r>
       <r>   -5.4345    1.0000 </r>
       <r>   -5.1632    1.0000 </r>
       <r>   -4.7834    1.0000 </r>
       <r>   -4.6714    1.0000 </r>
       <r>   -4.1135    1.0000 </r>
       <r>   -3.9857    1.0000 </r>
       <r>   -3.7043    1.0000 </r>
       <r>   -3.6010    1.0000 </r>
       <r>   -3.4146    1.0000 </r>
       <r>   -3.3742    1.0000 </r>
       <r>   -3.1867    1.0000 </r>
       <r>   -3.0366    1.0000 </r>
       <r>   -3.0003    1.0000 </r>
       <r>   -2.7599    1.0000 </r>
       <r>   -2.6863    1.0000 </r>
       <r>   -2.5856    1.0000 </r>
       <r>   -2.5007    1.0000 </r>
       <r>   -2.4077    1.0000 </r>
       <r>   -2.3007    1.0000 </r>
       <r>   -2.1677    1.0000 </r>
       <r>   -2.1241    1.0000 </r>
       <r>   -2.0189    1.0000 </r>
       <r>   -1.8633    1.0000 </r>
       <r>   -1.8248    1.0000 </r>
       <r>   -1.7503    1.0000 </r>
       <r>   -1.5244    1.0000 </r>
       <r>   -1.3151    1.0000 </r>
       <r>   -1.1107    1.0000 </r>
       <r>   -1.0324    1.0000 </r>
       <r>   -0.9690    1.0000 </r>
       <r>   -0.8449    1.0000 </r>
       <r>   -0.3888    1.0000 </r>
       <r>    0.1090    0.2908 </r>
       <r>    0.8125    0.0000 </r>
       <r>    1.0678    0.0000 </r>
       <r>    1.5284    0.0000 </r>
       <r>    1.5868    0.0000 </r>
       <r>    1.7114    0.0000 </r>
       <r>    1.7883    0.0000 </r>
       <r>    1.9509    0.0000 </r>
       <r>    2.1995    0.0000 </r>
       <r>    2.2507    0.0000 </r>
       <r>    2.4796    0.0000 </r>
       <r>    2.5235    0.0000 </r>
       <r>    2.6507    0.0000 </r>
       <r>    2.6670    0.0000 </r>
       <r>    2.9585    0.0000 </r>
      </set>
      <set comment="kpoint 10">
       <r>  -15.1892    1.0000 </r>
       <r>  -13.2171    1.0000 </r>
       <r>  -12.8244    1.0000 </r>
       <r>  -12.7979    1.0000 </r>
       <r>  -12.2739    1.0000 </r>
       <r>  -12.1974    1.0000 </r>
       <r>  -11.8410    1.0000 </r>
       <r>  -11.5746    1.0000 </r>
       <r>  -11.3026    1.0000 </r>
       <r>  -11.2524    1.0000 </r>
       <r>  -10.8187    1.0000 </r>
       <r>   -9.7511    1.0000 </r>
       <r>   -8.9431    1.0000 </r>
       <r>   -8.6448    1.0000 </r>
       <r>   -7.5676    1.0000 </r>
       <r>   -7.3121    1.0000 </r>
       <r>   -6.8301    1.0000 </r>
       <r>   -6.6609    1.0000 </r>
       <r>   -6.5034    1.0000 </r>
       <r>   -6.1302    1.0000 </r>
       <r>   -5.8999    1.0000 </r>
       <r>   -5.6550    1.0000 </r>
       <r>   -5.2779    1.0000 </r>
       <r>   -4.8743    1.0000 </r>
       <r>   -4.8253    1.0000 </r>
       <r>   -4.3867    1.0000 </r>
       <r>   -4.3016    1.0000 </r>
       <r>   -4.2194    1.0000 </r>
       <r>   -3.9812    1.0000 </r>
       <r>   -3.8563    1.0000 </r>
       <r>   -3.7947    1.0000 </r>
       <r>   -3.6165    1.0000 </r>
       <r>   -3.4045    1.0000 </r>
       <r>   -3.2767    1.0000 </r>
       <r>   -3.0863    1.0000 </r>
       <r>   -3.0010    1.0000 </r>
       <r>   -2.9630    1.0000 </r>
       <r>   -2.8570    1.0000 </r>
       <r>   -2.7887    1.0000 </r>
       <r>   -2.6189    1.0000 </r>
       <r>   -2.5784    1.0000 </r>
       <r>   -2.4754    1.0000 </r>
       <r>   -2.3241    1.0000 </r>
       <r>   -1.9827    1.0000 </r>
       <r>   -1.8950    1.0000 </r>
       <r>   -1.8462    1.0000 </r>
       <r>   -1.5395    1.0000 </r>
       <r>   -1.4156    1.0000 </r>
       <r>   -1.1543    1.0000 </r>
       <r>   -1.0352    1.0000 </r>
       <r>   -0.9274    1.0000 </r>
       <r>   -0.6316    1.0000 </r>
       <r>   -0.3103    1.0000 </r>
       <r>    0.2104    0.0236 </r>
       <r>    0.4599    0.0000 </r>
       <r>    0.9699    0.0000 </r>
       <r>    1.4516    0.0000 </r>
       <r>    1.6473    0.0000 </r>
       <r>    1.7595    0.0000 </r>
       <r>    2.1022    0.0000 </r>
       <r>    2.3446    0.0000 </r>
       <r>    2.4028    0.0000 </r>
       <r>    2.7114    0.0000 </r>
       <r>    2.7474    0.0000 </r>
       <r>    2.8770    0.0000 </r>
       <r>    3.0167    0.0000 </r>
       <r>    3.0670    0.0000 </r>
       <r>    3.1183    0.0000 </r>
      </set>
      <set comment="kpoint 11">
       <r>  -14.9551    1.0000 </r>
       <r>  -12.9057    1.0000 </r>
       <r>  -12.5728    1.0000 </r>
       <r>  -12.5424    1.0000 </r>
       <r>  -12.0053    1.0000 </r>
       <r>  -11.9294    1.0000 </r>
       <r>  -11.5996    1.0000 </r>
       <r>  -11.2986    1.0000 </r>
       <r>  -11.0808    1.0000 </r>
       <r>  -11.0218    1.0000 </r>
       <r>  -10.6015    1.0000 </r>
       <r>   -9.6797    1.0000 </r>
       <r>   -8.9759    1.0000 </r>
       <r>   -8.7762    1.0000 </r>
       <r>   -7.6643    1.0000 </r>
       <r>   -7.3993    1.0000 </r>
       <r>   -7.1608    1.0000 </r>
       <r>   -6.7017    1.0000 </r>
       <r>   -6.6504    1.0000 </r>
       <r>   -6.4591    1.0000 </r>
       <r>   -5.9068    1.0000 </r>
       <r>   -5.8178    1.0000 </r>
       <r>   -5.6808    1.0000 </r>
       <r>   -5.2155    1.0000 </r>
       <r>   -5.1066    1.0000 </r>
       <r>   -5.0260    1.0000 </r>
       <r>   -4.6822    1.0000 </r>
       <r>   -4.6682    1.0000 </r>
       <r>   -4.5575    1.0000 </r>
       <r>   -4.3260    1.0000 </r>
       <r>   -4.1452    1.0000 </r>
       <r>   -4.0212    1.0000 </r>
       <r>   -3.7460    1.0000 </r>
       <r>   -3.5783    1.0000 </r>
       <r>   -3.3825    1.0000 </r>
       <r>   -3.2118    1.0000 </r>
       <r>   -3.1311    1.0000 </r>
       <r>   -3.0965    1.0000 </r>
       <r>   -2.9174    1.0000 </r>
       <r>   -2.6738    1.0000 </r>
       <r>   -2.6117    1.0000 </r>
       <r>   -2.5325    1.0000 </r>
       <r>   -2.4514    1.0000 </r>
       <r>   -2.0046    1.0000 </r>
       <r>   -1.9417    1.0000 </r>
       <r>   -1.8909    1.0000 </r>
       <r>   -1.7757    1.0000 </r>
       <r>   -1.5159    1.0000 </r>
       <r>   -1.3973    1.0000 </r>
       <r>   -1.1438    1.0000 </r>
       <r>   -1.0533    1.0000 </r>
       <r>   -0.7849    1.0000 </r>
       <r>   -0.5086    1.0000 </r>
       <r>   -0.2154    1.0000 </r>
       <r>    0.3898    0.0000 </r>
       <r>    0.7882    0.0000 </r>
       <r>    1.1951    0.0000 </r>
       <r>    1.4458    0.0000 </r>
       <r>    1.5947    0.0000 </r>
       <r>    1.6684    0.0000 </r>
       <r>    2.2056    0.0000 </r>
       <r>    2.4505    0.0000 </r>
       <r>    2.5303    0.0000 </r>
       <r>    2.6421    0.0000 </r>
       <r>    2.7040    0.0000 </r>
       <r>    3.0258    0.0000 </r>
       <r>    3.1129    0.0000 </r>
       <r>    3.2277    0.0000 </r>
      </set>
      <set comment="kpoint 12">
       <r>  -14.6610    1.0000 </r>
       <r>  -12.4891    1.0000 </r>
       <r>  -12.2154    1.0000 </r>
       <r>  -12.2073    1.0000 </r>
       <r>  -11.6548    1.0000 </r>
       <r>  -11.6019    1.0000 </r>
       <r>  -11.2823    1.0000 </r>
       <r>  -10.9857    1.0000 </r>
       <r>  -10.8171    1.0000 </r>
       <r>  -10.7526    1.0000 </r>
       <r>  -10.3960    1.0000 </r>
       <r>   -9.7156    1.0000 </r>
       <r>   -9.1171    1.0000 </r>
       <r>   -8.9754    1.0000 </r>
       <r>   -8.0526    1.0000 </r>
       <r>   -7.7126    1.0000 </r>
       <r>   -7.4080    1.0000 </r>
       <r>   -7.1170    1.0000 </r>
       <r>   -6.9668    1.0000 </r>
       <r>   -6.6216    1.0000 </r>
       <r>   -6.2185    1.0000 </r>
       <r>   -6.1906    1.0000 </r>
       <r>   -6.1693    1.0000 </r>
       <r>   -5.9222    1.0000 </r>
       <r>   -5.5423    1.0000 </r>
       <r>   -5.3837    1.0000 </r>
       <r>   -4.9847    1.0000 </r>
       <r>   -4.9417    1.0000 </r>
       <r>   -4.4835    1.0000 </r>
       <r>   -4.4069    1.0000 </r>
       <r>   -4.3346    1.0000 </r>
       <r>   -4.1923    1.0000 </r>
       <r>   -4.0147    1.0000 </r>
       <r>   -3.7583    1.0000 </r>
       <r>   -3.3543    1.0000 </r>
       <r>   -3.2851    1.0000 </r>
       <r>   -3.0448    1.0000 </r>
       <r>   -2.9955    1.0000 </r>
       <r>   -2.8982    1.0000 </r>
       <r>   -2.8563    1.0000 </r>
       <r>   -2.7051    1.0000 </r>
       <r>   -2.5310    1.0000 </r>
       <r>   -2.4351    1.0000 </r>
       <r>   -2.2817    1.0000 </r>
       <r>   -2.0674    1.0000 </r>
       <r>   -1.9534    1.0000 </r>
       <r>   -1.8981    1.0000 </r>
       <r>   -1.7575    1.0000 </r>
       <r>   -1.7155    1.0000 </r>
       <r>   -1.3278    1.0000 </r>
       <r>   -1.2719    1.0000 </r>
       <r>   -1.0102    1.0000 </r>
       <r>   -0.7479    1.0000 </r>
       <r>   -0.5956    1.0000 </r>
       <r>    0.1630    0.0942 </r>
       <r>    0.4949    0.0000 </r>
       <r>    0.7880    0.0000 </r>
       <r>    1.2298    0.0000 </r>
       <r>    1.2913    0.0000 </r>
       <r>    1.4169    0.0000 </r>
       <r>    2.1519    0.0000 </r>
       <r>    2.2734    0.0000 </r>
       <r>    2.4079    0.0000 </r>
       <r>    2.4523    0.0000 </r>
       <r>    2.6102    0.0000 </r>
       <r>    2.7163    0.0000 </r>
       <r>    2.9303    0.0000 </r>
       <r>    3.0199    0.0000 </r>
      </set>
      <set comment="kpoint 13">
       <r>  -14.3609    1.0000 </r>
       <r>  -11.9863    1.0000 </r>
       <r>  -11.8676    1.0000 </r>
       <r>  -11.7629    1.0000 </r>
       <r>  -11.2830    1.0000 </r>
       <r>  -11.2481    1.0000 </r>
       <r>  -10.9401    1.0000 </r>
       <r>  -10.7286    1.0000 </r>
       <r>  -10.6061    1.0000 </r>
       <r>  -10.5510    1.0000 </r>
       <r>  -10.4725    1.0000 </r>
       <r>   -9.8745    1.0000 </r>
       <r>   -9.2631    1.0000 </r>
       <r>   -8.9652    1.0000 </r>
       <r>   -8.4406    1.0000 </r>
       <r>   -8.1169    1.0000 </r>
       <r>   -7.7842    1.0000 </r>
       <r>   -7.7395    1.0000 </r>
       <r>   -7.3624    1.0000 </r>
       <r>   -6.9830    1.0000 </r>
       <r>   -6.7406    1.0000 </r>
       <r>   -6.6915    1.0000 </r>
       <r>   -6.6603    1.0000 </r>
       <r>   -6.2588    1.0000 </r>
       <r>   -5.7261    1.0000 </r>
       <r>   -5.3494    1.0000 </r>
       <r>   -5.0263    1.0000 </r>
       <r>   -4.7884    1.0000 </r>
       <r>   -4.5161    1.0000 </r>
       <r>   -4.3630    1.0000 </r>
       <r>   -4.1584    1.0000 </r>
       <r>   -4.1159    1.0000 </r>
       <r>   -3.8649    1.0000 </r>
       <r>   -3.7271    1.0000 </r>
       <r>   -3.3578    1.0000 </r>
       <r>   -3.2929    1.0000 </r>
       <r>   -3.2236    1.0000 </r>
       <r>   -3.1345    1.0000 </r>
       <r>   -3.0516    1.0000 </r>
       <r>   -2.9485    1.0000 </r>
       <r>   -2.8027    1.0000 </r>
       <r>   -2.6723    1.0000 </r>
       <r>   -2.5751    1.0000 </r>
       <r>   -2.3626    1.0000 </r>
       <r>   -2.2604    1.0000 </r>
       <r>   -2.0961    1.0000 </r>
       <r>   -2.0744    1.0000 </r>
       <r>   -1.8749    1.0000 </r>
       <r>   -1.8411    1.0000 </r>
       <r>   -1.5086    1.0000 </r>
       <r>   -1.3860    1.0000 </r>
       <r>   -1.3098    1.0000 </r>
       <r>   -0.9205    1.0000 </r>
       <r>   -0.5654    1.0000 </r>
       <r>   -0.0167    0.8900 </r>
       <r>    0.2173    0.0186 </r>
       <r>    0.5169    0.0000 </r>
       <r>    1.1738    0.0000 </r>
       <r>    1.1989    0.0000 </r>
       <r>    1.3317    0.0000 </r>
       <r>    1.8117    0.0000 </r>
       <r>    1.9999    0.0000 </r>
       <r>    2.1329    0.0000 </r>
       <r>    2.3177    0.0000 </r>
       <r>    2.5158    0.0000 </r>
       <r>    2.6332    0.0000 </r>
       <r>    2.6879    0.0000 </r>
       <r>    2.8827    0.0000 </r>
      </set>
      <set comment="kpoint 14">
       <r>  -14.1541    1.0000 </r>
       <r>  -11.6772    1.0000 </r>
       <r>  -11.4352    1.0000 </r>
       <r>  -11.2677    1.0000 </r>
       <r>  -10.9682    1.0000 </r>
       <r>  -10.9640    1.0000 </r>
       <r>  -10.8689    1.0000 </r>
       <r>  -10.7048    1.0000 </r>
       <r>  -10.6871    1.0000 </r>
       <r>  -10.5922    1.0000 </r>
       <r>  -10.5853    1.0000 </r>
       <r>   -9.8339    1.0000 </r>
       <r>   -9.4774    1.0000 </r>
       <r>   -8.7102    1.0000 </r>
       <r>   -8.5588    1.0000 </r>
       <r>   -8.4039    1.0000 </r>
       <r>   -8.3331    1.0000 </r>
       <r>   -7.8399    1.0000 </r>
       <r>   -7.5215    1.0000 </r>
       <r>   -7.4864    1.0000 </r>
       <r>   -7.3206    1.0000 </r>
       <r>   -7.1450    1.0000 </r>
       <r>   -7.0614    1.0000 </r>
       <r>   -6.0962    1.0000 </r>
       <r>   -5.6227    1.0000 </r>
       <r>   -5.1339    1.0000 </r>
       <r>   -5.0215    1.0000 </r>
       <r>   -4.4752    1.0000 </r>
       <r>   -4.3991    1.0000 </r>
       <r>   -4.2264    1.0000 </r>
       <r>   -4.1482    1.0000 </r>
       <r>   -4.0328    1.0000 </r>
       <r>   -3.9296    1.0000 </r>
       <r>   -3.6651    1.0000 </r>
       <r>   -3.5727    1.0000 </r>
       <r>   -3.5092    1.0000 </r>
       <r>   -3.3533    1.0000 </r>
       <r>   -3.2927    1.0000 </r>
       <r>   -3.2366    1.0000 </r>
       <r>   -2.9934    1.0000 </r>
       <r>   -2.9141    1.0000 </r>
       <r>   -2.6977    1.0000 </r>
       <r>   -2.6161    1.0000 </r>
       <r>   -2.5705    1.0000 </r>
       <r>   -2.3882    1.0000 </r>
       <r>   -2.1585    1.0000 </r>
       <r>   -2.1136    1.0000 </r>
       <r>   -1.8968    1.0000 </r>
       <r>   -1.7002    1.0000 </r>
       <r>   -1.6126    1.0000 </r>
       <r>   -1.5193    1.0000 </r>
       <r>   -1.2972    1.0000 </r>
       <r>   -1.0600    1.0000 </r>
       <r>   -0.5632    1.0000 </r>
       <r>   -0.0694    0.9757 </r>
       <r>    0.1365    0.1736 </r>
       <r>    0.4761    0.0000 </r>
       <r>    1.0661    0.0000 </r>
       <r>    1.4171    0.0000 </r>
       <r>    1.5014    0.0000 </r>
       <r>    1.5578    0.0000 </r>
       <r>    1.7439    0.0000 </r>
       <r>    2.0509    0.0000 </r>
       <r>    2.2553    0.0000 </r>
       <r>    2.4213    0.0000 </r>
       <r>    2.4615    0.0000 </r>
       <r>    2.5290    0.0000 </r>
       <r>    2.7060    0.0000 </r>
      </set>
      <set comment="kpoint 15">
       <r>  -14.1543    1.0000 </r>
       <r>  -11.6775    1.0000 </r>
       <r>  -11.5393    1.0000 </r>
       <r>  -11.0749    1.0000 </r>
       <r>  -10.9578    1.0000 </r>
       <r>  -10.9376    1.0000 </r>
       <r>  -10.8124    1.0000 </r>
       <r>  -10.7618    1.0000 </r>
       <r>  -10.7110    1.0000 </r>
       <r>  -10.6875    1.0000 </r>
       <r>  -10.5929    1.0000 </r>
       <r>   -9.8315    1.0000 </r>
       <r>   -9.5014    1.0000 </r>
       <r>   -8.7615    1.0000 </r>
       <r>   -8.7249    1.0000 </r>
       <r>   -8.4384    1.0000 </r>
       <r>   -7.9487    1.0000 </r>
       <r>   -7.7672    1.0000 </r>
       <r>   -7.6087    1.0000 </r>
       <r>   -7.5206    1.0000 </r>
       <r>   -7.2845    1.0000 </r>
       <r>   -7.2250    1.0000 </r>
       <r>   -7.0769    1.0000 </r>
       <r>   -6.1129    1.0000 </r>
       <r>   -5.5113    1.0000 </r>
       <r>   -5.1262    1.0000 </r>
       <r>   -4.7404    1.0000 </r>
       <r>   -4.5829    1.0000 </r>
       <r>   -4.4270    1.0000 </r>
       <r>   -4.3698    1.0000 </r>
       <r>   -4.0461    1.0000 </r>
       <r>   -4.0133    1.0000 </r>
       <r>   -3.9604    1.0000 </r>
       <r>   -3.8910    1.0000 </r>
       <r>   -3.7520    1.0000 </r>
       <r>   -3.6624    1.0000 </r>
       <r>   -3.4488    1.0000 </r>
       <r>   -3.3457    1.0000 </r>
       <r>   -3.1823    1.0000 </r>
       <r>   -2.9798    1.0000 </r>
       <r>   -2.8120    1.0000 </r>
       <r>   -2.6879    1.0000 </r>
       <r>   -2.5140    1.0000 </r>
       <r>   -2.4785    1.0000 </r>
       <r>   -2.3598    1.0000 </r>
       <r>   -2.1658    1.0000 </r>
       <r>   -2.1288    1.0000 </r>
       <r>   -1.8810    1.0000 </r>
       <r>   -1.7026    1.0000 </r>
       <r>   -1.5820    1.0000 </r>
       <r>   -1.5023    1.0000 </r>
       <r>   -1.2799    1.0000 </r>
       <r>   -1.0561    1.0000 </r>
       <r>   -0.5845    1.0000 </r>
       <r>   -0.0215    0.9023 </r>
       <r>    0.2543    0.0046 </r>
       <r>    0.6038    0.0000 </r>
       <r>    1.0980    0.0000 </r>
       <r>    1.3625    0.0000 </r>
       <r>    1.6390    0.0000 </r>
       <r>    1.7509    0.0000 </r>
       <r>    1.7693    0.0000 </r>
       <r>    2.1762    0.0000 </r>
       <r>    2.2921    0.0000 </r>
       <r>    2.3538    0.0000 </r>
       <r>    2.4744    0.0000 </r>
       <r>    2.5668    0.0000 </r>
       <r>    2.6283    0.0000 </r>
      </set>
      <set comment="kpoint 16">
       <r>  -14.3615    1.0000 </r>
       <r>  -12.1069    1.0000 </r>
       <r>  -11.8439    1.0000 </r>
       <r>  -11.4893    1.0000 </r>
       <r>  -11.3492    1.0000 </r>
       <r>  -11.2488    1.0000 </r>
       <r>  -10.9407    1.0000 </r>
       <r>  -10.8496    1.0000 </r>
       <r>  -10.6339    1.0000 </r>
       <r>  -10.5863    1.0000 </r>
       <r>  -10.4553    1.0000 </r>
       <r>   -9.8673    1.0000 </r>
       <r>   -9.3075    1.0000 </r>
       <r>   -8.7467    1.0000 </r>
       <r>   -8.4969    1.0000 </r>
       <r>   -8.4840    1.0000 </r>
       <r>   -7.6032    1.0000 </r>
       <r>   -7.4447    1.0000 </r>
       <r>   -7.3341    1.0000 </r>
       <r>   -7.0489    1.0000 </r>
       <r>   -6.8129    1.0000 </r>
       <r>   -6.7579    1.0000 </r>
       <r>   -6.6637    1.0000 </r>
       <r>   -6.1995    1.0000 </r>
       <r>   -5.6083    1.0000 </r>
       <r>   -5.0956    1.0000 </r>
       <r>   -4.9925    1.0000 </r>
       <r>   -4.8427    1.0000 </r>
       <r>   -4.4389    1.0000 </r>
       <r>   -4.4045    1.0000 </r>
       <r>   -4.2938    1.0000 </r>
       <r>   -4.2013    1.0000 </r>
       <r>   -4.0837    1.0000 </r>
       <r>   -3.7890    1.0000 </r>
       <r>   -3.7269    1.0000 </r>
       <r>   -3.4136    1.0000 </r>
       <r>   -3.3740    1.0000 </r>
       <r>   -3.1974    1.0000 </r>
       <r>   -3.1033    1.0000 </r>
       <r>   -2.9526    1.0000 </r>
       <r>   -2.7581    1.0000 </r>
       <r>   -2.5868    1.0000 </r>
       <r>   -2.4414    1.0000 </r>
       <r>   -2.2844    1.0000 </r>
       <r>   -2.2278    1.0000 </r>
       <r>   -2.1068    1.0000 </r>
       <r>   -1.9492    1.0000 </r>
       <r>   -1.8741    1.0000 </r>
       <r>   -1.7976    1.0000 </r>
       <r>   -1.4632    1.0000 </r>
       <r>   -1.3977    1.0000 </r>
       <r>   -1.2282    1.0000 </r>
       <r>   -0.8713    1.0000 </r>
       <r>   -0.5007    1.0000 </r>
       <r>    0.0900    0.3887 </r>
       <r>    0.4239    0.0000 </r>
       <r>    0.7502    0.0000 </r>
       <r>    1.2313    0.0000 </r>
       <r>    1.3794    0.0000 </r>
       <r>    1.7701    0.0000 </r>
       <r>    1.8883    0.0000 </r>
       <r>    2.1076    0.0000 </r>
       <r>    2.2613    0.0000 </r>
       <r>    2.3520    0.0000 </r>
       <r>    2.4175    0.0000 </r>
       <r>    2.5120    0.0000 </r>
       <r>    2.5844    0.0000 </r>
       <r>    2.6843    0.0000 </r>
      </set>
      <set comment="kpoint 17">
       <r>  -14.6620    1.0000 </r>
       <r>  -12.6009    1.0000 </r>
       <r>  -12.1592    1.0000 </r>
       <r>  -11.9516    1.0000 </r>
       <r>  -11.7355    1.0000 </r>
       <r>  -11.6464    1.0000 </r>
       <r>  -11.2568    1.0000 </r>
       <r>  -11.1731    1.0000 </r>
       <r>  -10.7784    1.0000 </r>
       <r>  -10.7736    1.0000 </r>
       <r>  -10.4254    1.0000 </r>
       <r>   -9.7178    1.0000 </r>
       <r>   -9.1568    1.0000 </r>
       <r>   -8.5597    1.0000 </r>
       <r>   -8.1922    1.0000 </r>
       <r>   -8.0787    1.0000 </r>
       <r>   -7.2146    1.0000 </r>
       <r>   -7.0055    1.0000 </r>
       <r>   -6.8747    1.0000 </r>
       <r>   -6.7277    1.0000 </r>
       <r>   -6.3594    1.0000 </r>
       <r>   -6.1589    1.0000 </r>
       <r>   -5.9802    1.0000 </r>
       <r>   -5.8946    1.0000 </r>
       <r>   -5.5733    1.0000 </r>
       <r>   -5.1634    1.0000 </r>
       <r>   -5.0161    1.0000 </r>
       <r>   -4.8778    1.0000 </r>
       <r>   -4.6521    1.0000 </r>
       <r>   -4.5336    1.0000 </r>
       <r>   -4.3304    1.0000 </r>
       <r>   -4.2548    1.0000 </r>
       <r>   -4.1668    1.0000 </r>
       <r>   -3.7684    1.0000 </r>
       <r>   -3.4653    1.0000 </r>
       <r>   -3.2843    1.0000 </r>
       <r>   -3.1560    1.0000 </r>
       <r>   -3.0880    1.0000 </r>
       <r>   -2.9990    1.0000 </r>
       <r>   -2.8405    1.0000 </r>
       <r>   -2.7525    1.0000 </r>
       <r>   -2.6345    1.0000 </r>
       <r>   -2.3899    1.0000 </r>
       <r>   -2.1587    1.0000 </r>
       <r>   -2.0310    1.0000 </r>
       <r>   -1.8919    1.0000 </r>
       <r>   -1.8691    1.0000 </r>
       <r>   -1.7400    1.0000 </r>
       <r>   -1.6859    1.0000 </r>
       <r>   -1.3152    1.0000 </r>
       <r>   -1.2187    1.0000 </r>
       <r>   -0.9473    1.0000 </r>
       <r>   -0.6545    1.0000 </r>
       <r>   -0.3601    1.0000 </r>
       <r>    0.2631    0.0032 </r>
       <r>    0.5492    0.0000 </r>
       <r>    0.9188    0.0000 </r>
       <r>    1.4411    0.0000 </r>
       <r>    1.6314    0.0000 </r>
       <r>    1.8996    0.0000 </r>
       <r>    1.9844    0.0000 </r>
       <r>    2.2457    0.0000 </r>
       <r>    2.3747    0.0000 </r>
       <r>    2.5200    0.0000 </r>
       <r>    2.6506    0.0000 </r>
       <r>    2.6694    0.0000 </r>
       <r>    2.7676    0.0000 </r>
       <r>    2.8499    0.0000 </r>
      </set>
      <set comment="kpoint 18">
       <r>  -14.9560    1.0000 </r>
       <r>  -12.9961    1.0000 </r>
       <r>  -12.4899    1.0000 </r>
       <r>  -12.3560    1.0000 </r>
       <r>  -12.0646    1.0000 </r>
       <r>  -11.9955    1.0000 </r>
       <r>  -11.5626    1.0000 </r>
       <r>  -11.4946    1.0000 </r>
       <r>  -11.0355    1.0000 </r>
       <r>  -11.0301    1.0000 </r>
       <r>  -10.6036    1.0000 </r>
       <r>   -9.7010    1.0000 </r>
       <r>   -8.9980    1.0000 </r>
       <r>   -8.4038    1.0000 </r>
       <r>   -7.7876    1.0000 </r>
       <r>   -7.5750    1.0000 </r>
       <r>   -7.0260    1.0000 </r>
       <r>   -6.7042    1.0000 </r>
       <r>   -6.6435    1.0000 </r>
       <r>   -6.5942    1.0000 </r>
       <r>   -6.0330    1.0000 </r>
       <r>   -5.7428    1.0000 </r>
       <r>   -5.4765    1.0000 </r>
       <r>   -5.3369    1.0000 </r>
       <r>   -5.1980    1.0000 </r>
       <r>   -4.8412    1.0000 </r>
       <r>   -4.7541    1.0000 </r>
       <r>   -4.6039    1.0000 </r>
       <r>   -4.5185    1.0000 </r>
       <r>   -4.3595    1.0000 </r>
       <r>   -4.1876    1.0000 </r>
       <r>   -4.0440    1.0000 </r>
       <r>   -3.7864    1.0000 </r>
       <r>   -3.6794    1.0000 </r>
       <r>   -3.4563    1.0000 </r>
       <r>   -3.3165    1.0000 </r>
       <r>   -3.2263    1.0000 </r>
       <r>   -2.9969    1.0000 </r>
       <r>   -2.9065    1.0000 </r>
       <r>   -2.6905    1.0000 </r>
       <r>   -2.5512    1.0000 </r>
       <r>   -2.4837    1.0000 </r>
       <r>   -2.4157    1.0000 </r>
       <r>   -2.1315    1.0000 </r>
       <r>   -1.9057    1.0000 </r>
       <r>   -1.8338    1.0000 </r>
       <r>   -1.7602    1.0000 </r>
       <r>   -1.5015    1.0000 </r>
       <r>   -1.4408    1.0000 </r>
       <r>   -1.1004    1.0000 </r>
       <r>   -1.0520    1.0000 </r>
       <r>   -0.5894    1.0000 </r>
       <r>   -0.3794    1.0000 </r>
       <r>   -0.1478    0.9990 </r>
       <r>    0.4384    0.0000 </r>
       <r>    0.6825    0.0000 </r>
       <r>    1.1890    0.0000 </r>
       <r>    1.6155    0.0000 </r>
       <r>    1.8221    0.0000 </r>
       <r>    2.0000    0.0000 </r>
       <r>    2.2344    0.0000 </r>
       <r>    2.3700    0.0000 </r>
       <r>    2.4216    0.0000 </r>
       <r>    2.6996    0.0000 </r>
       <r>    2.8331    0.0000 </r>
       <r>    2.9076    0.0000 </r>
       <r>    2.9294    0.0000 </r>
       <r>    3.0615    0.0000 </r>
      </set>
      <set comment="kpoint 19">
       <r>  -15.1900    1.0000 </r>
       <r>  -13.2799    1.0000 </r>
       <r>  -12.7576    1.0000 </r>
       <r>  -12.6711    1.0000 </r>
       <r>  -12.3098    1.0000 </r>
[...]
       <r>    2.7443    0.0000 </r>
      </set>
      <set comment="kpoint 54">
       <r>  -14.1542    1.0000 </r>
       <r>  -11.6789    1.0000 </r>
       <r>  -11.4944    1.0000 </r>
       <r>  -11.1734    1.0000 </r>
       <r>  -10.9553    1.0000 </r>
       <r>  -10.9525    1.0000 </r>
       <r>  -10.8540    1.0000 </r>
       <r>  -10.7283    1.0000 </r>
       <r>  -10.7089    1.0000 </r>
       <r>  -10.6263    1.0000 </r>
       <r>  -10.5788    1.0000 </r>
       <r>   -9.8299    1.0000 </r>
       <r>   -9.4793    1.0000 </r>
       <r>   -8.7498    1.0000 </r>
       <r>   -8.6692    1.0000 </r>
       <r>   -8.4450    1.0000 </r>
       <r>   -8.1238    1.0000 </r>
       <r>   -7.8021    1.0000 </r>
       <r>   -7.5652    1.0000 </r>
       <r>   -7.4929    1.0000 </r>
       <r>   -7.2954    1.0000 </r>
       <r>   -7.1752    1.0000 </r>
       <r>   -7.0563    1.0000 </r>
       <r>   -6.0873    1.0000 </r>
       <r>   -5.5423    1.0000 </r>
       <r>   -5.1867    1.0000 </r>
       <r>   -4.9485    1.0000 </r>
       <r>   -4.4864    1.0000 </r>
       <r>   -4.4096    1.0000 </r>
       <r>   -4.2841    1.0000 </r>
       <r>   -4.1064    1.0000 </r>
       <r>   -4.0269    1.0000 </r>
       <r>   -3.9377    1.0000 </r>
       <r>   -3.7745    1.0000 </r>
       <r>   -3.6104    1.0000 </r>
       <r>   -3.5748    1.0000 </r>
       <r>   -3.4080    1.0000 </r>
       <r>   -3.2619    1.0000 </r>
       <r>   -3.2453    1.0000 </r>
       <r>   -3.0280    1.0000 </r>
       <r>   -2.9861    1.0000 </r>
       <r>   -2.7024    1.0000 </r>
       <r>   -2.5456    1.0000 </r>
       <r>   -2.5007    1.0000 </r>
       <r>   -2.3631    1.0000 </r>
       <r>   -2.1690    1.0000 </r>
       <r>   -2.1182    1.0000 </r>
       <r>   -1.8334    1.0000 </r>
       <r>   -1.7155    1.0000 </r>
       <r>   -1.5544    1.0000 </r>
       <r>   -1.4541    1.0000 </r>
       <r>   -1.3367    1.0000 </r>
       <r>   -1.1028    1.0000 </r>
       <r>   -0.6008    1.0000 </r>
       <r>   -0.0447    0.9476 </r>
       <r>    0.3001    0.0006 </r>
       <r>    0.6156    0.0000 </r>
       <r>    1.0350    0.0000 </r>
       <r>    1.3460    0.0000 </r>
       <r>    1.5861    0.0000 </r>
       <r>    1.6313    0.0000 </r>
       <r>    1.8563    0.0000 </r>
       <r>    2.0266    0.0000 </r>
       <r>    2.2106    0.0000 </r>
       <r>    2.3360    0.0000 </r>
       <r>    2.4348    0.0000 </r>
       <r>    2.5112    0.0000 </r>
       <r>    2.6088    0.0000 </r>
      </set>
     </set>
    </set>
   </array>
  </eigenvalues>
  <separator name="orbital magnetization" >
   <v name="MAGDIPOLOUT">      0.00000000      0.00000000      0.00000000</v>
  </separator>
  <dos>
   <i name="efermi">      0.07004330 </i>
   <total>
    <array>
     <dimension dim="1">gridpoints</dimension>
     <dimension dim="2">spin</dimension>
     <field>energy</field>
     <field>total</field>
     <field>integrated</field>
     <set>
      <set comment="spin 1">
       <r>   -16.3892     0.0000     0.0000 </r>
       <r>   -16.3205     0.0000     0.0000 </r>
       <r>   -16.2517     0.0000     0.0000 </r>
       <r>   -16.1829     0.0000     0.0000 </r>
       <r>   -16.1142     0.0000     0.0000 </r>
       <r>   -16.0454     0.0000     0.0000 </r>
       <r>   -15.9766     0.0000     0.0000 </r>
       <r>   -15.9079     0.0000     0.0000 </r>
       <r>   -15.8391     0.0000     0.0000 </r>
       <r>   -15.7703     0.0000     0.0000 </r>
       <r>   -15.7016     0.0000     0.0000 </r>
       <r>   -15.6328     0.0007     0.0000 </r>
       <r>   -15.5640     0.0169     0.0012 </r>
       <r>   -15.4953     0.1861     0.0140 </r>
       <r>   -15.4265     0.9252     0.0776 </r>
       <r>   -15.3577     2.1418     0.2249 </r>
       <r>   -15.2890     2.5229     0.3984 </r>
       <r>   -15.2202     2.1718     0.5478 </r>
       <r>   -15.1515     1.8953     0.6781 </r>
       <r>   -15.0827     1.1945     0.7602 </r>
       <r>   -15.0139     1.0175     0.8302 </r>
       <r>   -14.9452     1.6115     0.9410 </r>
       <r>   -14.8764     1.3937     1.0368 </r>
       <r>   -14.8076     0.5880     1.0773 </r>
       <r>   -14.7389     0.6027     1.1187 </r>
       <r>   -14.6701     1.4127     1.2159 </r>
       <r>   -14.6013     1.5720     1.3240 </r>
       <r>   -14.5326     0.7635     1.3765 </r>
       <r>   -14.4638     0.4351     1.4064 </r>
       <r>   -14.3950     1.0988     1.4820 </r>
       <r>   -14.3263     1.7023     1.5990 </r>
       <r>   -14.2575     1.3603     1.6926 </r>
       <r>   -14.1887     1.3630     1.7863 </r>
       <r>   -14.1200     1.7014     1.9033 </r>
       <r>   -14.0512     1.0818     1.9777 </r>
       <r>   -13.9824     0.2908     1.9977 </r>
       <r>   -13.9137     0.0323     1.9999 </r>
       <r>   -13.8449     0.0015     2.0000 </r>
       <r>   -13.7761     0.0004     2.0000 </r>
       <r>   -13.7074     0.0081     2.0006 </r>
       <r>   -13.6386     0.0855     2.0065 </r>
       <r>   -13.5698     0.4481     2.0373 </r>
       <r>   -13.5011     1.2330     2.1221 </r>
       <r>   -13.4323     1.9131     2.2536 </r>
       <r>   -13.3635     1.9998     2.3911 </r>
       <r>   -13.2948     1.8894     2.5211 </r>
       <r>   -13.2260     1.7862     2.6439 </r>
       <r>   -13.1572     1.6543     2.7577 </r>
       <r>   -13.0885     1.8007     2.8815 </r>
       <r>   -13.0197     2.9648     3.0854 </r>
       <r>   -12.9509     4.7427     3.4115 </r>
       <r>   -12.8822     5.2605     3.7732 </r>
       <r>   -12.8134     4.4285     4.0778 </r>
       <r>   -12.7447     3.4405     4.3143 </r>
       <r>   -12.6759     2.8254     4.5086 </r>
       <r>   -12.6071     3.5421     4.7522 </r>
       <r>   -12.5384     5.4837     5.1293 </r>
       <r>   -12.4696     6.7464     5.5932 </r>
       <r>   -12.4008     6.3695     6.0312 </r>
       <r>   -12.3321     5.5265     6.4113 </r>
       <r>   -12.2633     5.3850     6.7816 </r>
       <r>   -12.1945     5.5611     7.1640 </r>
       <r>   -12.1258     5.7134     7.5569 </r>
       <r>   -12.0570     6.5171     8.0050 </r>
       <r>   -11.9882     7.7132     8.5354 </r>
       <r>   -11.9195     7.7673     9.0695 </r>
       <r>   -11.8507     7.1683     9.5625 </r>
       <r>   -11.7819     6.5434    10.0124 </r>
       <r>   -11.7132     6.7468    10.4764 </r>
       <r>   -11.6444     7.9658    11.0242 </r>
       <r>   -11.5756     8.4259    11.6036 </r>
       <r>   -11.5069     8.3850    12.1802 </r>
       <r>   -11.4381     8.5744    12.7698 </r>
       <r>   -11.3693     8.3871    13.3466 </r>
       <r>   -11.3006     9.2593    13.9833 </r>
       <r>   -11.2318    10.2126    14.6855 </r>
       <r>   -11.1630     7.9454    15.2319 </r>
       <r>   -11.0943     6.0009    15.6446 </r>
       <r>   -11.0255     7.9197    16.1892 </r>
       <r>   -10.9567    10.6334    16.9204 </r>
       <r>   -10.8880    10.6650    17.6538 </r>
       <r>   -10.8192    10.2107    18.3559 </r>
       <r>   -10.7504    10.5023    19.0781 </r>
       <r>   -10.6817    10.2224    19.7811 </r>
       <r>   -10.6129    10.1864    20.4816 </r>
       <r>   -10.5441     8.8912    21.0930 </r>
       <r>   -10.4754     5.9638    21.5031 </r>
       <r>   -10.4066     4.0168    21.7793 </r>
       <r>   -10.3379     2.3255    21.9392 </r>
       <r>   -10.2691     0.7585    21.9914 </r>
       <r>   -10.2003     0.1174    21.9994 </r>
       <r>   -10.1316     0.0091    22.0001 </r>
       <r>   -10.0628     0.0298    22.0021 </r>
       <r>    -9.9940     0.3660    22.0273 </r>
       <r>    -9.9253     2.0302    22.1669 </r>
       <r>    -9.8565     5.3178    22.5326 </r>
       <r>    -9.7877     7.4000    23.0414 </r>
       <r>    -9.7190     6.8304    23.5111 </r>
       <r>    -9.6502     4.7237    23.8360 </r>
       <r>    -9.5814     2.3601    23.9983 </r>
       <r>    -9.5127     1.6484    24.1116 </r>
       <r>    -9.4439     1.7381    24.2311 </r>
       <r>    -9.3751     1.3569    24.3244 </r>
       <r>    -9.3064     1.5201    24.4290 </r>
       <r>    -9.2376     1.9854    24.5655 </r>
       <r>    -9.1688     2.0796    24.7085 </r>
       <r>    -9.1001     2.5169    24.8816 </r>
       <r>    -9.0313     4.2079    25.1709 </r>
       <r>    -8.9625     6.7237    25.6333 </r>
       <r>    -8.8938     6.6684    26.0919 </r>
       <r>    -8.8250     4.7277    26.4170 </r>
       <r>    -8.7562     4.8110    26.7478 </r>
       <r>    -8.6875     5.5300    27.1281 </r>
       <r>    -8.6187     4.6381    27.4470 </r>
       <r>    -8.5499     3.9468    27.7184 </r>
       <r>    -8.4812     4.9153    28.0564 </r>
       <r>    -8.4124     5.8503    28.4587 </r>
       <r>    -8.3436     4.7086    28.7825 </r>
       <r>    -8.2749     2.6893    28.9674 </r>
       <r>    -8.2061     2.0624    29.1093 </r>
       <r>    -8.1373     3.0601    29.3197 </r>
       <r>    -8.0686     4.0819    29.6004 </r>
       <r>    -7.9998     3.4054    29.8345 </r>
       <r>    -7.9311     2.1157    29.9800 </r>
       <r>    -7.8623     2.5240    30.1536 </r>
       <r>    -7.7935     4.5948    30.4696 </r>
       <r>    -7.7248     5.9441    30.8783 </r>
       <r>    -7.6560     6.2775    31.3100 </r>
       <r>    -7.5872     7.1771    31.8035 </r>
       <r>    -7.5185     8.3349    32.3767 </r>
       <r>    -7.4497     8.7882    32.9810 </r>
       <r>    -7.3809     8.7255    33.5810 </r>
       <r>    -7.3122     8.2123    34.1458 </r>
       <r>    -7.2434     7.0699    34.6319 </r>
       <r>    -7.1746     5.6278    35.0189 </r>
       <r>    -7.1059     5.1399    35.3724 </r>
       <r>    -7.0371     5.9020    35.7782 </r>
       <r>    -6.9683     6.0883    36.1969 </r>
       <r>    -6.8996     5.3325    36.5636 </r>
       <r>    -6.8308     6.3602    37.0010 </r>
       <r>    -6.7620    10.0330    37.6909 </r>
       <r>    -6.6933    13.7079    38.6335 </r>
       <r>    -6.6245    13.5970    39.5685 </r>
       <r>    -6.5557     9.5322    40.2240 </r>
       <r>    -6.4870     5.9611    40.6339 </r>
       <r>    -6.4182     4.5444    40.9464 </r>
       <r>    -6.3494     4.1382    41.2310 </r>
       <r>    -6.2807     4.5350    41.5428 </r>
       <r>    -6.2119     6.0382    41.9581 </r>
       <r>    -6.1431     6.9446    42.4356 </r>
       <r>    -6.0744     6.1842    42.8609 </r>
       <r>    -6.0056     5.4835    43.2380 </r>
       <r>    -5.9368     5.8652    43.6413 </r>
       <r>    -5.8681     6.0638    44.0583 </r>
       <r>    -5.7993     5.7171    44.4514 </r>
       <r>    -5.7305     6.2154    44.8788 </r>
       <r>    -5.6618     6.9952    45.3598 </r>
       <r>    -5.5930     7.1727    45.8531 </r>
       <r>    -5.5242     6.6161    46.3080 </r>
       <r>    -5.4555     5.3387    46.6751 </r>
       <r>    -5.3867     4.9681    47.0168 </r>
       <r>    -5.3180     5.6295    47.4039 </r>
       <r>    -5.2492     6.3372    47.8397 </r>
       <r>    -5.1804     7.2113    48.3356 </r>
       <r>    -5.1117     7.8864    48.8779 </r>
       <r>    -5.0429     8.7895    49.4823 </r>
       <r>    -4.9741     9.5901    50.1418 </r>
       <r>    -4.9054     9.2465    50.7776 </r>
       <r>    -4.8366     8.9213    51.3911 </r>
       <r>    -4.7678     8.6307    51.9846 </r>
       <r>    -4.6991     8.5729    52.5741 </r>
       <r>    -4.6303     8.9687    53.1909 </r>
       <r>    -4.5615     8.9579    53.8069 </r>
       <r>    -4.4928     9.1677    54.4373 </r>
       <r>    -4.4240     9.9638    55.1224 </r>
       <r>    -4.3552    10.7392    55.8609 </r>
       <r>    -4.2865    10.9843    56.6163 </r>
       <r>    -4.2177    11.6131    57.4149 </r>
       <r>    -4.1489    13.0873    58.3148 </r>
       <r>    -4.0802    14.0120    59.2784 </r>
       <r>    -4.0114    14.1476    60.2512 </r>
       <r>    -3.9426    12.7245    61.1262 </r>
       <r>    -3.8739     9.9710    61.8119 </r>
       <r>    -3.8051     9.8079    62.4863 </r>
       <r>    -3.7363    12.2165    63.3264 </r>
       <r>    -3.6676    12.9878    64.2195 </r>
       <r>    -3.5988    11.2324    64.9919 </r>
       <r>    -3.5300     8.9938    65.6104 </r>
       <r>    -3.4613     9.0780    66.2347 </r>
       <r>    -3.3925    12.4468    67.0906 </r>
       <r>    -3.3237    15.4484    68.1529 </r>
       <r>    -3.2550    16.4236    69.2823 </r>
       <r>    -3.1862    16.3242    70.4048 </r>
       <r>    -3.1174    16.1076    71.5125 </r>
       <r>    -3.0487    17.1522    72.6920 </r>
       <r>    -2.9799    18.4086    73.9578 </r>
       <r>    -2.9112    17.3599    75.1516 </r>
       <r>    -2.8424    15.1837    76.1957 </r>
       <r>    -2.7736    14.1880    77.1714 </r>
       <r>    -2.7049    14.4212    78.1630 </r>
       <r>    -2.6361    15.2773    79.2136 </r>
       <r>    -2.5673    16.2988    80.3344 </r>
       <r>    -2.4986    17.2639    81.5216 </r>
       <r>    -2.4298    17.9473    82.7557 </r>
       <r>    -2.3610    16.7235    83.9057 </r>
       <r>    -2.2923    13.0676    84.8043 </r>
       <r>    -2.2235    11.3780    85.5868 </r>
       <r>    -2.1547    13.7066    86.5293 </r>
       <r>    -2.0860    16.0927    87.6359 </r>
       <r>    -2.0172    16.0302    88.7383 </r>
       <r>    -1.9484    16.8901    89.8997 </r>
       <r>    -1.8797    19.2569    91.2239 </r>
       <r>    -1.8109    18.8880    92.5228 </r>
       <r>    -1.7421    16.0992    93.6298 </r>
       <r>    -1.6734    13.1517    94.5342 </r>
       <r>    -1.6046    10.6311    95.2653 </r>
       <r>    -1.5358    10.6543    95.9979 </r>
       <r>    -1.4671    11.9694    96.8210 </r>
       <r>    -1.3983    12.1674    97.6577 </r>
       <r>    -1.3295    11.3551    98.4386 </r>
       <r>    -1.2608    10.5248    99.1623 </r>
       <r>    -1.1920    10.2867    99.8697 </r>
       <r>    -1.1232    10.9851   100.6251 </r>
       <r>    -1.0545    11.9674   101.4480 </r>
       <r>    -0.9857    11.8775   102.2648 </r>
       <r>    -0.9169    10.7410   103.0034 </r>
       <r>    -0.8482     8.2962   103.5739 </r>
       <r>    -0.7794     5.5339   103.9544 </r>
       <r>    -0.7106     4.4552   104.2608 </r>
       <r>    -0.6419     5.0453   104.6078 </r>
       <r>    -0.5731     6.2410   105.0369 </r>
       <r>    -0.5044     6.9115   105.5122 </r>
       <r>    -0.4356     6.4363   105.9548 </r>
       <r>    -0.3668     5.2837   106.3181 </r>
       <r>    -0.2981     4.1976   106.6068 </r>
       <r>    -0.2293     3.6677   106.8590 </r>
       <r>    -0.1605     3.3711   107.0908 </r>
       <r>    -0.0918     3.0890   107.3032 </r>
       <r>    -0.0230     3.5699   107.5487 </r>
       <r>     0.0458     4.6492   107.8684 </r>
       <r>     0.1145     5.7104   108.2611 </r>
       <r>     0.1833     6.1140   108.6815 </r>
       <r>     0.2521     5.5965   109.0664 </r>
       <r>     0.3208     4.5880   109.3819 </r>
       <r>     0.3896     4.5441   109.6944 </r>
       <r>     0.4584     5.8813   110.0988 </r>
       <r>     0.5271     6.0093   110.5120 </r>
       <r>     0.5959     4.7280   110.8372 </r>
       <r>     0.6647     3.9029   111.1055 </r>
       <r>     0.7334     4.0008   111.3807 </r>
       <r>     0.8022     4.3986   111.6831 </r>
       <r>     0.8710     4.0951   111.9647 </r>
       <r>     0.9397     3.6587   112.2163 </r>
       <r>     1.0085     3.8091   112.4783 </r>
       <r>     1.0773     4.6987   112.8014 </r>
       <r>     1.1460     6.0906   113.2202 </r>
       <r>     1.2148     7.0834   113.7073 </r>
       <r>     1.2836     7.1866   114.2015 </r>
       <r>     1.3523     7.5048   114.7176 </r>
       <r>     1.4211     8.7315   115.3180 </r>
       <r>     1.4899    10.0594   116.0097 </r>
       <r>     1.5586    11.3010   116.7868 </r>
       <r>     1.6274    12.4311   117.6417 </r>
       <r>     1.6962    12.8925   118.5282 </r>
       <r>     1.7649    12.3173   119.3752 </r>
       <r>     1.8337    10.2674   120.0813 </r>
       <r>     1.9025     7.8276   120.6196 </r>
       <r>     1.9712     7.0159   121.1020 </r>
       <r>     2.0400     7.6677   121.6293 </r>
       <r>     2.1087     8.7982   122.2343 </r>
       <r>     2.1775    11.0702   122.9956 </r>
       <r>     2.2463    14.4528   123.9894 </r>
       <r>     2.3150    16.3360   125.1128 </r>
       <r>     2.3838    16.9291   126.2769 </r>
       <r>     2.4526    16.9356   127.4415 </r>
       <r>     2.5213    15.3443   128.4967 </r>
       <r>     2.5901    14.6779   129.5060 </r>
       <r>     2.6589    16.9584   130.6722 </r>
       <r>     2.7276    17.3278   131.8637 </r>
       <r>     2.7964    13.5468   132.7953 </r>
       <r>     2.8652    10.4457   133.5136 </r>
       <r>     2.9339     9.3363   134.1556 </r>
       <r>     3.0027     8.3225   134.7279 </r>
       <r>     3.0715     7.2647   135.2275 </r>
       <r>     3.1402     5.5710   135.6105 </r>
       <r>     3.2090     3.2897   135.8368 </r>
       <r>     3.2778     1.6190   135.9481 </r>
       <r>     3.3465     0.6123   135.9902 </r>
       <r>     3.4153     0.1295   135.9991 </r>
       <r>     3.4841     0.0125   136.0000 </r>
       <r>     3.5528     0.0005   136.0000 </r>
       <r>     3.6216     0.0000   136.0000 </r>
       <r>     3.6904     0.0000   136.0000 </r>
       <r>     3.7591     0.0000   136.0000 </r>
       <r>     3.8279     0.0000   136.0000 </r>
       <r>     3.8967     0.0000   136.0000 </r>
       <r>     3.9654     0.0000   136.0000 </r>
       <r>     4.0342     0.0000   136.0000 </r>
       <r>     4.1030     0.0000   136.0000 </r>
       <r>     4.1717     0.0000   136.0000 </r>
       <r>     4.2405     0.0000   136.0000 </r>
      </set>
     </set>
    </array>
   </total>
  </dos>
 </calculation>
 <structure name="finalpos" >
  <crystal>
   <varray name="basis" >
    <v>       3.54040000       0.00000000       0.00000000 </v>
    <v>      -1.77020000      10.29434800       0.00000000 </v>
    <v>       0.00000000       0.00000000      27.50142900 </v>
   </varray>
   <i name="volume">   1002.32009712 </i>
   <varray name="rec_basis" >
    <v>       0.28245396       0.04857034       0.00000000 </v>
    <v>       0.00000000       0.09714068       0.00000000 </v>
    <v>       0.00000000       0.00000000       0.03636175 </v>
   </varray>
  </crystal>
  <varray name="positions" >
   <v>       0.11402300       0.22804500       0.23316207 </v>
   <v>       0.11402300       0.52804500       0.51499159 </v>
   <v>       0.45808900       0.91617900       0.20939482 </v>
   <v>       0.45808900       0.21617900       0.49122434 </v>
   <v>       0.31085400       0.62170900       0.08414979 </v>
   <v>       0.31085400       0.62170900       0.36597930 </v>
   <v>       0.99923000       0.99846000       0.08631254 </v>
   <v>       0.99923000       0.99846000       0.36814206 </v>
   <v>       0.65492700       0.30985400       0.06041748 </v>
   <v>       0.65492700       0.30985400       0.34224700 </v>
   <v>       0.76973800       0.53947500       0.20725292 </v>
   <v>       0.76973800       0.83947500       0.48908244 </v>
   <v>       0.93971600       0.87943300       0.15783749 </v>
   <v>       0.93971600       0.17943300       0.43966701 </v>
   <v>       0.20515200       0.41030300       0.18578822 </v>
   <v>       0.20515200       0.71030300       0.46761774 </v>
   <v>       0.20184900       0.40369900       0.09969156 </v>
   <v>       0.20184900       0.40369900       0.38152107 </v>
   <v>       0.56380500       0.12761000       0.10779021 </v>
   <v>       0.56380500       0.12761000       0.38961973 </v>
   <v>       0.56710600       0.13421200       0.19387616 </v>
   <v>       0.56710600       0.43421200       0.47570568 </v>
   <v>       0.82923400       0.65846800       0.13571444 </v>
   <v>       0.82923400       0.95846800       0.41754396 </v>
  </varray>
 </structure>
</modeling>
