  24  24   0   0
  0.4176334E+02  0.3540400E-09  0.1044544E-08  0.2750143E-08  0.5000000E-15
  1.000000000000000E-004
  CAR 
 unknown system                          
      4.12572042    -16.35972362  301     -0.02149426      1.00000000
    -16.360  0.0000E+00  0.0000E+00
    -16.291  0.0000E+00  0.0000E+00
    -16.223  0.0000E+00  0.0000E+00
    -16.155  0.0000E+00  0.0000E+00
    -16.087  0.0000E+00  0.0000E+00
    -16.018  0.0000E+00  0.0000E+00
    -15.950  0.9380E-16  0.6405E-17
    -15.882  0.1580E-12  0.1079E-13
    -15.813  0.1442E-09  0.9856E-11
    -15.745  0.5305E-07  0.3632E-08
    -15.677  0.7956E-05  0.5469E-06
    -15.609  0.4944E-03  0.3431E-04
    -15.540  0.1305E-01  0.9255E-03
    -15.472  0.1513E+00  0.1126E-01
    -15.404  0.7994E+00  0.6585E-01
    -15.335  0.1990E+01  0.2017E+00
    -15.267  0.2482E+01  0.3712E+00
    -15.199  0.2096E+01  0.5143E+00
    -15.131  0.1929E+01  0.6460E+00
    -15.062  0.1364E+01  0.7392E+00
    -14.994  0.7968E+00  0.7936E+00
    -14.926  0.1265E+01  0.8800E+00
    -14.857  0.1662E+01  0.9935E+00
    -14.789  0.9700E+00  0.1060E+01
    -14.721  0.3376E+00  0.1083E+01
    -14.653  0.6246E+00  0.1125E+01
    -14.584  0.1475E+01  0.1226E+01
    -14.516  0.1525E+01  0.1330E+01
    -14.448  0.6743E+00  0.1376E+01
    -14.379  0.2416E+00  0.1393E+01
    -14.311  0.6679E+00  0.1438E+01
    -14.243  0.1522E+01  0.1542E+01
    -14.175  0.1511E+01  0.1645E+01
    -14.106  0.8899E+00  0.1706E+01
    -14.038  0.1164E+01  0.1786E+01
    -13.970  0.1678E+01  0.1900E+01
    -13.901  0.1111E+01  0.1976E+01
    -13.833  0.3112E+00  0.1997E+01
    -13.765  0.3825E-01  0.2000E+01
    -13.697  0.2967E-01  0.2002E+01
    -13.628  0.2056E+00  0.2016E+01
    -13.560  0.7809E+00  0.2069E+01
    -13.492  0.1614E+01  0.2180E+01
    -13.423  0.2030E+01  0.2318E+01
    -13.355  0.2094E+01  0.2461E+01
    -13.287  0.2579E+01  0.2637E+01
    -13.219  0.3523E+01  0.2878E+01
    -13.150  0.3878E+01  0.3143E+01
    -13.082  0.3536E+01  0.3384E+01
    -13.014  0.4001E+01  0.3657E+01
    -12.945  0.4453E+01  0.3961E+01
    -12.877  0.3682E+01  0.4213E+01
    -12.809  0.2922E+01  0.4412E+01
    -12.741  0.3184E+01  0.4630E+01
    -12.672  0.3977E+01  0.4901E+01
    -12.604  0.4937E+01  0.5239E+01
    -12.536  0.5708E+01  0.5628E+01
    -12.467  0.6357E+01  0.6062E+01
    -12.399  0.6749E+01  0.6523E+01
    -12.331  0.6054E+01  0.6937E+01
    -12.263  0.4802E+01  0.7265E+01
    -12.194  0.4007E+01  0.7538E+01
    -12.126  0.4498E+01  0.7845E+01
    -12.058  0.6610E+01  0.8297E+01
    -11.989  0.8117E+01  0.8851E+01
    -11.921  0.7121E+01  0.9337E+01
    -11.853  0.6569E+01  0.9786E+01
    -11.785  0.7277E+01  0.1028E+02
    -11.716  0.7106E+01  0.1077E+02
    -11.648  0.6875E+01  0.1124E+02
    -11.580  0.7049E+01  0.1172E+02
    -11.512  0.7349E+01  0.1222E+02
    -11.443  0.7826E+01  0.1276E+02
    -11.375  0.8193E+01  0.1331E+02
    -11.307  0.9054E+01  0.1393E+02
    -11.238  0.9476E+01  0.1458E+02
    -11.170  0.8387E+01  0.1515E+02
    -11.102  0.8319E+01  0.1572E+02
    -11.034  0.9499E+01  0.1637E+02
    -10.965  0.1036E+02  0.1708E+02
    -10.897  0.1078E+02  0.1781E+02
    -10.829  0.1118E+02  0.1858E+02
    -10.760  0.9969E+01  0.1926E+02
    -10.692  0.8171E+01  0.1982E+02
    -10.624  0.7986E+01  0.2036E+02
    -10.556  0.8096E+01  0.2091E+02
    -10.487  0.7351E+01  0.2142E+02
    -10.419  0.5318E+01  0.2178E+02
    -10.351  0.2622E+01  0.2196E+02
    -10.282  0.1359E+01  0.2205E+02
    -10.214  0.2024E+01  0.2219E+02
    -10.146  0.3566E+01  0.2243E+02
    -10.078  0.5600E+01  0.2281E+02
    -10.009  0.6883E+01  0.2328E+02
     -9.941  0.6000E+01  0.2369E+02
     -9.873  0.3374E+01  0.2392E+02
     -9.804  0.1333E+01  0.2402E+02
     -9.736  0.1296E+01  0.2410E+02
     -9.668  0.1673E+01  0.2422E+02
     -9.600  0.1035E+01  0.2429E+02
     -9.531  0.4899E+00  0.2432E+02
     -9.463  0.1168E+01  0.2440E+02
     -9.395  0.2958E+01  0.2460E+02
     -9.326  0.5028E+01  0.2495E+02
     -9.258  0.6301E+01  0.2538E+02
     -9.190  0.5725E+01  0.2577E+02
     -9.122  0.4266E+01  0.2606E+02
     -9.053  0.3230E+01  0.2628E+02
     -8.985  0.3261E+01  0.2650E+02
     -8.917  0.3784E+01  0.2676E+02
     -8.848  0.3623E+01  0.2701E+02
     -8.780  0.3745E+01  0.2727E+02
     -8.712  0.3961E+01  0.2754E+02
     -8.644  0.3536E+01  0.2778E+02
     -8.575  0.3607E+01  0.2802E+02
     -8.507  0.4873E+01  0.2836E+02
     -8.439  0.5825E+01  0.2875E+02
     -8.370  0.4731E+01  0.2908E+02
     -8.302  0.2735E+01  0.2926E+02
     -8.234  0.1906E+01  0.2939E+02
     -8.166  0.2362E+01  0.2956E+02
     -8.097  0.2785E+01  0.2975E+02
     -8.029  0.2399E+01  0.2991E+02
     -7.961  0.2430E+01  0.3008E+02
     -7.892  0.3615E+01  0.3032E+02
     -7.824  0.5047E+01  0.3067E+02
     -7.756  0.5357E+01  0.3103E+02
     -7.688  0.4449E+01  0.3134E+02
     -7.619  0.4243E+01  0.3163E+02
     -7.551  0.5036E+01  0.3197E+02
     -7.483  0.6477E+01  0.3241E+02
     -7.414  0.8356E+01  0.3298E+02
     -7.346  0.8930E+01  0.3359E+02
     -7.278  0.8085E+01  0.3414E+02
     -7.210  0.8961E+01  0.3476E+02
     -7.141  0.1171E+02  0.3556E+02
     -7.073  0.1163E+02  0.3635E+02
     -7.005  0.8274E+01  0.3691E+02
     -6.936  0.5495E+01  0.3729E+02
     -6.868  0.5335E+01  0.3765E+02
     -6.800  0.7413E+01  0.3816E+02
     -6.732  0.1013E+02  0.3885E+02
     -6.663  0.1104E+02  0.3961E+02
     -6.595  0.8444E+01  0.4018E+02
     -6.527  0.5440E+01  0.4055E+02
     -6.458  0.4478E+01  0.4086E+02
     -6.390  0.5247E+01  0.4122E+02
     -6.322  0.6860E+01  0.4169E+02
     -6.254  0.7728E+01  0.4221E+02
     -6.185  0.6879E+01  0.4268E+02
     -6.117  0.4963E+01  0.4302E+02
     -6.049  0.3885E+01  0.4329E+02
     -5.980  0.4073E+01  0.4357E+02
     -5.912  0.4557E+01  0.4388E+02
     -5.844  0.5426E+01  0.4425E+02
     -5.776  0.6085E+01  0.4466E+02
     -5.707  0.5681E+01  0.4505E+02
     -5.639  0.5504E+01  0.4543E+02
     -5.571  0.6256E+01  0.4585E+02
     -5.502  0.6600E+01  0.4631E+02
     -5.434  0.6329E+01  0.4674E+02
     -5.366  0.6073E+01  0.4715E+02
     -5.298  0.6383E+01  0.4759E+02
     -5.229  0.7414E+01  0.4809E+02
     -5.161  0.7105E+01  0.4858E+02
     -5.093  0.5615E+01  0.4896E+02
     -5.024  0.6433E+01  0.4940E+02
     -4.956  0.8920E+01  0.5001E+02
     -4.888  0.9592E+01  0.5067E+02
     -4.820  0.8362E+01  0.5124E+02
     -4.751  0.7382E+01  0.5174E+02
     -4.683  0.7966E+01  0.5229E+02
     -4.615  0.9194E+01  0.5291E+02
     -4.546  0.9667E+01  0.5357E+02
     -4.478  0.9561E+01  0.5423E+02
     -4.410  0.1004E+02  0.5491E+02
     -4.342  0.1137E+02  0.5569E+02
     -4.273  0.1175E+02  0.5649E+02
     -4.205  0.1140E+02  0.5727E+02
     -4.137  0.1228E+02  0.5811E+02
     -4.068  0.1390E+02  0.5906E+02
     -4.000  0.1487E+02  0.6007E+02
     -3.932  0.1408E+02  0.6103E+02
     -3.864  0.1187E+02  0.6184E+02
     -3.795  0.1098E+02  0.6259E+02
     -3.727  0.1244E+02  0.6344E+02
     -3.659  0.1341E+02  0.6436E+02
     -3.590  0.1235E+02  0.6520E+02
     -3.522  0.1165E+02  0.6600E+02
     -3.454  0.1297E+02  0.6688E+02
     -3.386  0.1436E+02  0.6786E+02
     -3.317  0.1437E+02  0.6884E+02
     -3.249  0.1473E+02  0.6985E+02
     -3.181  0.1666E+02  0.7099E+02
     -3.112  0.1880E+02  0.7227E+02
     -3.044  0.1845E+02  0.7353E+02
     -2.976  0.1703E+02  0.7469E+02
     -2.908  0.1572E+02  0.7577E+02
     -2.839  0.1503E+02  0.7679E+02
     -2.771  0.1639E+02  0.7791E+02
     -2.703  0.1795E+02  0.7914E+02
     -2.634  0.1802E+02  0.8037E+02
     -2.566  0.1752E+02  0.8157E+02
     -2.498  0.1717E+02  0.8274E+02
     -2.430  0.1693E+02  0.8389E+02
     -2.361  0.1581E+02  0.8497E+02
     -2.293  0.1435E+02  0.8595E+02
     -2.225  0.1409E+02  0.8692E+02
     -2.156  0.1429E+02  0.8789E+02
     -2.088  0.1348E+02  0.8881E+02
     -2.020  0.1358E+02  0.8974E+02
     -1.952  0.1550E+02  0.9080E+02
     -1.883  0.1642E+02  0.9192E+02
     -1.815  0.1574E+02  0.9299E+02
     -1.747  0.1572E+02  0.9407E+02
     -1.678  0.1527E+02  0.9511E+02
     -1.610  0.1383E+02  0.9605E+02
     -1.542  0.1343E+02  0.9697E+02
     -1.474  0.1384E+02  0.9792E+02
     -1.405  0.1357E+02  0.9884E+02
     -1.337  0.1213E+02  0.9967E+02
     -1.269  0.1090E+02  0.1004E+03
     -1.200  0.9302E+01  0.1011E+03
     -1.132  0.8296E+01  0.1016E+03
     -1.064  0.9734E+01  0.1023E+03
     -0.996  0.1075E+02  0.1030E+03
     -0.927  0.9577E+01  0.1037E+03
     -0.859  0.8437E+01  0.1042E+03
     -0.791  0.7888E+01  0.1048E+03
     -0.723  0.6181E+01  0.1052E+03
     -0.654  0.4614E+01  0.1055E+03
     -0.586  0.3911E+01  0.1058E+03
     -0.518  0.3162E+01  0.1060E+03
     -0.449  0.2188E+01  0.1062E+03
     -0.381  0.1917E+01  0.1063E+03
     -0.313  0.2730E+01  0.1065E+03
     -0.245  0.4035E+01  0.1067E+03
     -0.176  0.4859E+01  0.1071E+03
     -0.108  0.5621E+01  0.1075E+03
     -0.040  0.6282E+01  0.1079E+03
      0.029  0.5466E+01  0.1083E+03
      0.097  0.4031E+01  0.1085E+03
      0.165  0.3021E+01  0.1087E+03
      0.233  0.2512E+01  0.1089E+03
      0.302  0.1891E+01  0.1090E+03
      0.370  0.1608E+01  0.1092E+03
      0.438  0.2333E+01  0.1093E+03
      0.507  0.3379E+01  0.1095E+03
      0.575  0.3808E+01  0.1098E+03
      0.643  0.3066E+01  0.1100E+03
      0.711  0.1988E+01  0.1102E+03
      0.780  0.2021E+01  0.1103E+03
      0.848  0.3319E+01  0.1105E+03
      0.916  0.4900E+01  0.1109E+03
      0.985  0.5220E+01  0.1112E+03
      1.053  0.4439E+01  0.1115E+03
      1.121  0.5373E+01  0.1119E+03
      1.189  0.8465E+01  0.1125E+03
      1.258  0.1167E+02  0.1133E+03
      1.326  0.1298E+02  0.1141E+03
      1.394  0.1181E+02  0.1149E+03
      1.463  0.1055E+02  0.1157E+03
      1.531  0.1150E+02  0.1165E+03
      1.599  0.1332E+02  0.1174E+03
      1.667  0.1399E+02  0.1183E+03
      1.736  0.1414E+02  0.1193E+03
      1.804  0.1381E+02  0.1202E+03
      1.872  0.1250E+02  0.1211E+03
      1.941  0.1162E+02  0.1219E+03
      2.009  0.1193E+02  0.1227E+03
      2.077  0.1231E+02  0.1235E+03
      2.145  0.1280E+02  0.1244E+03
      2.214  0.1412E+02  0.1254E+03
      2.282  0.1469E+02  0.1264E+03
      2.350  0.1456E+02  0.1274E+03
      2.419  0.1525E+02  0.1284E+03
      2.487  0.1545E+02  0.1295E+03
      2.555  0.1481E+02  0.1305E+03
      2.623  0.1513E+02  0.1315E+03
      2.692  0.1436E+02  0.1325E+03
      2.760  0.1145E+02  0.1333E+03
      2.828  0.9157E+01  0.1339E+03
      2.897  0.8166E+01  0.1344E+03
      2.965  0.7441E+01  0.1350E+03
      3.033  0.6311E+01  0.1354E+03
      3.101  0.4793E+01  0.1357E+03
      3.170  0.2880E+01  0.1359E+03
      3.238  0.1074E+01  0.1360E+03
      3.306  0.2035E+00  0.1360E+03
      3.375  0.1756E-01  0.1360E+03
      3.443  0.6523E-03  0.1360E+03
      3.511  0.1012E-04  0.1360E+03
      3.579  0.6453E-07  0.1360E+03
      3.648  0.1671E-09  0.1360E+03
      3.716  0.1746E-12  0.1360E+03
      3.784  0.0000E+00  0.1360E+03
      3.853  0.0000E+00  0.1360E+03
      3.921  0.0000E+00  0.1360E+03
      3.989  0.0000E+00  0.1360E+03
      4.057  0.0000E+00  0.1360E+03
      4.126  0.0000E+00  0.1360E+03
