   24   24    1    1
  0.4176334E+02  0.3540400E-09  0.1044544E-08  0.2750143E-08  0.5000000E-15
  1.000000000000000E-004
  CAR 
 unknown system                          
    108     54     68
 
  0.0000000E+00  0.0000000E+00  0.0000000E+00  0.9615385E-02
    1      -15.359724
    2      -13.568246
    3      -13.202185
    4      -12.828655
    5      -12.686531
    6      -12.506833
    7      -12.114875
    8      -11.839359
    9      -11.467103
   10      -11.455610
   11      -11.018357
   12      -10.077469
   13       -9.194301
   14       -8.061706
   15       -7.857243
   16       -7.176259
   17       -7.135797
   18       -6.834431
   19       -6.523186
   20       -6.318234
   21       -5.854166
   22       -5.361651
   23       -5.028476
   24       -4.767784
   25       -4.262788
   26       -4.015994
   27       -3.754120
   28       -3.644748
   29       -3.434762
   30       -3.298142
   31       -3.174786
   32       -3.083031
   33       -2.871905
   34       -2.848407
   35       -2.734013
   36       -2.502081
   37       -2.447804
   38       -2.422044
   39       -2.360488
   40       -2.201722
   41       -2.073656
   42       -1.942732
   43       -1.882389
   44       -1.757121
   45       -1.723418
   46       -1.670430
   47       -1.604004
   48       -1.496626
   49       -1.459730
   50       -1.278021
   51       -1.130118
   52       -1.054944
   53       -0.102408
   54        0.222247
   55        0.910960
   56        1.108645
   57        1.180088
   58        1.253609
   59        1.316120
   60        1.396760
   61        1.682744
   62        1.828050
   63        1.926478
   64        2.030621
   65        2.133095
   66        2.407321
   67        2.449022
   68        2.623572
 
  0.7692308E-01 -0.1387779E-16  0.0000000E+00  0.1923077E-01
    1      -15.306699
    2      -13.506896
    3      -13.146961
    4      -12.776495
    5      -12.627832
    6      -12.451184
    7      -12.052677
    8      -11.791266
    9      -11.415978
   10      -11.403283
   11      -10.969986
   12      -10.052815
   13       -9.182442
   14       -8.098308
   15       -7.820315
   16       -7.193813
   17       -7.124534
   18       -6.807876
   19       -6.517302
   20       -6.300342
   21       -5.821194
   22       -5.500538
   23       -5.191680
   24       -4.774346
   25       -4.587978
   26       -4.013391
   27       -3.789559
   28       -3.677793
   29       -3.525889
   30       -3.459721
   31       -3.299392
   32       -3.230799
   33       -3.165789
   34       -2.953294
   35       -2.860281
   36       -2.766867
   37       -2.633944
   38       -2.508874
   39       -2.446898
   40       -2.344991
   41       -2.221300
   42       -2.060691
   43       -2.020470
   44       -1.992322
   45       -1.865387
   46       -1.781231
   47       -1.616203
   48       -1.575401
   49       -1.532334
   50       -1.288768
   51       -1.106066
   52       -0.998832
   53       -0.076260
   54        0.235759
   55        0.827609
   56        1.099428
   57        1.336469
   58        1.517478
   59        1.632396
   60        1.739411
   61        1.927655
   62        2.098798
   63        2.185024
   64        2.207565
   65        2.305366
   66        2.586001
   67        2.612540
   68        2.767139
 
  0.1538462E+00 -0.2775558E-16  0.0000000E+00  0.1923077E-01
    1      -15.150466
    2      -13.323918
    3      -12.983316
    4      -12.620734
    5      -12.454311
    6      -12.286294
    7      -11.870375
    8      -11.649968
    9      -11.271830
   10      -11.246830
   11      -10.831209
   12       -9.993047
   13       -9.165011
   14       -8.194514
   15       -7.778141
   16       -7.399492
   17       -7.094202
   18       -6.744971
   19       -6.528939
   20       -6.296100
   21       -5.999283
   22       -5.744086
   23       -5.315979
   24       -4.900486
   25       -4.818289
   26       -4.251359
   27       -4.153757
   28       -4.106194
   29       -4.005570
   30       -3.961211
   31       -3.735326
   32       -3.687574
   33       -3.426486
   34       -3.253719
   35       -3.194388
   36       -3.110958
   37       -2.994482
   38       -2.941138
   39       -2.768453
   40       -2.572972
   41       -2.447968
   42       -2.392544
   43       -2.287832
   44       -2.170319
   45       -1.968588
   46       -1.815994
   47       -1.683389
   48       -1.645875
   49       -1.324365
   50       -1.174311
   51       -1.013131
   52       -0.831921
   53       -0.234805
   54        0.034586
   55        0.553942
   56        0.947991
   57        1.242774
   58        1.751812
   59        1.913225
   60        2.218277
   61        2.266229
   62        2.388653
   63        2.444415
   64        2.601466
   65        2.665883
   66        2.911375
   67        2.973267
   68        3.051783
 
  0.2307692E+00 -0.4163336E-16  0.0000000E+00  0.1923077E-01
    1      -14.901154
    2      -13.022900
    3      -12.718809
    4      -12.364461
    5      -12.175199
    6      -12.019486
    7      -11.582967
    8      -11.427124
    9      -11.054382
   10      -11.002792
   11      -10.628186
   12       -9.956186
   13       -9.193557
   14       -8.385940
   15       -7.936467
   16       -7.848876
   17       -7.139089
   18       -6.721429
   19       -6.661378
   20       -6.465984
   21       -6.143982
   22       -5.766481
   23       -5.564222
   24       -5.366954
   25       -5.240126
   26       -4.838655
   27       -4.649486
   28       -4.584065
   29       -4.517516
   30       -4.384619
   31       -4.204791
   32       -3.875345
   33       -3.807825
   34       -3.638571
   35       -3.499196
   36       -3.371702
   37       -3.118421
   38       -3.042380
   39       -3.009412
   40       -2.695521
   41       -2.630758
   42       -2.502353
   43       -2.445845
   44       -2.264894
   45       -1.936211
   46       -1.864477
   47       -1.766831
   48       -1.696026
   49       -1.497218
   50       -1.267881
   51       -1.084028
   52       -0.670185
   53       -0.500312
   54       -0.415750
   55        0.388934
   56        0.922442
   57        1.258053
   58        1.757761
   59        1.826054
   60        1.990703
   61        2.071586
   62        2.257702
   63        2.368141
   64        2.451459
   65        2.651354
   66        2.849222
   67        2.923493
   68        2.967867
 
  0.3076923E+00 -0.5551115E-16  0.0000000E+00  0.1923077E-01
    1      -14.582048
    2      -12.611196
    3      -12.373787
    4      -12.016151
    5      -11.813348
    6      -11.667923
    7      -11.226258
    8      -11.154267
    9      -10.810019
   10      -10.720231
   11      -10.442458
   12      -10.064135
   13       -9.278702
   14       -8.680846
   15       -8.506126
   16       -8.111031
   17       -7.355886
   18       -7.022883
   19       -6.927067
   20       -6.798237
   21       -6.381820
   22       -6.190408
   23       -5.991352
   24       -5.815953
   25       -5.579939
   26       -5.238918
   27       -4.973741
   28       -4.796672
   29       -4.724475
   30       -4.527568
   31       -4.334545
   32       -4.243782
   33       -3.907640
   34       -3.718799
   35       -3.461547
   36       -3.406096
   37       -3.178835
   38       -3.103509
   39       -2.982659
   40       -2.860030
   41       -2.784474
   42       -2.637847
   43       -2.551866
   44       -2.326060
   45       -2.084443
   46       -1.928351
   47       -1.900364
   48       -1.754997
   49       -1.706331
   50       -1.442006
   51       -1.240588
   52       -1.089186
   53       -0.776863
   54       -0.661354
   55        0.142139
   56        0.829934
   57        1.337630
   58        1.537800
   59        1.705059
   60        1.757514
   61        1.932987
   62        2.026587
   63        2.194464
   64        2.281703
   65        2.431172
   66        2.635167
   67        2.757777
   68        2.831318
 
  0.3846154E+00 -0.8326673E-16  0.0000000E+00  0.1923077E-01
    1      -14.245204
    2      -12.103755
    3      -12.010153
    4      -11.597008
    5      -11.429595
    6      -11.271171
    7      -10.925388
    8      -10.875804
    9      -10.655537
   10      -10.549971
   11      -10.482698
   12      -10.207080
   13       -9.409831
   14       -8.940898
   15       -8.857115
   16       -8.403529
   17       -7.675488
   18       -7.486113
   19       -7.441700
   20       -7.157445
   21       -6.843294
   22       -6.787548
   23       -6.687386
   24       -6.201165
   25       -5.441561
   26       -5.242064
   27       -4.986817
   28       -4.651193
   29       -4.553676
   30       -4.372128
   31       -4.247197
   32       -4.105653
   33       -4.073555
   34       -3.773479
   35       -3.682646
   36       -3.394419
   37       -3.291428
   38       -3.202238
   39       -3.162938
   40       -2.928701
   41       -2.820935
   42       -2.745365
   43       -2.514041
   44       -2.439105
   45       -2.311442
   46       -2.163745
   47       -2.056003
   48       -1.889534
   49       -1.789038
   50       -1.553015
   51       -1.403286
   52       -1.338895
   53       -0.980121
   54       -0.802758
   55       -0.079002
   56        0.659973
   57        1.283964
   58        1.370974
   59        1.627644
   60        1.653353
   61        1.711724
   62        1.872911
   63        2.002790
   64        2.172414
   65        2.235904
   66        2.350179
   67        2.612283
   68        2.773965
 
  0.4615385E+00 -0.8326673E-16  0.0000000E+00  0.1923077E-01
    1      -14.002039
    2      -11.805311
    3      -11.527854
    4      -11.174368
    5      -11.124043
    6      -10.971480
    7      -10.871557
    8      -10.837749
    9      -10.756090
   10      -10.663358
   11      -10.544021
   12      -10.101790
   13       -9.713059
   14       -9.085553
   15       -8.715636
   16       -8.466005
   17       -8.105987
   18       -7.827923
   19       -7.597421
   20       -7.540841
   21       -7.313006
   22       -7.209272
   23       -7.129617
   24       -6.351761
   25       -5.282956
   26       -4.951331
   27       -4.894229
   28       -4.533159
   29       -4.331790
   30       -4.225504
   31       -4.100217
   32       -4.047093
   33       -3.969305
   34       -3.857901
   35       -3.751362
   36       -3.659217
   37       -3.556553
   38       -3.281110
   39       -3.139452
   40       -3.018625
   41       -2.997825
   42       -2.786688
   43       -2.705781
   44       -2.537929
   45       -2.381660
   46       -2.233993
   47       -2.132743
   48       -1.959739
   49       -1.773753
   50       -1.567875
   51       -1.524473
   52       -1.423370
   53       -1.086940
   54       -0.840175
   55       -0.208785
   56        0.563730
   57        1.271753
   58        1.337744
   59        1.453130
   60        1.536517
   61        1.617073
   62        1.767490
   63        1.871349
   64        2.035592
   65        2.131261
   66        2.359797
   67        2.483431
   68        2.623776
 
  0.0000000E+00  0.2500000E+00  0.0000000E+00  0.1923077E-01
    1      -15.358659
    2      -13.512908
    3      -13.237716
    4      -13.002275
    5      -12.604964
    6      -12.502792
    7      -11.982261
    8      -11.892368
    9      -11.506864
   10      -11.352599
   11      -11.027195
   12      -10.047886
   13       -9.288140
   14       -8.543494
   15       -7.434601
   16       -7.159686
   17       -7.126786
   18       -6.698743
   19       -6.628101
   20       -6.233204
   21       -5.775910
   22       -5.453403
   23       -4.861517
   24       -4.664313
   25       -4.197657
   26       -4.073704
   27       -3.968029
   28       -3.624861
   29       -3.502753
   30       -3.374263
   31       -3.319136
   32       -3.155044
   33       -2.831758
   34       -2.740835
   35       -2.735755
   36       -2.531863
   37       -2.431268
   38       -2.391028
   39       -2.353732
   40       -2.216340
   41       -2.130676
   42       -2.037817
   43       -1.985352
   44       -1.909064
   45       -1.702717
   46       -1.656112
   47       -1.525659
   48       -1.411943
   49       -1.390177
   50       -1.262966
   51       -1.113705
   52       -0.996256
   53       -0.094836
   54        0.048996
   55        1.037478
   56        1.136761
   57        1.173427
   58        1.301960
   59        1.350113
   60        1.452727
   61        1.697735
   62        1.817067
   63        1.924852
   64        2.106594
   65        2.242876
   66        2.437740
   67        2.566815
   68        2.620679
 
  0.7692308E-01  0.2500000E+00  0.0000000E+00  0.1923077E-01
    1      -15.305475
    2      -13.436079
    3      -13.188267
    4      -12.983179
    5      -12.528874
    6      -12.444477
    7      -11.955748
    8      -11.795802
    9      -11.465522
   10      -11.280914
   11      -10.982905
   12      -10.019373
   13       -9.287498
   14       -8.602003
   15       -7.391606
   16       -7.176846
   17       -7.131942
   18       -6.707221
   19       -6.557504
   20       -6.174885
   21       -5.727958
   22       -5.546410
   23       -5.222200
   24       -4.715709
   25       -4.348009
   26       -4.133074
   27       -4.001269
   28       -3.687415
   29       -3.593403
   30       -3.420481
   31       -3.354549
   32       -3.272479
   33       -3.123157
   34       -3.048467
   35       -2.854656
   36       -2.766400
   37       -2.652459
   38       -2.532644
   39       -2.450181
   40       -2.304955
   41       -2.291975
   42       -2.169199
   43       -2.044862
   44       -1.999048
   45       -1.862891
   46       -1.777376
   47       -1.708036
   48       -1.553410
   49       -1.405645
   50       -1.239509
   51       -1.066271
   52       -0.953059
   53       -0.067305
   54        0.051814
   55        0.894199
   56        1.107097
   57        1.482316
   58        1.545068
   59        1.595570
   60        1.767619
   61        1.935853
   62        1.965214
   63        2.206277
   64        2.380998
   65        2.503095
   66        2.619864
   67        2.635973
   68        2.825594
 
  0.1538462E+00  0.2500000E+00  0.0000000E+00  0.1923077E-01
    1      -15.149187
    2      -13.239576
    3      -13.026126
    4      -12.846690
    5      -12.345883
    6      -12.276650
    7      -11.826606
    8      -11.598804
    9      -11.326102
   10      -11.113743
   11      -10.841708
   12       -9.962788
   13       -9.266863
   14       -8.667617
   15       -7.434426
   16       -7.315299
   17       -7.106735
   18       -6.684821
   19       -6.526689
   20       -6.224007
   21       -5.914978
   22       -5.678995
   23       -5.469147
   24       -4.873342
   25       -4.649634
   26       -4.408413
   27       -4.325445
   28       -4.179389
   29       -4.010780
   30       -3.927453
   31       -3.686288
   32       -3.585507
   33       -3.409573
   34       -3.278031
   35       -3.153152
   36       -3.057776
   37       -2.987555
   38       -2.828503
   39       -2.763712
   40       -2.632014
   41       -2.566486
   42       -2.464136
   43       -2.377773
   44       -2.311782
   45       -1.978968
   46       -1.907856
   47       -1.617725
   48       -1.504896
   49       -1.277229
   50       -1.128820
   51       -0.999455
   52       -0.872342
   53       -0.221843
   54       -0.047207
   55        0.494198
   56        0.964922
   57        1.331863
   58        1.613814
   59        1.722817
   60        2.092826
   61        2.317144
   62        2.351937
   63        2.453950
   64        2.718322
   65        2.861816
   66        2.949380
   67        3.036389
   68        3.117491
 
  0.2307692E+00  0.2500000E+00  0.0000000E+00  0.1923077E-01
    1      -14.899978
    2      -12.928316
    3      -12.758300
    4      -12.595358
    5      -12.067644
    6      -12.008107
    7      -11.601810
    8      -11.322500
    9      -11.104361
   10      -10.869439
   11      -10.624476
   12       -9.943008
   13       -9.268160
   14       -8.798805
   15       -7.932956
   16       -7.419647
   17       -7.175799
   18       -6.724154
   19       -6.671911
   20       -6.463490
   21       -6.033114
   22       -5.847718
   23       -5.653882
   24       -5.247617
   25       -5.202036
   26       -5.053097
   27       -4.697585
   28       -4.616228
   29       -4.574275
   30       -4.356467
   31       -4.041863
   32       -3.851534
   33       -3.768996
   34       -3.605698
   35       -3.326662
   36       -3.239518
   37       -3.137587
   38       -3.116031
   39       -2.859308
   40       -2.716638
   41       -2.657568
   42       -2.601638
   43       -2.552369
   44       -2.334458
   45       -2.012258
   46       -1.923853
   47       -1.805449
   48       -1.639050
   49       -1.426143
   50       -1.252895
   51       -1.053231
   52       -0.692471
   53       -0.580966
   54       -0.334302
   55        0.227798
   56        0.947601
   57        1.215288
   58        1.418078
   59        1.567569
   60        1.699560
   61        2.048881
   62        2.215106
   63        2.447538
   64        2.562923
   65        2.695010
   66        2.860079
   67        3.014122
   68        3.125720
 
  0.3076923E+00  0.2500000E+00  0.0000000E+00  0.1923077E-01
    1      -14.581082
    2      -12.512157
    3      -12.404136
    4      -12.236395
    5      -11.721188
    6      -11.659386
    7      -11.303440
    8      -11.009054
    9      -10.840729
   10      -10.601271
   11      -10.419099
   12      -10.081359
   13       -9.306114
   14       -8.997855
   15       -8.490031
   16       -7.733431
   17       -7.429493
   18       -7.140107
   19       -6.988520
   20       -6.775248
   21       -6.307269
   22       -6.218557
   23       -5.947968
   24       -5.856577
   25       -5.621956
   26       -5.407066
   27       -5.000993
   28       -4.962053
   29       -4.487476
   30       -4.437427
   31       -4.347101
   32       -4.039697
   33       -3.945140
   34       -3.618606
   35       -3.469593
   36       -3.365224
   37       -3.083463
   38       -3.023813
   39       -2.911471
   40       -2.866532
   41       -2.731243
   42       -2.629272
   43       -2.519846
   44       -2.418012
   45       -2.292875
   46       -1.992456
   47       -1.913370
   48       -1.779074
   49       -1.721536
   50       -1.437593
   51       -1.259824
   52       -1.078514
   53       -0.829773
   54       -0.620195
   55        0.033554
   56        0.771385
   57        1.195664
   58        1.237445
   59        1.361591
   60        1.615211
   61        1.843108
   62        2.116502
   63        2.229103
   64        2.337972
   65        2.462791
   66        2.598661
   67        2.660562
   68        2.935318
 
  0.3846154E+00  0.2500000E+00  0.0000000E+00  0.1923077E-01
    1      -14.244674
    2      -12.034878
    3      -11.999926
    4      -11.786503
    5      -11.381094
    6      -11.269799
    7      -10.992096
    8      -10.751682
    9      -10.630040
   10      -10.512346
   11      -10.494933
   12      -10.201321
   13       -9.410844
   14       -8.987984
   15       -8.927834
   16       -8.138044
   17       -7.806737
   18       -7.740164
   19       -7.384388
   20       -7.071435
   21       -6.879241
   22       -6.722188
   23       -6.687036
   24       -6.230773
   25       -5.471336
   26       -5.370973
   27       -4.980698
   28       -4.811055
   29       -4.505812
   30       -4.381391
   31       -4.144463
   32       -4.025133
   33       -3.888420
   34       -3.593992
   35       -3.504263
   36       -3.380131
   37       -3.311533
   38       -3.181227
   39       -3.142921
   40       -2.968909
   41       -2.876286
   42       -2.733441
   43       -2.602357
   44       -2.478923
   45       -2.334489
   46       -2.195085
   47       -2.100138
   48       -1.893185
   49       -1.760665
   50       -1.572862
   51       -1.455090
   52       -1.361679
   53       -1.014996
   54       -0.764112
   55       -0.138255
   56        0.593622
   57        1.165802
   58        1.277176
   59        1.310801
   60        1.535503
   61        1.698645
   62        1.813693
   63        1.987803
   64        2.069255
   65        2.280329
   66        2.462892
   67        2.582065
   68        2.672493
 
  0.4615385E+00  0.2500000E+00  0.0000000E+00  0.1923077E-01
    1      -14.001902
    2      -11.807544
    3      -11.456619
    4      -11.291375
    5      -11.122116
    6      -10.984511
    7      -10.891851
    8      -10.844760
    9      -10.726773
   10      -10.608826
   11      -10.532985
   12      -10.102106
   13       -9.708869
   14       -9.097235
   15       -8.582083
   16       -8.426820
   17       -8.354299
   18       -7.842293
   19       -7.543161
   20       -7.483761
   21       -7.342444
   22       -7.177228
   23       -7.155197
   24       -6.374033
   25       -5.236866
   26       -5.049155
   27       -4.922532
   28       -4.500562
   29       -4.400532
   30       -4.217563
   31       -4.160842
   32       -4.011505
   33       -3.946060
   34       -3.751683
   35       -3.686359
   36       -3.522361
   37       -3.441412
   38       -3.286391
   39       -3.233402
   40       -3.088474
   41       -3.002795
   42       -2.746147
   43       -2.645941
   44       -2.611714
   45       -2.567803
   46       -2.202191
   47       -2.147347
   48       -1.895050
   49       -1.749943
   50       -1.607034
   51       -1.531880
   52       -1.422584
   53       -1.045863
   54       -0.828380
   55       -0.245468
   56        0.482116
   57        1.254860
   58        1.385684
   59        1.460211
   60        1.518732
   61        1.549965
   62        1.646591
   63        1.803627
   64        2.001951
   65        2.263648
   66        2.371108
   67        2.419395
   68        2.480552
 
 -0.4615385E+00  0.2500000E+00  0.0000000E+00  0.1923077E-01
    1      -14.002154
    2      -11.808503
    3      -11.561567
    4      -11.103961
    5      -11.097337
    6      -10.957573
    7      -10.856986
    8      -10.836711
    9      -10.782511
   10      -10.732184
   11      -10.531568
   12      -10.115794
   13       -9.705394
   14       -9.114109
   15       -8.784152
   16       -8.459803
   17       -7.970954
   18       -7.785994
   19       -7.630804
   20       -7.547144
   21       -7.307515
   22       -7.248441
   23       -7.118583
   24       -6.374468
   25       -5.217018
   26       -4.932034
   27       -4.759314
   28       -4.606638
   29       -4.404416
   30       -4.293523
   31       -4.091224
   32       -4.028985
   33       -3.992794
   34       -3.909299
   35       -3.832845
   36       -3.688587
   37       -3.556330
   38       -3.373424
   39       -3.105913
   40       -2.959007
   41       -2.839926
   42       -2.799784
   43       -2.711978
   44       -2.655855
   45       -2.408047
   46       -2.196719
   47       -2.166478
   48       -1.931469
   49       -1.761811
   50       -1.560231
   51       -1.451952
   52       -1.388510
   53       -0.989222
   54       -0.844241
   55       -0.242733
   56        0.492830
   57        1.279990
   58        1.360656
   59        1.497152
   60        1.632945
   61        1.672081
   62        1.737849
   63        1.880140
   64        2.086473
   65        2.267863
   66        2.351981
   67        2.507110
   68        2.539112
 
 -0.3846154E+00  0.2500000E+00  0.0000000E+00  0.1923077E-01
    1      -14.245402
    2      -12.129954
    3      -12.009469
    4      -11.512529
    5      -11.434812
    6      -11.268681
    7      -10.958803
    8      -10.900566
    9      -10.658305
   10      -10.551535
   11      -10.478307
   12      -10.228216
   13       -9.419018
   14       -8.952242
   15       -8.769072
   16       -8.516984
   17       -7.608026
   18       -7.467213
   19       -7.356896
   20       -7.203298
   21       -6.837437
   22       -6.794116
   23       -6.691187
   24       -6.245315
   25       -5.417750
   26       -5.108595
   27       -4.961962
   28       -4.839240
   29       -4.435168
   30       -4.344025
   31       -4.277752
   32       -4.143918
   33       -4.110140
   34       -3.823112
   35       -3.749610
   36       -3.436231
   37       -3.348601
   38       -3.234395
   39       -3.124904
   40       -3.070993
   41       -2.743475
   42       -2.710872
   43       -2.551165
   44       -2.490128
   45       -2.271240
   46       -2.152550
   47       -1.973646
   48       -1.863939
   49       -1.739506
   50       -1.510247
   51       -1.433206
   52       -1.296848
   53       -0.854871
   54       -0.811407
   55       -0.090906
   56        0.633996
   57        1.281731
   58        1.419016
   59        1.582619
   60        1.724773
   61        1.817429
   62        1.950467
   63        2.039065
   64        2.205430
   65        2.269529
   66        2.428025
   67        2.605663
   68        2.665500
 
 -0.3076923E+00  0.2500000E+00  0.0000000E+00  0.1923077E-01
    1      -14.582154
    2      -12.623467
    3      -12.370865
    4      -11.974685
    5      -11.825647
    6      -11.667527
    7      -11.269796
    8      -11.121127
    9      -10.801926
   10      -10.744767
   11      -10.448521
   12      -10.067940
   13       -9.300093
   14       -8.582117
   15       -8.496753
   16       -8.213354
   17       -7.233409
   18       -7.028713
   19       -6.926593
   20       -6.896011
   21       -6.344840
   22       -6.184068
   23       -6.000636
   24       -5.829337
   25       -5.581703
   26       -5.184084
   27       -4.985830
   28       -4.876777
   29       -4.670546
   30       -4.459072
   31       -4.336026
   32       -4.267726
   33       -3.899296
   34       -3.833686
   35       -3.488280
   36       -3.430940
   37       -3.188753
   38       -3.110319
   39       -2.991998
   40       -2.937867
   41       -2.802156
   42       -2.635226
   43       -2.457471
   44       -2.306348
   45       -2.054516
   46       -1.914394
   47       -1.897821
   48       -1.738530
   49       -1.682691
   50       -1.434260
   51       -1.272713
   52       -1.063833
   53       -0.794519
   54       -0.579375
   55        0.161736
   56        0.850620
   57        1.311850
   58        1.569979
   59        1.673263
   60        1.860626
   61        1.950062
   62        2.056495
   63        2.207528
   64        2.316661
   65        2.420153
   66        2.661149
   67        2.724680
   68        2.769435
 
 -0.2307692E+00  0.2500000E+00  0.0000000E+00  0.1923077E-01
    1      -14.901051
    2      -13.018663
    3      -12.723034
    4      -12.379116
    5      -12.168814
    6      -12.019339
    7      -11.566210
    8      -11.433787
    9      -11.058095
   10      -10.990751
   11      -10.626764
   12       -9.953895
   13       -9.227473
   14       -8.426260
   15       -7.920617
   16       -7.806580
   17       -7.002228
   18       -6.732054
   19       -6.672992
   20       -6.647310
   21       -6.084325
   22       -5.767941
   23       -5.537520
   24       -5.360782
   25       -5.241194
   26       -4.862591
   27       -4.627785
   28       -4.613628
   29       -4.530396
   30       -4.313846
   31       -4.203984
   32       -3.924470
   33       -3.804277
   34       -3.683453
   35       -3.481626
   36       -3.369394
   37       -3.154055
   38       -3.036237
   39       -2.992594
   40       -2.727471
   41       -2.672958
   42       -2.500143
   43       -2.407236
   44       -2.189288
   45       -1.927011
   46       -1.865636
   47       -1.775606
   48       -1.693557
   49       -1.495115
   50       -1.259792
   51       -1.071024
   52       -0.678470
   53       -0.519686
   54       -0.375279
   55        0.403980
   56        0.917594
   57        1.158094
   58        1.758084
   59        1.809728
   60        1.990726
   61        2.180711
   62        2.243288
   63        2.322791
   64        2.521623
   65        2.675462
   66        2.800011
   67        2.898503
   68        2.960650
 
 -0.1538462E+00  0.2500000E+00  0.0000000E+00  0.1923077E-01
    1      -15.150028
    2      -13.302440
    3      -12.998516
    4      -12.694274
    5      -12.422056
    6      -12.285484
    7      -11.785770
    8      -11.700305
    9      -11.290417
   10      -11.197666
   11      -10.829213
   12       -9.981000
   13       -9.217491
   14       -8.406315
   15       -7.572707
   16       -7.392262
   17       -7.007082
   18       -6.696483
   19       -6.583379
   20       -6.419325
   21       -5.919396
   22       -5.718346
   23       -5.314461
   24       -4.877363
   25       -4.805851
   26       -4.317997
   27       -4.198321
   28       -4.137794
   29       -3.962320
   30       -3.915714
   31       -3.732893
   32       -3.701674
   33       -3.453609
   34       -3.325575
   35       -3.157902
   36       -3.136121
   37       -2.967134
   38       -2.926325
   39       -2.732359
   40       -2.597415
   41       -2.551902
   42       -2.418052
   43       -2.228588
   44       -2.153543
   45       -1.959782
   46       -1.809097
   47       -1.664975
   48       -1.607780
   49       -1.318892
   50       -1.180474
   51       -0.998445
   52       -0.838546
   53       -0.240653
   54        0.004345
   55        0.566583
   56        0.949519
   57        1.186012
   58        1.748250
   59        1.826544
   60        2.179889
   61        2.336423
   62        2.462722
   63        2.486831
   64        2.653536
   65        2.756194
   66        2.842970
   67        2.974989
   68        3.118606
 
 -0.7692308E-01  0.2500000E+00  0.0000000E+00  0.1923077E-01
    1      -15.305950
    2      -13.468206
    3      -13.173347
    4      -12.904699
    5      -12.569344