       N       E                     dE             d eps       ncg     rms          rms(c)
DAV:   1     0.516436947097E+03    0.51644E+03   -0.28785E+04  7368   0.790E+02
DAV:   2    -0.541038627817E+02   -0.57054E+03   -0.55529E+03  9760   0.191E+02
DAV:   3    -0.112907442988E+03   -0.58804E+02   -0.57863E+02  8900   0.637E+01
DAV:   4    -0.115743462664E+03   -0.28360E+01   -0.28136E+01 11440   0.150E+01
DAV:   5    -0.115797304676E+03   -0.53842E-01   -0.53758E-01  9808   0.203E+00    0.132E+01
DAV:   6    -0.109943728071E+03    0.58536E+01   -0.17953E+01  8828   0.123E+01    0.645E+00
DAV:   7    -0.110194970798E+03   -0.25124E+00   -0.13082E+01  8520   0.870E+00    0.299E+00
DAV:   8    -0.110102604987E+03    0.92366E-01   -0.15953E+00  8628   0.388E+00    0.180E+00
DAV:   9    -0.110130102970E+03   -0.27498E-01   -0.78901E-01  9056   0.213E+00    0.915E-01
DAV:  10    -0.110126109563E+03    0.39934E-02   -0.26226E-01  9176   0.124E+00    0.380E-01
DAV:  11    -0.110121399460E+03    0.47101E-02   -0.35333E-02  8792   0.605E-01    0.162E-01
DAV:  12    -0.110111938812E+03    0.94606E-02   -0.13021E-02  9000   0.335E-01    0.104E-01
DAV:  13    -0.110104892795E+03    0.70460E-02   -0.24892E-03  8888   0.158E-01    0.440E-02
DAV:  14    -0.110102327689E+03    0.25651E-02   -0.78511E-04  8992   0.822E-02    0.231E-02
DAV:  15    -0.110100780641E+03    0.15470E-02   -0.25673E-04  8912   0.475E-02    0.125E-02
DAV:  16    -0.110099959206E+03    0.82144E-03   -0.46247E-05  8688   0.204E-02    0.839E-03
DAV:  17    -0.110100261057E+03   -0.30185E-03   -0.94933E-05  8048   0.253E-02    0.594E-03
DAV:  18    -0.110100595650E+03   -0.33459E-03   -0.99651E-05  8488   0.220E-02    0.380E-03
DAV:  19    -0.110100831269E+03   -0.23562E-03   -0.72745E-05  8592   0.159E-02    0.188E-03
DAV:  20    -0.110100887342E+03   -0.56072E-04   -0.13607E-05  7200   0.901E-03    0.110E-03
DAV:  21    -0.110100921934E+03   -0.34593E-04   -0.26673E-05  6796   0.104E-02    0.793E-04
DAV:  22    -0.110100924641E+03   -0.27070E-05   -0.10559E-05  6324   0.870E-03    0.519E-04
DAV:  23    -0.110100818609E+03    0.10603E-03   -0.17803E-05  7300   0.825E-03    0.281E-04
DAV:  24    -0.110100797204E+03    0.21405E-04   -0.57727E-06  6088   0.803E-03    0.176E-04
DAV:  25    -0.110100767342E+03    0.29863E-04   -0.68046E-06  6676   0.820E-03    0.947E-05
DAV:  26    -0.110100767821E+03   -0.47926E-06   -0.25919E-06  6032   0.593E-03
   1 F= -.11010077E+03 E0= -.11008624E+03  d E =-.290567E-01
