 running on    8 total cores
 distrk:  each k-point on    8 cores,    1 groups
 distr:  one band on    2 cores,    4 groups
 using from now: INCAR     
 vasp.5.3.5 31Mar14 (build Oct 29 2014 16:16:03) complex                        
  
 POSCAR found type information on POSCAR  P  Si
 POSCAR found :  2 types and      24 ions
 scaLAPACK will be used

 ----------------------------------------------------------------------------- 
|                                                                             |
|  ADVICE TO THIS USER RUNNING 'VASP/VAMP'   (HEAR YOUR MASTER'S VOICE ...):  |
|                                                                             |
|      You have switched on vdW-DFT.                                          |
|      This routine was written and supplied by Jiri Klimes.                  |
|      We recommed that you carefully read and cite the following             |
|      publication                                                            |
|      J. Klimes, D.R. Bowler, A. Michelides                                  |
|        J. Phys.: Cond Matt. 22 022201 (2010)                                |
|      J. Klimes, D.R. Bowler, A. Michelides                                  |
|        Phys. Rev. B. 83, 195131 (2011)                                      |
|      and references therein.                                                |
|                                                                             |
 ----------------------------------------------------------------------------- 


 ----------------------------------------------------------------------------- 
|                                                                             |
|  ADVICE TO THIS USER RUNNING 'VASP/VAMP'   (HEAR YOUR MASTER'S VOICE ...):  |
|                                                                             |
|      You enforced a specific xc-type in the INCAR file,                     |
|      a different type was found on the POTCAR file                          |
|          I HOPE YOU KNOW, WHAT YOU ARE  DOING                               |
|                                                                             |
 ----------------------------------------------------------------------------- 

 LDA part: xc-table for Pade appr. of Perdew

 ----------------------------------------------------------------------------- 
|                                                                             |
|           W    W    AA    RRRRR   N    N  II  N    N   GGGG   !!!           |
|           W    W   A  A   R    R  NN   N  II  NN   N  G    G  !!!           |
|           W    W  A    A  R    R  N N  N  II  N N  N  G       !!!           |
|           W WW W  AAAAAA  RRRRR   N  N N  II  N  N N  G  GGG   !            |
|           WW  WW  A    A  R   R   N   NN  II  N   NN  G    G                |
|           W    W  A    A  R    R  N    N  II  N    N   GGGG   !!!           |
|                                                                             |
|      The distance between some ions is very small                           |
|      please check the nearest neigbor list in the OUTCAR file               |
|          I HOPE YOU KNOW, WHAT YOU ARE  DOING                               |
|                                                                             |
 ----------------------------------------------------------------------------- 



 VERY BAD NEWS! internal error in subroutine IBZKPT:
 Reciprocal lattice and k-lattice belong to different class of lattices. Often results are still useful...      96


 VERY BAD NEWS! internal error in subroutine IBZKPT:
 Reciprocal lattice and k-lattice belong to different class of lattices. Often results are still useful...      96


 VERY BAD NEWS! internal error in subroutine IBZKPT:
 Reciprocal lattice and k-lattice belong to different class of lattices. Often results are still useful...      96


 VERY BAD NEWS! internal error in subroutine IBZKPT:
 Reciprocal lattice and k-lattice belong to different class of lattices. Often results are still useful...      96


 VERY BAD NEWS! internal error in subroutine IBZKPT:
 Reciprocal lattice and k-lattice belong to different class of lattices. Often results are still useful...      96


 VERY BAD NEWS! internal error in subroutine IBZKPT:
 Reciprocal lattice and k-lattice belong to different class of lattices. Often results are still useful...      96


 VERY BAD NEWS! internal error in subroutine IBZKPT:
 Reciprocal lattice and k-lattice belong to different class of lattices. Often results are still useful...      96


 VERY BAD NEWS! internal error in subroutine IBZKPT:
 Reciprocal lattice and k-lattice belong to different class of lattices. Often results are still useful...      96
 POSCAR, INCAR and KPOINTS ok, starting setup
 WARNING: small aliasing (wrap around) errors must be expected
 FFT: planning ...
 WAVECAR not read
 entering main loop
       N       E                     dE             d eps       ncg     rms          rms(c)
Total vdW correction in eV:     16.0303654
DAV:   1     0.596586711766E+03    0.59659E+03   -0.28755E+04  7360   0.790E+02
DAV:   2     0.292738688657E+02   -0.56731E+03   -0.55235E+03  9824   0.191E+02
DAV:   3    -0.345441904439E+02   -0.63818E+02   -0.62474E+02 10052   0.648E+01
DAV:   4    -0.381265441700E+02   -0.35824E+01   -0.35440E+01 11168   0.159E+01
DAV:   5    -0.382208738711E+02   -0.94330E-01   -0.94096E-01 10592   0.267E+00    0.158E+01
Total vdW correction in eV:     16.4156069
DAV:   6    -0.310735321567E+02    0.71473E+01   -0.33092E+01 10472   0.169E+01    0.652E+00
Total vdW correction in eV:     16.6976133
DAV:   7    -0.310408524438E+02    0.32680E-01   -0.17468E+01  8064   0.983E+00    0.391E+00
Total vdW correction in eV:     16.9290342
DAV:   8    -0.310149834983E+02    0.25869E-01   -0.26531E+00  9104   0.450E+00    0.197E+00
Total vdW correction in eV:     17.1181652
DAV:   9    -0.310743509401E+02   -0.59367E-01   -0.51941E-01  9120   0.194E+00    0.739E-01
Total vdW correction in eV:     17.1699661
DAV:  10    -0.310712793078E+02    0.30716E-02   -0.10220E-01  9200   0.879E-01    0.353E-01
Total vdW correction in eV:     17.1907214
DAV:  11    -0.310632200151E+02    0.80593E-02   -0.26451E-02  8904   0.458E-01    0.164E-01
Total vdW correction in eV:     17.2010201
DAV:  12    -0.310530621717E+02    0.10158E-01   -0.63194E-03  9240   0.238E-01    0.768E-02
Total vdW correction in eV:     17.2065720
DAV:  13    -0.310470222892E+02    0.60399E-02   -0.13309E-03  9048   0.119E-01    0.349E-02
Total vdW correction in eV:     17.2109678
DAV:  14    -0.310441921920E+02    0.28301E-02   -0.39671E-04  9416   0.559E-02    0.227E-02
Total vdW correction in eV:     17.2153594
DAV:  15    -0.310422431701E+02    0.19490E-02   -0.14043E-04  9344   0.320E-02    0.117E-02
Total vdW correction in eV:     17.2183560
DAV:  16    -0.310415493980E+02    0.69377E-03   -0.55947E-05  8640   0.211E-02    0.729E-03
Total vdW correction in eV:     17.2204473
DAV:  17    -0.310420918879E+02   -0.54249E-03   -0.71804E-05  7984   0.198E-02    0.442E-03
Total vdW correction in eV:     17.2212787
DAV:  18    -0.310425337223E+02   -0.44183E-03   -0.15937E-04  8104   0.228E-02    0.233E-03
Total vdW correction in eV:     17.2211759
DAV:  19    -0.310426510948E+02   -0.11737E-03   -0.57105E-05  7632   0.137E-02    0.179E-03
Total vdW correction in eV:     17.2210471
DAV:  20    -0.310426701078E+02   -0.19013E-04   -0.91765E-06  6728   0.778E-03    0.100E-03
Total vdW correction in eV:     17.2208447
DAV:  21    -0.310426765659E+02   -0.64580E-05   -0.16512E-05  6896   0.902E-03    0.772E-04
Total vdW correction in eV:     17.2207338
DAV:  22    -0.310426810413E+02   -0.44754E-05   -0.15319E-05  7048   0.898E-03    0.493E-04
Total vdW correction in eV:     17.2206374
DAV:  23    -0.310426212886E+02    0.59753E-04   -0.25385E-05  7104   0.115E-02    0.224E-04
Total vdW correction in eV:     17.2206348
DAV:  24    -0.310425967740E+02    0.24515E-04   -0.82112E-06  6444   0.908E-03    0.124E-04
Total vdW correction in eV:     17.2206340
DAV:  25    -0.310425817556E+02    0.15018E-04   -0.70056E-06  7124   0.893E-03    0.593E-05
Total vdW correction in eV:     17.2206354
DAV:  26    -0.310425792523E+02    0.25033E-05   -0.42763E-06  6272   0.715E-03    0.321E-05
Total vdW correction in eV:     17.2206356
DAV:  27    -0.310425751768E+02    0.40755E-05   -0.27580E-06  5828   0.594E-03    0.190E-05
Total vdW correction in eV:     17.2206349
DAV:  28    -0.310425738871E+02    0.12897E-05   -0.16193E-06  5704   0.497E-03    0.110E-05
Total vdW correction in eV:     17.2206347
DAV:  29    -0.310425728753E+02    0.10118E-05   -0.12878E-06  5512   0.480E-03    0.698E-06
Total vdW correction in eV:     17.2206348
DAV:  30    -0.310425725901E+02    0.28516E-06   -0.90205E-07  5320   0.413E-03
Total vdW correction in eV:     17.2206346
Total vdW correction in eV:     17.2206348
   1 F= -.31042573E+02 E0= -.31025176E+02  d E =-.347926E-01
