       N       E                     dE             d eps       ncg     rms          rms(c)
DAV:   1     0.596586711766E+03    0.59659E+03   -0.28755E+04  7360   0.790E+02
DAV:   2     0.292738688657E+02   -0.56731E+03   -0.55235E+03  9824   0.191E+02
DAV:   3    -0.345441904439E+02   -0.63818E+02   -0.62474E+02 10052   0.648E+01
DAV:   4    -0.381265441700E+02   -0.35824E+01   -0.35440E+01 11168   0.159E+01
DAV:   5    -0.382208738711E+02   -0.94330E-01   -0.94096E-01 10592   0.267E+00    0.158E+01
DAV:   6    -0.310735321567E+02    0.71473E+01   -0.33092E+01 10472   0.169E+01    0.652E+00
DAV:   7    -0.310408524438E+02    0.32680E-01   -0.17468E+01  8064   0.983E+00    0.391E+00
DAV:   8    -0.310149834983E+02    0.25869E-01   -0.26531E+00  9104   0.450E+00    0.197E+00
DAV:   9    -0.310743509401E+02   -0.59367E-01   -0.51941E-01  9120   0.194E+00    0.739E-01
DAV:  10    -0.310712793078E+02    0.30716E-02   -0.10220E-01  9200   0.879E-01    0.353E-01
DAV:  11    -0.310632200151E+02    0.80593E-02   -0.26451E-02  8904   0.458E-01    0.164E-01
DAV:  12    -0.310530621717E+02    0.10158E-01   -0.63194E-03  9240   0.238E-01    0.768E-02
DAV:  13    -0.310470222892E+02    0.60399E-02   -0.13309E-03  9048   0.119E-01    0.349E-02
DAV:  14    -0.310441921920E+02    0.28301E-02   -0.39671E-04  9416   0.559E-02    0.227E-02
DAV:  15    -0.310422431701E+02    0.19490E-02   -0.14043E-04  9344   0.320E-02    0.117E-02
DAV:  16    -0.310415493980E+02    0.69377E-03   -0.55947E-05  8640   0.211E-02    0.729E-03
DAV:  17    -0.310420918879E+02   -0.54249E-03   -0.71804E-05  7984   0.198E-02    0.442E-03
DAV:  18    -0.310425337223E+02   -0.44183E-03   -0.15937E-04  8104   0.228E-02    0.233E-03
DAV:  19    -0.310426510948E+02   -0.11737E-03   -0.57105E-05  7632   0.137E-02    0.179E-03
DAV:  20    -0.310426701078E+02   -0.19013E-04   -0.91765E-06  6728   0.778E-03    0.100E-03
DAV:  21    -0.310426765659E+02   -0.64580E-05   -0.16512E-05  6896   0.902E-03    0.772E-04
DAV:  22    -0.310426810413E+02   -0.44754E-05   -0.15319E-05  7048   0.898E-03    0.493E-04
DAV:  23    -0.310426212886E+02    0.59753E-04   -0.25385E-05  7104   0.115E-02    0.224E-04
DAV:  24    -0.310425967740E+02    0.24515E-04   -0.82112E-06  6444   0.908E-03    0.124E-04
DAV:  25    -0.310425817556E+02    0.15018E-04   -0.70056E-06  7124   0.893E-03    0.593E-05
DAV:  26    -0.310425792523E+02    0.25033E-05   -0.42763E-06  6272   0.715E-03    0.321E-05
DAV:  27    -0.310425751768E+02    0.40755E-05   -0.27580E-06  5828   0.594E-03    0.190E-05
DAV:  28    -0.310425738871E+02    0.12897E-05   -0.16193E-06  5704   0.497E-03    0.110E-05
DAV:  29    -0.310425728753E+02    0.10118E-05   -0.12878E-06  5512   0.480E-03    0.698E-06
DAV:  30    -0.310425725901E+02    0.28516E-06   -0.90205E-07  5320   0.413E-03
   1 F= -.31042573E+02 E0= -.31025176E+02  d E =-.347926E-01
