<?xml version="1.0" encoding="ISO-8859-1"?>
<modeling>
 <generator>
  <i name="program" type="string">vasp </i>
  <i name="version" type="string">5.3.5  </i>
  <i name="subversion" type="string">31Mar14 (build Oct 29 2014 16:16:03) complex                          parallel </i>
  <i name="platform" type="string">Linux-UFHPC </i>
  <i name="date" type="string">2016 02 09 </i>
  <i name="time" type="string">18:08:59 </i>
 </generator>
 <incar>
  <i type="string" name="PREC">accurate</i>
  <i type="int" name="IBRION">     2</i>
  <i name="EDIFF">      0.00000100</i>
  <i type="int" name="NSW">     0</i>
  <i type="int" name="ISIF">     3</i>
  <i name="ENCUT">    300.00000000</i>
  <i type="string" name="LREAL"> Auto</i>
  <i type="int" name="ISMEAR">     0</i>
  <i name="SIGMA">      0.10000000</i>
  <i type="logical" name="LWAVE"> F  </i>
  <i type="logical" name="LCHARG"> F  </i>
  <i type="logical" name="LAECHG"> F  </i>
  <i type="string" name="GGA"> Bo</i>
  <i name="PARAM1">      0.18333333</i>
  <i name="PARAM2">      0.22000000</i>
  <i type="logical" name="LUSE_VDW"> T  </i>
  <i name="AGGAC">      0.00000000</i>
 </incar>
 <kpoints>
  <generation param="Gamma">
   <v type="int" name="divisions">      13        4        2 </v>
   <v name="usershift">      0.00000000       0.00000000       0.00000000 </v>
   <v name="genvec1">      0.07692308      -0.00000000       0.00000000 </v>
   <v name="genvec2">      0.00000000       0.25000000       0.00000000 </v>
   <v name="genvec3">      0.00000000       0.00000000       0.50000000 </v>
   <v name="shift">      0.00000000       0.00000000       0.00000000 </v>
  </generation>
  <varray name="kpointlist" >
   <v>       0.00000000       0.00000000       0.00000000 </v>
   <v>       0.07692308      -0.00000000       0.00000000 </v>
   <v>       0.15384615      -0.00000000       0.00000000 </v>
   <v>       0.23076923      -0.00000000       0.00000000 </v>
   <v>       0.30769231      -0.00000000       0.00000000 </v>
   <v>       0.38461538      -0.00000000       0.00000000 </v>
   <v>       0.46153846      -0.00000000       0.00000000 </v>
   <v>       0.00000000       0.25000000       0.00000000 </v>
   <v>       0.07692308       0.25000000       0.00000000 </v>
   <v>       0.15384615       0.25000000       0.00000000 </v>
   <v>       0.23076923       0.25000000       0.00000000 </v>
   <v>       0.30769231       0.25000000       0.00000000 </v>
   <v>       0.38461538       0.25000000       0.00000000 </v>
   <v>       0.46153846       0.25000000       0.00000000 </v>
   <v>      -0.46153846       0.25000000       0.00000000 </v>
   <v>      -0.38461538       0.25000000       0.00000000 </v>
   <v>      -0.30769231       0.25000000       0.00000000 </v>
   <v>      -0.23076923       0.25000000       0.00000000 </v>
   <v>      -0.15384615       0.25000000       0.00000000 </v>
   <v>      -0.07692308       0.25000000       0.00000000 </v>
   <v>       0.00000000       0.50000000       0.00000000 </v>
   <v>       0.07692308       0.50000000       0.00000000 </v>
   <v>       0.15384615       0.50000000       0.00000000 </v>
   <v>       0.23076923       0.50000000       0.00000000 </v>
   <v>       0.30769231       0.50000000       0.00000000 </v>
   <v>       0.38461538       0.50000000       0.00000000 </v>
   <v>       0.46153846       0.50000000       0.00000000 </v>
   <v>       0.00000000       0.00000000       0.50000000 </v>
   <v>       0.07692308      -0.00000000       0.50000000 </v>
   <v>       0.15384615      -0.00000000       0.50000000 </v>
   <v>       0.23076923      -0.00000000       0.50000000 </v>
   <v>       0.30769231      -0.00000000       0.50000000 </v>
   <v>       0.38461538      -0.00000000       0.50000000 </v>
   <v>       0.46153846      -0.00000000       0.50000000 </v>
   <v>       0.00000000       0.25000000       0.50000000 </v>
   <v>       0.07692308       0.25000000       0.50000000 </v>
   <v>       0.15384615       0.25000000       0.50000000 </v>
   <v>       0.23076923       0.25000000       0.50000000 </v>
   <v>       0.30769231       0.25000000       0.50000000 </v>
   <v>       0.38461538       0.25000000       0.50000000 </v>
   <v>       0.46153846       0.25000000       0.50000000 </v>
   <v>      -0.46153846       0.25000000       0.50000000 </v>
   <v>      -0.38461538       0.25000000       0.50000000 </v>
   <v>      -0.30769231       0.25000000       0.50000000 </v>
   <v>      -0.23076923       0.25000000       0.50000000 </v>
   <v>      -0.15384615       0.25000000       0.50000000 </v>
   <v>      -0.07692308       0.25000000       0.50000000 </v>
   <v>       0.00000000       0.50000000       0.50000000 </v>
   <v>       0.07692308       0.50000000       0.50000000 </v>
   <v>       0.15384615       0.50000000       0.50000000 </v>
   <v>       0.23076923       0.50000000       0.50000000 </v>
   <v>       0.30769231       0.50000000       0.50000000 </v>
   <v>       0.38461538       0.50000000       0.50000000 </v>
   <v>       0.46153846       0.50000000       0.50000000 </v>
  </varray>
  <varray name="weights" >
   <v>       0.00961538 </v>
   <v>       0.01923077 </v>
   <v>       0.01923077 </v>
   <v>       0.01923077 </v>
   <v>       0.01923077 </v>
   <v>       0.01923077 </v>
   <v>       0.01923077 </v>
   <v>       0.01923077 </v>
   <v>       0.01923077 </v>
   <v>       0.01923077 </v>
   <v>       0.01923077 </v>
   <v>       0.01923077 </v>
   <v>       0.01923077 </v>
   <v>       0.01923077 </v>
   <v>       0.01923077 </v>
   <v>       0.01923077 </v>
   <v>       0.01923077 </v>
   <v>       0.01923077 </v>
   <v>       0.01923077 </v>
   <v>       0.01923077 </v>
   <v>       0.00961538 </v>
   <v>       0.01923077 </v>
   <v>       0.01923077 </v>
   <v>       0.01923077 </v>
   <v>       0.01923077 </v>
   <v>       0.01923077 </v>
   <v>       0.01923077 </v>
   <v>       0.00961538 </v>
   <v>       0.01923077 </v>
   <v>       0.01923077 </v>
   <v>       0.01923077 </v>
   <v>       0.01923077 </v>
   <v>       0.01923077 </v>
   <v>       0.01923077 </v>
   <v>       0.01923077 </v>
   <v>       0.01923077 </v>
   <v>       0.01923077 </v>
   <v>       0.01923077 </v>
   <v>       0.01923077 </v>
   <v>       0.01923077 </v>
   <v>       0.01923077 </v>
   <v>       0.01923077 </v>
   <v>       0.01923077 </v>
   <v>       0.01923077 </v>
   <v>       0.01923077 </v>
   <v>       0.01923077 </v>
   <v>       0.01923077 </v>
   <v>       0.00961538 </v>
   <v>       0.01923077 </v>
   <v>       0.01923077 </v>
   <v>       0.01923077 </v>
   <v>       0.01923077 </v>
   <v>       0.01923077 </v>
   <v>       0.01923077 </v>
  </varray>
 </kpoints>
 <parameters>
  <separator name="general" >
   <i type="string" name="SYSTEM">unknown system</i>
   <i type="logical" name="LCOMPAT"> F  </i>
  </separator>
  <separator name="electronic" >
   <i type="string" name="PREC">accura</i>
   <i name="ENMAX">    300.00000000</i>
   <i name="ENAUG">    342.92400000</i>
   <i name="EDIFF">      0.00000100</i>
   <i type="int" name="IALGO">    38</i>
   <i type="int" name="IWAVPR">    10</i>
   <i type="int" name="NBANDS">    68</i>
   <i name="NELECT">    108.00000000</i>
   <i type="int" name="TURBO">     0</i>
   <i type="int" name="IRESTART">     0</i>
   <i type="int" name="NREBOOT">     0</i>
   <i type="int" name="NMIN">     0</i>
   <i name="EREF">      0.00000000</i>
   <separator name="electronic smearing" >
    <i type="int" name="ISMEAR">     0</i>
    <i name="SIGMA">      0.10000000</i>
    <i name="KSPACING">      0.50000000</i>
    <i type="logical" name="KGAMMA"> T  </i>
   </separator>
   <separator name="electronic projectors" >
    <i type="logical" name="LREAL"> T  </i>
    <v name="ROPT">     -0.00025000     -0.00025000</v>
    <i type="int" name="LMAXPAW">  -100</i>
    <i type="int" name="LMAXMIX">     2</i>
    <i type="logical" name="NLSPLINE"> F  </i>
   </separator>
   <separator name="electronic startup" >
    <i type="int" name="ISTART">     0</i>
    <i type="int" name="ICHARG">     2</i>
    <i type="int" name="INIWAV">     1</i>
   </separator>
   <separator name="electronic spin" >
    <i type="int" name="ISPIN">     1</i>
    <i type="logical" name="LNONCOLLINEAR"> F  </i>
    <v name="MAGMOM">      1.00000000      1.00000000      1.00000000      1.00000000      1.00000000      1.00000000      1.00000000      1.00000000      1.00000000      1.00000000      1.00000000      1.00000000      1.00000000      1.00000000      1.00000000      1.00000000      1.00000000      1.00000000      1.00000000      1.00000000
      1.00000000      1.00000000      1.00000000      1.00000000</v>
    <i name="NUPDOWN">     -1.00000000</i>
    <i type="logical" name="LSORBIT"> F  </i>
    <v name="SAXIS">      0.00000000      0.00000000      1.00000000</v>
    <i type="logical" name="LSPIRAL"> F  </i>
    <v name="QSPIRAL">      0.00000000      0.00000000      0.00000000</v>
    <i type="logical" name="LZEROZ"> F  </i>
   </separator>
   <separator name="electronic exchange-correlation" >
    <i type="logical" name="LASPH"> F  </i>
    <i type="logical" name="LMETAGGA"> F  </i>
   </separator>
   <separator name="electronic convergence" >
    <i type="int" name="NELM">    60</i>
    <i type="int" name="NELMDL">    -5</i>
    <i type="int" name="NELMIN">     2</i>
    <i name="ENINI">    300.00000000</i>
    <separator name="electronic convergence detail" >
     <i type="logical" name="LDIAG"> T  </i>
     <i type="logical" name="LSUBROT"> F  </i>
     <i name="WEIMIN">      0.00000000</i>
     <i name="EBREAK">      0.00000000</i>
     <i name="DEPER">      0.30000000</i>
     <i type="int" name="NRMM">     4</i>
     <i name="TIME">      0.40000000</i>
    </separator>
   </separator>
   <separator name="electronic mixer" >
    <i name="AMIX">      0.40000000</i>
    <i name="BMIX">      1.00000000</i>
    <i name="AMIN">      0.10000000</i>
    <i name="AMIX_MAG">      1.60000000</i>
    <i name="BMIX_MAG">      1.00000000</i>
    <separator name="electronic mixer details" >
     <i type="int" name="IMIX">     4</i>
     <i type="int" name="MAXMIX">   -45</i>
     <i name="WC">    100.00000000</i>
     <i type="int" name="INIMIX">     1</i>
     <i type="int" name="MIXPRE">     1</i>
     <i type="int" name="MREMOVE">     5</i>
    </separator>
   </separator>
   <separator name="electronic dipolcorrection" >
    <i type="logical" name="LDIPOL"> F  </i>
    <i type="logical" name="LMONO"> F  </i>
    <i type="int" name="IDIPOL">     0</i>
    <i name="EPSILON">      1.00000000</i>
    <v name="DIPOL">   -100.00000000   -100.00000000   -100.00000000</v>
    <i name="EFIELD">      0.00000000</i>
   </separator>
  </separator>
  <separator name="grids" >
   <i type="int" name="NGX">    20</i>
   <i type="int" name="NGY">    60</i>
   <i type="int" name="NGZ">   160</i>
   <i type="int" name="NGXF">    40</i>
   <i type="int" name="NGYF">   120</i>
   <i type="int" name="NGZF">   320</i>
   <i type="logical" name="ADDGRID"> F  </i>
  </separator>
  <separator name="ionic" >
   <i type="int" name="NSW">     0</i>
   <i type="int" name="IBRION">    -1</i>
   <i type="int" name="ISIF">     3</i>
   <i name="PSTRESS">      0.00000000</i>
   <i name="EDIFFG">      0.00001000</i>
   <i type="int" name="NFREE">     1</i>
   <i name="POTIM">      0.50000000</i>
   <i name="SMASS">     -3.00000000</i>
   <i name="SCALEE">      1.00000000</i>
  </separator>
  <separator name="ionic md" >
   <i name="TEBEG">      0.00010000</i>
   <i name="TEEND">      0.00010000</i>
   <i type="int" name="NBLOCK">     1</i>
   <i type="int" name="KBLOCK">     1</i>
   <i type="int" name="NPACO">   256</i>
   <i name="APACO">     16.00000000</i>
  </separator>
  <separator name="symmetry" >
   <i type="int" name="ISYM">     2</i>
   <i name="SYMPREC">      0.00001000</i>
  </separator>
  <separator name="dos" >
   <i type="logical" name="LORBIT"> F  </i>
   <v name="RWIGS">     -1.00000000     -1.00000000</v>
   <i type="int" name="NEDOS">   301</i>
   <i name="EMIN">     10.00000000</i>
   <i name="EMAX">    -10.00000000</i>
   <i name="EFERMI">      0.00000000</i>
  </separator>
  <separator name="writing" >
   <i type="int" name="NWRITE">     2</i>
   <i type="logical" name="LWAVE"> F  </i>
   <i type="logical" name="LCHARG"> F  </i>
   <i type="logical" name="LPARD"> F  </i>
   <i type="logical" name="LVTOT"> F  </i>
   <i type="logical" name="LVHAR"> F  </i>
   <i type="logical" name="LELF"> F  </i>
   <i type="logical" name="LOPTICS"> F  </i>
   <v name="STM">      0.00000000      0.00000000      0.00000000      0.00000000      0.00000000      0.00000000      0.00000000</v>
  </separator>
  <separator name="performance" >
   <i type="int" name="NPAR">     4</i>
   <i type="int" name="NSIM">     4</i>
   <i type="int" name="NBLK">    -1</i>
   <i type="logical" name="LPLANE"> T  </i>
   <i type="logical" name="LSCALAPACK"> T  </i>
   <i type="logical" name="LSCAAWARE"> F  </i>
   <i type="logical" name="LSCALU"> F  </i>
   <i type="logical" name="LASYNC"> F  </i>
   <i type="logical" name="LORBITALREAL"> F  </i>
  </separator>
  <separator name="miscellaneous" >
   <i type="int" name="IDIOT">     3</i>
   <i type="logical" name="LMUSIC"> F  </i>
   <v name="POMASS">     30.97400000     28.08500000</v>
   <v name="DARWINR">      0.00000000      0.00000000</v>
   <v name="DARWINV">      1.00000000      1.00000000</v>
   <i type="logical" name="LCORR"> T  </i>
  </separator>
  <i type="logical" name="GGA_COMPAT"> T  </i>
  <i type="logical" name="LBERRY"> F  </i>
  <i type="int" name="ICORELEVEL">     0</i>
  <i type="logical" name="LDAU"> F  </i>
  <i type="int" name="I_CONSTRAINED_M">     0</i>
  <separator name="electronic exchange-correlation" >
   <i type="string" name="GGA">BO</i>
   <i type="int" name="VOSKOWN">     0</i>
   <i type="logical" name="LHFCALC"> F  </i>
   <i type="string" name="PRECFOCK"></i>
   <i type="logical" name="LSYMGRAD"> F  </i>
   <i type="logical" name="LHFONE"> F  </i>
   <i type="logical" name="LRHFCALC"> F  </i>
   <i type="logical" name="LTHOMAS"> F  </i>
   <i type="logical" name="LMODELHF"> F  </i>
   <i name="ENCUT4O">     -1.00000000</i>
   <i type="int" name="EXXOEP">     0</i>
   <i type="int" name="FOURORBIT">     0</i>
   <i name="AEXX">      0.00000000</i>
   <i name="HFALPHA">      0.00000000</i>
   <i name="MCALPHA">      0.00000000</i>
   <i name="ALDAX">      1.00000000</i>
   <i name="AGGAX">      1.00000000</i>
   <i name="ALDAC">      1.00000000</i>
   <i name="AGGAC">      0.00000000</i>
   <i type="int" name="NKREDX">     1</i>
   <i type="int" name="NKREDY">     1</i>
   <i type="int" name="NKREDZ">     1</i>
   <i type="logical" name="SHIFTRED"> F  </i>
   <i type="logical" name="ODDONLY"> F  </i>
   <i type="logical" name="EVENONLY"> F  </i>
   <i type="int" name="LMAXFOCK">     0</i>
   <i type="int" name="NMAXFOCKAE">     0</i>
   <i type="logical" name="LFOCKAEDFT"> F  </i>
   <i name="HFSCREEN">      0.00000000</i>
   <i name="HFSCREENC">      0.00000000</i>
   <i type="int" name="NBANDSGWLOW">     0</i>
  </separator>
  <separator name="vdW DFT" >
   <i type="logical" name="LUSE_VDW"> T  </i>
   <i name="Zab_VDW">     -0.84910000</i>
   <i name="PARAM1">      0.18333333</i>
   <i name="PARAM2">      0.22000000</i>
   <i name="PARAM3">      0.00000000</i>
  </separator>
  <separator name="model GW" >
   <i type="int" name="MODEL_GW">     0</i>
   <i name="MODEL_EPS0">     25.05800243</i>
   <i name="MODEL_ALPHA">      1.00000000</i>
  </separator>
  <separator name="linear response parameters" >
   <i type="logical" name="LEPSILON"> F  </i>
   <i type="logical" name="LRPA"> F  </i>
   <i type="logical" name="LNABLA"> F  </i>
   <i type="logical" name="LVEL"> F  </i>
   <i type="int" name="KINTER">     0</i>
   <i name="CSHIFT">      0.10000000</i>
   <i name="OMEGAMAX">     -1.00000000</i>
   <i name="DEG_THRESHOLD">      0.00200000</i>
  </separator>
  <separator name="orbital magnetization" >
   <i type="logical" name="NUCIND"> F  </i>
   <v name="MAGPOS">      0.00000000      0.00000000      0.00000000</v>
   <i type="logical" name="LNICSALL"> T  </i>
   <i type="logical" name="ORBITALMAG"> F  </i>
   <i type="logical" name="LMAGBLOCH"> F  </i>
   <i type="logical" name="LCHIMAG"> F  </i>
   <i type="logical" name="LGAUGE"> T  </i>
   <i type="int" name="MAGATOM">     0</i>
   <v name="MAGDIPOL">      0.00000000      0.00000000      0.00000000</v>
   <v name="AVECCONST">      0.00000000      0.00000000      0.00000000</v>
  </separator>
  <separator name="response functions" >
   <i type="logical" name="LADDER"> F  </i>
   <i type="logical" name="LFXC"> F  </i>
   <i type="logical" name="LHARTREE"> T  </i>
   <i type="int" name="IBSE">     0</i>
   <i type="logical" name="LTCTE"> F  </i>
   <i type="logical" name="LTETE"> F  </i>
   <i type="logical" name="LTRIPLET"> F  </i>
   <i type="logical" name="LFXCEPS"> F  </i>
   <i type="logical" name="LFXHEG"> F  </i>
   <i type="logical" name="L2ORDER"> F  </i>
   <i type="logical" name="LUSEW"> F  </i>
   <i name="ENCUTGW">     -2.00000000</i>
   <i name="ENCUTGWSOFT">     -2.00000000</i>
   <i name="ENCUTLF">     -1.00000000</i>
   <i type="int" name="LMAXMP2">    -1</i>
   <i name="SCISSOR">      0.00000000</i>
   <i type="int" name="NOMEGA">     0</i>
   <i type="int" name="NOMEGAR">     0</i>
   <i type="int" name="NBANDSGW">    -1</i>
   <i type="int" name="NBANDSO">    -1</i>
   <i type="int" name="NBANDSV">    -1</i>
   <i type="int" name="NELM">     1</i>
   <i type="int" name="DIM">     3</i>
   <i type="int" name="ANTIRES">     0</i>
   <i name="OMEGAMAX">    -30.00000000</i>
   <i name="OMEGAMIN">    -30.00000000</i>
   <i name="OMEGATL">   -200.00000000</i>
   <i type="int" name="OMEGAGRID">     0</i>
   <i name="CSHIFT">     -0.10000000</i>
   <i type="logical" name="SELFENERGY"> F  </i>
   <i type="logical" name="LSPECTRAL"> F  </i>
   <i type="logical" name="ODDONLYGW"> F  </i>
   <i type="logical" name="EVENONLYGW"> F  </i>
   <i type="int" name="NKREDLFX">     1</i>
   <i type="int" name="NKREDLFY">     1</i>
   <i type="int" name="NKREDLFZ">     1</i>
   <i type="int" name="MAXMEM">  1800</i>
   <i type="int" name="TELESCOPE">     0</i>
   <i type="int" name="TAUPAR">     1</i>
  </separator>
  <separator name="External order field" >
   <i name="OFIELD_KAPPA">      0.00000000</i>
   <v name="OFIELD_K">      0.00000000      0.00000000      0.00000000</v>
   <i name="OFIELD_Q6_NEAR">      0.00000000</i>
   <i name="OFIELD_Q6_FAR">      0.00000000</i>
   <i name="OFIELD_A">      0.00000000</i>
  </separator>
 </parameters>
 <atominfo>
  <atoms>      24 </atoms>
  <types>       2 </types>
  <array name="atoms" >
   <dimension dim="1">ion</dimension>
   <field type="string">element</field>
   <field type="int">atomtype</field>
   <set>
    <rc><c>P </c><c>   1</c></rc>
    <rc><c>P </c><c>   1</c></rc>
    <rc><c>P </c><c>   1</c></rc>
    <rc><c>P </c><c>   1</c></rc>
    <rc><c>P </c><c>   1</c></rc>
    <rc><c>P </c><c>   1</c></rc>
    <rc><c>P </c><c>   1</c></rc>
    <rc><c>P </c><c>   1</c></rc>
    <rc><c>P </c><c>   1</c></rc>
    <rc><c>P </c><c>   1</c></rc>
    <rc><c>P </c><c>   1</c></rc>
    <rc><c>P </c><c>   1</c></rc>
    <rc><c>Si</c><c>   2</c></rc>
    <rc><c>Si</c><c>   2</c></rc>
    <rc><c>Si</c><c>   2</c></rc>
    <rc><c>Si</c><c>   2</c></rc>
    <rc><c>Si</c><c>   2</c></rc>
    <rc><c>Si</c><c>   2</c></rc>
    <rc><c>Si</c><c>   2</c></rc>
    <rc><c>Si</c><c>   2</c></rc>
    <rc><c>Si</c><c>   2</c></rc>
    <rc><c>Si</c><c>   2</c></rc>
    <rc><c>Si</c><c>   2</c></rc>
    <rc><c>Si</c><c>   2</c></rc>
   </set>
  </array>
  <array name="atomtypes" >
   <dimension dim="1">type</dimension>
   <field type="int">atomspertype</field>
   <field type="string">element</field>
   <field>mass</field>
   <field>valence</field>
   <field type="string">pseudopotential</field>
   <set>
    <rc><c>  12</c><c>P </c><c>     30.97400000</c><c>      5.00000000</c><c>  PAW_PBE P 17Jan2003                   </c></rc>
    <rc><c>  12</c><c>Si</c><c>     28.08500000</c><c>      4.00000000</c><c> PAW_PBE Si 05Jan2001                   </c></rc>
   </set>
  </array>
 </atominfo>
 <structure name="initialpos" >
  <crystal>
   <varray name="basis" >
    <v>       3.54040000       0.00000000       0.00000000 </v>
    <v>      -1.77020000      10.29434800       0.00000000 </v>
    <v>       0.00000000       0.00000000      27.50142900 </v>
   </varray>
   <i name="volume">   1002.32009712 </i>
   <varray name="rec_basis" >
    <v>       0.28245396       0.04857034       0.00000000 </v>
    <v>       0.00000000       0.09714068       0.00000000 </v>
    <v>       0.00000000       0.00000000       0.03636175 </v>
   </varray>
  </crystal>
  <varray name="positions" >
   <v>       0.11402300       0.22804500       0.23316207 </v>
   <v>       0.61402300       0.52804500       0.51499159 </v>
   <v>       0.45808900       0.91617900       0.20939482 </v>
   <v>       0.95808900       0.21617900       0.49122434 </v>
   <v>       0.31085400       0.62170900       0.08414979 </v>
   <v>       0.31085400       0.62170900       0.36597930 </v>
   <v>       0.99923000       0.99846000       0.08631254 </v>
   <v>       0.99923000       0.99846000       0.36814206 </v>
   <v>       0.65492700       0.30985400       0.06041748 </v>
   <v>       0.65492700       0.30985400       0.34224700 </v>
   <v>       0.76973800       0.53947500       0.20725292 </v>
   <v>       0.26973800       0.83947500       0.48908244 </v>
   <v>       0.93971600       0.87943300       0.15783749 </v>
   <v>       0.43971600       0.17943300       0.43966701 </v>
   <v>       0.20515200       0.41030300       0.18578822 </v>
   <v>       0.70515200       0.71030300       0.46761774 </v>
   <v>       0.20184900       0.40369900       0.09969156 </v>
   <v>       0.20184900       0.40369900       0.38152107 </v>
   <v>       0.56380500       0.12761000       0.10779021 </v>
   <v>       0.56380500       0.12761000       0.38961973 </v>
   <v>       0.56710600       0.13421200       0.19387616 </v>
   <v>       0.06710600       0.43421200       0.47570568 </v>
   <v>       0.82923400       0.65846800       0.13571444 </v>
   <v>       0.32923400       0.95846800       0.41754396 </v>
  </varray>
 </structure>
 <calculation>
  <scstep>
   <time name="dav">   69.91   69.93</time>
   <time name="total">   86.14   86.17</time>
   <energy>
    <i name="alphaZ">     36.80884744 </i>
    <i name="ewald">  11986.84963712 </i>
    <i name="hartreedc"> -15012.36645334 </i>
    <i name="XCdc">    -87.32300339 </i>
    <i name="pawpsdc">   1056.43050070 </i>
    <i name="pawaedc">   -732.41190547 </i>
    <i name="eentropy">     -0.04281140 </i>
    <i name="bandstr">    -96.35859348 </i>
    <i name="atom">   3354.04126044 </i>
    <i name="e_fr_energy">    505.62747863 </i>
    <i name="e_wo_entrp">    505.67029004 </i>
    <i name="e_0_energy">    505.64888433 </i>
   </energy>
  </scstep>
  <scstep>
   <time name="dav">   87.13   87.15</time>
   <time name="total">   87.14   87.16</time>
   <energy>
    <i name="e_fr_energy">    -59.46378921 </i>
    <i name="e_wo_entrp">    -59.44344310 </i>
    <i name="e_0_energy">    -59.45361616 </i>
   </energy>
  </scstep>
  <scstep>
   <time name="dav">   80.12   80.14</time>
   <time name="total">   80.13   80.15</time>
   <energy>
    <i name="e_fr_energy">   -117.10745190 </i>
    <i name="e_wo_entrp">   -117.09718909 </i>
    <i name="e_0_energy">   -117.10232049 </i>
   </energy>
  </scstep>
  <scstep>
   <time name="dav">   96.28   96.30</time>
   <time name="total">   96.29   96.31</time>
   <energy>
    <i name="e_fr_energy">   -119.80550154 </i>
    <i name="e_wo_entrp">   -119.79109921 </i>
    <i name="e_0_energy">   -119.79830037 </i>
   </energy>
  </scstep>
  <scstep>
   <time name="dav">   88.33   88.36</time>
   <time name="total">   93.15   93.18</time>
   <energy>
    <i name="e_fr_energy">   -119.86833248 </i>
    <i name="e_wo_entrp">   -119.85392090 </i>
    <i name="e_0_energy">   -119.86112669 </i>
   </energy>
  </scstep>
  <scstep>
   <time name="dav">   80.52   80.54</time>
   <time name="total">  100.05  100.07</time>
   <energy>
    <i name="e_fr_energy">   -115.29193395 </i>
    <i name="e_wo_entrp">   -115.26462202 </i>
    <i name="e_0_energy">   -115.27827799 </i>
   </energy>
  </scstep>
  <scstep>
   <time name="dav">   81.24   81.25</time>
   <time name="total">  100.72  100.74</time>
   <energy>
    <i name="e_fr_energy">   -115.27313128 </i>
    <i name="e_wo_entrp">   -115.24094294 </i>
    <i name="e_0_energy">   -115.25703711 </i>
   </energy>
  </scstep>
  <scstep>
   <time name="dav">   86.06   86.07</time>
   <time name="total">  105.50  105.53</time>
   <energy>
    <i name="e_fr_energy">   -115.17877723 </i>
    <i name="e_wo_entrp">   -115.14565153 </i>
    <i name="e_0_energy">   -115.16221438 </i>
   </energy>
  </scstep>
  <scstep>
   <time name="dav">   81.89   81.91</time>
   <time name="total">  101.39  101.41</time>
   <energy>
    <i name="e_fr_energy">   -115.14959476 </i>
    <i name="e_wo_entrp">   -115.11919250 </i>
    <i name="e_0_energy">   -115.13439363 </i>
   </energy>
  </scstep>
  <scstep>
   <time name="dav">   80.13   80.14</time>
   <time name="total">   99.64   99.66</time>
   <energy>
    <i name="e_fr_energy">   -115.15427289 </i>
    <i name="e_wo_entrp">   -115.12378105 </i>
    <i name="e_0_energy">   -115.13902697 </i>
   </energy>
  </scstep>
  <scstep>
   <time name="dav">   85.87   85.89</time>
   <time name="total">  106.88  106.90</time>
   <energy>
    <i name="e_fr_energy">   -115.14690616 </i>
    <i name="e_wo_entrp">   -115.11609684 </i>
    <i name="e_0_energy">   -115.13150150 </i>
   </energy>
  </scstep>
  <scstep>
   <time name="dav">   88.29   88.31</time>
   <time name="total">  108.06  108.08</time>
   <energy>
    <i name="e_fr_energy">   -115.13835561 </i>
    <i name="e_wo_entrp">   -115.10756544 </i>
    <i name="e_0_energy">   -115.12296053 </i>
   </energy>
  </scstep>
  <scstep>
   <time name="dav">   84.25   84.27</time>
   <time name="total">  103.76  103.78</time>
   <energy>
    <i name="e_fr_energy">   -115.13364026 </i>
    <i name="e_wo_entrp">   -115.10294952 </i>
    <i name="e_0_energy">   -115.11829489 </i>
   </energy>
  </scstep>
  <scstep>
   <time name="dav">   83.65   83.67</time>
   <time name="total">  103.17  103.19</time>
   <energy>
    <i name="e_fr_energy">   -115.13136902 </i>
    <i name="e_wo_entrp">   -115.10068351 </i>
    <i name="e_0_energy">   -115.11602626 </i>
   </energy>
  </scstep>
  <scstep>
   <time name="dav">   84.41   84.43</time>
   <time name="total">  103.94  103.97</time>
   <energy>
    <i name="e_fr_energy">   -115.13036901 </i>
    <i name="e_wo_entrp">   -115.09969775 </i>
    <i name="e_0_energy">   -115.11503338 </i>
   </energy>
  </scstep>
  <scstep>
   <time name="dav">   75.51   75.52</time>
   <time name="total">   95.09   95.11</time>
   <energy>
    <i name="e_fr_energy">   -115.13031554 </i>
    <i name="e_wo_entrp">   -115.09963649 </i>
    <i name="e_0_energy">   -115.11497601 </i>
   </energy>
  </scstep>
  <scstep>
   <time name="dav">   77.01   77.03</time>
   <time name="total">   96.60   96.62</time>
   <energy>
    <i name="e_fr_energy">   -115.13094918 </i>
    <i name="e_wo_entrp">   -115.10027787 </i>
    <i name="e_0_energy">   -115.11561352 </i>
   </energy>
  </scstep>
  <scstep>
   <time name="dav">   73.38   73.39</time>
   <time name="total">   92.90   92.92</time>
   <energy>
    <i name="e_fr_energy">   -115.13112137 </i>
    <i name="e_wo_entrp">   -115.10044270 </i>
    <i name="e_0_energy">   -115.11578203 </i>
   </energy>
  </scstep>
  <scstep>
   <time name="dav">   68.67   68.68</time>
   <time name="total">   88.09   88.11</time>
   <energy>
    <i name="e_fr_energy">   -115.13117614 </i>
    <i name="e_wo_entrp">   -115.10049297 </i>
    <i name="e_0_energy">   -115.11583455 </i>
   </energy>
  </scstep>
  <scstep>
   <time name="dav">   64.46   64.47</time>
   <time name="total">   83.95   83.97</time>
   <energy>
    <i name="e_fr_energy">   -115.13121525 </i>
    <i name="e_wo_entrp">   -115.10053533 </i>
    <i name="e_0_energy">   -115.11587529 </i>
   </energy>
  </scstep>
  <scstep>
   <time name="dav">   73.31   73.32</time>
   <time name="total">   93.43   93.45</time>
   <energy>
    <i name="e_fr_energy">   -115.13120574 </i>
    <i name="e_wo_entrp">   -115.10052493 </i>
    <i name="e_0_energy">   -115.11586533 </i>
   </energy>
  </scstep>
  <scstep>
   <time name="dav">   76.42   76.44</time>
   <time name="total">   97.32   97.34</time>
   <energy>
    <i name="e_fr_energy">   -115.13117423 </i>
    <i name="e_wo_entrp">   -115.10049408 </i>
    <i name="e_0_energy">   -115.11583415 </i>
   </energy>
  </scstep>
  <scstep>
   <time name="dav">   69.79   69.80</time>
   <time name="total">   89.43   89.45</time>
   <energy>
    <i name="e_fr_energy">   -115.13110050 </i>
    <i name="e_wo_entrp">   -115.10042108 </i>
    <i name="e_0_energy">   -115.11576079 </i>
   </energy>
  </scstep>
  <scstep>
   <time name="dav">   67.18   67.20</time>
   <time name="total">   86.63   86.65</time>
   <energy>
    <i name="e_fr_energy">   -115.13109215 </i>
    <i name="e_wo_entrp">   -115.10041229 </i>
    <i name="e_0_energy">   -115.11575222 </i>
   </energy>
  </scstep>
  <scstep>
   <time name="dav">   63.24   63.25</time>
   <time name="total">   82.71   82.73</time>
   <energy>
    <i name="e_fr_energy">   -115.13107274 </i>
    <i name="e_wo_entrp">   -115.10039314 </i>
    <i name="e_0_energy">   -115.11573294 </i>
   </energy>
  </scstep>
  <scstep>
   <time name="dav">   60.56   60.57</time>
   <time name="total">   79.99   80.01</time>
   <energy>
    <i name="e_fr_energy">   -115.13107116 </i>
    <i name="e_wo_entrp">   -115.10039145 </i>
    <i name="e_0_energy">   -115.11573130 </i>
   </energy>
  </scstep>
  <scstep>
   <time name="dav">   59.62   59.64</time>
   <time name="total">   79.07   79.09</time>
   <energy>
    <i name="e_fr_energy">   -115.13106785 </i>
    <i name="e_wo_entrp">   -115.10038808 </i>
    <i name="e_0_energy">   -115.11572797 </i>
   </energy>
  </scstep>
  <scstep>
   <time name="dav">   57.05   57.06</time>
   <time name="total">   76.48   76.50</time>
   <energy>
    <i name="e_fr_energy">   -115.13106667 </i>
    <i name="e_wo_entrp">   -115.10038694 </i>
    <i name="e_0_energy">   -115.11572681 </i>
   </energy>
  </scstep>
  <scstep>
   <time name="dav">   59.13   59.15</time>
   <time name="total">   73.93   73.96</time>
   <energy>
    <i name="alphaZ">     36.80884744 </i>
    <i name="ewald">  11986.84963712 </i>
    <i name="hartreedc"> -15117.22215332 </i>
    <i name="XCdc">    -79.24804048 </i>
    <i name="pawpsdc">   1184.47044503 </i>
    <i name="pawaedc">   -864.28187555 </i>
    <i name="eentropy">     -0.03067976 </i>
    <i name="bandstr">   -616.51850732 </i>
    <i name="atom">   3354.04126044 </i>
    <i name="e_fr_energy">   -115.13106640 </i>
    <i name="e_wo_entrp">   -115.10038664 </i>
    <i name="e_0_energy">   -115.11572652 </i>
   </energy>
  </scstep>
  <structure>
   <crystal>
    <varray name="basis" >
     <v>       3.54040000       0.00000000       0.00000000 </v>
     <v>      -1.77020000      10.29434800       0.00000000 </v>
     <v>       0.00000000       0.00000000      27.50142900 </v>
    </varray>
    <i name="volume">   1002.32009712 </i>
    <varray name="rec_basis" >
     <v>       0.28245396       0.04857034       0.00000000 </v>
     <v>       0.00000000       0.09714068       0.00000000 </v>
     <v>       0.00000000       0.00000000       0.03636175 </v>
    </varray>
   </crystal>
   <varray name="positions" >
    <v>       0.11402300       0.22804500       0.23316207 </v>
    <v>       0.61402300       0.52804500       0.51499159 </v>
    <v>       0.45808900       0.91617900       0.20939482 </v>
    <v>       0.95808900       0.21617900       0.49122434 </v>
    <v>       0.31085400       0.62170900       0.08414979 </v>
    <v>       0.31085400       0.62170900       0.36597930 </v>
    <v>       0.99923000       0.99846000       0.08631254 </v>
    <v>       0.99923000       0.99846000       0.36814206 </v>
    <v>       0.65492700       0.30985400       0.06041748 </v>
    <v>       0.65492700       0.30985400       0.34224700 </v>
    <v>       0.76973800       0.53947500       0.20725292 </v>
    <v>       0.26973800       0.83947500       0.48908244 </v>
    <v>       0.93971600       0.87943300       0.15783749 </v>
    <v>       0.43971600       0.17943300       0.43966701 </v>
    <v>       0.20515200       0.41030300       0.18578822 </v>
    <v>       0.70515200       0.71030300       0.46761774 </v>
    <v>       0.20184900       0.40369900       0.09969156 </v>
    <v>       0.20184900       0.40369900       0.38152107 </v>
    <v>       0.56380500       0.12761000       0.10779021 </v>
    <v>       0.56380500       0.12761000       0.38961973 </v>
    <v>       0.56710600       0.13421200       0.19387616 </v>
    <v>       0.06710600       0.43421200       0.47570568 </v>
    <v>       0.82923400       0.65846800       0.13571444 </v>
    <v>       0.32923400       0.95846800       0.41754396 </v>
   </varray>
  </structure>
  <varray name="forces" >
   <v>      -0.00416908      -0.03351229       0.03480601 </v>
   <v>       0.09975690       0.02010353      -0.16288006 </v>
   <v>      -0.00032041      -0.01456503       0.07557284 </v>
   <v>       0.09018187      -0.40691028       0.66644158 </v>
   <v>      -0.00129186      -0.00489318       0.00272708 </v>
   <v>       0.61517047       0.06859150       0.74796621 </v>
   <v>       0.00173843      -0.00193548       0.00010416 </v>
   <v>      -4.49928511       0.52093642      -6.10722774 </v>
   <v>       0.00135832      -0.00026140       0.01044960 </v>
   <v>       0.70605556       0.69829178      -1.19188032 </v>
   <v>       0.00037372       0.00869517       0.09612608 </v>
   <v>      -0.12500427       0.03588284      -0.10982963 </v>
   <v>       0.00252798      -0.00242078       0.01175473 </v>
   <v>     -11.46493811      11.04525094      31.47214196 </v>
   <v>      -0.00281360       0.03189008       0.07566124 </v>
   <v>      -0.42671674      -0.38825484      -1.13325107 </v>
   <v>       0.00013524      -0.00316762      -0.02251711 </v>
   <v>      -0.59083112       1.62066120       0.42043430 </v>
   <v>      -0.00158523      -0.00796025      -0.01729776 </v>
   <v>      12.49452507      -5.16171928     -32.08110858 </v>
   <v>       0.00172998      -0.03062624      -0.00178161 </v>
   <v>       0.53870079      -0.47446850      -0.99802479 </v>
   <v>       0.00221661      -0.00152379       0.00089399 </v>
   <v>       2.56248460      -7.51808451       8.21071892 </v>
  </varray>
  <varray name="stress" >
   <v>      21.51398280      -6.08699717     -18.76141173 </v>
   <v>      -6.08699724      30.77351212       8.36518082 </v>
   <v>     -18.76141178       8.36518056      76.75545518 </v>
  </varray>
  <energy>
   <i name="e_fr_energy">   -115.13106640 </i>
   <i name="e_wo_entrp">   -115.11572652 </i>
   <i name="e_0_energy">     -0.03067976 </i>
  </energy>
  <time name="totalsc"> 2806.22 2806.88</time>
  <eigenvalues>
   <array>
    <dimension dim="1">band</dimension>
    <dimension dim="2">kpoint</dimension>
    <dimension dim="3">spin</dimension>
    <field>eigene</field>
    <field>occ</field>
    <set>
     <set comment="spin 1">
      <set comment="kpoint 1">
       <r>  -15.1975    1.0000 </r>
       <r>  -13.4566    1.0000 </r>
       <r>  -13.0274    1.0000 </r>
       <r>  -12.7171    1.0000 </r>
       <r>  -12.6394    1.0000 </r>
       <r>  -12.4003    1.0000 </r>
       <r>  -12.0623    1.0000 </r>
       <r>  -11.9812    1.0000 </r>
       <r>  -11.5746    1.0000 </r>
       <r>  -11.3474    1.0000 </r>
       <r>  -10.9070    1.0000 </r>
       <r>   -9.9396    1.0000 </r>
       <r>   -9.1523    1.0000 </r>
       <r>   -7.9512    1.0000 </r>
       <r>   -7.7457    1.0000 </r>
       <r>   -7.6170    1.0000 </r>
       <r>   -6.9605    1.0000 </r>
       <r>   -6.7382    1.0000 </r>
       <r>   -6.4068    1.0000 </r>
       <r>   -6.3006    1.0000 </r>
       <r>   -5.7400    1.0000 </r>
       <r>   -5.3983    1.0000 </r>
       <r>   -5.0267    1.0000 </r>
       <r>   -4.7261    1.0000 </r>
       <r>   -4.6460    1.0000 </r>
       <r>   -3.9699    1.0000 </r>
       <r>   -3.7548    1.0000 </r>
       <r>   -3.6129    1.0000 </r>
       <r>   -3.4019    1.0000 </r>
       <r>   -3.0564    1.0000 </r>
       <r>   -2.9720    1.0000 </r>
       <r>   -2.9284    1.0000 </r>
       <r>   -2.8694    1.0000 </r>
       <r>   -2.7596    1.0000 </r>
       <r>   -2.6547    1.0000 </r>
       <r>   -2.3937    1.0000 </r>
       <r>   -2.3302    1.0000 </r>
       <r>   -2.3167    1.0000 </r>
       <r>   -2.2400    1.0000 </r>
       <r>   -2.0360    1.0000 </r>
       <r>   -1.9334    1.0000 </r>
       <r>   -1.8634    1.0000 </r>
       <r>   -1.7731    1.0000 </r>
       <r>   -1.6699    1.0000 </r>
       <r>   -1.6442    1.0000 </r>
       <r>   -1.5571    1.0000 </r>
       <r>   -1.5010    1.0000 </r>
       <r>   -1.4018    1.0000 </r>
       <r>   -1.3472    1.0000 </r>
       <r>   -1.2120    1.0000 </r>
       <r>   -1.0511    1.0000 </r>
       <r>   -0.9148    1.0000 </r>
       <r>   -0.6125    1.0000 </r>
       <r>   -0.0859    0.9959 </r>
       <r>    0.8124    0.0000 </r>
       <r>    1.0467    0.0000 </r>
       <r>    1.2370    0.0000 </r>
       <r>    1.3936    0.0000 </r>
       <r>    1.4155    0.0000 </r>
       <r>    1.5743    0.0000 </r>
       <r>    1.7022    0.0000 </r>
       <r>    1.8460    0.0000 </r>
       <r>    1.9861    0.0000 </r>
       <r>    2.0745    0.0000 </r>
       <r>    2.2133    0.0000 </r>
       <r>    2.3483    0.0000 </r>
       <r>    2.5206    0.0000 </r>
       <r>    2.6506    0.0000 </r>
      </set>
      <set comment="kpoint 2">
       <r>  -15.1414    1.0000 </r>
       <r>  -13.3952    1.0000 </r>
       <r>  -12.9725    1.0000 </r>
       <r>  -12.6649    1.0000 </r>
       <r>  -12.5814    1.0000 </r>
       <r>  -12.3447    1.0000 </r>
       <r>  -12.0061    1.0000 </r>
       <r>  -11.9212    1.0000 </r>
       <r>  -11.5248    1.0000 </r>
       <r>  -11.2985    1.0000 </r>
       <r>  -10.8586    1.0000 </r>
       <r>   -9.9164    1.0000 </r>
       <r>   -9.1613    1.0000 </r>
       <r>   -7.9876    1.0000 </r>
       <r>   -7.7093    1.0000 </r>
       <r>   -7.5926    1.0000 </r>
       <r>   -6.9378    1.0000 </r>
       <r>   -6.7086    1.0000 </r>
       <r>   -6.4011    1.0000 </r>
       <r>   -6.3105    1.0000 </r>
       <r>   -5.7062    1.0000 </r>
       <r>   -5.4353    1.0000 </r>
       <r>   -5.2579    1.0000 </r>
       <r>   -4.8153    1.0000 </r>
       <r>   -4.6406    1.0000 </r>
       <r>   -4.0052    1.0000 </r>
       <r>   -3.7724    1.0000 </r>
       <r>   -3.6535    1.0000 </r>
       <r>   -3.5320    1.0000 </r>
       <r>   -3.3572    1.0000 </r>
       <r>   -3.2698    1.0000 </r>
       <r>   -3.1728    1.0000 </r>
       <r>   -3.0566    1.0000 </r>
       <r>   -3.0324    1.0000 </r>
       <r>   -2.6946    1.0000 </r>
       <r>   -2.6374    1.0000 </r>
       <r>   -2.6047    1.0000 </r>
       <r>   -2.3929    1.0000 </r>
       <r>   -2.3592    1.0000 </r>
       <r>   -2.2271    1.0000 </r>
       <r>   -2.1121    1.0000 </r>
       <r>   -2.0098    1.0000 </r>
       <r>   -1.9036    1.0000 </r>
       <r>   -1.8777    1.0000 </r>
       <r>   -1.7694    1.0000 </r>
       <r>   -1.6913    1.0000 </r>
       <r>   -1.6023    1.0000 </r>
       <r>   -1.4468    1.0000 </r>
       <r>   -1.3718    1.0000 </r>
       <r>   -1.1010    1.0000 </r>
       <r>   -0.9614    1.0000 </r>
       <r>   -0.8518    1.0000 </r>
       <r>   -0.5222    1.0000 </r>
       <r>   -0.0541    0.9859 </r>
       <r>    0.8695    0.0000 </r>
       <r>    1.1315    0.0000 </r>
       <r>    1.2925    0.0000 </r>
       <r>    1.6205    0.0000 </r>
       <r>    1.7880    0.0000 </r>
       <r>    1.8484    0.0000 </r>
       <r>    1.9494    0.0000 </r>
       <r>    2.2130    0.0000 </r>
       <r>    2.2772    0.0000 </r>
       <r>    2.2982    0.0000 </r>
       <r>    2.3781    0.0000 </r>
       <r>    2.4731    0.0000 </r>
       <r>    2.6935    0.0000 </r>
       <r>    2.8482    0.0000 </r>
      </set>
      <set comment="kpoint 3">
       <r>  -14.9752    1.0000 </r>
       <r>  -13.2122    1.0000 </r>
       <r>  -12.8093    1.0000 </r>
       <r>  -12.5091    1.0000 </r>
       <r>  -12.4106    1.0000 </r>
       <r>  -12.1799    1.0000 </r>
       <r>  -11.8423    1.0000 </r>
       <r>  -11.7435    1.0000 </r>
       <r>  -11.3799    1.0000 </r>
       <r>  -11.1565    1.0000 </r>
       <r>  -10.7197    1.0000 </r>
       <r>   -9.8657    1.0000 </r>
       <r>   -9.2132    1.0000 </r>
       <r>   -8.0835    1.0000 </r>
       <r>   -7.6676    1.0000 </r>
       <r>   -7.5507    1.0000 </r>
       <r>   -6.9080    1.0000 </r>
       <r>   -6.6473    1.0000 </r>
       <r>   -6.4442    1.0000 </r>
       <r>   -6.4133    1.0000 </r>
       <r>   -5.8981    1.0000 </r>
       <r>   -5.6306    1.0000 </r>
       <r>   -5.2960    1.0000 </r>
       <r>   -4.9440    1.0000 </r>
       <r>   -4.7716    1.0000 </r>
       <r>   -4.2323    1.0000 </r>
       <r>   -4.1290    1.0000 </r>
       <r>   -4.0525    1.0000 </r>
       <r>   -3.9978    1.0000 </r>
       <r>   -3.8926    1.0000 </r>
       <r>   -3.7675    1.0000 </r>
       <r>   -3.6163    1.0000 </r>
       <r>   -3.4721    1.0000 </r>
       <r>   -3.3007    1.0000 </r>
       <r>   -3.1092    1.0000 </r>
       <r>   -3.0721    1.0000 </r>
       <r>   -2.9260    1.0000 </r>
       <r>   -2.8818    1.0000 </r>
       <r>   -2.7214    1.0000 </r>
       <r>   -2.6422    1.0000 </r>
       <r>   -2.3650    1.0000 </r>
       <r>   -2.2844    1.0000 </r>
       <r>   -2.0924    1.0000 </r>
       <r>   -2.0383    1.0000 </r>
       <r>   -1.8908    1.0000 </r>
       <r>   -1.7830    1.0000 </r>
       <r>   -1.6460    1.0000 </r>
       <r>   -1.5836    1.0000 </r>
       <r>   -1.3901    1.0000 </r>
       <r>   -1.1189    1.0000 </r>
       <r>   -0.8880    1.0000 </r>
       <r>   -0.7129    1.0000 </r>
       <r>   -0.1064    0.9983 </r>
       <r>    0.0554    0.7409 </r>
       <r>    0.3997    0.0000 </r>
       <r>    0.9875    0.0000 </r>
       <r>    1.3343    0.0000 </r>
       <r>    1.8434    0.0000 </r>
       <r>    2.0463    0.0000 </r>
       <r>    2.3256    0.0000 </r>
       <r>    2.4606    0.0000 </r>
       <r>    2.5142    0.0000 </r>
       <r>    2.5732    0.0000 </r>
       <r>    2.6495    0.0000 </r>
       <r>    2.7329    0.0000 </r>
       <r>    2.7883    0.0000 </r>
       <r>    3.0169    0.0000 </r>
       <r>    3.0732    0.0000 </r>
      </set>
      <set comment="kpoint 4">
       <r>  -14.7068    1.0000 </r>
       <r>  -12.9112    1.0000 </r>
       <r>  -12.5441    1.0000 </r>
       <r>  -12.2528    1.0000 </r>
       <r>  -12.1388    1.0000 </r>
       <r>  -11.9132    1.0000 </r>
       <r>  -11.5852    1.0000 </r>
       <r>  -11.4604    1.0000 </r>
       <r>  -11.1571    1.0000 </r>
       <r>  -10.9397    1.0000 </r>
       <r>  -10.5166    1.0000 </r>
       <r>   -9.8814    1.0000 </r>
       <r>   -9.3355    1.0000 </r>
       <r>   -8.2748    1.0000 </r>
       <r>   -7.7405    1.0000 </r>
       <r>   -7.6299    1.0000 </r>
       <r>   -7.0346    1.0000 </r>
       <r>   -6.7067    1.0000 </r>
       <r>   -6.5983    1.0000 </r>
       <r>   -6.5470    1.0000 </r>
       <r>   -6.1763    1.0000 </r>
       <r>   -5.6524    1.0000 </r>
       <r>   -5.5070    1.0000 </r>
       <r>   -5.2934    1.0000 </r>
       <r>   -5.2542    1.0000 </r>
       <r>   -4.7383    1.0000 </r>
       <r>   -4.6916    1.0000 </r>
       <r>   -4.5205    1.0000 </r>
       <r>   -4.4348    1.0000 </r>
       <r>   -4.3771    1.0000 </r>
       <r>   -4.1385    1.0000 </r>
       <r>   -4.0765    1.0000 </r>
       <r>   -3.7781    1.0000 </r>
       <r>   -3.6810    1.0000 </r>
       <r>   -3.3954    1.0000 </r>
       <r>   -3.3722    1.0000 </r>
       <r>   -3.1430    1.0000 </r>
       <r>   -2.9143    1.0000 </r>
       <r>   -2.8598    1.0000 </r>
       <r>   -2.6907    1.0000 </r>
       <r>   -2.5679    1.0000 </r>
       <r>   -2.4839    1.0000 </r>
       <r>   -2.3581    1.0000 </r>
       <r>   -2.2196    1.0000 </r>
       <r>   -1.9822    1.0000 </r>
       <r>   -1.8222    1.0000 </r>
       <r>   -1.7350    1.0000 </r>
       <r>   -1.6527    1.0000 </r>
       <r>   -1.4678    1.0000 </r>
       <r>   -1.3684    1.0000 </r>
       <r>   -1.0260    1.0000 </r>
       <r>   -0.7697    1.0000 </r>
       <r>   -0.2861    1.0000 </r>
       <r>   -0.0190    0.9552 </r>
       <r>    0.3768    0.0000 </r>
       <r>    0.9427    0.0000 </r>
       <r>    1.2608    0.0000 </r>
       <r>    1.6069    0.0000 </r>
       <r>    1.9502    0.0000 </r>
       <r>    2.1184    0.0000 </r>
       <r>    2.3308    0.0000 </r>
       <r>    2.3730    0.0000 </r>
       <r>    2.5364    0.0000 </r>
       <r>    2.6171    0.0000 </r>
       <r>    2.7859    0.0000 </r>
       <r>    2.8710    0.0000 </r>
       <r>    2.9143    0.0000 </r>
       <r>    2.9835    0.0000 </r>
      </set>
      <set comment="kpoint 5">
       <r>  -14.3545    1.0000 </r>
       <r>  -12.4994    1.0000 </r>
       <r>  -12.1942    1.0000 </r>
       <r>  -11.9044    1.0000 </r>
       <r>  -11.7952    1.0000 </r>
       <r>  -11.5618    1.0000 </r>
       <r>  -11.2721    1.0000 </r>
       <r>  -11.1065    1.0000 </r>
       <r>  -10.8972    1.0000 </r>
       <r>  -10.6953    1.0000 </r>
       <r>  -10.3306    1.0000 </r>
       <r>  -10.1531    1.0000 </r>
       <r>   -9.4122    1.0000 </r>
       <r>   -8.5697    1.0000 </r>
       <r>   -8.0005    1.0000 </r>
       <r>   -7.9438    1.0000 </r>
       <r>   -7.3386    1.0000 </r>
       <r>   -6.9132    1.0000 </r>
       <r>   -6.8181    1.0000 </r>
       <r>   -6.7892    1.0000 </r>
       <r>   -6.5541    1.0000 </r>
       <r>   -6.0789    1.0000 </r>
       <r>   -6.0083    1.0000 </r>
       <r>   -5.8777    1.0000 </r>
       <r>   -5.6189    1.0000 </r>
       <r>   -5.1284    1.0000 </r>
       <r>   -4.8710    1.0000 </r>
       <r>   -4.7041    1.0000 </r>
       <r>   -4.6182    1.0000 </r>
       <r>   -4.5250    1.0000 </r>
       <r>   -4.2439    1.0000 </r>
       <r>   -4.1599    1.0000 </r>
       <r>   -4.1237    1.0000 </r>
       <r>   -3.8578    1.0000 </r>
       <r>   -3.3771    1.0000 </r>
       <r>   -3.3147    1.0000 </r>
       <r>   -3.2126    1.0000 </r>
       <r>   -3.0102    1.0000 </r>
       <r>   -2.9481    1.0000 </r>
       <r>   -2.8577    1.0000 </r>
       <r>   -2.7634    1.0000 </r>
       <r>   -2.6002    1.0000 </r>
       <r>   -2.4816    1.0000 </r>
       <r>   -2.3041    1.0000 </r>
       <r>   -2.1476    1.0000 </r>
       <r>   -1.9738    1.0000 </r>
       <r>   -1.8111    1.0000 </r>
       <r>   -1.7900    1.0000 </r>
       <r>   -1.6324    1.0000 </r>
       <r>   -1.5108    1.0000 </r>
       <r>   -1.2532    1.0000 </r>
       <r>   -1.1343    1.0000 </r>
       <r>   -0.4564    1.0000 </r>
       <r>   -0.1473    0.9998 </r>
       <r>    0.3020    0.0022 </r>
       <r>    0.6873    0.0000 </r>
       <r>    1.0592    0.0000 </r>
       <r>    1.4068    0.0000 </r>
       <r>    1.6886    0.0000 </r>
       <r>    1.8584    0.0000 </r>
       <r>    2.0522    0.0000 </r>
       <r>    2.2242    0.0000 </r>
       <r>    2.3261    0.0000 </r>
       <r>    2.4068    0.0000 </r>
       <r>    2.4597    0.0000 </r>
       <r>    2.6965    0.0000 </r>
       <r>    2.8109    0.0000 </r>
       <r>    2.9217    0.0000 </r>
      </set>
      <set comment="kpoint 6">
       <r>  -13.9641    1.0000 </r>
       <r>  -11.9912    1.0000 </r>
       <r>  -11.8268    1.0000 </r>
       <r>  -11.4855    1.0000 </r>
       <r>  -11.4604    1.0000 </r>
       <r>  -11.1654    1.0000 </r>
       <r>  -11.0399    1.0000 </r>
       <r>  -10.7685    1.0000 </r>
       <r>  -10.6843    1.0000 </r>
       <r>  -10.5406    1.0000 </r>
       <r>  -10.4326    1.0000 </r>
       <r>  -10.3690    1.0000 </r>
       <r>   -9.4818    1.0000 </r>
       <r>   -8.7462    1.0000 </r>
       <r>   -8.3089    1.0000 </r>
       <r>   -8.2923    1.0000 </r>
       <r>   -7.7718    1.0000 </r>
       <r>   -7.3747    1.0000 </r>
       <r>   -7.3314    1.0000 </r>
       <r>   -7.1679    1.0000 </r>
       <r>   -6.9317    1.0000 </r>
       <r>   -6.6750    1.0000 </r>
       <r>   -6.5757    1.0000 </r>
       <r>   -6.2169    1.0000 </r>
       <r>   -5.6078    1.0000 </r>
       <r>   -5.1303    1.0000 </r>
       <r>   -4.7983    1.0000 </r>
       <r>   -4.5599    1.0000 </r>
       <r>   -4.4649    1.0000 </r>
       <r>   -4.4368    1.0000 </r>
       <r>   -4.1591    1.0000 </r>
       <r>   -4.1315    1.0000 </r>
       <r>   -3.9944    1.0000 </r>
       <r>   -3.9466    1.0000 </r>
       <r>   -3.6522    1.0000 </r>
       <r>   -3.5699    1.0000 </r>
       <r>   -3.2575    1.0000 </r>
       <r>   -3.1841    1.0000 </r>
       <r>   -3.0923    1.0000 </r>
       <r>   -2.9497    1.0000 </r>
       <r>   -2.8387    1.0000 </r>
       <r>   -2.6917    1.0000 </r>
       <r>   -2.4889    1.0000 </r>
       <r>   -2.3957    1.0000 </r>
       <r>   -2.2174    1.0000 </r>
       <r>   -2.1582    1.0000 </r>
       <r>   -2.0160    1.0000 </r>
       <r>   -1.9395    1.0000 </r>
       <r>   -1.7628    1.0000 </r>
       <r>   -1.5661    1.0000 </r>
       <r>   -1.4658    1.0000 </r>
       <r>   -1.3265    1.0000 </r>
       <r>   -0.5536    1.0000 </r>
       <r>   -0.2728    1.0000 </r>
       <r>    0.1868    0.1125 </r>
       <r>    0.4586    0.0000 </r>
       <r>    0.7866    0.0000 </r>
       <r>    1.3662    0.0000 </r>
       <r>    1.4806    0.0000 </r>
       <r>    1.7739    0.0000 </r>
       <r>    1.8162    0.0000 </r>
       <r>    1.9461    0.0000 </r>
       <r>    2.1424    0.0000 </r>
       <r>    2.1771    0.0000 </r>
       <r>    2.3187    0.0000 </r>
       <r>    2.3590    0.0000 </r>
       <r>    2.4817    0.0000 </r>
       <r>    2.7723    0.0000 </r>
      </set>
      <set comment="kpoint 7">
       <r>  -13.6581    1.0000 </r>
       <r>  -11.7293    1.0000 </r>
       <r>  -11.4171    1.0000 </r>
       <r>  -11.1674    1.0000 </r>
       <r>  -11.0629    1.0000 </r>
       <r>  -10.9288    1.0000 </r>
       <r>  -10.8630    1.0000 </r>
       <r>  -10.7626    1.0000 </r>
       <r>  -10.7563    1.0000 </r>
       <r>  -10.6463    1.0000 </r>
       <r>  -10.5479    1.0000 </r>
       <r>  -10.2519    1.0000 </r>
       <r>   -9.6383    1.0000 </r>
       <r>   -8.6044    1.0000 </r>
       <r>   -8.5569    1.0000 </r>
       <r>   -8.3558    1.0000 </r>
       <r>   -7.9948    1.0000 </r>
       <r>   -7.9713    1.0000 </r>
       <r>   -7.6487    1.0000 </r>
       <r>   -7.4863    1.0000 </r>
       <r>   -7.2335    1.0000 </r>
       <r>   -7.1974    1.0000 </r>
       <r>   -7.0930    1.0000 </r>
       <r>   -6.0458    1.0000 </r>
       <r>   -5.3948    1.0000 </r>
       <r>   -4.9701    1.0000 </r>
       <r>   -4.8318    1.0000 </r>
       <r>   -4.4295    1.0000 </r>
       <r>   -4.3740    1.0000 </r>
       <r>   -4.2294    1.0000 </r>
       <r>   -4.1522    1.0000 </r>
       <r>   -4.0008    1.0000 </r>
       <r>   -3.9144    1.0000 </r>
       <r>   -3.8576    1.0000 </r>
       <r>   -3.7490    1.0000 </r>
       <r>   -3.6111    1.0000 </r>
       <r>   -3.5065    1.0000 </r>
       <r>   -3.4322    1.0000 </r>
       <r>   -3.1735    1.0000 </r>
       <r>   -3.0703    1.0000 </r>
       <r>   -2.9194    1.0000 </r>
       <r>   -2.7926    1.0000 </r>
       <r>   -2.6970    1.0000 </r>
       <r>   -2.5988    1.0000 </r>
       <r>   -2.2745    1.0000 </r>
       <r>   -2.1134    1.0000 </r>
       <r>   -2.0553    1.0000 </r>
       <r>   -2.0071    1.0000 </r>
       <r>   -1.7495    1.0000 </r>
       <r>   -1.6293    1.0000 </r>
       <r>   -1.4378    1.0000 </r>
       <r>   -1.3766    1.0000 </r>
       <r>   -0.6890    1.0000 </r>
       <r>   -0.3565    1.0000 </r>
       <r>    0.0964    0.5260 </r>
       <r>    0.2850    0.0046 </r>
       <r>    0.6638    0.0000 </r>
       <r>    1.3612    0.0000 </r>
       <r>    1.4770    0.0000 </r>
       <r>    1.6616    0.0000 </r>
       <r>    1.7153    0.0000 </r>
       <r>    1.8848    0.0000 </r>
       <r>    1.9211    0.0000 </r>
       <r>    2.0547    0.0000 </r>
       <r>    2.1542    0.0000 </r>
       <r>    2.2613    0.0000 </r>
       <r>    2.4123    0.0000 </r>
       <r>    2.4970    0.0000 </r>
      </set>
      <set comment="kpoint 8">
       <r>  -15.1959    1.0000 </r>
       <r>  -13.4013    1.0000 </r>
       <r>  -13.0929    1.0000 </r>
       <r>  -12.8903    1.0000 </r>
       <r>  -12.5244    1.0000 </r>
       <r>  -12.3973    1.0000 </r>
       <r>  -12.0922    1.0000 </r>
       <r>  -11.7859    1.0000 </r>
       <r>  -11.5803    1.0000 </r>
       <r>  -11.3926    1.0000 </r>
       <r>  -10.9156    1.0000 </r>
       <r>   -9.8914    1.0000 </r>
       <r>   -9.2145    1.0000 </r>
       <r>   -8.4321    1.0000 </r>
       <r>   -7.6832    1.0000 </r>
       <r>   -7.3076    1.0000 </r>
       <r>   -6.9349    1.0000 </r>
       <r>   -6.5856    1.0000 </r>
       <r>   -6.5202    1.0000 </r>
       <r>   -6.2400    1.0000 </r>
       <r>   -5.6632    1.0000 </r>
       <r>   -5.3184    1.0000 </r>
       <r>   -5.0201    1.0000 </r>
       <r>   -4.6970    1.0000 </r>
       <r>   -4.5487    1.0000 </r>
       <r>   -3.9633    1.0000 </r>
       <r>   -3.8991    1.0000 </r>
       <r>   -3.6334    1.0000 </r>
       <r>   -3.4026    1.0000 </r>
       <r>   -3.2472    1.0000 </r>
       <r>   -3.0437    1.0000 </r>
       <r>   -2.9784    1.0000 </r>
       <r>   -2.8971    1.0000 </r>
       <r>   -2.6313    1.0000 </r>
       <r>   -2.6250    1.0000 </r>
       <r>   -2.4447    1.0000 </r>
       <r>   -2.3262    1.0000 </r>
       <r>   -2.2959    1.0000 </r>
       <r>   -2.2298    1.0000 </r>
       <r>   -2.1080    1.0000 </r>
       <r>   -2.0568    1.0000 </r>
       <r>   -1.8943    1.0000 </r>
       <r>   -1.8384    1.0000 </r>
       <r>   -1.7966    1.0000 </r>
       <r>   -1.7350    1.0000 </r>
       <r>   -1.5425    1.0000 </r>
       <r>   -1.4569    1.0000 </r>
       <r>   -1.3573    1.0000 </r>
       <r>   -1.2783    1.0000 </r>
       <r>   -1.1519    1.0000 </r>
       <r>   -1.0182    1.0000 </r>
       <r>   -0.8788    1.0000 </r>
       <r>   -0.5689    1.0000 </r>
       <r>    0.0009    0.9217 </r>
       <r>    0.8290    0.0000 </r>
       <r>    1.0343    0.0000 </r>
       <r>    1.2804    0.0000 </r>
       <r>    1.3696    0.0000 </r>
       <r>    1.4564    0.0000 </r>
       <r>    1.6023    0.0000 </r>
       <r>    1.7190    0.0000 </r>
       <r>    1.8498    0.0000 </r>
       <r>    1.9099    0.0000 </r>
       <r>    2.1287    0.0000 </r>
       <r>    2.3368    0.0000 </r>
       <r>    2.4710    0.0000 </r>
       <r>    2.6485    0.0000 </r>
       <r>    2.7181    0.0000 </r>
      </set>
      <set comment="kpoint 9">
       <r>  -15.1395    1.0000 </r>
       <r>  -13.3244    1.0000 </r>
       <r>  -13.0482    1.0000 </r>
       <r>  -12.8712    1.0000 </r>
       <r>  -12.4438    1.0000 </r>
       <r>  -12.3391    1.0000 </r>
       <r>  -12.0513    1.0000 </r>
       <r>  -11.6867    1.0000 </r>
       <r>  -11.5291    1.0000 </r>
       <r>  -11.3512    1.0000 </r>
       <r>  -10.8712    1.0000 </r>
       <r>   -9.8572    1.0000 </r>
       <r>   -9.2441    1.0000 </r>
       <r>   -8.4906    1.0000 </r>
       <r>   -7.6453    1.0000 </r>
       <r>   -7.2580    1.0000 </r>
       <r>   -6.9231    1.0000 </r>
       <r>   -6.5941    1.0000 </r>
       <r>   -6.4511    1.0000 </r>
       <r>   -6.2588    1.0000 </r>
       <r>   -5.6157    1.0000 </r>
       <r>   -5.4452    1.0000 </r>
       <r>   -5.0360    1.0000 </r>
       <r>   -4.8816    1.0000 </r>
       <r>   -4.5953    1.0000 </r>
       <r>   -4.0321    1.0000 </r>
       <r>   -3.9214    1.0000 </r>
       <r>   -3.6892    1.0000 </r>
       <r>   -3.5465    1.0000 </r>
       <r>   -3.3918    1.0000 </r>
       <r>   -3.2996    1.0000 </r>
       <r>   -3.2535    1.0000 </r>
       <r>   -3.0393    1.0000 </r>
       <r>   -2.9438    1.0000 </r>
       <r>   -2.7928    1.0000 </r>
       <r>   -2.6309    1.0000 </r>
       <r>   -2.5977    1.0000 </r>
       <r>   -2.4748    1.0000 </r>
       <r>   -2.4000    1.0000 </r>
       <r>   -2.2419    1.0000 </r>
       <r>   -2.1578    1.0000 </r>
       <r>   -2.0664    1.0000 </r>
       <r>   -1.9536    1.0000 </r>
       <r>   -1.8878    1.0000 </r>
       <r>   -1.8224    1.0000 </r>
       <r>   -1.7343    1.0000 </r>
       <r>   -1.6581    1.0000 </r>
       <r>   -1.3575    1.0000 </r>
       <r>   -1.2650    1.0000 </r>
       <r>   -1.0168    1.0000 </r>
       <r>   -0.9491    1.0000 </r>
       <r>   -0.8207    1.0000 </r>
       <r>   -0.5667    1.0000 </r>
       <r>    0.0269    0.8527 </r>
       <r>    0.8894    0.0000 </r>
       <r>    1.0386    0.0000 </r>
       <r>    1.3612    0.0000 </r>
       <r>    1.6448    0.0000 </r>
       <r>    1.8031    0.0000 </r>
       <r>    1.8619    0.0000 </r>
       <r>    1.9734    0.0000 </r>
       <r>    2.0404    0.0000 </r>
       <r>    2.3076    0.0000 </r>
       <r>    2.4321    0.0000 </r>
       <r>    2.5846    0.0000 </r>
       <r>    2.6406    0.0000 </r>
       <r>    2.7385    0.0000 </r>
       <r>    2.9385    0.0000 </r>
      </set>
      <set comment="kpoint 10">
       <r>  -14.9732    1.0000 </r>
       <r>  -13.1279    1.0000 </r>
       <r>  -12.8890    1.0000 </r>
       <r>  -12.7346    1.0000 </r>
       <r>  -12.2589    1.0000 </r>
       <r>  -12.1716    1.0000 </r>
       <r>  -11.9068    1.0000 </r>
       <r>  -11.4895    1.0000 </r>
       <r>  -11.3783    1.0000 </r>
       <r>  -11.2117    1.0000 </r>
       <r>  -10.7299    1.0000 </r>
       <r>   -9.8003    1.0000 </r>
       <r>   -9.3087    1.0000 </r>
       <r>   -8.5561    1.0000 </r>
       <r>   -7.5452    1.0000 </r>
       <r>   -7.2235    1.0000 </r>
       <r>   -6.9621    1.0000 </r>
       <r>   -6.5720    1.0000 </r>
       <r>   -6.4775    1.0000 </r>
       <r>   -6.3966    1.0000 </r>
       <r>   -5.8273    1.0000 </r>
       <r>   -5.5660    1.0000 </r>
       <r>   -5.1249    1.0000 </r>
       <r>   -5.0085    1.0000 </r>
       <r>   -4.7552    1.0000 </r>
       <r>   -4.3047    1.0000 </r>
       <r>   -4.2658    1.0000 </r>
       <r>   -4.2078    1.0000 </r>
       <r>   -3.9952    1.0000 </r>
       <r>   -3.8957    1.0000 </r>
       <r>   -3.7898    1.0000 </r>
       <r>   -3.5616    1.0000 </r>
       <r>   -3.3818    1.0000 </r>
       <r>   -3.2349    1.0000 </r>
       <r>   -3.1013    1.0000 </r>
       <r>   -3.0157    1.0000 </r>
       <r>   -2.8791    1.0000 </r>
       <r>   -2.8101    1.0000 </r>
       <r>   -2.7443    1.0000 </r>
       <r>   -2.6218    1.0000 </r>
       <r>   -2.5155    1.0000 </r>
       <r>   -2.3678    1.0000 </r>
       <r>   -2.2410    1.0000 </r>
       <r>   -2.0831    1.0000 </r>
       <r>   -1.9184    1.0000 </r>
       <r>   -1.8326    1.0000 </r>
       <r>   -1.7628    1.0000 </r>
       <r>   -1.4149    1.0000 </r>
       <r>   -1.3200    1.0000 </r>
       <r>   -1.0517    1.0000 </r>
       <r>   -0.8645    1.0000 </r>
       <r>   -0.7886    1.0000 </r>
       <r>   -0.1275    0.9994 </r>
       <r>    0.0582    0.7279 </r>
       <r>    0.4097    0.0000 </r>
       <r>    0.9640    0.0000 </r>
       <r>    1.3491    0.0000 </r>
       <r>    1.7090    0.0000 </r>
       <r>    1.9409    0.0000 </r>
       <r>    2.1939    0.0000 </r>
       <r>    2.3939    0.0000 </r>
       <r>    2.4393    0.0000 </r>
       <r>    2.6550    0.0000 </r>
       <r>    2.7909    0.0000 </r>
       <r>    2.8567    0.0000 </r>
       <r>    2.9665    0.0000 </r>
       <r>    3.1097    0.0000 </r>
       <r>    3.1628    0.0000 </r>
      </set>
      <set comment="kpoint 11">
       <r>  -14.7049    1.0000 </r>
       <r>  -12.8166    1.0000 </r>
       <r>  -12.6211    1.0000 </r>
       <r>  -12.4832    1.0000 </r>
       <r>  -11.9823    1.0000 </r>
       <r>  -11.9038    1.0000 </r>
       <r>  -11.6705    1.0000 </r>
       <r>  -11.2142    1.0000 </r>
       <r>  -11.1415    1.0000 </r>
       <r>  -10.9898    1.0000 </r>
       <r>  -10.5125    1.0000 </r>
       <r>   -9.8368    1.0000 </r>
       <r>   -9.4094    1.0000 </r>
       <r>   -8.6872    1.0000 </r>
       <r>   -7.4530    1.0000 </r>
       <r>   -7.3171    1.0000 </r>
       <r>   -7.2993    1.0000 </r>
       <r>   -6.6830    1.0000 </r>
       <r>   -6.6097    1.0000 </r>
       <r>   -6.5564    1.0000 </r>
       <r>   -6.0589    1.0000 </r>
       <r>   -5.7370    1.0000 </r>
       <r>   -5.4921    1.0000 </r>
       <r>   -5.3709    1.0000 </r>
       <r>   -5.1245    1.0000 </r>
       <r>   -4.9440    1.0000 </r>
       <r>   -4.6237    1.0000 </r>
       <r>   -4.5813    1.0000 </r>
       <r>   -4.4741    1.0000 </r>
       <r>   -4.3304    1.0000 </r>
       <r>   -4.2179    1.0000 </r>
       <r>   -3.9429    1.0000 </r>
       <r>   -3.7166    1.0000 </r>
       <r>   -3.6396    1.0000 </r>
       <r>   -3.3313    1.0000 </r>
       <r>   -3.1322    1.0000 </r>
       <r>   -3.0903    1.0000 </r>
       <r>   -3.0097    1.0000 </r>
       <r>   -2.8484    1.0000 </r>
       <r>   -2.6959    1.0000 </r>
       <r>   -2.5555    1.0000 </r>
       <r>   -2.5089    1.0000 </r>
       <r>   -2.4452    1.0000 </r>
       <r>   -2.1839    1.0000 </r>
       <r>   -2.0344    1.0000 </r>
       <r>   -1.8966    1.0000 </r>
       <r>   -1.8072    1.0000 </r>
       <r>   -1.6830    1.0000 </r>
       <r>   -1.4927    1.0000 </r>
       <r>   -1.3051    1.0000 </r>
       <r>   -1.0010    1.0000 </r>
       <r>   -0.8580    1.0000 </r>
       <r>   -0.2709    1.0000 </r>
       <r>   -0.0387    0.9759 </r>
       <r>    0.3239    0.0008 </r>
       <r>    0.9893    0.0000 </r>
       <r>    1.1167    0.0000 </r>
       <r>    1.4655    0.0000 </r>
       <r>    1.6067    0.0000 </r>
       <r>    1.7172    0.0000 </r>
       <r>    2.2572    0.0000 </r>
       <r>    2.2919    0.0000 </r>
       <r>    2.5540    0.0000 </r>
       <r>    2.7475    0.0000 </r>
       <r>    2.8165    0.0000 </r>
       <r>    2.9526    0.0000 </r>
       <r>    3.0197    0.0000 </r>
       <r>    3.1442    0.0000 </r>
      </set>
      <set comment="kpoint 12">
       <r>  -14.3529    1.0000 </r>
       <r>  -12.4000    1.0000 </r>
       <r>  -12.2607    1.0000 </r>
       <r>  -12.1240    1.0000 </r>
       <r>  -11.6503    1.0000 </r>
       <r>  -11.5559    1.0000 </r>
       <r>  -11.3719    1.0000 </r>
       <r>  -10.9030    1.0000 </r>
       <r>  -10.8551    1.0000 </r>
       <r>  -10.7259    1.0000 </r>
       <r>  -10.3070    1.0000 </r>
       <r>  -10.1605    1.0000 </r>
       <r>   -9.4264    1.0000 </r>
       <r>   -8.8863    1.0000 </r>
       <r>   -7.8590    1.0000 </r>
       <r>   -7.6241    1.0000 </r>
       <r>   -7.4856    1.0000 </r>
       <r>   -7.0282    1.0000 </r>
       <r>   -6.8821    1.0000 </r>
       <r>   -6.7825    1.0000 </r>
       <r>   -6.4149    1.0000 </r>
       <r>   -6.1099    1.0000 </r>
       <r>   -6.0960    1.0000 </r>
       <r>   -5.8334    1.0000 </r>
       <r>   -5.7097    1.0000 </r>
       <r>   -5.2962    1.0000 </r>
       <r>   -4.8594    1.0000 </r>
       <r>   -4.8295    1.0000 </r>
       <r>   -4.4976    1.0000 </r>
       <r>   -4.3375    1.0000 </r>
       <r>   -4.2505    1.0000 </r>
       <r>   -4.1425    1.0000 </r>
       <r>   -3.9307    1.0000 </r>
       <r>   -3.8591    1.0000 </r>
       <r>   -3.4385    1.0000 </r>
       <r>   -3.2558    1.0000 </r>
       <r>   -3.0404    1.0000 </r>
       <r>   -2.9267    1.0000 </r>
       <r>   -2.9092    1.0000 </r>
       <r>   -2.7813    1.0000 </r>
       <r>   -2.7299    1.0000 </r>
       <r>   -2.5723    1.0000 </r>
       <r>   -2.3983    1.0000 </r>
       <r>   -2.3466    1.0000 </r>
       <r>   -2.2558    1.0000 </r>
       <r>   -2.1669    1.0000 </r>
       <r>   -1.8781    1.0000 </r>
       <r>   -1.7987    1.0000 </r>
       <r>   -1.6703    1.0000 </r>
       <r>   -1.5575    1.0000 </r>
       <r>   -1.2580    1.0000 </r>
       <r>   -1.0489    1.0000 </r>
       <r>   -0.5748    1.0000 </r>
       <r>   -0.2415    1.0000 </r>
       <r>    0.2619    0.0115 </r>
       <r>    0.7444    0.0000 </r>
       <r>    0.8790    0.0000 </r>
       <r>    1.1914    0.0000 </r>
       <r>    1.3277    0.0000 </r>
       <r>    1.4052    0.0000 </r>
       <r>    1.9884    0.0000 </r>
       <r>    2.2501    0.0000 </r>
       <r>    2.3151    0.0000 </r>
       <r>    2.4362    0.0000 </r>
       <r>    2.5783    0.0000 </r>
       <r>    2.7289    0.0000 </r>
       <r>    2.8123    0.0000 </r>
       <r>    3.0233    0.0000 </r>
      </set>
      <set comment="kpoint 13">
       <r>  -13.9630    1.0000 </r>
       <r>  -11.8984    1.0000 </r>
       <r>  -11.8628    1.0000 </r>
       <r>  -11.6739    1.0000 </r>
       <r>  -11.3952    1.0000 </r>
       <r>  -11.1666    1.0000 </r>
       <r>  -11.0755    1.0000 </r>
       <r>  -10.6776    1.0000 </r>
       <r>  -10.6419    1.0000 </r>
       <r>  -10.5153    1.0000 </r>
       <r>  -10.4230    1.0000 </r>
       <r>  -10.3810    1.0000 </r>
       <r>   -9.4790    1.0000 </r>
       <r>   -8.8764    1.0000 </r>
       <r>   -8.3106    1.0000 </r>
       <r>   -8.0280    1.0000 </r>
       <r>   -7.8131    1.0000 </r>
       <r>   -7.6942    1.0000 </r>
       <r>   -7.2748    1.0000 </r>
       <r>   -7.1335    1.0000 </r>
       <r>   -6.8913    1.0000 </r>
       <r>   -6.6109    1.0000 </r>
       <r>   -6.5739    1.0000 </r>
       <r>   -6.2414    1.0000 </r>
       <r>   -5.7269    1.0000 </r>
       <r>   -5.2601    1.0000 </r>
       <r>   -4.8138    1.0000 </r>
       <r>   -4.6992    1.0000 </r>
       <r>   -4.5281    1.0000 </r>
       <r>   -4.3446    1.0000 </r>
       <r>   -4.0740    1.0000 </r>
       <r>   -4.0296    1.0000 </r>
       <r>   -3.8994    1.0000 </r>
       <r>   -3.7759    1.0000 </r>
       <r>   -3.5282    1.0000 </r>
       <r>   -3.2733    1.0000 </r>
       <r>   -3.2306    1.0000 </r>
       <r>   -3.1730    1.0000 </r>
       <r>   -3.0567    1.0000 </r>
       <r>   -3.0007    1.0000 </r>
       <r>   -2.8299    1.0000 </r>
       <r>   -2.7786    1.0000 </r>
       <r>   -2.5835    1.0000 </r>
       <r>   -2.4764    1.0000 </r>
       <r>   -2.2488    1.0000 </r>
       <r>   -2.1698    1.0000 </r>
       <r>   -2.0505    1.0000 </r>
       <r>   -1.9824    1.0000 </r>
       <r>   -1.7715    1.0000 </r>
       <r>   -1.4989    1.0000 </r>
       <r>   -1.4384    1.0000 </r>
       <r>   -1.3683    1.0000 </r>
       <r>   -0.6191    1.0000 </r>
       <r>   -0.4187    1.0000 </r>
       <r>    0.1539    0.2273 </r>
       <r>    0.4956    0.0000 </r>
       <r>    0.6360    0.0000 </r>
       <r>    1.1265    0.0000 </r>
       <r>    1.2853    0.0000 </r>
       <r>    1.4211    0.0000 </r>
       <r>    1.7663    0.0000 </r>
       <r>    1.9095    0.0000 </r>
       <r>    2.0736    0.0000 </r>
       <r>    2.1364    0.0000 </r>
       <r>    2.2832    0.0000 </r>
       <r>    2.5350    0.0000 </r>
       <r>    2.7061    0.0000 </r>
       <r>    2.7506    0.0000 </r>
      </set>
      <set comment="kpoint 14">
       <r>  -13.6578    1.0000 </r>
       <r>  -11.7273    1.0000 </r>
       <r>  -11.3467    1.0000 </r>
       <r>  -11.1960    1.0000 </r>
       <r>  -11.1789    1.0000 </r>
       <r>  -10.8970    1.0000 </r>
       <r>  -10.8750    1.0000 </r>
       <r>  -10.7798    1.0000 </r>
       <r>  -10.7691    1.0000 </r>
       <r>  -10.6167    1.0000 </r>
       <r>  -10.4937    1.0000 </r>
       <r>  -10.2407    1.0000 </r>
       <r>   -9.6411    1.0000 </r>
       <r>   -8.5633    1.0000 </r>
       <r>   -8.4694    1.0000 </r>
       <r>   -8.3149    1.0000 </r>
       <r>   -8.2444    1.0000 </r>
       <r>   -7.9698    1.0000 </r>
       <r>   -7.6397    1.0000 </r>
       <r>   -7.4323    1.0000 </r>
       <r>   -7.2469    1.0000 </r>
       <r>   -7.2167    1.0000 </r>
       <r>   -7.0537    1.0000 </r>
       <r>   -6.0468    1.0000 </r>
       <r>   -5.4968    1.0000 </r>
       <r>   -4.9467    1.0000 </r>
       <r>   -4.9280    1.0000 </r>
       <r>   -4.3936    1.0000 </r>
       <r>   -4.3784    1.0000 </r>
       <r>   -4.2283    1.0000 </r>
       <r>   -4.0868    1.0000 </r>
       <r>   -4.0668    1.0000 </r>
       <r>   -3.8501    1.0000 </r>
       <r>   -3.8231    1.0000 </r>
       <r>   -3.5978    1.0000 </r>
       <r>   -3.5714    1.0000 </r>
       <r>   -3.4432    1.0000 </r>
       <r>   -3.3792    1.0000 </r>
       <r>   -3.1765    1.0000 </r>
       <r>   -3.0924    1.0000 </r>
       <r>   -2.9077    1.0000 </r>
       <r>   -2.8609    1.0000 </r>
       <r>   -2.6003    1.0000 </r>
       <r>   -2.5507    1.0000 </r>
       <r>   -2.5128    1.0000 </r>
       <r>   -2.1318    1.0000 </r>
       <r>   -2.0733    1.0000 </r>
       <r>   -2.0316    1.0000 </r>
       <r>   -1.7154    1.0000 </r>
       <r>   -1.6143    1.0000 </r>
       <r>   -1.4683    1.0000 </r>
       <r>   -1.3710    1.0000 </r>
       <r>   -0.7031    1.0000 </r>
       <r>   -0.4275    1.0000 </r>
       <r>    0.1056    0.4743 </r>
       <r>    0.3402    0.0004 </r>
       <r>    0.5565    0.0000 </r>
       <r>    1.1927    0.0000 </r>
       <r>    1.4982    0.0000 </r>
       <r>    1.5707    0.0000 </r>
       <r>    1.6426    0.0000 </r>
       <r>    1.7286    0.0000 </r>
       <r>    1.8813    0.0000 </r>
       <r>    1.9810    0.0000 </r>
       <r>    2.2104    0.0000 </r>
       <r>    2.3662    0.0000 </r>
       <r>    2.5254    0.0000 </r>
       <r>    2.5656    0.0000 </r>
      </set>
      <set comment="kpoint 15">
       <r>  -13.6584    1.0000 </r>
       <r>  -11.7245    1.0000 </r>
       <r>  -11.4507    1.0000 </r>
       <r>  -11.1704    1.0000 </r>
       <r>  -10.9868    1.0000 </r>
       <r>  -10.9170    1.0000 </r>
       <r>  -10.8500    1.0000 </r>
       <r>  -10.7739    1.0000 </r>
       <r>  -10.7218    1.0000 </r>
       <r>  -10.6737    1.0000 </r>
       <r>  -10.6159    1.0000 </r>
       <r>  -10.2662    1.0000 </r>
       <r>   -9.6332    1.0000 </r>
       <r>   -8.6722    1.0000 </r>
       <r>   -8.5171    1.0000 </r>
       <r>   -8.3496    1.0000 </r>
       <r>   -7.9728    1.0000 </r>
       <r>   -7.8597    1.0000 </r>
       <r>   -7.6730    1.0000 </r>
       <r>   -7.5192    1.0000 </r>
       <r>   -7.2496    1.0000 </r>
       <r>   -7.1948    1.0000 </r>
       <r>   -7.1317    1.0000 </r>
       <r>   -6.0806    1.0000 </r>
       <r>   -5.3516    1.0000 </r>
       <r>   -4.8782    1.0000 </r>
       <r>   -4.6554    1.0000 </r>
       <r>   -4.4981    1.0000 </r>
       <r>   -4.4472    1.0000 </r>
       <r>   -4.2910    1.0000 </r>
       <r>   -4.1910    1.0000 </r>
       <r>   -4.0261    1.0000 </r>
       <r>   -3.9304    1.0000 </r>
       <r>   -3.9024    1.0000 </r>
       <r>   -3.8001    1.0000 </r>
       <r>   -3.6493    1.0000 </r>
       <r>   -3.5398    1.0000 </r>
       <r>   -3.3375    1.0000 </r>
       <r>   -3.2623    1.0000 </r>
       <r>   -2.9852    1.0000 </r>
       <r>   -2.8161    1.0000 </r>
       <r>   -2.7178    1.0000 </r>
       <r>   -2.7099    1.0000 </r>
       <r>   -2.5918    1.0000 </r>
       <r>   -2.2962    1.0000 </r>
       <r>   -2.1687    1.0000 </r>
       <r>   -2.0834    1.0000 </r>
       <r>   -2.0273    1.0000 </r>
       <r>   -1.7877    1.0000 </r>
       <r>   -1.6239    1.0000 </r>
       <r>   -1.4198    1.0000 </r>
       <r>   -1.3719    1.0000 </r>
       <r>   -0.6859    1.0000 </r>
       <r>   -0.3461    1.0000 </r>
       <r>    0.1034    0.4866 </r>
       <r>    0.3954    0.0000 </r>
       <r>    0.6018    0.0000 </r>
       <r>    1.2773    0.0000 </r>
       <r>    1.4428    0.0000 </r>
       <r>    1.6986    0.0000 </r>
       <r>    1.7673    0.0000 </r>
       <r>    1.8568    0.0000 </r>
       <r>    1.9448    0.0000 </r>
       <r>    2.1252    0.0000 </r>
       <r>    2.2877    0.0000 </r>
       <r>    2.3447    0.0000 </r>
       <r>    2.4636    0.0000 </r>
       <r>    2.5245    0.0000 </r>
      </set>
      <set comment="kpoint 16">
       <r>  -13.9646    1.0000 </r>
       <r>  -12.0177    1.0000 </r>
       <r>  -11.7928    1.0000 </r>
       <r>  -11.5143    1.0000 </r>
       <r>  -11.4004    1.0000 </r>
       <r>  -11.1620    1.0000 </r>
       <r>  -10.9843    1.0000 </r>
       <r>  -10.8501    1.0000 </r>
       <r>  -10.7681    1.0000 </r>
       <r>  -10.5436    1.0000 </r>
       <r>  -10.3908    1.0000 </r>
       <r>  -10.3635    1.0000 </r>
       <r>   -9.4696    1.0000 </r>
       <r>   -8.6577    1.0000 </r>
       <r>   -8.4077    1.0000 </r>
       <r>   -8.3100    1.0000 </r>
       <r>   -7.7517    1.0000 </r>
       <r>   -7.3559    1.0000 </r>
       <r>   -7.2458    1.0000 </r>
       <r>   -7.1844    1.0000 </r>
       <r>   -6.9807    1.0000 </r>
       <r>   -6.7241    1.0000 </r>
       <r>   -6.5802    1.0000 </r>
       <r>   -6.2246    1.0000 </r>
       <r>   -5.4739    1.0000 </r>
       <r>   -4.9831    1.0000 </r>
       <r>   -4.8228    1.0000 </r>
       <r>   -4.7293    1.0000 </r>
       <r>   -4.5323    1.0000 </r>
       <r>   -4.3388    1.0000 </r>
       <r>   -4.2762    1.0000 </r>
       <r>   -4.1785    1.0000 </r>
       <r>   -4.0107    1.0000 </r>
       <r>   -3.8866    1.0000 </r>
       <r>   -3.6444    1.0000 </r>
       <r>   -3.4776    1.0000 </r>
       <r>   -3.3239    1.0000 </r>
       <r>   -3.2516    1.0000 </r>
       <r>   -3.0887    1.0000 </r>
       <r>   -3.0280    1.0000 </r>
       <r>   -2.8665    1.0000 </r>
       <r>   -2.6334    1.0000 </r>
       <r>   -2.4557    1.0000 </r>
       <r>   -2.4128    1.0000 </r>
       <r>   -2.2235    1.0000 </r>
       <r>   -2.1511    1.0000 </r>
       <r>   -1.9994    1.0000 </r>
       <r>   -1.8586    1.0000 </r>
       <r>   -1.7412    1.0000 </r>
       <r>   -1.6486    1.0000 </r>
       <r>   -1.4710    1.0000 </r>
       <r>   -1.3118    1.0000 </r>
       <r>   -0.5310    1.0000 </r>
       <r>   -0.2973    1.0000 </r>
       <r>    0.1356    0.3128 </r>
       <r>    0.5582    0.0000 </r>
       <r>    0.8349    0.0000 </r>
       <r>    1.3416    0.0000 </r>
       <r>    1.4670    0.0000 </r>
       <r>    1.8505    0.0000 </r>
       <r>    1.9734    0.0000 </r>
       <r>    1.9979    0.0000 </r>
       <r>    2.1958    0.0000 </r>
       <r>    2.2714    0.0000 </r>
       <r>    2.3557    0.0000 </r>
       <r>    2.4312    0.0000 </r>
       <r>    2.5224    0.0000 </r>
       <r>    2.6895    0.0000 </r>
      </set>
      <set comment="kpoint 17">
       <r>  -14.3549    1.0000 </r>
       <r>  -12.5117    1.0000 </r>
       <r>  -12.1742    1.0000 </r>
       <r>  -11.8633    1.0000 </r>
       <r>  -11.8229    1.0000 </r>
       <r>  -11.5613    1.0000 </r>
       <r>  -11.2593    1.0000 </r>
       <r>  -11.1499    1.0000 </r>
       <r>  -10.9217    1.0000 </r>
       <r>  -10.6871    1.0000 </r>
       <r>  -10.3367    1.0000 </r>
       <r>  -10.1424    1.0000 </r>
       <r>   -9.3799    1.0000 </r>
       <r>   -8.4708    1.0000 </r>
       <r>   -8.1033    1.0000 </r>
       <r>   -8.0060    1.0000 </r>
       <r>   -7.2875    1.0000 </r>
       <r>   -6.9170    1.0000 </r>
       <r>   -6.8374    1.0000 </r>
       <r>   -6.7827    1.0000 </r>
       <r>   -6.5574    1.0000 </r>
       <r>   -6.0709    1.0000 </r>
       <r>   -6.0033    1.0000 </r>
       <r>   -5.8866    1.0000 </r>
       <r>   -5.5304    1.0000 </r>
       <r>   -5.0691    1.0000 </r>
       <r>   -4.9208    1.0000 </r>
       <r>   -4.7917    1.0000 </r>
       <r>   -4.6067    1.0000 </r>
       <r>   -4.5450    1.0000 </r>
       <r>   -4.2534    1.0000 </r>
       <r>   -4.1855    1.0000 </r>
       <r>   -4.1473    1.0000 </r>
       <r>   -3.7476    1.0000 </r>
       <r>   -3.3898    1.0000 </r>
       <r>   -3.3355    1.0000 </r>
       <r>   -3.2540    1.0000 </r>
       <r>   -3.0066    1.0000 </r>
       <r>   -2.9596    1.0000 </r>
       <r>   -2.8306    1.0000 </r>
       <r>   -2.7659    1.0000 </r>
       <r>   -2.6015    1.0000 </r>
       <r>   -2.4724    1.0000 </r>
       <r>   -2.3167    1.0000 </r>
       <r>   -2.1168    1.0000 </r>
       <r>   -1.9381    1.0000 </r>
       <r>   -1.7987    1.0000 </r>
       <r>   -1.7795    1.0000 </r>
       <r>   -1.6355    1.0000 </r>
       <r>   -1.5653    1.0000 </r>
       <r>   -1.2681    1.0000 </r>
       <r>   -1.1610    1.0000 </r>
       <r>   -0.4387    1.0000 </r>
       <r>   -0.2257    1.0000 </r>
       <r>    0.2483    0.0186 </r>
       <r>    0.7180    0.0000 </r>
       <r>    1.1658    0.0000 </r>
       <r>    1.4996    0.0000 </r>
       <r>    1.7342    0.0000 </r>
       <r>    1.9557    0.0000 </r>
       <r>    2.0742    0.0000 </r>
       <r>    2.2075    0.0000 </r>
       <r>    2.3235    0.0000 </r>
       <r>    2.4321    0.0000 </r>
       <r>    2.5304    0.0000 </r>
       <r>    2.6804    0.0000 </r>
       <r>    2.8029    0.0000 </r>
       <r>    2.8582    0.0000 </r>
      </set>
      <set comment="kpoint 18">
       <r>  -14.7067    1.0000 </r>
       <r>  -12.9069    1.0000 </r>
       <r>  -12.5487    1.0000 </r>
       <r>  -12.2673    1.0000 </r>
       <r>  -12.1272    1.0000 </r>
       <r>  -11.9134    1.0000 </r>
       <r>  -11.5918    1.0000 </r>
       <r>  -11.4448    1.0000 </r>
       <r>  -11.1612    1.0000 </r>
       <r>  -10.9434    1.0000 </r>
       <r>  -10.5151    1.0000 </r>
       <r>   -9.8849    1.0000 </r>
       <r>   -9.2996    1.0000 </r>
       <r>   -8.3151    1.0000 </r>
       <r>   -7.7297    1.0000 </r>
       <r>   -7.6983    1.0000 </r>
       <r>   -6.9719    1.0000 </r>
       <r>   -6.6668    1.0000 </r>
       <r>   -6.6045    1.0000 </r>
       <r>   -6.5498    1.0000 </r>
       <r>   -6.2007    1.0000 </r>
       <r>   -5.6548    1.0000 </r>
       <r>   -5.5340    1.0000 </r>
       <r>   -5.2688    1.0000 </r>
       <r>   -5.2476    1.0000 </r>
       <r>   -4.7706    1.0000 </r>
       <r>   -4.7225    1.0000 </r>
       <r>   -4.5147    1.0000 </r>
       <r>   -4.4356    1.0000 </r>
       <r>   -4.3647    1.0000 </r>
       <r>   -4.1130    1.0000 </r>
       <r>   -4.0228    1.0000 </r>
       <r>   -3.7828    1.0000 </r>
       <r>   -3.6764    1.0000 </r>
       <r>   -3.3855    1.0000 </r>
       <r>   -3.3485    1.0000 </r>
       <r>   -3.1863    1.0000 </r>
       <r>   -2.9152    1.0000 </r>
       <r>   -2.8847    1.0000 </r>
       <r>   -2.6835    1.0000 </r>
       <r>   -2.5406    1.0000 </r>
       <r>   -2.4932    1.0000 </r>
       <r>   -2.3558    1.0000 </r>
       <r>   -2.1549    1.0000 </r>
       <r>   -1.9552    1.0000 </r>
       <r>   -1.8122    1.0000 </r>
       <r>   -1.7335    1.0000 </r>
       <r>   -1.6860    1.0000 </r>
       <r>   -1.5607    1.0000 </r>
       <r>   -1.3706    1.0000 </r>
       <r>   -1.0300    1.0000 </r>
[...]
       <r>    2.8017    0.0000 </r>
      </set>
      <set comment="kpoint 54">
       <r>  -13.6581    1.0000 </r>
       <r>  -11.7224    1.0000 </r>
       <r>  -11.4058    1.0000 </r>
       <r>  -11.1985    1.0000 </r>
       <r>  -11.0848    1.0000 </r>
       <r>  -10.8826    1.0000 </r>
       <r>  -10.8660    1.0000 </r>
       <r>  -10.7869    1.0000 </r>
       <r>  -10.7622    1.0000 </r>
       <r>  -10.6393    1.0000 </r>
       <r>  -10.5345    1.0000 </r>
       <r>  -10.2552    1.0000 </r>
       <r>   -9.6360    1.0000 </r>
       <r>   -8.5805    1.0000 </r>
       <r>   -8.5205    1.0000 </r>
       <r>   -8.3560    1.0000 </r>
       <r>   -8.0350    1.0000 </r>
       <r>   -7.9746    1.0000 </r>
       <r>   -7.6655    1.0000 </r>
       <r>   -7.4759    1.0000 </r>
       <r>   -7.2499    1.0000 </r>
       <r>   -7.2016    1.0000 </r>
       <r>   -7.0838    1.0000 </r>
       <r>   -6.0852    1.0000 </r>
       <r>   -5.4601    1.0000 </r>
       <r>   -4.8660    1.0000 </r>
       <r>   -4.8352    1.0000 </r>
       <r>   -4.4610    1.0000 </r>
       <r>   -4.3948    1.0000 </r>
       <r>   -4.2630    1.0000 </r>
       <r>   -4.1438    1.0000 </r>
       <r>   -3.9953    1.0000 </r>
       <r>   -3.8823    1.0000 </r>
       <r>   -3.8454    1.0000 </r>
       <r>   -3.6897    1.0000 </r>
       <r>   -3.6153    1.0000 </r>
       <r>   -3.4665    1.0000 </r>
       <r>   -3.3295    1.0000 </r>
       <r>   -3.1747    1.0000 </r>
       <r>   -3.0241    1.0000 </r>
       <r>   -2.9398    1.0000 </r>
       <r>   -2.8699    1.0000 </r>
       <r>   -2.6103    1.0000 </r>
       <r>   -2.5991    1.0000 </r>
       <r>   -2.2959    1.0000 </r>
       <r>   -2.1851    1.0000 </r>
       <r>   -2.1103    1.0000 </r>
       <r>   -2.0125    1.0000 </r>
       <r>   -1.7872    1.0000 </r>
       <r>   -1.6352    1.0000 </r>
       <r>   -1.4443    1.0000 </r>
       <r>   -1.3659    1.0000 </r>
       <r>   -0.6742    1.0000 </r>
       <r>   -0.4470    1.0000 </r>
       <r>    0.1292    0.3453 </r>
       <r>    0.3645    0.0001 </r>
       <r>    0.5715    0.0000 </r>
       <r>    1.0546    0.0000 </r>
       <r>    1.4363    0.0000 </r>
       <r>    1.5864    0.0000 </r>
       <r>    1.6975    0.0000 </r>
       <r>    1.8275    0.0000 </r>
       <r>    1.9706    0.0000 </r>
       <r>    2.1222    0.0000 </r>
       <r>    2.2108    0.0000 </r>
       <r>    2.4005    0.0000 </r>
       <r>    2.4652    0.0000 </r>
       <r>    2.5857    0.0000 </r>
      </set>
     </set>
    </set>
   </array>
  </eigenvalues>
  <separator name="orbital magnetization" >
   <v name="MAGDIPOLOUT">      0.00000000      0.00000000      0.00000000</v>
  </separator>
  <dos>
   <i name="efermi">      0.10104510 </i>
   <total>
    <array>
     <dimension dim="1">gridpoints</dimension>
     <dimension dim="2">spin</dimension>
     <field>energy</field>
     <field>total</field>
     <field>integrated</field>
     <set>
      <set comment="spin 1">
       <r>   -16.1975     0.0000     0.0000 </r>
       <r>   -16.1294     0.0000     0.0000 </r>
       <r>   -16.0614     0.0000     0.0000 </r>
       <r>   -15.9934     0.0000     0.0000 </r>
       <r>   -15.9253     0.0000     0.0000 </r>
       <r>   -15.8573     0.0000     0.0000 </r>
       <r>   -15.7893     0.0000     0.0000 </r>
       <r>   -15.7212     0.0000     0.0000 </r>
       <r>   -15.6532     0.0000     0.0000 </r>
       <r>   -15.5852     0.0000     0.0000 </r>
       <r>   -15.5171     0.0000     0.0000 </r>
       <r>   -15.4491     0.0004     0.0000 </r>
       <r>   -15.3811     0.0110     0.0008 </r>
       <r>   -15.3130     0.1314     0.0097 </r>
       <r>   -15.2450     0.7186     0.0586 </r>
       <r>   -15.1770     1.8734     0.1861 </r>
       <r>   -15.1089     2.4323     0.3515 </r>
       <r>   -15.0409     1.9962     0.4873 </r>
       <r>   -14.9729     1.8665     0.6143 </r>
       <r>   -14.9048     1.5429     0.7193 </r>
       <r>   -14.8368     0.7599     0.7710 </r>
       <r>   -14.7688     0.8098     0.8261 </r>
       <r>   -14.7007     1.5547     0.9319 </r>
       <r>   -14.6327     1.4512     1.0306 </r>
       <r>   -14.5647     0.5836     1.0703 </r>
       <r>   -14.4966     0.1888     1.0831 </r>
       <r>   -14.4286     0.5657     1.1216 </r>
       <r>   -14.3606     1.4338     1.2192 </r>
       <r>   -14.2925     1.5596     1.3253 </r>
       <r>   -14.2245     0.7204     1.3743 </r>
       <r>   -14.1565     0.1544     1.3848 </r>
       <r>   -14.0884     0.1732     1.3966 </r>
       <r>   -14.0204     0.7816     1.4498 </r>
       <r>   -13.9524     1.5942     1.5582 </r>
       <r>   -13.8843     1.3835     1.6523 </r>
       <r>   -13.8163     0.5608     1.6905 </r>
       <r>   -13.7483     0.4784     1.7230 </r>
       <r>   -13.6802     1.2534     1.8083 </r>
       <r>   -13.6122     1.6602     1.9213 </r>
       <r>   -13.5442     1.0258     1.9911 </r>
       <r>   -13.4761     0.7108     2.0394 </r>
       <r>   -13.4081     1.3077     2.1284 </r>
       <r>   -13.3401     1.9346     2.2600 </r>
       <r>   -13.2720     2.0242     2.3977 </r>
       <r>   -13.2040     2.1023     2.5407 </r>
       <r>   -13.1360     2.6255     2.7194 </r>
       <r>   -13.0679     3.3877     2.9498 </r>
       <r>   -12.9999     3.6740     3.1998 </r>
       <r>   -12.9319     3.8148     3.4593 </r>
       <r>   -12.8638     4.4476     3.7619 </r>
       <r>   -12.7958     4.4823     4.0669 </r>
       <r>   -12.7278     3.4470     4.3014 </r>
       <r>   -12.6597     2.8670     4.4964 </r>
       <r>   -12.5917     3.7087     4.7487 </r>
       <r>   -12.5237     5.1434     5.0987 </r>
       <r>   -12.4556     5.9667     5.5046 </r>
       <r>   -12.3876     6.0957     5.9193 </r>
       <r>   -12.3196     5.9404     6.3234 </r>
       <r>   -12.2515     5.8183     6.7193 </r>
       <r>   -12.1835     6.2843     7.1468 </r>
       <r>   -12.1155     6.4673     7.5868 </r>
       <r>   -12.0474     6.0176     7.9962 </r>
       <r>   -11.9794     6.3931     8.4312 </r>
       <r>   -11.9114     7.6493     8.9516 </r>
       <r>   -11.8433     8.1288     9.5046 </r>
       <r>   -11.7753     7.4974    10.0147 </r>
       <r>   -11.7073     7.0538    10.4946 </r>
       <r>   -11.6392     7.2307    10.9865 </r>
       <r>   -11.5712     8.1271    11.5394 </r>
       <r>   -11.5032     9.1378    12.1611 </r>
       <r>   -11.4351     9.6693    12.8189 </r>
       <r>   -11.3671     9.7642    13.4832 </r>
       <r>   -11.2991     8.2779    14.0464 </r>
       <r>   -11.2310     7.7004    14.5703 </r>
       <r>   -11.1630     9.3774    15.2082 </r>
       <r>   -11.0950     8.9647    15.8181 </r>
       <r>   -11.0269     7.0291    16.2964 </r>
       <r>   -10.9589     7.7971    16.8268 </r>
       <r>   -10.8909    10.3426    17.5305 </r>
       <r>   -10.8228    11.2035    18.2927 </r>
       <r>   -10.7548    10.9958    19.0408 </r>
       <r>   -10.6868    10.4839    19.7540 </r>
       <r>   -10.6187     8.3896    20.3248 </r>
       <r>   -10.5507     6.7293    20.7826 </r>
       <r>   -10.4827     6.2225    21.2059 </r>
       <r>   -10.4146     5.6219    21.5884 </r>
       <r>   -10.3466     5.4825    21.9614 </r>
       <r>   -10.2786     5.0261    22.3034 </r>
       <r>   -10.2105     3.9085    22.5693 </r>
       <r>   -10.1425     2.8532    22.7634 </r>
       <r>   -10.0745     1.7351    22.8814 </r>
       <r>   -10.0064     1.0244    22.9511 </r>
       <r>    -9.9384     2.1105    23.0947 </r>
       <r>    -9.8704     4.4852    23.3998 </r>
       <r>    -9.8023     5.0517    23.7435 </r>
       <r>    -9.7343     3.1976    23.9611 </r>
       <r>    -9.6663     1.9998    24.0971 </r>
       <r>    -9.5982     1.9729    24.2313 </r>
       <r>    -9.5302     2.0503    24.3708 </r>
       <r>    -9.4622     3.0180    24.5762 </r>
       <r>    -9.3941     4.2519    24.8654 </r>
       <r>    -9.3261     4.5952    25.1781 </r>
       <r>    -9.2581     4.4955    25.4839 </r>
       <r>    -9.1900     3.9654    25.7537 </r>
       <r>    -9.1220     2.5062    25.9242 </r>
       <r>    -9.0540     0.9405    25.9882 </r>
       <r>    -8.9859     0.3485    26.0119 </r>
       <r>    -8.9179     0.7687    26.0642 </r>
       <r>    -8.8499     1.5949    26.1727 </r>
       <r>    -8.7818     2.0589    26.3128 </r>
       <r>    -8.7138     2.6983    26.4963 </r>
       <r>    -8.6458     3.9548    26.7654 </r>
       <r>    -8.5777     4.8557    27.0957 </r>
       <r>    -8.5097     4.8989    27.4290 </r>
       <r>    -8.4417     4.4611    27.7325 </r>
       <r>    -8.3736     4.8596    28.0632 </r>
       <r>    -8.3056     5.9000    28.4646 </r>
       <r>    -8.2376     4.9755    28.8030 </r>
       <r>    -8.1695     2.8048    28.9939 </r>
       <r>    -8.1015     2.3078    29.1509 </r>
       <r>    -8.0335     3.7970    29.4092 </r>
       <r>    -7.9654     5.3560    29.7736 </r>
       <r>    -7.8974     4.8135    30.1011 </r>
       <r>    -7.8294     3.8642    30.3640 </r>
       <r>    -7.7613     5.1326    30.7131 </r>
       <r>    -7.6933     7.8760    31.2490 </r>
       <r>    -7.6253     9.0605    31.8654 </r>
       <r>    -7.5572     7.3845    32.3678 </r>
       <r>    -7.4892     5.5684    32.7466 </r>
       <r>    -7.4212     5.0970    33.0934 </r>
       <r>    -7.3531     5.8729    33.4929 </r>
       <r>    -7.2851     7.8682    34.0282 </r>
       <r>    -7.2171     9.3446    34.6640 </r>
       <r>    -7.1490     8.6261    35.2508 </r>
       <r>    -7.0810     6.4572    35.6902 </r>
       <r>    -7.0130     5.8686    36.0894 </r>
       <r>    -6.9449     7.9162    36.6280 </r>
       <r>    -6.8769     8.9808    37.2390 </r>
       <r>    -6.8089     7.1219    37.7235 </r>
       <r>    -6.7408     5.9243    38.1265 </r>
       <r>    -6.6728     7.4731    38.6350 </r>
       <r>    -6.6048    10.4305    39.3446 </r>
       <r>    -6.5367    11.2576    40.1105 </r>
       <r>    -6.4687     8.6044    40.6959 </r>
       <r>    -6.4007     6.0883    41.1101 </r>
       <r>    -6.3326     5.1199    41.4584 </r>
       <r>    -6.2646     5.4243    41.8274 </r>
       <r>    -6.1966     6.1354    42.2448 </r>
       <r>    -6.1285     6.5790    42.6924 </r>
       <r>    -6.0605     7.1655    43.1799 </r>
       <r>    -5.9925     5.9783    43.5866 </r>
       <r>    -5.9244     3.8777    43.8505 </r>
       <r>    -5.8564     3.3598    44.0790 </r>
       <r>    -5.7884     3.5740    44.3222 </r>
       <r>    -5.7203     4.4290    44.6235 </r>
       <r>    -5.6523     6.1748    45.0436 </r>
       <r>    -5.5843     7.4551    45.5508 </r>
       <r>    -5.5162     7.6235    46.0694 </r>
       <r>    -5.4482     6.8747    46.5372 </r>
       <r>    -5.3802     5.7934    46.9313 </r>
       <r>    -5.3121     5.9607    47.3368 </r>
       <r>    -5.2441     6.5541    47.7827 </r>
       <r>    -5.1761     5.7151    48.1715 </r>
       <r>    -5.1080     4.6973    48.4911 </r>
       <r>    -5.0400     4.7727    48.8158 </r>
       <r>    -4.9720     6.3481    49.2477 </r>
       <r>    -4.9039     9.0201    49.8614 </r>
       <r>    -4.8359    11.2375    50.6259 </r>
       <r>    -4.7679    11.4665    51.4060 </r>
       <r>    -4.6998    10.0036    52.0866 </r>
       <r>    -4.6318     8.9897    52.6982 </r>
       <r>    -4.5638     9.5373    53.3470 </r>
       <r>    -4.4957    10.3449    54.0508 </r>
       <r>    -4.4277    10.4786    54.7637 </r>
       <r>    -4.3597    10.5017    55.4782 </r>
       <r>    -4.2916    10.8789    56.2183 </r>
       <r>    -4.2236    12.0043    57.0350 </r>
       <r>    -4.1556    12.8005    57.9059 </r>
       <r>    -4.0875    12.6004    58.7631 </r>
       <r>    -4.0195    13.1232    59.6559 </r>
       <r>    -3.9515    14.4816    60.6412 </r>
       <r>    -3.8834    14.4598    61.6249 </r>
       <r>    -3.8154    12.4532    62.4721 </r>
       <r>    -3.7474    10.7006    63.2001 </r>
       <r>    -3.6793    10.8051    63.9352 </r>
       <r>    -3.6113    11.5282    64.7195 </r>
       <r>    -3.5433    11.0969    65.4745 </r>
       <r>    -3.4752    10.5862    66.1947 </r>
       <r>    -3.4072    11.7852    66.9965 </r>
       <r>    -3.3392    14.1092    67.9564 </r>
       <r>    -3.2711    15.3376    68.9999 </r>
       <r>    -3.2031    14.8836    70.0124 </r>
       <r>    -3.1351    14.6482    71.0090 </r>
       <r>    -3.0670    16.1295    72.1064 </r>
       <r>    -2.9990    17.8626    73.3216 </r>
       <r>    -2.9310    18.4362    74.5759 </r>
       <r>    -2.8629    18.0546    75.8042 </r>
       <r>    -2.7949    16.3618    76.9173 </r>
       <r>    -2.7269    14.8174    77.9254 </r>
       <r>    -2.6588    15.5266    78.9817 </r>
       <r>    -2.5908    17.2824    80.1575 </r>
       <r>    -2.5228    17.3414    81.3373 </r>
       <r>    -2.4547    16.2626    82.4437 </r>
       <r>    -2.3867    15.1692    83.4757 </r>
       <r>    -2.3187    14.4851    84.4612 </r>
       <r>    -2.2506    14.4060    85.4413 </r>
       <r>    -2.1826    14.7753    86.4465 </r>
       <r>    -2.1146    15.8583    87.5254 </r>
       <r>    -2.0465    16.8703    88.6731 </r>
       <r>    -1.9785    16.5192    89.7970 </r>
       <r>    -1.9105    15.8701    90.8767 </r>
       <r>    -1.8424    16.8944    92.0261 </r>
       <r>    -1.7744    18.4764    93.2831 </r>
       <r>    -1.7064    18.0341    94.5100 </r>
       <r>    -1.6383    16.0926    95.6048 </r>
       <r>    -1.5703    13.6522    96.5336 </r>
       <r>    -1.5023    11.8325    97.3386 </r>
       <r>    -1.4342    12.4930    98.1886 </r>
       <r>    -1.3662    13.5235    99.1086 </r>
       <r>    -1.2982    12.0158    99.9261 </r>
       <r>    -1.2301     8.4938   100.5040 </r>
       <r>    -1.1621     6.0382   100.9147 </r>
       <r>    -1.0941     6.0946   101.3294 </r>
       <r>    -1.0260     7.1842   101.8181 </r>
       <r>    -0.9580     7.5048   102.3287 </r>
       <r>    -0.8900     7.5221   102.8405 </r>
       <r>    -0.8219     7.5721   103.3556 </r>
       <r>    -0.7539     6.4284   103.7930 </r>
       <r>    -0.6859     4.9336   104.1286 </r>
       <r>    -0.6178     4.6243   104.4432 </r>
       <r>    -0.5498     5.5697   104.8222 </r>
       <r>    -0.4818     5.9607   105.2277 </r>
       <r>    -0.4137     5.1833   105.5803 </r>
       <r>    -0.3457     4.7792   105.9055 </r>
       <r>    -0.2777     5.0353   106.2480 </r>
       <r>    -0.2096     4.7008   106.5679 </r>
       <r>    -0.1416     3.9827   106.8388 </r>
       <r>    -0.0736     3.9552   107.1079 </r>
       <r>    -0.0055     4.3991   107.4072 </r>
       <r>     0.0625     5.2967   107.7675 </r>
       <r>     0.1305     6.0511   108.1792 </r>
       <r>     0.1986     5.3908   108.5460 </r>
       <r>     0.2666     4.5757   108.8573 </r>
       <r>     0.3346     5.0040   109.1977 </r>
       <r>     0.4027     5.3686   109.5629 </r>
       <r>     0.4707     4.5209   109.8705 </r>
       <r>     0.5387     3.5543   110.1123 </r>
       <r>     0.6068     3.2982   110.3367 </r>
       <r>     0.6748     3.3456   110.5643 </r>
       <r>     0.7428     3.7099   110.8167 </r>
       <r>     0.8109     4.2958   111.1090 </r>
       <r>     0.8789     4.6971   111.4285 </r>
       <r>     0.9469     4.8060   111.7555 </r>
       <r>     1.0150     5.5452   112.1328 </r>
       <r>     1.0830     6.5725   112.5799 </r>
       <r>     1.1510     6.5057   113.0225 </r>
       <r>     1.2191     5.8659   113.4216 </r>
       <r>     1.2871     7.0323   113.9000 </r>
       <r>     1.3551     9.9148   114.5745 </r>
       <r>     1.4232    11.3235   115.3449 </r>
       <r>     1.4912     9.7657   116.0093 </r>
       <r>     1.5592     7.8079   116.5405 </r>
       <r>     1.6273     8.5762   117.1240 </r>
       <r>     1.6953    10.8254   117.8605 </r>
       <r>     1.7633    11.9570   118.6740 </r>
       <r>     1.8314    12.1456   119.5003 </r>
       <r>     1.8994    12.8815   120.3766 </r>
       <r>     1.9674    13.3253   121.2832 </r>
       <r>     2.0355    11.7182   122.0804 </r>
       <r>     2.1035    10.1559   122.7714 </r>
       <r>     2.1715    11.1444   123.5296 </r>
       <r>     2.2396    13.8627   124.4727 </r>
       <r>     2.3076    16.5820   125.6008 </r>
       <r>     2.3756    17.1310   126.7663 </r>
       <r>     2.4437    15.8540   127.8449 </r>
       <r>     2.5117    15.2446   128.8820 </r>
       <r>     2.5797    14.5211   129.8700 </r>
       <r>     2.6478    12.9672   130.7522 </r>
       <r>     2.7158    12.6947   131.6158 </r>
       <r>     2.7838    13.5709   132.5391 </r>
       <r>     2.8519    13.0877   133.4295 </r>
       <r>     2.9199    10.8616   134.1684 </r>
       <r>     2.9879     8.9887   134.7800 </r>
       <r>     3.0560     7.4211   135.2849 </r>
       <r>     3.1240     5.2925   135.6449 </r>
       <r>     3.1920     3.1931   135.8622 </r>
       <r>     3.2601     1.5006   135.9643 </r>
       <r>     3.3281     0.4477   135.9947 </r>
       <r>     3.3961     0.0719   135.9996 </r>
       <r>     3.4642     0.0056   136.0000 </r>
       <r>     3.5322     0.0002   136.0000 </r>
       <r>     3.6002     0.0000   136.0000 </r>
       <r>     3.6683     0.0000   136.0000 </r>
       <r>     3.7363     0.0000   136.0000 </r>
       <r>     3.8043     0.0000   136.0000 </r>
       <r>     3.8724     0.0000   136.0000 </r>
       <r>     3.9404     0.0000   136.0000 </r>
       <r>     4.0084     0.0000   136.0000 </r>
       <r>     4.0765     0.0000   136.0000 </r>
       <r>     4.1445     0.0000   136.0000 </r>
       <r>     4.2125     0.0000   136.0000 </r>
      </set>
     </set>
    </array>
   </total>
  </dos>
 </calculation>
 <structure name="finalpos" >
  <crystal>
   <varray name="basis" >
    <v>       3.54040000       0.00000000       0.00000000 </v>
    <v>      -1.77020000      10.29434800       0.00000000 </v>
    <v>       0.00000000       0.00000000      27.50142900 </v>
   </varray>
   <i name="volume">   1002.32009712 </i>
   <varray name="rec_basis" >
    <v>       0.28245396       0.04857034       0.00000000 </v>
    <v>       0.00000000       0.09714068       0.00000000 </v>
    <v>       0.00000000       0.00000000       0.03636175 </v>
   </varray>
  </crystal>
  <varray name="positions" >
   <v>       0.11402300       0.22804500       0.23316207 </v>
   <v>       0.61402300       0.52804500       0.51499159 </v>
   <v>       0.45808900       0.91617900       0.20939482 </v>
   <v>       0.95808900       0.21617900       0.49122434 </v>
   <v>       0.31085400       0.62170900       0.08414979 </v>
   <v>       0.31085400       0.62170900       0.36597930 </v>
   <v>       0.99923000       0.99846000       0.08631254 </v>
   <v>       0.99923000       0.99846000       0.36814206 </v>
   <v>       0.65492700       0.30985400       0.06041748 </v>
   <v>       0.65492700       0.30985400       0.34224700 </v>
   <v>       0.76973800       0.53947500       0.20725292 </v>
   <v>       0.26973800       0.83947500       0.48908244 </v>
   <v>       0.93971600       0.87943300       0.15783749 </v>
   <v>       0.43971600       0.17943300       0.43966701 </v>
   <v>       0.20515200       0.41030300       0.18578822 </v>
   <v>       0.70515200       0.71030300       0.46761774 </v>
   <v>       0.20184900       0.40369900       0.09969156 </v>
   <v>       0.20184900       0.40369900       0.38152107 </v>
   <v>       0.56380500       0.12761000       0.10779021 </v>
   <v>       0.56380500       0.12761000       0.38961973 </v>
   <v>       0.56710600       0.13421200       0.19387616 </v>
   <v>       0.06710600       0.43421200       0.47570568 </v>
   <v>       0.82923400       0.65846800       0.13571444 </v>
   <v>       0.32923400       0.95846800       0.41754396 </v>
  </varray>
 </structure>
</modeling>
