<?xml version="1.0" encoding="ISO-8859-1"?>
<modeling>
 <generator>
  <i name="program" type="string">vasp </i>
  <i name="version" type="string">5.4.1  </i>
  <i name="subversion" type="string">24Jun15 (build May 10 2016 14:40:36) complex                          parallel </i>
  <i name="platform" type="string">IFC91_ompi </i>
  <i name="date" type="string">2017 02 28 </i>
  <i name="time" type="string">15:59:28 </i>
 </generator>
 <incar>
  <i type="string" name="PREC">accurate</i>
  <i type="string" name="ALGO"> Fast</i>
  <i type="int" name="ISPIN">     2</i>
  <i type="int" name="IBRION">     2</i>
  <i name="EDIFF">      0.00010000</i>
  <i type="int" name="NSW">    50</i>
  <i type="int" name="ISIF">     3</i>
  <i name="ENCUT">    500.00000000</i>
  <v name="MAGMOM">      0.50000000      0.50000000      0.50000000      0.50000000      0.50000000      0.50000000      0.50000000      0.50000000</v>
  <i type="string" name="LREAL"> Auto</i>
  <i type="int" name="ISMEAR">     1</i>
  <i name="SIGMA">      0.10000000</i>
  <i type="logical" name="LCHARG"> T  </i>
  <i type="logical" name="LVTOT"> T  </i>
  <i type="logical" name="LVHAR"> T  </i>
  <i type="logical" name="LAECHG"> T  </i>
  <v type="int" name="KPOINT_BSE">    -1     0     0     0</v>
  <i type="string" name="GGA"> Bo</i>
  <i name="PARAM1">      0.18333333</i>
  <i name="PARAM2">      0.22000000</i>
  <i type="logical" name="LUSE_VDW"> T  </i>
  <i name="AGGAC">      0.00000000</i>
 </incar>
 <kpoints>
  <generation param="Monkhorst-Pack">
   <v type="int" name="divisions">       6        6        6 </v>
   <v name="usershift">      0.00000000       0.00000000       0.00000000 </v>
   <v name="genvec1">      0.16666667      -0.00000000       0.00000000 </v>
   <v name="genvec2">      0.00000000       0.16666667       0.00000000 </v>
   <v name="genvec3">     -0.00000000       0.00000000       0.16666667 </v>
   <v name="shift">      0.50000000       0.50000000       0.50000000 </v>
  </generation>
  <varray name="kpointlist" >
   <v>       0.08333333       0.08333333       0.08333333 </v>
   <v>       0.25000000       0.08333333       0.08333333 </v>
   <v>       0.41666667       0.08333333       0.08333333 </v>
   <v>      -0.41666667       0.08333333       0.08333333 </v>
   <v>      -0.25000000       0.08333333       0.08333333 </v>
   <v>      -0.08333333       0.08333333       0.08333333 </v>
   <v>       0.08333333       0.25000000       0.08333333 </v>
   <v>       0.25000000       0.25000000       0.08333333 </v>
   <v>       0.41666667       0.25000000       0.08333333 </v>
   <v>      -0.41666667       0.25000000       0.08333333 </v>
   <v>      -0.25000000       0.25000000       0.08333333 </v>
   <v>      -0.08333333       0.25000000       0.08333333 </v>
   <v>       0.08333333       0.41666667       0.08333333 </v>
   <v>       0.25000000       0.41666667       0.08333333 </v>
   <v>       0.41666667       0.41666667       0.08333333 </v>
   <v>      -0.41666667       0.41666667       0.08333333 </v>
   <v>      -0.25000000       0.41666667       0.08333333 </v>
   <v>      -0.08333333       0.41666667       0.08333333 </v>
   <v>       0.08333333      -0.41666667       0.08333333 </v>
   <v>       0.25000000      -0.41666667       0.08333333 </v>
   <v>       0.41666667      -0.41666667       0.08333333 </v>
   <v>      -0.41666667      -0.41666667       0.08333333 </v>
   <v>      -0.25000000      -0.41666667       0.08333333 </v>
   <v>      -0.08333333      -0.41666667       0.08333333 </v>
   <v>       0.08333333      -0.25000000       0.08333333 </v>
   <v>       0.25000000      -0.25000000       0.08333333 </v>
   <v>       0.41666667      -0.25000000       0.08333333 </v>
   <v>      -0.41666667      -0.25000000       0.08333333 </v>
   <v>      -0.25000000      -0.25000000       0.08333333 </v>
   <v>      -0.08333333      -0.25000000       0.08333333 </v>
   <v>       0.08333333      -0.08333333       0.08333333 </v>
   <v>       0.25000000      -0.08333333       0.08333333 </v>
   <v>       0.41666667      -0.08333333       0.08333333 </v>
   <v>       0.08333333       0.25000000       0.25000000 </v>
   <v>       0.25000000       0.25000000       0.25000000 </v>
   <v>       0.41666667       0.25000000       0.25000000 </v>
   <v>      -0.41666667       0.25000000       0.25000000 </v>
   <v>      -0.25000000       0.25000000       0.25000000 </v>
   <v>      -0.08333333       0.25000000       0.25000000 </v>
   <v>       0.08333333       0.41666667       0.25000000 </v>
   <v>       0.25000000       0.41666667       0.25000000 </v>
   <v>       0.41666667       0.41666667       0.25000000 </v>
   <v>      -0.41666667       0.41666667       0.25000000 </v>
   <v>      -0.25000000       0.41666667       0.25000000 </v>
   <v>      -0.08333333       0.41666667       0.25000000 </v>
   <v>       0.08333333      -0.41666667       0.25000000 </v>
   <v>       0.25000000      -0.41666667       0.25000000 </v>
   <v>       0.41666667      -0.41666667       0.25000000 </v>
   <v>      -0.41666667      -0.41666667       0.25000000 </v>
   <v>      -0.25000000      -0.41666667       0.25000000 </v>
   <v>      -0.08333333      -0.41666667       0.25000000 </v>
   <v>       0.08333333      -0.25000000       0.25000000 </v>
   <v>       0.25000000      -0.25000000       0.25000000 </v>
   <v>       0.41666667      -0.25000000       0.25000000 </v>
   <v>       0.08333333       0.41666667       0.41666667 </v>
   <v>       0.25000000       0.41666667       0.41666667 </v>
   <v>       0.41666667       0.41666667       0.41666667 </v>
   <v>      -0.41666667       0.41666667       0.41666667 </v>
   <v>      -0.25000000       0.41666667       0.41666667 </v>
   <v>      -0.08333333       0.41666667       0.41666667 </v>
   <v>       0.08333333      -0.41666667       0.41666667 </v>
   <v>       0.25000000      -0.41666667       0.41666667 </v>
   <v>       0.41666667      -0.41666667       0.41666667 </v>
  </varray>
  <varray name="weights" >
   <v>       0.00925926 </v>
   <v>       0.00925926 </v>
   <v>       0.00925926 </v>
   <v>       0.00925926 </v>
   <v>       0.00925926 </v>
   <v>       0.00925926 </v>
   <v>       0.01851852 </v>
   <v>       0.01851852 </v>
   <v>       0.01851852 </v>
   <v>       0.01851852 </v>
   <v>       0.01851852 </v>
   <v>       0.01851852 </v>
   <v>       0.01851852 </v>
   <v>       0.01851852 </v>
   <v>       0.01851852 </v>
   <v>       0.01851852 </v>
   <v>       0.01851852 </v>
   <v>       0.01851852 </v>
   <v>       0.01851852 </v>
   <v>       0.01851852 </v>
   <v>       0.01851852 </v>
   <v>       0.01851852 </v>
   <v>       0.01851852 </v>
   <v>       0.01851852 </v>
   <v>       0.01851852 </v>
   <v>       0.01851852 </v>
   <v>       0.01851852 </v>
   <v>       0.01851852 </v>
   <v>       0.01851852 </v>
   <v>       0.01851852 </v>
   <v>       0.01851852 </v>
   <v>       0.01851852 </v>
   <v>       0.01851852 </v>
   <v>       0.00925926 </v>
   <v>       0.00925926 </v>
   <v>       0.00925926 </v>
   <v>       0.00925926 </v>
   <v>       0.00925926 </v>
   <v>       0.00925926 </v>
   <v>       0.01851852 </v>
   <v>       0.01851852 </v>
   <v>       0.01851852 </v>
   <v>       0.01851852 </v>
   <v>       0.01851852 </v>
   <v>       0.01851852 </v>
   <v>       0.01851852 </v>
   <v>       0.01851852 </v>
   <v>       0.01851852 </v>
   <v>       0.01851852 </v>
   <v>       0.01851852 </v>
   <v>       0.01851852 </v>
   <v>       0.01851852 </v>
   <v>       0.01851852 </v>
   <v>       0.01851852 </v>
   <v>       0.00925926 </v>
   <v>       0.00925926 </v>
   <v>       0.00925926 </v>
   <v>       0.00925926 </v>
   <v>       0.00925926 </v>
   <v>       0.00925926 </v>
   <v>       0.01851852 </v>
   <v>       0.01851852 </v>
   <v>       0.01851852 </v>
  </varray>
 </kpoints>
 <parameters>
  <separator name="general" >
   <i type="string" name="SYSTEM">unknown system</i>
   <i type="logical" name="LCOMPAT"> F  </i>
  </separator>
  <separator name="electronic" >
   <i type="string" name="PREC">accura</i>
   <i name="ENMAX">    500.00000000</i>
   <i name="ENAUG">    605.39200000</i>
   <i name="EDIFF">      0.00010000</i>
   <i type="int" name="IALGO">    68</i>
   <i type="int" name="IWAVPR">    11</i>
   <i type="int" name="NBANDS">    32</i>
   <i name="NELECT">     48.00000000</i>
   <i type="int" name="TURBO">     0</i>
   <i type="int" name="IRESTART">     0</i>
   <i type="int" name="NREBOOT">     0</i>
   <i type="int" name="NMIN">     0</i>
   <i name="EREF">      0.00000000</i>
   <separator name="electronic smearing" >
    <i type="int" name="ISMEAR">     1</i>
    <i name="SIGMA">      0.10000000</i>
    <i name="KSPACING">      0.50000000</i>
    <i type="logical" name="KGAMMA"> T  </i>
   </separator>
   <separator name="electronic projectors" >
    <i type="logical" name="LREAL"> T  </i>
    <v name="ROPT">     -0.00025000</v>
    <i type="int" name="LMAXPAW">  -100</i>
    <i type="int" name="LMAXMIX">     2</i>
    <i type="logical" name="NLSPLINE"> F  </i>
   </separator>
   <separator name="electronic startup" >
    <i type="int" name="ISTART">     1</i>
    <i type="int" name="ICHARG">     0</i>
    <i type="int" name="INIWAV">     1</i>
   </separator>
   <separator name="electronic spin" >
    <i type="int" name="ISPIN">     2</i>
    <i type="logical" name="LNONCOLLINEAR"> F  </i>
    <v name="MAGMOM">      0.50000000      0.50000000      0.50000000      0.50000000      0.50000000      0.50000000      0.50000000      0.50000000</v>
    <i name="NUPDOWN">     -1.00000000</i>
    <i type="logical" name="LSORBIT"> F  </i>
    <v name="SAXIS">      0.00000000      0.00000000      1.00000000</v>
    <i type="logical" name="LSPIRAL"> F  </i>
    <v name="QSPIRAL">      0.00000000      0.00000000      0.00000000</v>
    <i type="logical" name="LZEROZ"> F  </i>
   </separator>
   <separator name="electronic exchange-correlation" >
    <i type="logical" name="LASPH"> F  </i>
    <i type="logical" name="LMETAGGA"> F  </i>
   </separator>
   <separator name="electronic convergence" >
    <i type="int" name="NELM">    60</i>
    <i type="int" name="NELMDL">     0</i>
    <i type="int" name="NELMIN">     2</i>
    <i name="ENINI">    500.00000000</i>
    <separator name="electronic convergence detail" >
     <i type="logical" name="LDIAG"> T  </i>
     <i type="logical" name="LSUBROT"> F  </i>
     <i name="WEIMIN">      0.00100000</i>
     <i name="EBREAK">      0.00000078</i>
     <i name="DEPER">      0.30000000</i>
     <i type="int" name="NRMM">     4</i>
     <i name="TIME">      0.40000000</i>
    </separator>
   </separator>
   <separator name="electronic mixer" >
    <i name="AMIX">      0.40000000</i>
    <i name="BMIX">      1.00000000</i>
    <i name="AMIN">      0.10000000</i>
    <i name="AMIX_MAG">      1.60000000</i>
    <i name="BMIX_MAG">      1.00000000</i>
    <separator name="electronic mixer details" >
     <i type="int" name="IMIX">     4</i>
     <i type="logical" name="MIXFIRST"> F  </i>
     <i type="int" name="MAXMIX">   -45</i>
     <i name="WC">    100.00000000</i>
     <i type="int" name="INIMIX">     1</i>
     <i type="int" name="MIXPRE">     1</i>
     <i type="int" name="MREMOVE">     5</i>
    </separator>
   </separator>
   <separator name="electronic dipolcorrection" >
    <i type="logical" name="LDIPOL"> F  </i>
    <i type="logical" name="LMONO"> F  </i>
    <i type="int" name="IDIPOL">     0</i>
    <i name="EPSILON">      1.00000000</i>
    <v name="DIPOL">   -100.00000000   -100.00000000   -100.00000000</v>
    <i name="EFIELD">      0.00000000</i>
   </separator>
  </separator>
  <separator name="grids" >
   <i type="int" name="NGX">    32</i>
   <i type="int" name="NGY">    40</i>
   <i type="int" name="NGZ">    40</i>
   <i type="int" name="NGXF">    64</i>
   <i type="int" name="NGYF">    80</i>
   <i type="int" name="NGZF">    80</i>
   <i type="logical" name="ADDGRID"> F  </i>
  </separator>
  <separator name="ionic" >
   <i type="int" name="NSW">    50</i>
   <i type="int" name="IBRION">     2</i>
   <i type="int" name="ISIF">     3</i>
   <i name="PSTRESS">      0.00000000</i>
   <i name="EDIFFG">      0.00100000</i>
   <i type="int" name="NFREE">     1</i>
   <i name="POTIM">      0.50000000</i>
   <i name="SMASS">     -3.00000000</i>
   <i name="SCALEE">      1.00000000</i>
  </separator>
  <separator name="ionic md" >
   <i name="TEBEG">      0.00010000</i>
   <i name="TEEND">      0.00010000</i>
   <i type="int" name="NBLOCK">     1</i>
   <i type="int" name="KBLOCK">    50</i>
   <i type="int" name="NPACO">   256</i>
   <i name="APACO">     16.00000000</i>
  </separator>
  <separator name="symmetry" >
   <i type="int" name="ISYM">     2</i>
   <i name="SYMPREC">      0.00001000</i>
  </separator>
  <separator name="dos" >
   <i type="logical" name="LORBIT"> F  </i>
   <v name="RWIGS">     -1.00000000</v>
   <i type="int" name="NEDOS">   301</i>
   <i name="EMIN">     10.00000000</i>
   <i name="EMAX">    -10.00000000</i>
   <i name="EFERMI">      0.00000000</i>
  </separator>
  <separator name="writing" >
   <i type="int" name="NWRITE">     2</i>
   <i type="logical" name="LWAVE"> T  </i>
   <i type="logical" name="LCHARG"> T  </i>
   <i type="logical" name="LPARD"> F  </i>
   <i type="logical" name="LVTOT"> F  </i>
   <i type="logical" name="LVHAR"> T  </i>
   <i type="logical" name="LELF"> F  </i>
   <i type="logical" name="LOPTICS"> F  </i>
   <v name="STM">      0.00000000      0.00000000      0.00000000      0.00000000      0.00000000      0.00000000      0.00000000</v>
  </separator>
  <separator name="performance" >
   <i type="int" name="NPAR">     4</i>
   <i type="int" name="NSIM">     4</i>
   <i type="int" name="NBLK">    -1</i>
   <i type="logical" name="LPLANE"> T  </i>
   <i type="logical" name="LSCALAPACK"> T  </i>
   <i type="logical" name="LSCAAWARE"> F  </i>
   <i type="logical" name="LSCALU"> F  </i>
   <i type="logical" name="LASYNC"> F  </i>
   <i type="logical" name="LORBITALREAL"> F  </i>
  </separator>
  <separator name="miscellaneous" >
   <i type="int" name="IDIOT">     3</i>
   <i type="logical" name="LMUSIC"> F  </i>
   <v name="POMASS">     16.00000000</v>
   <v name="DARWINR">      0.00000000</v>
   <v name="DARWINV">      1.00000000</v>
   <i type="logical" name="LCORR"> T  </i>
  </separator>
  <i type="logical" name="GGA_COMPAT"> T  </i>
  <i type="logical" name="LBERRY"> F  </i>
  <i type="int" name="ICORELEVEL">     0</i>
  <i type="logical" name="LDAU"> F  </i>
  <i type="int" name="I_CONSTRAINED_M">     0</i>
  <separator name="electronic exchange-correlation" >
   <i type="string" name="GGA">BO</i>
   <i type="int" name="VOSKOWN">     0</i>
   <i type="logical" name="LHFCALC"> F  </i>
   <i type="string" name="PRECFOCK"></i>
   <i type="logical" name="LSYMGRAD"> F  </i>
   <i type="logical" name="LHFONE"> F  </i>
   <i type="logical" name="LRHFCALC"> F  </i>
   <i type="logical" name="LTHOMAS"> F  </i>
   <i type="logical" name="LMODELHF"> F  </i>
   <i name="ENCUT4O">     -1.00000000</i>
   <i type="int" name="EXXOEP">     0</i>
   <i type="int" name="FOURORBIT">     0</i>
   <i name="AEXX">      0.00000000</i>
   <i name="HFALPHA">      0.00000000</i>
   <i name="MCALPHA">      0.00000000</i>
   <i name="ALDAX">      1.00000000</i>
   <i name="AGGAX">      1.00000000</i>
   <i name="ALDAC">      1.00000000</i>
   <i name="AGGAC">      0.00000000</i>
   <i type="int" name="NKREDX">     1</i>
   <i type="int" name="NKREDY">     1</i>
   <i type="int" name="NKREDZ">     1</i>
   <i type="logical" name="SHIFTRED"> F  </i>
   <i type="logical" name="ODDONLY"> F  </i>
   <i type="logical" name="EVENONLY"> F  </i>
   <i type="int" name="LMAXFOCK">     0</i>
   <i type="int" name="NMAXFOCKAE">     0</i>
   <i type="logical" name="LFOCKAEDFT"> F  </i>
   <i name="HFSCREEN">      0.00000000</i>
   <i name="HFSCREENC">      0.00000000</i>
   <i type="int" name="NBANDSGWLOW">     0</i>
  </separator>
  <separator name="vdW DFT" >
   <i type="logical" name="LUSE_VDW"> T  </i>
   <i name="Zab_VDW">     -0.84910000</i>
   <i name="PARAM1">      0.18333333</i>
   <i name="PARAM2">      0.22000000</i>
   <i name="PARAM3">      0.00000000</i>
  </separator>
  <separator name="model GW" >
   <i type="int" name="MODEL_GW">     0</i>
   <i name="MODEL_EPS0">      8.07328419</i>
   <i name="MODEL_ALPHA">      1.00000000</i>
  </separator>
  <separator name="linear response parameters" >
   <i type="logical" name="LEPSILON"> F  </i>
   <i type="logical" name="LRPA"> F  </i>
   <i type="logical" name="LNABLA"> F  </i>
   <i type="logical" name="LVEL"> F  </i>
   <i type="int" name="KINTER">     0</i>
   <i name="CSHIFT">      0.10000000</i>
   <i name="OMEGAMAX">     -1.00000000</i>
   <i name="DEG_THRESHOLD">      0.00200000</i>
  </separator>
  <separator name="orbital magnetization" >
   <i type="logical" name="NUCIND"> F  </i>
   <v name="MAGPOS">      0.00000000      0.00000000      0.00000000</v>
   <i type="logical" name="LNICSALL"> T  </i>
   <i type="logical" name="ORBITALMAG"> F  </i>
   <i type="logical" name="LMAGBLOCH"> F  </i>
   <i type="logical" name="LCHIMAG"> F  </i>
   <i type="logical" name="LGAUGE"> T  </i>
   <i type="int" name="MAGATOM">     0</i>
   <v name="MAGDIPOL">      0.00000000      0.00000000      0.00000000</v>
   <v name="AVECCONST">      0.00000000      0.00000000      0.00000000</v>
  </separator>
  <separator name="response functions" >
   <i type="logical" name="LADDER"> F  </i>
   <i type="logical" name="LFXC"> F  </i>
   <i type="logical" name="LHARTREE"> T  </i>
   <i type="int" name="IBSE">     0</i>
   <v type="int" name="KPOINT">    -1     0     0     0</v>
   <i type="logical" name="LTCTE"> F  </i>
   <i type="logical" name="LTETE"> F  </i>
   <i type="logical" name="LTRIPLET"> F  </i>
   <i type="logical" name="LFXCEPS"> F  </i>
   <i type="logical" name="LFXHEG"> F  </i>
   <i type="int" name="NATURALO">     0</i>
   <i type="logical" name="L2ORDER"> F  </i>
   <i type="logical" name="LUSEW"> F  </i>
   <i name="ENCUTGW">     -2.00000000</i>
   <i name="ENCUTGWSOFT">     -2.00000000</i>
   <i name="ENCUTLF">     -1.00000000</i>
   <i type="int" name="LMAXMP2">    -1</i>
   <i name="SCISSOR">      0.00000000</i>
   <i type="int" name="NOMEGA">     0</i>
   <i type="int" name="NOMEGAR">     0</i>
   <i type="int" name="NBANDSGW">    -1</i>
   <i type="int" name="NBANDSO">    -1</i>
   <i type="int" name="NBANDSV">    -1</i>
   <i type="int" name="NELM">     1</i>
   <i type="int" name="NELMHF">     1</i>
   <i type="int" name="DIM">     3</i>
   <i type="int" name="ANTIRES">     0</i>
   <i name="OMEGAMAX">    -30.00000000</i>
   <i name="OMEGAMIN">    -30.00000000</i>
   <i name="OMEGATL">   -200.00000000</i>
   <i type="int" name="OMEGAGRID">     0</i>
   <i name="CSHIFT">     -0.10000000</i>
   <i type="logical" name="SELFENERGY"> F  </i>
   <i type="logical" name="LSPECTRAL"> F  </i>
   <i type="logical" name="LSPECTRALGW"> F  </i>
   <i type="logical" name="LSINGLES"> F  </i>
   <i type="logical" name="LFERMIGW"> F  </i>
   <i type="logical" name="ODDONLYGW"> F  </i>
   <i type="logical" name="EVENONLYGW"> F  </i>
   <i type="int" name="NKREDLFX">     1</i>
   <i type="int" name="NKREDLFY">     1</i>
   <i type="int" name="NKREDLFZ">     1</i>
   <i type="int" name="MAXMEM">  1800</i>
   <i type="int" name="TELESCOPE">     0</i>
   <i type="int" name="TAUPAR">     1</i>
   <i type="int" name="OMEGAPAR">    -1</i>
   <i name="LAMBDA">      1.00000000</i>
  </separator>
  <separator name="External order field" >
   <i name="OFIELD_KAPPA">      0.00000000</i>
   <v name="OFIELD_K">      0.00000000      0.00000000      0.00000000</v>
   <i name="OFIELD_Q6_NEAR">      0.00000000</i>
   <i name="OFIELD_Q6_FAR">      0.00000000</i>
   <i name="OFIELD_A">      0.00000000</i>
  </separator>
 </parameters>
 <atominfo>
  <atoms>       8 </atoms>
  <types>       1 </types>
  <array name="atoms" >
   <dimension dim="1">ion</dimension>
   <field type="string">element</field>
   <field type="int">atomtype</field>
   <set>
    <rc><c>O </c><c>   1</c></rc>
    <rc><c>O </c><c>   1</c></rc>
    <rc><c>O </c><c>   1</c></rc>
    <rc><c>O </c><c>   1</c></rc>
    <rc><c>O </c><c>   1</c></rc>
    <rc><c>O </c><c>   1</c></rc>
    <rc><c>O </c><c>   1</c></rc>
    <rc><c>O </c><c>   1</c></rc>
   </set>
  </array>
  <array name="atomtypes" >
   <dimension dim="1">type</dimension>
   <field type="int">atomspertype</field>
   <field type="string">element</field>
   <field>mass</field>
   <field>valence</field>
   <field type="string">pseudopotential</field>
   <set>
    <rc><c>   8</c><c>O </c><c>     16.00000000</c><c>      6.00000000</c><c> PAW_PBE O 08Apr2002                    </c></rc>
   </set>
  </array>
 </atominfo>
 <structure name="initialpos" >
  <crystal>
   <varray name="basis" >
    <v>       4.10988300      -0.07752100       1.54059800 </v>
    <v>       1.45589800       4.85158700       1.78244300 </v>
    <v>       0.01926600      -0.02270100       5.36970700 </v>
   </varray>
   <i name="volume">    107.64378924 </i>
   <varray name="rec_basis" >
    <v>       0.24239266      -0.07230705      -0.00117537 </v>
    <v>       0.00354216       0.20474183       0.00085286 </v>
    <v>      -0.07071957      -0.04721757       0.18628402 </v>
   </varray>
  </crystal>
  <varray name="positions" >
   <v>       0.84460900       0.27345900       0.78608900 </v>
   <v>       0.15539100       0.21391100       0.72654100 </v>
   <v>       0.15539100       0.72654100       0.21391100 </v>
   <v>       0.84460900       0.78608900       0.27345900 </v>
   <v>       0.82168000       0.20774800       0.20774800 </v>
   <v>       0.17832000       0.79225200       0.79225200 </v>
   <v>       0.13264100       0.14822200       0.14822200 </v>
   <v>       0.86735900       0.85177800       0.85177800 </v>
  </varray>
 </structure>
 <calculation>
  <scstep>
   <time name="dav">    5.04    5.05</time>
   <time name="total">    6.84    6.87</time>
   <energy>
    <i name="alphaZ">     82.60291600 </i>
    <i name="ewald">  -1805.12094809 </i>
    <i name="hartreedc">  -1190.93678015 </i>
    <i name="XCdc">    205.57798410 </i>
    <i name="pawpsdc">   2145.62882169 </i>
    <i name="pawaedc">  -2155.16668243 </i>
    <i name="eentropy">      0.01270118 </i>
    <i name="bandstr">   -822.38589166 </i>
    <i name="atom">   3474.87268008 </i>
    <i name="e_fr_energy">    -64.91519927 </i>
    <i name="e_wo_entrp">    -64.92790046 </i>
    <i name="e_0_energy">    -64.91943300 </i>
   </energy>
  </scstep>
  <scstep>
   <time name="diag">    0.93    0.93</time>
   <time name="diis">    2.82    2.82</time>
   <time name="orth">    0.07    0.07</time>
   <time name="total">    5.20    5.22</time>
   <energy>
    <i name="e_fr_energy">    -38.49447343 </i>
    <i name="e_wo_entrp">    -38.50341054 </i>
    <i name="e_0_energy">    -38.49745247 </i>
   </energy>
  </scstep>
  <scstep>
   <time name="diag">    0.93    0.93</time>
   <time name="diis">    2.81    2.81</time>
   <time name="orth">    0.07    0.07</time>
   <time name="total">    5.18    5.19</time>
   <energy>
    <i name="e_fr_energy">    -34.94695584 </i>
    <i name="e_wo_entrp">    -34.95313265 </i>
    <i name="e_0_energy">    -34.94901478 </i>
   </energy>
  </scstep>
  <scstep>
   <time name="diag">    0.92    0.92</time>
   <time name="diis">    2.82    2.83</time>
   <time name="orth">    0.07    0.07</time>
   <time name="total">    5.18    5.20</time>
   <energy>
    <i name="e_fr_energy">    -34.89162760 </i>
    <i name="e_wo_entrp">    -34.89785193 </i>
    <i name="e_0_energy">    -34.89370237 </i>
   </energy>
  </scstep>
  <scstep>
   <time name="diag">    0.93    0.93</time>
   <time name="diis">    2.82    2.82</time>
   <time name="orth">    0.07    0.07</time>
   <time name="total">    5.19    5.20</time>
   <energy>
    <i name="e_fr_energy">    -34.72520083 </i>
    <i name="e_wo_entrp">    -34.73161923 </i>
    <i name="e_0_energy">    -34.72734030 </i>
   </energy>
  </scstep>
  <scstep>
   <time name="diag">    0.94    0.94</time>
   <time name="diis">    2.82    2.82</time>
   <time name="orth">    0.07    0.07</time>
   <time name="total">    5.23    5.24</time>
   <energy>
    <i name="e_fr_energy">    -34.58036261 </i>
    <i name="e_wo_entrp">    -34.58686319 </i>
    <i name="e_0_energy">    -34.58252947 </i>
   </energy>
  </scstep>
  <scstep>
   <time name="diag">    0.93    0.93</time>
   <time name="diis">    2.78    2.78</time>
   <time name="orth">    0.07    0.07</time>
   <time name="total">    5.16    5.16</time>
   <energy>
    <i name="e_fr_energy">    -34.56913426 </i>
    <i name="e_wo_entrp">    -34.57560394 </i>
    <i name="e_0_energy">    -34.57129082 </i>
   </energy>
  </scstep>
  <scstep>
   <time name="diag">    0.93    0.93</time>
   <time name="diis">    2.80    2.80</time>
   <time name="orth">    0.07    0.07</time>
   <time name="total">    5.18    5.18</time>
   <energy>
    <i name="e_fr_energy">    -34.57231514 </i>
    <i name="e_wo_entrp">    -34.57876603 </i>
    <i name="e_0_energy">    -34.57446544 </i>
   </energy>
  </scstep>
  <scstep>
   <time name="diag">    0.93    0.93</time>
   <time name="diis">    1.88    1.89</time>
   <time name="orth">    0.07    0.07</time>
   <time name="total">    4.27    4.28</time>
   <energy>
    <i name="e_fr_energy">    -34.57272809 </i>
    <i name="e_wo_entrp">    -34.57917608 </i>
    <i name="e_0_energy">    -34.57487742 </i>
   </energy>
  </scstep>
  <scstep>
   <time name="diag">    0.92    0.93</time>
   <time name="diis">    1.77    1.78</time>
   <time name="orth">    0.07    0.07</time>
   <time name="total">    4.15    4.16</time>
   <energy>
    <i name="e_fr_energy">    -34.57372529 </i>
    <i name="e_wo_entrp">    -34.58017270 </i>
    <i name="e_0_energy">    -34.57587443 </i>
   </energy>
  </scstep>
  <scstep>
   <time name="diag">    0.93    0.93</time>
   <time name="diis">    1.43    1.44</time>
   <time name="orth">    0.07    0.07</time>
   <time name="total">    3.81    3.82</time>
   <energy>
    <i name="e_fr_energy">    -34.57394810 </i>
    <i name="e_wo_entrp">    -34.58039614 </i>
    <i name="e_0_energy">    -34.57609745 </i>
   </energy>
  </scstep>
  <scstep>
   <time name="diag">    0.93    0.93</time>
   <time name="diis">    1.38    1.38</time>
   <time name="orth">    0.07    0.07</time>
   <time name="total">    3.46    3.81</time>
   <energy>
    <i name="alphaZ">     82.60291600 </i>
    <i name="ewald">  -1805.12094809 </i>
    <i name="hartreedc">  -1450.53901573 </i>
    <i name="XCdc">    220.99301192 </i>
    <i name="pawpsdc">   2377.98070712 </i>
    <i name="pawaedc">  -2399.19175100 </i>
    <i name="eentropy">      0.00644848 </i>
    <i name="bandstr">   -536.17806901 </i>
    <i name="atom">   3474.87268008 </i>
    <i name="e_fr_energy">    -34.57402024 </i>
    <i name="e_wo_entrp">    -34.58046872 </i>
    <i name="e_0_energy">    -34.57616973 </i>
   </energy>
  </scstep>
  <structure>
   <crystal>
    <varray name="basis" >
     <v>       4.10988300      -0.07752100       1.54059800 </v>
     <v>       1.45589800       4.85158700       1.78244300 </v>
     <v>       0.01926600      -0.02270100       5.36970700 </v>
    </varray>
    <i name="volume">    107.64378924 </i>
    <varray name="rec_basis" >
     <v>       0.24239266      -0.07230705      -0.00117537 </v>
     <v>       0.00354216       0.20474183       0.00085286 </v>
     <v>      -0.07071957      -0.04721757       0.18628402 </v>
    </varray>
   </crystal>
   <varray name="positions" >
    <v>       0.84460900       0.27345900       0.78608900 </v>
    <v>       0.15539100       0.21391100       0.72654100 </v>
    <v>       0.15539100       0.72654100       0.21391100 </v>
    <v>       0.84460900       0.78608900       0.27345900 </v>
    <v>       0.82168000       0.20774800       0.20774800 </v>
    <v>       0.17832000       0.79225200       0.79225200 </v>
    <v>       0.13264100       0.14822200       0.14822200 </v>
    <v>       0.86735900       0.85177800       0.85177800 </v>
   </varray>
  </structure>
  <varray name="forces" >
   <v>      -0.04932720       0.08508186      -0.05460647 </v>
   <v>       0.08940893       0.05090976      -0.04547745 </v>
   <v>       0.04932720      -0.08508186       0.05460647 </v>
   <v>      -0.08940893      -0.05090976       0.04547745 </v>
   <v>      -0.06684043       0.06642297       0.06348559 </v>
   <v>       0.06684043      -0.06642297      -0.06348559 </v>
   <v>       0.07304033       0.02520286       0.06349634 </v>
   <v>      -0.07304033      -0.02520286      -0.06349634 </v>
  </varray>
  <varray name="stress" >
   <v>     -10.72624967       0.38067356      -0.16030667 </v>
   <v>       0.38067354      -9.29304586      -0.19899356 </v>
   <v>      -0.16030669      -0.19899356      -9.36898447 </v>
  </varray>
  <energy>
   <i name="e_fr_energy">    -34.57402024 </i>
   <i name="e_wo_entrp">    -34.57616973 </i>
   <i name="e_0_energy">      0.00644848 </i>
  </energy>
  <time name="totalsc">   68.54   69.36</time>
 </calculation>
 <calculation>
  <scstep>
   <time name="dav">    5.98    5.99</time>
   <time name="total">    7.36    7.38</time>
   <energy>
    <i name="alphaZ">     83.27700381 </i>
    <i name="ewald">  -1823.58029910 </i>
    <i name="hartreedc">  -1442.70385217 </i>
    <i name="XCdc">    221.41296839 </i>
    <i name="pawpsdc">   2377.96710970 </i>
    <i name="pawaedc">  -2399.17800782 </i>
    <i name="eentropy">      0.00588461 </i>
    <i name="bandstr">   -526.67641056 </i>
    <i name="atom">   3474.87268008 </i>
    <i name="e_fr_energy">    -34.60292306 </i>
    <i name="e_wo_entrp">    -34.60880767 </i>
    <i name="e_0_energy">    -34.60488460 </i>
   </energy>
  </scstep>
  <scstep>
   <time name="diag">    0.93    0.93</time>
   <time name="diis">    2.79    2.79</time>
   <time name="orth">    0.07    0.07</time>
   <time name="total">    5.18    5.19</time>
   <energy>
    <i name="e_fr_energy">    -34.57024907 </i>
    <i name="e_wo_entrp">    -34.57628131 </i>
    <i name="e_0_energy">    -34.57225981 </i>
   </energy>
  </scstep>
  <scstep>
   <time name="diag">    0.93    0.93</time>
   <time name="diis">    2.80    2.80</time>
   <time name="orth">    0.06    0.06</time>
   <time name="total">    5.13    5.15</time>
   <energy>
    <i name="e_fr_energy">    -34.56775456 </i>
    <i name="e_wo_entrp">    -34.57388164 </i>
    <i name="e_0_energy">    -34.56979692 </i>
   </energy>
  </scstep>
  <scstep>
   <time name="diag">    0.89    0.89</time>
   <time name="diis">    2.55    2.55</time>
   <time name="orth">    0.07    0.07</time>
   <time name="total">    4.87    4.88</time>
   <energy>
    <i name="e_fr_energy">    -34.57032629 </i>
    <i name="e_wo_entrp">    -34.57645084 </i>
    <i name="e_0_energy">    -34.57236780 </i>
   </energy>
  </scstep>
  <scstep>
   <time name="diag">    0.93    0.93</time>
   <time name="diis">    1.83    1.83</time>
   <time name="orth">    0.06    0.06</time>
   <time name="total">    4.20    4.21</time>
   <energy>
    <i name="e_fr_energy">    -34.57780852 </i>
    <i name="e_wo_entrp">    -34.58392718 </i>
    <i name="e_0_energy">    -34.57984807 </i>
   </energy>
  </scstep>
  <scstep>
   <time name="diag">    0.93    0.93</time>
   <time name="diis">    1.78    1.79</time>
   <time name="orth">    0.07    0.07</time>
   <time name="total">    4.17    4.18</time>
   <energy>
    <i name="e_fr_energy">    -34.58387508 </i>
    <i name="e_wo_entrp">    -34.58999215 </i>
    <i name="e_0_energy">    -34.58591410 </i>
   </energy>
  </scstep>
  <scstep>
   <time name="diag">    0.92    0.93</time>
   <time name="diis">    1.73    1.73</time>
   <time name="orth">    0.06    0.06</time>
   <time name="total">    4.10    4.12</time>
   <energy>
    <i name="e_fr_energy">    -34.58593031 </i>
    <i name="e_wo_entrp">    -34.59204958 </i>
    <i name="e_0_energy">    -34.58797007 </i>
   </energy>
  </scstep>
  <scstep>
   <time name="diag">    0.93    0.93</time>
   <time name="diis">    1.78    1.78</time>
   <time name="orth">    0.07    0.07</time>
   <time name="total">    3.86    3.87</time>
   <energy>
    <i name="alphaZ">     83.27700381 </i>
    <i name="ewald">  -1823.58029910 </i>
    <i name="hartreedc">  -1435.28790554 </i>
    <i name="XCdc">    220.93884935 </i>
    <i name="pawpsdc">   2375.60894564 </i>
    <i name="pawaedc">  -2396.81266786 </i>
    <i name="eentropy">      0.00612068 </i>
    <i name="bandstr">   -533.60865362 </i>
    <i name="atom">   3474.87268008 </i>
    <i name="e_fr_energy">    -34.58592656 </i>
    <i name="e_wo_entrp">    -34.59204724 </i>
    <i name="e_0_energy">    -34.58796679 </i>
   </energy>
  </scstep>
  <structure>
   <crystal>
    <varray name="basis" >
     <v>       4.09202236      -0.07722912       1.54059800 </v>
     <v>       1.44957099       4.83332024       1.78244300 </v>
     <v>       0.01918227      -0.02261553       5.36970700 </v>
    </varray>
    <i name="volume">    106.77246387 </i>
    <varray name="rec_basis" >
     <v>       0.24345064      -0.07258033      -0.00117537 </v>
     <v>       0.00355762       0.20551562       0.00085286 </v>
     <v>      -0.07102824      -0.04739603       0.18628402 </v>
    </varray>
   </crystal>
   <varray name="positions" >
    <v>       0.84373849       0.27428870       0.78557274 </v>
    <v>       0.15626151       0.21442726       0.72571130 </v>
    <v>       0.15626151       0.72571130       0.21442726 </v>
    <v>       0.84373849       0.78557274       0.27428870 </v>
    <v>       0.82066309       0.20839527       0.20839527 </v>
    <v>       0.17933691       0.79160473       0.79160473 </v>
    <v>       0.13340359       0.14848603       0.14848603 </v>
    <v>       0.86659641       0.85151397       0.85151397 </v>
   </varray>
  </structure>
  <varray name="forces" >
   <v>       0.05869799       0.04509658      -0.04958063 </v>
   <v>      -0.02297076       0.07619151      -0.04001948 </v>
   <v>      -0.05869799      -0.04509658       0.04958063 </v>
   <v>       0.02297076      -0.07619151       0.04001948 </v>
   <v>       0.05483426       0.02645221       0.05813442 </v>
   <v>      -0.05483426      -0.02645221      -0.05813442 </v>
   <v>      -0.03900240       0.05279205       0.05631576 </v>
   <v>       0.03900240      -0.05279205      -0.05631576 </v>
  </varray>
  <varray name="stress" >
   <v>     -17.31836986       2.18178010      -0.66548019 </v>
   <v>       2.18124658      -9.00776312      -0.12153777 </v>
   <v>      -0.66620785      -0.12132318      -8.77149646 </v>
  </varray>
  <energy>
   <i name="e_fr_energy">    -34.58592656 </i>
   <i name="e_wo_entrp">    -34.58796679 </i>
   <i name="e_0_energy">      0.00612068 </i>
  </energy>
  <time name="totalsc">   46.79   46.93</time>
 </calculation>
 <calculation>
  <scstep>
   <time name="dav">    4.98    4.99</time>
   <time name="total">    6.40    6.41</time>
   <energy>
    <i name="alphaZ">     85.34961628 </i>
    <i name="ewald">  -1878.26675619 </i>
    <i name="hartreedc">  -1412.58548377 </i>
    <i name="XCdc">    222.22042643 </i>
    <i name="pawpsdc">   2375.64818949 </i>
    <i name="pawaedc">  -2396.85189753 </i>
    <i name="eentropy">      0.00387238 </i>
    <i name="bandstr">   -505.19573567 </i>
    <i name="atom">   3474.87268008 </i>
    <i name="e_fr_energy">    -34.80508851 </i>
    <i name="e_wo_entrp">    -34.80896089 </i>
    <i name="e_0_energy">    -34.80637930 </i>
   </energy>
  </scstep>
  <scstep>
   <time name="diag">    0.93    0.93</time>
   <time name="diis">    2.81    2.81</time>
   <time name="orth">    0.06    0.07</time>
   <time name="total">    5.23    5.26</time>
   <energy>
    <i name="e_fr_energy">    -34.58950740 </i>
    <i name="e_wo_entrp">    -34.59363330 </i>
    <i name="e_0_energy">    -34.59088270 </i>
   </energy>
  </scstep>
  <scstep>
   <time name="diag">    0.93    0.93</time>
   <time name="diis">    2.82    2.82</time>
   <time name="orth">    0.06    0.06</time>
   <time name="total">    5.25    5.29</time>
   <energy>
    <i name="e_fr_energy">    -34.57173310 </i>
    <i name="e_wo_entrp">    -34.57590426 </i>
    <i name="e_0_energy">    -34.57312348 </i>
   </energy>
  </scstep>
  <scstep>
   <time name="diag">    0.93    0.94</time>
   <time name="diis">    2.81    2.81</time>
   <time name="orth">    0.07    0.07</time>
   <time name="total">    5.23    5.24</time>
   <energy>
    <i name="e_fr_energy">    -34.57663464 </i>
    <i name="e_wo_entrp">    -34.58086870 </i>
    <i name="e_0_energy">    -34.57804599 </i>
   </energy>
  </scstep>
  <scstep>
   <time name="diag">    0.92    0.92</time>
   <time name="diis">    2.82    2.83</time>
   <time name="orth">    0.07    0.07</time>
   <time name="total">    5.26    5.28</time>
   <energy>
    <i name="e_fr_energy">    -34.60367645 </i>
    <i name="e_wo_entrp">    -34.60786451 </i>
    <i name="e_0_energy">    -34.60507247 </i>
   </energy>
  </scstep>
  <scstep>
   <time name="diag">    0.93    0.94</time>
   <time name="diis">    1.96    1.96</time>
   <time name="orth">    0.06    0.06</time>
   <time name="total">    4.37    4.39</time>
   <energy>
    <i name="e_fr_energy">    -34.62253081 </i>
    <i name="e_wo_entrp">    -34.62670607 </i>
    <i name="e_0_energy">    -34.62392256 </i>
   </energy>
  </scstep>
  <scstep>
   <time name="diag">    0.93    0.93</time>
   <time name="diis">    1.79    1.79</time>
   <time name="orth">    0.07    0.07</time>
   <time name="total">    4.19    4.21</time>
   <energy>
    <i name="e_fr_energy">    -34.62687449 </i>
    <i name="e_wo_entrp">    -34.63105164 </i>
    <i name="e_0_energy">    -34.62826687 </i>
   </energy>
  </scstep>
  <scstep>
   <time name="diag">    0.93    0.93</time>
   <time name="diis">    1.79    1.79</time>
   <time name="orth">    0.07    0.07</time>
   <time name="total">    4.21    4.22</time>
   <energy>
    <i name="e_fr_energy">    -34.62769752 </i>
    <i name="e_wo_entrp">    -34.63187843 </i>
    <i name="e_0_energy">    -34.62909116 </i>
   </energy>
  </scstep>
  <scstep>
   <time name="diag">    0.94    0.94</time>
   <time name="diis">    1.71    1.71</time>
   <time name="orth">    0.07    0.07</time>
   <time name="total">    4.13    4.14</time>
   <energy>
    <i name="e_fr_energy">    -34.62877834 </i>
    <i name="e_wo_entrp">    -34.63295819 </i>
    <i name="e_0_energy">    -34.63017162 </i>
   </energy>
  </scstep>
  <scstep>
   <time name="diag">    0.93    0.93</time>
   <time name="diis">    1.40    1.40</time>
   <time name="orth">    0.06    0.06</time>
   <time name="total">    3.81    3.82</time>
   <energy>
    <i name="e_fr_energy">    -34.62914942 </i>
    <i name="e_wo_entrp">    -34.63332886 </i>
    <i name="e_0_energy">    -34.63054257 </i>
   </energy>
  </scstep>
  <scstep>
   <time name="diag">    0.93    0.93</time>
   <time name="diis">    1.28    1.28</time>
   <time name="orth">    0.06    0.07</time>
   <time name="total">    3.38    3.39</time>
   <energy>
    <i name="alphaZ">     85.34961628 </i>
    <i name="ewald">  -1878.26675619 </i>
    <i name="hartreedc">  -1390.48258631 </i>
    <i name="XCdc">    220.80288591 </i>
    <i name="pawpsdc">   2369.62816108 </i>
    <i name="pawaedc">  -2390.81392064 </i>
    <i name="eentropy">      0.00417935 </i>
    <i name="bandstr">   -525.72341006 </i>
    <i name="atom">   3474.87268008 </i>
    <i name="e_fr_energy">    -34.62915051 </i>
    <i name="e_wo_entrp">    -34.63332986 </i>
    <i name="e_0_energy">    -34.63054363 </i>
   </energy>
  </scstep>
  <structure>
   <crystal>
    <varray name="basis" >
     <v>       4.03844045      -0.07635350       1.54059800 </v>
     <v>       1.43058997       4.77851996       1.78244300 </v>
     <v>       0.01893110      -0.02235911       5.36970700 </v>
    </varray>
    <i name="volume">    104.17962339 </i>
    <varray name="rec_basis" >
     <v>       0.24668073      -0.07341268      -0.00117537 </v>
     <v>       0.00360483       0.20787248       0.00085286 </v>
     <v>      -0.07197064      -0.04793957       0.18628402 </v>
    </varray>
   </crystal>
   <varray name="positions" >
    <v>       0.84111605       0.27678723       0.78402397 </v>
    <v>       0.15888471       0.21598193       0.72321688 </v>
    <v>       0.15888395       0.72321277       0.21597603 </v>
    <v>       0.84111529       0.78401807       0.27678312 </v>
    <v>       0.81759949       0.21034437       0.21033835 </v>
    <v>       0.18240051       0.78965563       0.78966165 </v>
    <v>       0.13570156       0.14928111       0.14927421 </v>
    <v>       0.86429844       0.85071889       0.85072579 </v>
   </varray>
  </structure>
  <varray name="forces" >
   <v>       0.35154400      -0.05161198      -0.02148929 </v>
   <v>      -0.32705183       0.13490684      -0.04074945 </v>
   <v>      -0.35154400       0.05161198       0.02148929 </v>
   <v>       0.32705183      -0.13490684       0.04074945 </v>
   <v>       0.37415269      -0.07685512       0.04646630 </v>
   <v>      -0.37415269       0.07685512      -0.04646630 </v>
   <v>      -0.36625938       0.13214221       0.03302220 </v>
   <v>       0.36625938      -0.13214221      -0.03302220 </v>
  </varray>
  <varray name="stress" >
   <v>     -36.24685978       8.19807380      -1.23864831 </v>
   <v>       8.19346586      -8.17099603      -0.36710650 </v>
   <v>      -1.24500519      -0.36522846      -6.66453878 </v>
  </varray>
  <energy>
   <i name="e_fr_energy">    -34.62915051 </i>
   <i name="e_wo_entrp">    -34.63054363 </i>
   <i name="e_0_energy">      0.00417935 </i>
  </energy>
  <time name="totalsc">   59.44   59.64</time>
 </calculation>
 <calculation>
  <scstep>
   <time name="dav">    5.03    5.03</time>
   <time name="total">    6.48    6.49</time>
   <energy>
    <i name="alphaZ">     89.73434126 </i>
    <i name="ewald">  -1984.80978787 </i>
    <i name="hartreedc">  -1348.16478676 </i>
    <i name="XCdc">    223.44402538 </i>
    <i name="pawpsdc">   2369.62234989 </i>
    <i name="pawaedc">  -2390.80806178 </i>
    <i name="eentropy">      0.00285961 </i>
    <i name="bandstr">   -469.36691989 </i>
    <i name="atom">   3474.87268008 </i>
    <i name="e_fr_energy">    -35.47330008 </i>
    <i name="e_wo_entrp">    -35.47615969 </i>
    <i name="e_0_energy">    -35.47425328 </i>
   </energy>
  </scstep>
  <scstep>
   <time name="diag">    0.93    0.94</time>
   <time name="diis">    2.85    2.85</time>
   <time name="orth">    0.06    0.06</time>
   <time name="total">    5.30    5.32</time>
   <energy>
    <i name="e_fr_energy">    -34.70656251 </i>
    <i name="e_wo_entrp">    -34.70996611 </i>
    <i name="e_0_energy">    -34.70769704 </i>
   </energy>
  </scstep>
  <scstep>
   <time name="diag">    0.93    0.94</time>
   <time name="diis">    2.84    2.84</time>
   <time name="orth">    0.07    0.07</time>
   <time name="total">    5.28    5.30</time>
   <energy>
    <i name="e_fr_energy">    -34.62973879 </i>
    <i name="e_wo_entrp">    -34.63323365 </i>
    <i name="e_0_energy">    -34.63090374 </i>
   </energy>
  </scstep>
  <scstep>
   <time name="diag">    0.93    0.93</time>
   <time name="diis">    2.75    2.75</time>
   <time name="orth">    0.06    0.06</time>
   <time name="total">    5.16    5.18</time>
   <energy>
    <i name="e_fr_energy">    -34.64627959 </i>
    <i name="e_wo_entrp">    -34.64998049 </i>
    <i name="e_0_energy">    -34.64751322 </i>
   </energy>
  </scstep>
  <scstep>
   <time name="diag">    0.91    0.91</time>
   <time name="diis">    2.81    2.82</time>
   <time name="orth">    0.07    0.07</time>
   <time name="total">    5.22    5.24</time>
   <energy>
    <i name="e_fr_energy">    -34.69649205 </i>
    <i name="e_wo_entrp">    -34.70005686 </i>
    <i name="e_0_energy">    -34.69768032 </i>
   </energy>
  </scstep>
  <scstep>
   <time name="diag">    0.93    0.93</time>
   <time name="diis">    2.85    2.85</time>
   <time name="orth">    0.07    0.07</time>
   <time name="total">    5.30    5.32</time>
   <energy>
    <i name="e_fr_energy">    -34.73227115 </i>
    <i name="e_wo_entrp">    -34.73582540 </i>
    <i name="e_0_energy">    -34.73345590 </i>
   </energy>
  </scstep>
  <scstep>
   <time name="diag">    0.93    0.93</time>
   <time name="diis">    1.83    1.83</time>
   <time name="orth">    0.07    0.07</time>
   <time name="total">    4.28    4.30</time>
   <energy>
    <i name="e_fr_energy">    -34.74215580 </i>
    <i name="e_wo_entrp">    -34.74571358 </i>
    <i name="e_0_energy">    -34.74334173 </i>
   </energy>
  </scstep>
  <scstep>
   <time name="diag">    0.93    0.93</time>
   <time name="diis">    1.80    1.80</time>
   <time name="orth">    0.07    0.07</time>
   <time name="total">    4.25    4.26</time>
   <energy>
    <i name="e_fr_energy">    -34.74407271 </i>
    <i name="e_wo_entrp">    -34.74763513 </i>
    <i name="e_0_energy">    -34.74526018 </i>
   </energy>
  </scstep>
  <scstep>
   <time name="diag">    0.93    0.93</time>
   <time name="diis">    1.80    1.81</time>
   <time name="orth">    0.07    0.07</time>
   <time name="total">    4.26    4.27</time>
   <energy>
    <i name="e_fr_energy">    -34.74638199 </i>
    <i name="e_wo_entrp">    -34.74994230 </i>
    <i name="e_0_energy">    -34.74756876 </i>
   </energy>
  </scstep>
  <scstep>
   <time name="diag">    0.93    0.93</time>
   <time name="diis">    1.67    1.67</time>
   <time name="orth">    0.07    0.07</time>
   <time name="total">    4.12    4.13</time>
   <energy>
    <i name="e_fr_energy">    -34.74692647 </i>
    <i name="e_wo_entrp">    -34.75048610 </i>
    <i name="e_0_energy">    -34.74811301 </i>
   </energy>
  </scstep>
  <scstep>
   <time name="diag">    0.93    0.93</time>
   <time name="diis">    1.30    1.30</time>
   <time name="orth">    0.07    0.07</time>
   <time name="total">    3.76    3.78</time>
   <energy>
    <i name="e_fr_energy">    -34.74707302 </i>
    <i name="e_wo_entrp">    -34.75063265 </i>
    <i name="e_0_energy">    -34.74825956 </i>
   </energy>
  </scstep>
  <scstep>
   <time name="diag">    0.94    0.94</time>
   <time name="diis">    1.30    1.30</time>
   <time name="orth">    0.06    0.06</time>
   <time name="total">    3.44    3.46</time>
   <energy>
    <i name="alphaZ">     89.73434126 </i>
    <i name="ewald">  -1984.80978787 </i>
    <i name="hartreedc">  -1304.21831685 </i>
    <i name="XCdc">    220.60320388 </i>
    <i name="pawpsdc">   2361.73611283 </i>
    <i name="pawaedc">  -2382.90230449 </i>
    <i name="eentropy">      0.00355967 </i>
    <i name="bandstr">   -509.76652613 </i>
    <i name="atom">   3474.87268008 </i>
    <i name="e_fr_energy">    -34.74703762 </i>
    <i name="e_wo_entrp">    -34.75059729 </i>
    <i name="e_0_energy">    -34.74822418 </i>
   </energy>
  </scstep>
  <structure>
   <crystal>
    <varray name="basis" >
     <v>       3.93127663      -0.07460225       1.54059800 </v>
     <v>       1.39262791       4.66891940       1.78244300 </v>
     <v>       0.01842874      -0.02184628       5.36970700 </v>
    </varray>
    <i name="volume">     99.08905281 </i>
    <varray name="rec_basis" >
     <v>       0.25340508      -0.07513601      -0.00117537 </v>
     <v>       0.00370309       0.21275218       0.00085286 </v>
     <v>      -0.07393251      -0.04906492       0.18628402 </v>
    </varray>
   </crystal>
   <varray name="positions" >
    <v>       0.83580454       0.28184165       0.78092651 </v>
    <v>       0.16420245       0.21912723       0.71819565 </v>
    <v>       0.16419546       0.71815835       0.21907349 </v>
    <v>       0.83579755       0.78087277       0.28180435 </v>
    <v>       0.81139380       0.21428696       0.21423228 </v>
    <v>       0.18860620       0.78571304       0.78576772 </v>
    <v>       0.14035972       0.15088945       0.15082667 </v>
    <v>       0.85964028       0.84911055       0.84917333 </v>
   </varray>
  </structure>
  <varray name="forces" >
   <v>       0.85315324      -0.21578751       0.02578800 </v>
   <v>      -0.84634229       0.23903637      -0.04356757 </v>
   <v>      -0.85315324       0.21578751      -0.02578800 </v>
   <v>       0.84634229      -0.23903637       0.04356757 </v>
   <v>       0.91180853      -0.25207093       0.02584421 </v>
   <v>      -0.91180853       0.25207093      -0.02584421 </v>
   <v>      -0.90104458       0.25958786      -0.01072416 </v>
   <v>       0.90104458      -0.25958786       0.01072416 </v>
  </varray>
  <varray name="stress" >
   <v>     -64.56217446      21.46841237      -2.15763238 </v>
   <v>      21.44379152       6.22157795      -0.80341997 </v>
   <v>      -2.19239547      -0.79311181      12.16054774 </v>
  </varray>
  <energy>
   <i name="e_fr_energy">    -34.74703762 </i>
   <i name="e_wo_entrp">    -34.74822418 </i>
   <i name="e_0_energy">      0.00355967 </i>
  </energy>
  <time name="totalsc">   64.92   65.14</time>
 </calculation>
 <calculation>
  <scstep>
   <time name="dav">    5.01    5.01</time>
   <time name="total">    6.44    6.46</time>
   <energy>
    <i name="alphaZ">     86.55744390 </i>
    <i name="ewald">  -1907.62126990 </i>
    <i name="hartreedc">  -1335.30833499 </i>
    <i name="XCdc">    218.71077501 </i>
    <i name="pawpsdc">   2361.73322207 </i>
    <i name="pawaedc">  -2382.89925221 </i>
    <i name="eentropy">      0.00427895 </i>
    <i name="bandstr">   -551.09422503 </i>
    <i name="atom">   3474.87268008 </i>
    <i name="e_fr_energy">    -35.04468211 </i>
    <i name="e_wo_entrp">    -35.04896107 </i>
    <i name="e_0_energy">    -35.04610843 </i>
   </energy>
  </scstep>
  <scstep>
   <time name="diag">    0.92    0.92</time>
   <time name="diis">    2.84    2.84</time>
   <time name="orth">    0.07    0.07</time>
   <time name="total">    5.28    5.30</time>
   <energy>
    <i name="e_fr_energy">    -34.79665033 </i>
    <i name="e_wo_entrp">    -34.80063710 </i>
    <i name="e_0_energy">    -34.79797925 </i>
   </energy>
  </scstep>
  <scstep>
   <time name="diag">    0.93    0.93</time>
   <time name="diis">    2.84    2.84</time>
   <time name="orth">    0.07    0.07</time>
   <time name="total">    5.26    5.26</time>
   <energy>
    <i name="e_fr_energy">    -34.74262659 </i>
    <i name="e_wo_entrp">    -34.74647705 </i>
    <i name="e_0_energy">    -34.74391007 </i>
   </energy>
  </scstep>
  <scstep>
   <time name="diag">    0.92    0.93</time>
   <time name="diis">    2.83    2.83</time>
   <time name="orth">    0.07    0.07</time>
   <time name="total">    5.25    5.27</time>
   <energy>
    <i name="e_fr_energy">    -34.72318642 </i>
    <i name="e_wo_entrp">    -34.72696143 </i>
    <i name="e_0_energy">    -34.72444476 </i>
   </energy>
  </scstep>
  <scstep>
   <time name="diag">    0.93    0.93</time>
   <time name="diis">    2.84    2.85</time>
   <time name="orth">    0.06    0.06</time>
   <time name="total">    5.26    5.27</time>
   <energy>
    <i name="e_fr_energy">    -34.69727650 </i>
    <i name="e_wo_entrp">    -34.70113733 </i>
    <i name="e_0_energy">    -34.69856344 </i>
   </energy>
  </scstep>
  <scstep>
   <time name="diag">    0.93    0.93</time>
   <time name="diis">    2.84    2.84</time>
   <time name="orth">    0.07    0.07</time>
   <time name="total">    5.26    5.29</time>
   <energy>
    <i name="e_fr_energy">    -34.66633857 </i>
    <i name="e_wo_entrp">    -34.67021656 </i>
    <i name="e_0_energy">    -34.66763123 </i>
   </energy>
  </scstep>
  <scstep>
   <time name="diag">    0.93    0.93</time>
   <time name="diis">    1.79    1.79</time>
   <time name="orth">    0.07    0.07</time>
   <time name="total">    4.22    4.23</time>
   <energy>
    <i name="e_fr_energy">    -34.65995960 </i>
    <i name="e_wo_entrp">    -34.66383364 </i>
    <i name="e_0_energy">    -34.66125094 </i>
   </energy>
  </scstep>
  <scstep>
   <time name="diag">    0.93    0.93</time>
   <time name="diis">    1.82    1.82</time>
   <time name="orth">    0.07    0.07</time>
   <time name="total">    4.25    4.26</time>
   <energy>
    <i name="e_fr_energy">    -34.66091389 </i>
    <i name="e_wo_entrp">    -34.66478196 </i>
    <i name="e_0_energy">    -34.66220324 </i>
   </energy>
  </scstep>
  <scstep>
   <time name="diag">    0.93    0.93</time>
   <time name="diis">    1.80    1.81</time>
   <time name="orth">    0.06    0.07</time>
   <time name="total">    4.22    4.23</time>
   <energy>
    <i name="e_fr_energy">    -34.65838748 </i>
    <i name="e_wo_entrp">    -34.66225713 </i>
    <i name="e_0_energy">    -34.65967736 </i>
   </energy>
  </scstep>
  <scstep>
   <time name="diag">    0.93    0.93</time>
   <time name="diis">    1.39    1.39</time>
   <time name="orth">    0.06    0.07</time>
   <time name="total">    3.82    3.83</time>
   <energy>
    <i name="e_fr_energy">    -34.65827629 </i>
    <i name="e_wo_entrp">    -34.66214648 </i>
    <i name="e_0_energy">    -34.65956635 </i>
   </energy>
  </scstep>
  <scstep>
   <time name="diag">    0.93    0.93</time>
   <time name="diis">    1.61    1.61</time>
   <time name="orth">    0.07    0.07</time>
   <time name="total">    4.03    4.04</time>
   <energy>
    <i name="e_fr_energy">    -34.65813158 </i>
    <i name="e_wo_entrp">    -34.66200228 </i>
    <i name="e_0_energy">    -34.65942181 </i>
   </energy>
  </scstep>
  <scstep>
   <time name="diag">    0.93    0.93</time>
   <time name="diis">    1.28    1.28</time>
   <time name="orth">    0.07    0.07</time>
   <time name="total">    3.74    3.75</time>
   <energy>
    <i name="e_fr_energy">    -34.65827331 </i>
    <i name="e_wo_entrp">    -34.66214373 </i>
    <i name="e_0_energy">    -34.65956345 </i>
   </energy>
  </scstep>
  <scstep>
   <time name="diag">    0.93    0.93</time>
   <time name="diis">    1.33    1.33</time>
   <time name="orth">    0.07    0.07</time>
   <time name="total">    3.44    3.47</time>
   <energy>
    <i name="alphaZ">     86.55744390 </i>
    <i name="ewald">  -1907.62126990 </i>
    <i name="hartreedc">  -1366.61491881 </i>
    <i name="XCdc">    220.75816183 </i>
    <i name="pawpsdc">   2367.72537531 </i>
    <i name="pawaedc">  -2388.90638564 </i>
    <i name="eentropy">      0.00387025 </i>
    <i name="bandstr">   -521.43330035 </i>
    <i name="atom">   3474.87268008 </i>
    <i name="e_fr_energy">    -34.65834333 </i>
    <i name="e_wo_entrp">    -34.66221359 </i>
    <i name="e_0_energy">    -34.65963342 </i>
   </energy>
  </scstep>
  <structure>
   <crystal>
    <varray name="basis" >
     <v>       4.00810825      -0.07585782       1.54059800 </v>
     <v>       1.41984499       4.74749806       1.78244300 </v>
     <v>       0.01878891      -0.02221396       5.36970700 </v>
    </varray>
    <i name="volume">    102.72589485 </i>
    <varray name="rec_basis" >
     <v>       0.24854754      -0.07389239      -0.00117537 </v>
     <v>       0.00363211       0.20923080       0.00085286 </v>
     <v>      -0.07251529      -0.04825282       0.18628402 </v>
    </varray>
   </crystal>
   <varray name="positions" >
    <v>       0.83971191       0.27813270       0.78314704 </v>
    <v>       0.16028331       0.21681882       0.72184394 </v>
    <v>       0.16028809       0.72186730       0.21685296 </v>
    <v>       0.83971669       0.78318118       0.27815606 </v>
    <v>       0.81596003       0.21139440       0.21142881 </v>
    <v>       0.18403997       0.78860560       0.78857119 </v>
    <v>       0.13692712       0.14970933       0.14974925 </v>
    <v>       0.86307288       0.85029067       0.85025075 </v>
   </varray>
  </structure>
  <varray name="forces" >
   <v>       0.45747838      -0.08479395      -0.00800419 </v>
   <v>      -0.43718133       0.15389259      -0.04396437 </v>
   <v>      -0.45747838       0.08479395       0.00800419 </v>
   <v>       0.43718133      -0.15389259       0.04396437 </v>
   <v>       0.49500855      -0.11367696       0.04542742 </v>
   <v>      -0.49500855       0.11367696      -0.04542742 </v>
   <v>      -0.47524226       0.15588346       0.02129618 </v>
   <v>       0.47524226      -0.15588346      -0.02129618 </v>
  </varray>
  <varray name="stress" >
   <v>     -42.09757226      10.84654476      -1.46857260 </v>
   <v>      10.83787022      -5.43097391      -0.51133768 </v>
   <v>      -1.48061778      -0.50777547      -3.25301180 </v>
  </varray>
  <energy>
   <i name="e_fr_energy">    -34.65834333 </i>
   <i name="e_wo_entrp">    -34.65963342 </i>
   <i name="e_0_energy">      0.00387025 </i>
  </energy>
  <time name="totalsc">   68.34   68.53</time>
 </calculation>
 <calculation>
  <scstep>
   <time name="dav">    5.96    5.96</time>
   <time name="total">    7.41    7.46</time>
   <energy>
    <i name="alphaZ">     86.66754201 </i>
    <i name="ewald">  -1909.49178815 </i>
    <i name="hartreedc">  -1366.12479943 </i>
    <i name="XCdc">    220.83611885 </i>
    <i name="pawpsdc">   2367.71901974 </i>
    <i name="pawaedc">  -2388.90001530 </i>
    <i name="eentropy">      0.00383956 </i>
    <i name="bandstr">   -520.24486795 </i>
    <i name="atom">   3474.87268008 </i>
    <i name="e_fr_energy">    -34.66227060 </i>
    <i name="e_wo_entrp">    -34.66611016 </i>
    <i name="e_0_energy">    -34.66355045 </i>
   </energy>
  </scstep>
  <scstep>
   <time name="diag">    0.93    0.93</time>
   <time name="diis">    2.83    2.83</time>
   <time name="orth">    0.07    0.07</time>
   <time name="total">    5.26    5.27</time>
   <energy>
    <i name="e_fr_energy">    -34.65937387 </i>
    <i name="e_wo_entrp">    -34.66322458 </i>
    <i name="e_0_energy">    -34.66065744 </i>
   </energy>
  </scstep>
  <scstep>
   <time name="diag">    0.93    0.94</time>
   <time name="diis">    2.28    2.28</time>
   <time name="orth">    0.07    0.07</time>
   <time name="total">    4.71    4.72</time>
   <energy>
    <i name="e_fr_energy">    -34.65896967 </i>
    <i name="e_wo_entrp">    -34.66282016 </i>
    <i name="e_0_energy">    -34.66025317 </i>
   </energy>
  </scstep>
  <scstep>
   <time name="diag">    0.93    0.93</time>
   <time name="diis">    1.79    1.79</time>
   <time name="orth">    0.07    0.07</time>
   <time name="total">    4.21    4.24</time>
   <energy>
    <i name="e_fr_energy">    -34.65920622 </i>
    <i name="e_wo_entrp">    -34.66306229 </i>
    <i name="e_0_energy">    -34.66049158 </i>
   </energy>
  </scstep>
  <scstep>
   <time name="diag">    0.93    0.93</time>
   <time name="diis">    1.69    1.69</time>
   <time name="orth">    0.07    0.07</time>
   <time name="total">    4.11    4.13</time>
   <energy>
    <i name="e_fr_energy">    -34.66036333 </i>
    <i name="e_wo_entrp">    -34.66421746 </i>
    <i name="e_0_energy">    -34.66164804 </i>
   </energy>
  </scstep>
  <scstep>
   <time name="diag">    0.94    0.94</time>
   <time name="diis">    1.27    1.27</time>
   <time name="orth">    0.07    0.07</time>
   <time name="total">    3.71    3.73</time>
   <energy>
    <i name="e_fr_energy">    -34.66125060 </i>
    <i name="e_wo_entrp">    -34.66510404 </i>
    <i name="e_0_energy">    -34.66253508 </i>
   </energy>
  </scstep>
  <scstep>
   <time name="diag">    0.93    0.93</time>
   <time name="diis">    1.25    1.25</time>
   <time name="orth">    0.07    0.07</time>
   <time name="total">    3.67    3.68</time>
   <energy>
    <i name="e_fr_energy">    -34.66141062 </i>
    <i name="e_wo_entrp">    -34.66526409 </i>
    <i name="e_0_energy">    -34.66269511 </i>
   </energy>
  </scstep>
  <scstep>
   <time name="diag">    0.93    0.94</time>
   <time name="diis">    1.21    1.21</time>
   <time name="orth">    0.07    0.07</time>
   <time name="total">    3.50    3.53</time>
   <energy>
    <i name="alphaZ">     86.66754201 </i>
    <i name="ewald">  -1909.49178815 </i>
    <i name="hartreedc">  -1365.10594560 </i>
    <i name="XCdc">    220.77124037 </i>
    <i name="pawpsdc">   2368.28618690 </i>
    <i name="pawaedc">  -2389.46963856 </i>
    <i name="eentropy">      0.00385370 </i>
    <i name="bandstr">   -521.19547113 </i>
    <i name="atom">   3474.87268008 </i>
    <i name="e_fr_energy">    -34.66134037 </i>
    <i name="e_wo_entrp">    -34.66519407 </i>
    <i name="e_0_energy">    -34.66262494 </i>
   </energy>
  </scstep>
  <structure>
   <crystal>
    <varray name="basis" >
     <v>       4.00511993      -0.07581798       1.54059800 </v>
     <v>       1.41878640       4.74500480       1.78244300 </v>
     <v>       0.01877490      -0.02220229       5.36970700 </v>
    </varray>
    <i name="volume">    102.59539701 </i>
    <varray name="rec_basis" >
     <v>       0.24873299      -0.07393121      -0.00117537 </v>
     <v>       0.00363482       0.20934074       0.00085286 </v>
     <v>      -0.07256940      -0.04827817       0.18628402 </v>
    </varray>
   </crystal>
   <varray name="positions" >
    <v>       0.83965079       0.27823840       0.78306309 </v>
    <v>       0.16034464       0.21690430       0.72173930 </v>
    <v>       0.16034921       0.72176160       0.21693691 </v>
    <v>       0.83965536       0.78309570       0.27826070 </v>
    <v>       0.81588434       0.21147228       0.21150513 </v>
    <v>       0.18411566       0.78852772       0.78849487 </v>
    <v>       0.13696891       0.14976045       0.14979858 </v>
    <v>       0.86303109       0.85023955       0.85020142 </v>
   </varray>
  </structure>
  <varray name="forces" >
   <v>       0.42923120      -0.07816898      -0.00905340 </v>
   <v>      -0.40928075       0.14610264      -0.04206584 </v>
   <v>      -0.42923120       0.07816898       0.00905340 </v>
   <v>       0.40928075      -0.14610264       0.04206584 </v>
   <v>       0.46691748      -0.10759511       0.04240143 </v>
   <v>      -0.46691748       0.10759511      -0.04240143 </v>
   <v>      -0.44740769       0.14632503       0.01942362 </v>
   <v>       0.44740769      -0.14632503      -0.01942362 </v>
  </varray>
  <varray name="stress" >
   <v>     -39.98360346      10.43728907      -1.33836701 </v>
   <v>      10.42809268      -4.90849393      -0.51571601 </v>
   <v>      -1.35114353      -0.51193669      -2.78512057 </v>
  </varray>
  <energy>
   <i name="e_fr_energy">    -34.66134037 </i>
   <i name="e_wo_entrp">    -34.66262494 </i>
   <i name="e_0_energy">      0.00385370 </i>
  </energy>
  <time name="totalsc">   44.58   44.80</time>
 </calculation>
 <calculation>
  <scstep>
   <time name="dav">    5.01    5.01</time>
   <time name="total">    6.44    6.45</time>
   <energy>
    <i name="alphaZ">     86.99911240 </i>
    <i name="ewald">  -1915.09759716 </i>
    <i name="hartreedc">  -1363.64996337 </i>
    <i name="XCdc">    221.00580434 </i>
    <i name="pawpsdc">   2368.28435600 </i>
    <i name="pawaedc">  -2389.46776680 </i>
    <i name="eentropy">      0.00376537 </i>
    <i name="bandstr">   -517.62599785 </i>
    <i name="atom">   3474.87268008 </i>
    <i name="e_fr_energy">    -34.67560697 </i>
    <i name="e_wo_entrp">    -34.67937235 </i>
    <i name="e_0_energy">    -34.67686210 </i>
   </energy>
  </scstep>
  <scstep>
   <time name="diag">    0.93    0.93</time>
   <time name="diis">    2.84    2.84</time>
   <time name="orth">    0.07    0.07</time>
   <time name="total">    5.27    5.29</time>
   <energy>
    <i name="e_fr_energy">    -34.66481716 </i>
    <i name="e_wo_entrp">    -34.66861638 </i>
    <i name="e_0_energy">    -34.66608357 </i>
   </energy>
  </scstep>
  <scstep>
   <time name="diag">    0.93    0.93</time>
   <time name="diis">    2.82    2.82</time>
   <time name="orth">    0.07    0.07</time>
   <time name="total">    5.25    5.26</time>
   <energy>
    <i name="e_fr_energy">    -34.66333341 </i>
    <i name="e_wo_entrp">    -34.66713207 </i>
    <i name="e_0_energy">    -34.66459963 </i>
   </energy>
  </scstep>
  <scstep>
   <time name="diag">    0.93    0.93</time>
   <time name="diis">    1.83    1.83</time>
   <time name="orth">    0.07    0.07</time>
   <time name="total">    4.26    4.27</time>
   <energy>
    <i name="e_fr_energy">    -34.66402169 </i>
    <i name="e_wo_entrp">    -34.66783739 </i>
    <i name="e_0_energy">    -34.66529359 </i>
   </energy>
  </scstep>
  <scstep>
   <time name="diag">    0.93    0.93</time>
   <time name="diis">    1.72    1.72</time>
   <time name="orth">    0.07    0.07</time>
   <time name="total">    4.15    4.16</time>
   <energy>
    <i name="e_fr_energy">    -34.66755280 </i>
    <i name="e_wo_entrp">    -34.67136232 </i>
    <i name="e_0_energy">    -34.66882264 </i>
   </energy>
  </scstep>
  <scstep>
   <time name="diag">    0.93    0.93</time>
   <time name="diis">    1.70    1.70</time>
   <time name="orth">    0.07    0.07</time>
   <time name="total">    4.13    4.36</time>
   <energy>
    <i name="e_fr_energy">    -34.67015690 </i>
    <i name="e_wo_entrp">    -34.67396461 </i>
    <i name="e_0_energy">    -34.67142614 </i>
   </energy>
  </scstep>
  <scstep>
   <time name="diag">    0.93    0.93</time>
   <time name="diis">    1.29    1.30</time>
   <time name="orth">    0.07    0.07</time>
   <time name="total">    3.73    3.74</time>
   <energy>
    <i name="e_fr_energy">    -34.67033601 </i>
    <i name="e_wo_entrp">    -34.67414439 </i>
    <i name="e_0_energy">    -34.67160547 </i>
   </energy>
  </scstep>
  <scstep>
   <time name="diag">    0.93    0.93</time>
   <time name="diis">    1.61    1.61</time>
   <time name="orth">    0.07    0.07</time>
   <time name="total">    4.10    4.11</time>
   <energy>
    <i name="e_fr_energy">    -34.67018435 </i>
    <i name="e_wo_entrp">    -34.67399372 </i>
    <i name="e_0_energy">    -34.67145414 </i>
   </energy>
  </scstep>
  <scstep>
   <time name="diag">    0.93    0.93</time>
   <time name="diis">    1.19    1.19</time>
   <time name="orth">    0.07    0.07</time>
   <time name="total">    3.62    3.63</time>
   <energy>
    <i name="e_fr_energy">    -34.67044027 </i>
    <i name="e_wo_entrp">    -34.67424923 </i>
    <i name="e_0_energy">    -34.67170992 </i>
   </energy>
  </scstep>
  <scstep>
   <time name="diag">    0.93    0.93</time>
   <time name="diis">    1.19    1.19</time>
   <time name="orth">    0.07    0.07</time>
   <time name="total">    3.62    3.63</time>
   <energy>
    <i name="e_fr_energy">    -34.67062838 </i>
    <i name="e_wo_entrp">    -34.67443694 </i>
    <i name="e_0_energy">    -34.67189790 </i>
   </energy>
  </scstep>
  <scstep>
   <time name="diag">    0.92    0.92</time>
   <time name="diis">    1.29    1.30</time>
   <time name="orth">    0.07    0.07</time>
   <time name="total">    3.47    3.48</time>
   <energy>
    <i name="alphaZ">     86.99911240 </i>
    <i name="ewald">  -1915.09759716 </i>
    <i name="hartreedc">  -1360.61623384 </i>
    <i name="XCdc">    220.81263061 </i>
    <i name="pawpsdc">   2370.01686251 </i>
    <i name="pawaedc">  -2391.20743185 </i>
    <i name="eentropy">      0.00380836 </i>
    <i name="bandstr">   -520.45450935 </i>
    <i name="atom">   3474.87268008 </i>
    <i name="e_fr_energy">    -34.67067824 </i>
    <i name="e_wo_entrp">    -34.67448660 </i>
    <i name="e_0_energy">    -34.67194769 </i>
   </energy>
  </scstep>
  <structure>
   <crystal>
    <varray name="basis" >
     <v>       3.99615498      -0.07569846       1.54059800 </v>
     <v>       1.41561063       4.73752502       1.78244300 </v>
     <v>       0.01873287      -0.02216729       5.36970700 </v>
    </varray>
    <i name="volume">    102.20438617 </i>
    <varray name="rec_basis" >
     <v>       0.24929100      -0.07404794      -0.00117537 </v>
     <v>       0.00364297       0.20967125       0.00085286 </v>
     <v>      -0.07273220      -0.04835440       0.18628402 </v>
    </varray>
   </crystal>
   <varray name="positions" >
    <v>       0.83946731       0.27855568       0.78281121 </v>
    <v>       0.16052876       0.21716088       0.72142528 </v>
    <v>       0.16053269       0.72144432       0.21718879 </v>
    <v>       0.83947124       0.78283912       0.27857472 </v>
    <v>       0.81565711       0.21170605       0.21173412 </v>
    <v>       0.18434289       0.78829395       0.78826588 </v>
    <v>       0.13709438       0.14991390       0.14994653 </v>
    <v>       0.86290562       0.85008610       0.85005347 </v>
   </varray>
  </structure>
  <varray name="forces" >
   <v>       0.34592858      -0.06208879      -0.00936577 </v>
   <v>      -0.32897529       0.11985508      -0.03417127 </v>
   <v>      -0.34592858       0.06208879       0.00936577 </v>
   <v>       0.32897529      -0.11985508       0.03417127 </v>
   <v>       0.38348322      -0.08886446       0.03429459 </v>
   <v>      -0.38348322       0.08886446      -0.03429459 </v>
   <v>      -0.36420112       0.12430440       0.02296163 </v>
   <v>       0.36420112      -0.12430440      -0.02296163 </v>
  </varray>
  <varray name="stress" >
   <v>     -32.73411434       8.98308562      -0.96643604 </v>
   <v>       8.97222229      -3.25860346      -0.78372533 </v>
   <v>      -0.98155225      -0.77925096      -1.53014412 </v>
  </varray>
  <energy>
   <i name="e_fr_energy">    -34.67067824 </i>
   <i name="e_wo_entrp">    -34.67194769 </i>
   <i name="e_0_energy">      0.00380836 </i>
  </energy>
  <time name="totalsc">   55.90   56.27</time>
 </calculation>
 <calculation>
  <scstep>
   <time name="dav">    5.02    5.02</time>
   <time name="total">    6.47    6.48</time>
   <energy>
    <i name="alphaZ">     87.66804548 </i>
    <i name="ewald">  -1926.28616628 </i>
    <i name="hartreedc">  -1357.74205061 </i>
    <i name="XCdc">    221.28330981 </i>
    <i name="pawpsdc">   2370.01420624 </i>
    <i name="pawaedc">  -2391.20478997 </i>
    <i name="eentropy">      0.00364391 </i>
    <i name="bandstr">   -513.31511761 </i>
    <i name="atom">   3474.87268008 </i>
    <i name="e_fr_energy">    -34.70623895 </i>
    <i name="e_wo_entrp">    -34.70988286 </i>
    <i name="e_0_energy">    -34.70745358 </i>
   </energy>
  </scstep>
  <scstep>
   <time name="diag">    0.93    0.93</time>
   <time name="diis">    2.82    2.82</time>
   <time name="orth">    0.07    0.07</time>
   <time name="total">    5.26    5.28</time>
   <energy>
    <i name="e_fr_energy">    -34.67803242 </i>
    <i name="e_wo_entrp">    -34.68174562 </i>
    <i name="e_0_energy">    -34.67927015 </i>
   </energy>
  </scstep>
  <scstep>
   <time name="diag">    0.93    0.93</time>
   <time name="diis">    2.83    2.83</time>
   <time name="orth">    0.06    0.06</time>
   <time name="total">    5.27    5.27</time>
   <energy>
    <i name="e_fr_energy">    -34.67415271 </i>
    <i name="e_wo_entrp">    -34.67786433 </i>
    <i name="e_0_energy">    -34.67538991 </i>
   </energy>
  </scstep>
  <scstep>
   <time name="diag">    0.92    0.92</time>
   <time name="diis">    2.33    2.33</time>
   <time name="orth">    0.07    0.07</time>
   <time name="total">    4.76    4.77</time>
   <energy>
    <i name="e_fr_energy">    -34.67535763 </i>
    <i name="e_wo_entrp">    -34.67910490 </i>
    <i name="e_0_energy">    -34.67660672 </i>
   </energy>
  </scstep>
  <scstep>
   <time name="diag">    0.93    0.93</time>
   <time name="diis">    1.82    1.83</time>
   <time name="orth">    0.07    0.07</time>
   <time name="total">    4.26    4.27</time>
   <energy>
    <i name="e_fr_energy">    -34.68254722 </i>
    <i name="e_wo_entrp">    -34.68628140 </i>
    <i name="e_0_energy">    -34.68379195 </i>
   </energy>
  </scstep>
  <scstep>
   <time name="diag">    0.94    0.94</time>
   <time name="diis">    1.78    1.78</time>
   <time name="orth">    0.07    0.07</time>
   <time name="total">    4.28    4.30</time>
   <energy>
    <i name="e_fr_energy">    -34.68755280 </i>
    <i name="e_wo_entrp">    -34.69128394 </i>
    <i name="e_0_energy">    -34.68879652 </i>
   </energy>
  </scstep>
  <scstep>
   <time name="diag">    0.93    0.93</time>
   <time name="diis">    1.77    1.77</time>
   <time name="orth">    0.07    0.07</time>
   <time name="total">    4.21    4.22</time>
   <energy>
    <i name="e_fr_energy">    -34.68790124 </i>
    <i name="e_wo_entrp">    -34.69163377 </i>
    <i name="e_0_energy">    -34.68914542 </i>
   </energy>
  </scstep>
  <scstep>
   <time name="diag">    0.93    0.93</time>
   <time name="diis">    1.76    1.76</time>
   <time name="orth">    0.07    0.07</time>
   <time name="total">    3.89    3.90</time>
   <energy>
    <i name="alphaZ">     87.66804548 </i>
    <i name="ewald">  -1926.28616628 </i>
    <i name="hartreedc">  -1351.58736248 </i>
    <i name="XCdc">    220.89124092 </i>
    <i name="pawpsdc">   2373.41715784 </i>
    <i name="pawaedc">  -2394.62091301 </i>
    <i name="eentropy">      0.00373377 </i>
    <i name="bandstr">   -519.04636790 </i>
    <i name="atom">   3474.87268008 </i>
    <i name="e_fr_energy">    -34.68795158 </i>
    <i name="e_wo_entrp">    -34.69168536 </i>
    <i name="e_0_energy">    -34.68919618 </i>
   </energy>
  </scstep>
  <structure>
   <crystal>
    <varray name="basis" >
     <v>       3.97822507      -0.07545943       1.54059800 </v>
     <v>       1.40925908       4.72256546       1.78244300 </v>
     <v>       0.01864882      -0.02209730       5.36970700 </v>
    </varray>
    <i name="volume">    101.42453652 </i>
    <varray name="rec_basis" >
     <v>       0.25041455      -0.07428250      -0.00117537 </v>
     <v>       0.00365939       0.21033542       0.00085286 </v>
     <v>      -0.07306000      -0.04850757       0.18628402 </v>
    </varray>
   </crystal>
   <varray name="positions" >
    <v>       0.83909966       0.27919123       0.78230732 </v>
    <v>       0.16089796       0.21767487       0.72079671 </v>
    <v>       0.16090034       0.72080877       0.21769268 </v>
    <v>       0.83910204       0.78232513       0.27920329 </v>
    <v>       0.81520174       0.21217432       0.21219210 </v>
    <v>       0.18479826       0.78782568       0.78780790 </v>
    <v>       0.13734597       0.15022129       0.15024208 </v>
    <v>       0.86265403       0.84977871       0.84975792 </v>
   </varray>
  </structure>
  <varray name="forces" >
   <v>       0.17694232      -0.02159806      -0.01563597 </v>
   <v>      -0.16180720       0.07323801      -0.02340709 </v>
   <v>      -0.17694232       0.02159806       0.01563597 </v>
   <v>       0.16180720      -0.07323801       0.02340709 </v>
   <v>       0.20560074      -0.04660931       0.02000241 </v>
   <v>      -0.20560074       0.04660931      -0.02000241 </v>
   <v>      -0.18455299       0.07483690       0.02810862 </v>
   <v>       0.18455299      -0.07483690      -0.02810862 </v>
  </varray>
  <varray name="stress" >
   <v>     -17.89590056       5.96853966      -0.01167926 </v>
   <v>       5.95389829      -0.24690268      -1.08507492 </v>
   <v>      -0.03211712      -1.07901727       0.90275922 </v>
  </varray>
  <energy>
   <i name="e_fr_energy">    -34.68795158 </i>
   <i name="e_wo_entrp">    -34.68919618 </i>
   <i name="e_0_energy">      0.00373377 </i>
  </energy>
  <time name="totalsc">   46.43   46.53</time>
 </calculation>
 <calculation>
  <scstep>
   <time name="dav">    5.02    5.02</time>
   <time name="total">    6.48    6.49</time>
   <energy>
    <i name="alphaZ">     89.02950862 </i>
    <i name="ewald">  -1948.57081600 </i>
    <i name="hartreedc">  -1346.03984137 </i>
    <i name="XCdc">    221.84193255 </i>
    <i name="pawpsdc">   2373.48005782 </i>
    <i name="pawaedc">  -2394.68420605 </i>
    <i name="eentropy">      0.00342770 </i>
    <i name="bandstr">   -504.72044748 </i>
    <i name="atom">   3474.87268008 </i>
    <i name="e_fr_energy">    -34.78770413 </i>
    <i name="e_wo_entrp">    -34.79113184 </i>
    <i name="e_0_energy">    -34.78884670 </i>
   </energy>
  </scstep>
  <scstep>
   <time name="diag">    0.93    0.93</time>
   <time name="diis">    2.84    2.84</time>
   <time name="orth">    0.06    0.06</time>
   <time name="total">    5.28    5.29</time>
   <energy>
    <i name="e_fr_energy">    -34.70548658 </i>
    <i name="e_wo_entrp">    -34.70905493 </i>
    <i name="e_0_energy">    -34.70667603 </i>
   </energy>
  </scstep>
  <scstep>
   <time name="diag">    0.93    0.93</time>
   <time name="diis">    2.83    2.83</time>
   <time name="orth">    0.07    0.07</time>
   <time name="total">    5.29    5.31</time>
   <energy>
    <i name="e_fr_energy">    -34.69437686 </i>
    <i name="e_wo_entrp">    -34.69794123 </i>
    <i name="e_0_energy">    -34.69556498 </i>
   </energy>
  </scstep>
  <scstep>
   <time name="diag">    0.93    0.93</time>
   <time name="diis">    2.83    2.83</time>
   <time name="orth">    0.07    0.07</time>
   <time name="total">    5.28    5.29</time>
   <energy>
    <i name="e_fr_energy">    -34.69628844 </i>
    <i name="e_wo_entrp">    -34.69992743 </i>
    <i name="e_0_energy">    -34.69750144 </i>
   </energy>
  </scstep>
  <scstep>
   <time name="diag">    0.93    0.93</time>
   <time name="diis">    2.81    2.82</time>
   <time name="orth">    0.06    0.07</time>
   <time name="total">    5.26    5.29</time>
   <energy>
    <i name="e_fr_energy">    -34.71080988 </i>
    <i name="e_wo_entrp">    -34.71442068 </i>
    <i name="e_0_energy">    -34.71201348 </i>
   </energy>
  </scstep>
  <scstep>
   <time name="diag">    0.93    0.93</time>
   <time name="diis">    1.79    1.80</time>
   <time name="orth">    0.07    0.07</time>
   <time name="total">    4.25    4.27</time>
   <energy>
    <i name="e_fr_energy">    -34.72021464 </i>
    <i name="e_wo_entrp">    -34.72382106 </i>
    <i name="e_0_energy">    -34.72141678 </i>
   </energy>
  </scstep>
  <scstep>
   <time name="diag">    0.93    0.94</time>
   <time name="diis">    1.79    1.80</time>
   <time name="orth">    0.07    0.07</time>
   <time name="total">    4.25    4.27</time>
   <energy>
    <i name="e_fr_energy">    -34.72101353 </i>
    <i name="e_wo_entrp">    -34.72462247 </i>
    <i name="e_0_energy">    -34.72221651 </i>
   </energy>
  </scstep>
  <scstep>
   <time name="diag">    0.94    0.94</time>
   <time name="diis">    1.79    1.80</time>
   <time name="orth">    0.07    0.07</time>
   <time name="total">    4.26    4.26</time>
   <energy>
    <i name="e_fr_energy">    -34.72155427 </i>
    <i name="e_wo_entrp">    -34.72516481 </i>
    <i name="e_0_energy">    -34.72275778 </i>
   </energy>
  </scstep>
  <scstep>
   <time name="diag">    0.97    0.97</time>
   <time name="diis">    1.30    1.30</time>
   <time name="orth">    0.07    0.07</time>
   <time name="total">    3.79    3.80</time>
   <energy>
    <i name="e_fr_energy">    -34.72214135 </i>
    <i name="e_wo_entrp">    -34.72575106 </i>
    <i name="e_0_energy">    -34.72334459 </i>
   </energy>
  </scstep>
  <scstep>
   <time name="diag">    0.94    0.94</time>
   <time name="diis">    1.79    1.79</time>
   <time name="orth">    0.06    0.06</time>
   <time name="total">    4.21    4.23</time>
   <energy>
    <i name="e_fr_energy">    -34.72254874 </i>
    <i name="e_wo_entrp">    -34.72615783 </i>
    <i name="e_0_energy">    -34.72375177 </i>
   </energy>
  </scstep>
  <scstep>
   <time name="diag">    0.89    0.89</time>
   <time name="diis">    1.22    1.22</time>
   <time name="orth">    0.07    0.07</time>
   <time name="total">    3.27    3.28</time>
   <energy>
    <i name="alphaZ">     89.02950862 </i>
    <i name="ewald">  -1948.57081600 </i>
    <i name="hartreedc">  -1333.85260453 </i>
    <i name="XCdc">    221.06574951 </i>
    <i name="pawpsdc">   2380.89420846 </i>
    <i name="pawaedc">  -2402.12959084 </i>
    <i name="eentropy">      0.00360926 </i>
[...]
       <r>     0.5277     3.9499    25.7970 </r>
       <r>     0.6627     4.4558    26.3986 </r>
       <r>     0.7977     4.7089    27.0343 </r>
       <r>     0.9327     5.6974    27.8035 </r>
       <r>     1.0677     1.5634    28.0146 </r>
       <r>     1.2027    -0.1060    28.0003 </r>
       <r>     1.3377    -0.0019    28.0000 </r>
       <r>     1.4727    -0.0000    28.0000 </r>
       <r>     1.6077    -0.0000    28.0000 </r>
       <r>     1.7427     0.0000    28.0000 </r>
       <r>     1.8777     0.0000    28.0000 </r>
       <r>     2.0127     0.0000    28.0000 </r>
       <r>     2.1477     0.0000    28.0000 </r>
       <r>     2.2827     0.0000    28.0000 </r>
       <r>     2.4177     0.0000    28.0000 </r>
       <r>     2.5527     0.0000    28.0000 </r>
       <r>     2.6877     0.0000    28.0000 </r>
       <r>     2.8228     0.0000    28.0000 </r>
       <r>     2.9578     0.0000    28.0000 </r>
       <r>     3.0928     0.0000    28.0000 </r>
       <r>     3.2278     0.0000    28.0000 </r>
       <r>     3.3628     0.0000    28.0000 </r>
       <r>     3.4978     0.0000    28.0000 </r>
       <r>     3.6328     0.0000    28.0000 </r>
       <r>     3.7678     0.0000    28.0000 </r>
       <r>     3.9028     0.0000    28.0000 </r>
       <r>     4.0378     0.0000    28.0000 </r>
       <r>     4.1728     0.0000    28.0000 </r>
       <r>     4.3078     0.0000    28.0000 </r>
       <r>     4.4428     0.0000    28.0000 </r>
       <r>     4.5778     0.0000    28.0000 </r>
       <r>     4.7128     0.0000    28.0000 </r>
       <r>     4.8478     0.0000    28.0000 </r>
       <r>     4.9828     0.0000    28.0000 </r>
       <r>     5.1178    -0.0000    28.0000 </r>
       <r>     5.2528    -0.0000    28.0000 </r>
       <r>     5.3878    -0.0000    28.0000 </r>
       <r>     5.5228    -0.0000    28.0000 </r>
       <r>     5.6578    -0.0000    28.0000 </r>
       <r>     5.7929    -0.0005    27.9999 </r>
       <r>     5.9279    -0.0007    27.9998 </r>
       <r>     6.0629     0.1062    28.0142 </r>
       <r>     6.1979     0.3320    28.0590 </r>
       <r>     6.3329     0.2017    28.0862 </r>
       <r>     6.4679     0.4151    28.1423 </r>
       <r>     6.6029     0.4425    28.2020 </r>
       <r>     6.7379     0.6957    28.2959 </r>
       <r>     6.8729     0.7102    28.3918 </r>
       <r>     7.0079     0.5021    28.4596 </r>
       <r>     7.1429     0.4463    28.5199 </r>
       <r>     7.2779     0.4971    28.5870 </r>
       <r>     7.4129     0.3683    28.6367 </r>
       <r>     7.5479     0.5506    28.7110 </r>
       <r>     7.6829     1.1769    28.8699 </r>
       <r>     7.8179     1.1770    29.0288 </r>
       <r>     7.9529     1.8349    29.2765 </r>
       <r>     8.0879     1.8069    29.5204 </r>
       <r>     8.2229     2.0390    29.7957 </r>
       <r>     8.3579     1.9373    30.0573 </r>
       <r>     8.4929     1.5955    30.2727 </r>
       <r>     8.6279     1.8707    30.5252 </r>
       <r>     8.7630     1.6560    30.7488 </r>
       <r>     8.8980     1.3651    30.9331 </r>
       <r>     9.0330     1.6334    31.1536 </r>
       <r>     9.1680     2.1136    31.4389 </r>
       <r>     9.3030     2.1865    31.7341 </r>
       <r>     9.4380     1.5883    31.9485 </r>
       <r>     9.5730     0.4018    32.0028 </r>
       <r>     9.7080    -0.0195    32.0001 </r>
       <r>     9.8430    -0.0010    32.0000 </r>
       <r>     9.9780    -0.0000    32.0000 </r>
       <r>    10.1130    -0.0000    32.0000 </r>
       <r>    10.2480     0.0000    32.0000 </r>
       <r>    10.3830     0.0000    32.0000 </r>
       <r>    10.5180     0.0000    32.0000 </r>
       <r>    10.6530     0.0000    32.0000 </r>
       <r>    10.7880     0.0000    32.0000 </r>
       <r>    10.9230     0.0000    32.0000 </r>
       <r>    11.0580     0.0000    32.0000 </r>
       <r>    11.1930     0.0000    32.0000 </r>
       <r>    11.3280     0.0000    32.0000 </r>
      </set>
      <set comment="spin 2">
       <r>   -29.1733     0.0000     0.0000 </r>
       <r>   -29.0383     0.0000     0.0000 </r>
       <r>   -28.9033     0.0000     0.0000 </r>
       <r>   -28.7683     0.0000     0.0000 </r>
       <r>   -28.6333     0.0000     0.0000 </r>
       <r>   -28.4983     0.0000     0.0000 </r>
       <r>   -28.3633     0.0000     0.0000 </r>
       <r>   -28.2283    -0.0000    -0.0000 </r>
       <r>   -28.0933    -0.0000    -0.0000 </r>
       <r>   -27.9583    -0.0000    -0.0000 </r>
       <r>   -27.8233    -0.0000    -0.0000 </r>
       <r>   -27.6883    -0.0000    -0.0000 </r>
       <r>   -27.5533    -0.0032    -0.0004 </r>
       <r>   -27.4183    -0.1757    -0.0242 </r>
       <r>   -27.2833     2.9585     0.3752 </r>
       <r>   -27.1483     4.8249     1.0266 </r>
       <r>   -27.0133    -0.1868     1.0014 </r>
       <r>   -26.8783    -0.0109     0.9999 </r>
       <r>   -26.7433    -0.1152     0.9844 </r>
       <r>   -26.6083     1.3248     1.1633 </r>
       <r>   -26.4732     7.3409     2.1543 </r>
       <r>   -26.3382     6.1330     2.9823 </r>
       <r>   -26.2032     0.1706     3.0053 </r>
       <r>   -26.0682    -0.0408     2.9998 </r>
       <r>   -25.9332    -0.1747     2.9762 </r>
       <r>   -25.7982     2.5440     3.3197 </r>
       <r>   -25.6632     5.2543     4.0290 </r>
       <r>   -25.5282    -0.2036     4.0015 </r>
       <r>   -25.3932    -0.0114     4.0000 </r>
       <r>   -25.2582    -0.0000     4.0000 </r>
       <r>   -25.1232    -0.0000     4.0000 </r>
       <r>   -24.9882     0.0000     4.0000 </r>
       <r>   -24.8532     0.0000     4.0000 </r>
       <r>   -24.7182     0.0000     4.0000 </r>
       <r>   -24.5832     0.0000     4.0000 </r>
       <r>   -24.4482     0.0000     4.0000 </r>
       <r>   -24.3132     0.0000     4.0000 </r>
       <r>   -24.1782     0.0000     4.0000 </r>
       <r>   -24.0432     0.0000     4.0000 </r>
       <r>   -23.9082     0.0000     4.0000 </r>
       <r>   -23.7732     0.0000     4.0000 </r>
       <r>   -23.6381     0.0000     4.0000 </r>
       <r>   -23.5031     0.0000     4.0000 </r>
       <r>   -23.3681     0.0000     4.0000 </r>
       <r>   -23.2331     0.0000     4.0000 </r>
       <r>   -23.0981     0.0000     4.0000 </r>
       <r>   -22.9631     0.0000     4.0000 </r>
       <r>   -22.8281     0.0000     4.0000 </r>
       <r>   -22.6931     0.0000     4.0000 </r>
       <r>   -22.5581     0.0000     4.0000 </r>
       <r>   -22.4231     0.0000     4.0000 </r>
       <r>   -22.2881     0.0000     4.0000 </r>
       <r>   -22.1531     0.0000     4.0000 </r>
       <r>   -22.0181     0.0000     4.0000 </r>
       <r>   -21.8831     0.0000     4.0000 </r>
       <r>   -21.7481     0.0000     4.0000 </r>
       <r>   -21.6131     0.0000     4.0000 </r>
       <r>   -21.4781     0.0000     4.0000 </r>
       <r>   -21.3431     0.0000     4.0000 </r>
       <r>   -21.2081     0.0000     4.0000 </r>
       <r>   -21.0731     0.0000     4.0000 </r>
       <r>   -20.9381     0.0000     4.0000 </r>
       <r>   -20.8031     0.0000     4.0000 </r>
       <r>   -20.6680     0.0000     4.0000 </r>
       <r>   -20.5330     0.0000     4.0000 </r>
       <r>   -20.3980     0.0000     4.0000 </r>
       <r>   -20.2630     0.0000     4.0000 </r>
       <r>   -20.1280     0.0000     4.0000 </r>
       <r>   -19.9930     0.0000     4.0000 </r>
       <r>   -19.8580     0.0000     4.0000 </r>
       <r>   -19.7230     0.0000     4.0000 </r>
       <r>   -19.5880     0.0000     4.0000 </r>
       <r>   -19.4530     0.0000     4.0000 </r>
       <r>   -19.3180     0.0000     4.0000 </r>
       <r>   -19.1830     0.0000     4.0000 </r>
       <r>   -19.0480     0.0000     4.0000 </r>
       <r>   -18.9130     0.0000     4.0000 </r>
       <r>   -18.7780     0.0000     4.0000 </r>
       <r>   -18.6430     0.0000     4.0000 </r>
       <r>   -18.5080     0.0000     4.0000 </r>
       <r>   -18.3730     0.0000     4.0000 </r>
       <r>   -18.2380     0.0000     4.0000 </r>
       <r>   -18.1030     0.0000     4.0000 </r>
       <r>   -17.9680     0.0000     4.0000 </r>
       <r>   -17.8330     0.0000     4.0000 </r>
       <r>   -17.6979     0.0000     4.0000 </r>
       <r>   -17.5629     0.0000     4.0000 </r>
       <r>   -17.4279     0.0000     4.0000 </r>
       <r>   -17.2929     0.0000     4.0000 </r>
       <r>   -17.1579     0.0000     4.0000 </r>
       <r>   -17.0229     0.0000     4.0000 </r>
       <r>   -16.8879     0.0000     4.0000 </r>
       <r>   -16.7529     0.0000     4.0000 </r>
       <r>   -16.6179     0.0000     4.0000 </r>
       <r>   -16.4829     0.0000     4.0000 </r>
       <r>   -16.3479    -0.0000     4.0000 </r>
       <r>   -16.2129    -0.0000     4.0000 </r>
       <r>   -16.0779    -0.0000     4.0000 </r>
       <r>   -15.9429    -0.0000     4.0000 </r>
       <r>   -15.8079    -0.0000     4.0000 </r>
       <r>   -15.6729    -0.0046     3.9994 </r>
       <r>   -15.5379     0.0225     4.0024 </r>
       <r>   -15.4029     0.6287     4.0873 </r>
       <r>   -15.2679     1.7958     4.3297 </r>
       <r>   -15.1329     1.9860     4.5979 </r>
       <r>   -14.9979     2.0761     4.8781 </r>
       <r>   -14.8629     0.9657     5.0085 </r>
       <r>   -14.7278    -0.0620     5.0001 </r>
       <r>   -14.5928    -0.0017     4.9999 </r>
       <r>   -14.4578    -0.0425     4.9942 </r>
       <r>   -14.3228     0.4141     5.0501 </r>
       <r>   -14.1878     5.2575     5.7599 </r>
       <r>   -14.0528     4.8771     6.4183 </r>
       <r>   -13.9178     3.6518     6.9113 </r>
       <r>   -13.7828     0.7185     7.0083 </r>
       <r>   -13.6478    -0.0613     7.0000 </r>
       <r>   -13.5128    -0.0026     6.9997 </r>
       <r>   -13.3778    -0.0365     6.9948 </r>
       <r>   -13.2428     0.7258     7.0928 </r>
       <r>   -13.1078     4.7724     7.7370 </r>
       <r>   -12.9728     2.0823     8.0182 </r>
       <r>   -12.8378    -0.1325     8.0003 </r>
       <r>   -12.7028    -0.0022     8.0000 </r>
       <r>   -12.5678    -0.0000     8.0000 </r>
       <r>   -12.4328    -0.0000     8.0000 </r>
       <r>   -12.2978     0.0000     8.0000 </r>
       <r>   -12.1628     0.0000     8.0000 </r>
       <r>   -12.0278     0.0000     8.0000 </r>
       <r>   -11.8928     0.0000     8.0000 </r>
       <r>   -11.7577     0.0000     8.0000 </r>
       <r>   -11.6227     0.0000     8.0000 </r>
       <r>   -11.4877     0.0000     8.0000 </r>
       <r>   -11.3527     0.0000     8.0000 </r>
       <r>   -11.2177     0.0000     8.0000 </r>
       <r>   -11.0827     0.0000     8.0000 </r>
       <r>   -10.9477     0.0000     8.0000 </r>
       <r>   -10.8127     0.0000     8.0000 </r>
       <r>   -10.6777     0.0000     8.0000 </r>
       <r>   -10.5427    -0.0000     8.0000 </r>
       <r>   -10.4077    -0.0000     8.0000 </r>
       <r>   -10.2727    -0.0000     8.0000 </r>
       <r>   -10.1377    -0.0000     8.0000 </r>
       <r>   -10.0027    -0.0000     8.0000 </r>
       <r>    -9.8677    -0.0056     7.9992 </r>
       <r>    -9.7327    -0.0035     7.9988 </r>
       <r>    -9.5977     1.1411     8.1528 </r>
       <r>    -9.4627     3.1874     8.5831 </r>
       <r>    -9.3277     2.3087     8.8948 </r>
       <r>    -9.1927     1.1296     9.0473 </r>
       <r>    -9.0577     2.5856     9.3964 </r>
       <r>    -8.9226     2.8171     9.7767 </r>
       <r>    -8.7876     1.4984     9.9790 </r>
       <r>    -8.6526     4.4524    10.5801 </r>
       <r>    -8.5176     3.8951    11.1060 </r>
       <r>    -8.3826     2.2209    11.4058 </r>
       <r>    -8.2476     4.1071    11.9603 </r>
       <r>    -8.1126     2.7050    12.3255 </r>
       <r>    -7.9776     1.1527    12.4811 </r>
       <r>    -7.8426     1.7912    12.7229 </r>
       <r>    -7.7076     2.4103    13.0483 </r>
       <r>    -7.5726     2.9773    13.4503 </r>
       <r>    -7.4376     4.8732    14.1082 </r>
       <r>    -7.3026     5.2142    14.8121 </r>
       <r>    -7.1676     2.5941    15.1623 </r>
       <r>    -7.0326     4.3855    15.7544 </r>
       <r>    -6.8976     1.9059    16.0117 </r>
       <r>    -6.7626    -0.0821    16.0006 </r>
       <r>    -6.6276    -0.0044    16.0000 </r>
       <r>    -6.4926    -0.0000    16.0000 </r>
       <r>    -6.3576    -0.0017    15.9998 </r>
       <r>    -6.2226    -0.0584    15.9919 </r>
       <r>    -6.0876     0.9873    16.1252 </r>
       <r>    -5.9525     3.9638    16.6603 </r>
       <r>    -5.8175     3.2122    17.0940 </r>
       <r>    -5.6825     4.3215    17.6774 </r>
       <r>    -5.5475     2.1153    17.9630 </r>
       <r>    -5.4125     3.5544    18.4428 </r>
       <r>    -5.2775     5.6617    19.2072 </r>
       <r>    -5.1425     4.7414    19.8473 </r>
       <r>    -5.0075     1.2241    20.0125 </r>
       <r>    -4.8725    -0.0919    20.0001 </r>
       <r>    -4.7375    -0.0011    20.0000 </r>
       <r>    -4.6025    -0.0000    20.0000 </r>
       <r>    -4.4675    -0.0000    20.0000 </r>
       <r>    -4.3325     0.0000    20.0000 </r>
       <r>    -4.1975     0.0000    20.0000 </r>
       <r>    -4.0625     0.0000    20.0000 </r>
       <r>    -3.9275     0.0000    20.0000 </r>
       <r>    -3.7925     0.0000    20.0000 </r>
       <r>    -3.6575     0.0000    20.0000 </r>
       <r>    -3.5225    -0.0000    20.0000 </r>
       <r>    -3.3875    -0.0000    20.0000 </r>
       <r>    -3.2525    -0.0000    20.0000 </r>
       <r>    -3.1175    -0.0000    20.0000 </r>
       <r>    -2.9824    -0.0000    20.0000 </r>
       <r>    -2.8474    -0.0002    20.0000 </r>
       <r>    -2.7124    -0.0123    19.9983 </r>
       <r>    -2.5774     0.1704    20.0213 </r>
       <r>    -2.4424     0.6025    20.1027 </r>
       <r>    -2.3074     1.5553    20.3126 </r>
       <r>    -2.1724     4.0844    20.8640 </r>
       <r>    -2.0374     5.0842    21.5504 </r>
       <r>    -1.9024     2.7409    21.9205 </r>
       <r>    -1.7674     1.7555    22.1575 </r>
       <r>    -1.6324     4.0742    22.7075 </r>
       <r>    -1.4974     2.2023    23.0048 </r>
       <r>    -1.3624     1.7089    23.2355 </r>
       <r>    -1.2274     3.9373    23.7671 </r>
       <r>    -1.0924     1.7545    24.0040 </r>
       <r>    -0.9574    -0.0220    24.0010 </r>
       <r>    -0.8224    -0.0073    24.0000 </r>
       <r>    -0.6874    -0.0000    24.0000 </r>
       <r>    -0.5524    -0.0000    24.0000 </r>
       <r>    -0.4174    -0.0000    24.0000 </r>
       <r>    -0.2824    -0.0003    24.0000 </r>
       <r>    -0.1474    -0.0329    23.9955 </r>
       <r>    -0.0123     0.3581    24.0439 </r>
       <r>     0.1227     2.6903    24.4071 </r>
       <r>     0.2577     2.7326    24.7760 </r>
       <r>     0.3927     3.6133    25.2638 </r>
       <r>     0.5277     3.9499    25.7970 </r>
       <r>     0.6627     4.4558    26.3986 </r>
       <r>     0.7977     4.7089    27.0343 </r>
       <r>     0.9327     5.6974    27.8035 </r>
       <r>     1.0677     1.5634    28.0146 </r>
       <r>     1.2027    -0.1060    28.0003 </r>
       <r>     1.3377    -0.0019    28.0000 </r>
       <r>     1.4727    -0.0000    28.0000 </r>
       <r>     1.6077    -0.0000    28.0000 </r>
       <r>     1.7427     0.0000    28.0000 </r>
       <r>     1.8777     0.0000    28.0000 </r>
       <r>     2.0127     0.0000    28.0000 </r>
       <r>     2.1477     0.0000    28.0000 </r>
       <r>     2.2827     0.0000    28.0000 </r>
       <r>     2.4177     0.0000    28.0000 </r>
       <r>     2.5527     0.0000    28.0000 </r>
       <r>     2.6877     0.0000    28.0000 </r>
       <r>     2.8228     0.0000    28.0000 </r>
       <r>     2.9578     0.0000    28.0000 </r>
       <r>     3.0928     0.0000    28.0000 </r>
       <r>     3.2278     0.0000    28.0000 </r>
       <r>     3.3628     0.0000    28.0000 </r>
       <r>     3.4978     0.0000    28.0000 </r>
       <r>     3.6328     0.0000    28.0000 </r>
       <r>     3.7678     0.0000    28.0000 </r>
       <r>     3.9028     0.0000    28.0000 </r>
       <r>     4.0378     0.0000    28.0000 </r>
       <r>     4.1728     0.0000    28.0000 </r>
       <r>     4.3078     0.0000    28.0000 </r>
       <r>     4.4428     0.0000    28.0000 </r>
       <r>     4.5778     0.0000    28.0000 </r>
       <r>     4.7128     0.0000    28.0000 </r>
       <r>     4.8478     0.0000    28.0000 </r>
       <r>     4.9828     0.0000    28.0000 </r>
       <r>     5.1178    -0.0000    28.0000 </r>
       <r>     5.2528    -0.0000    28.0000 </r>
       <r>     5.3878    -0.0000    28.0000 </r>
       <r>     5.5228    -0.0000    28.0000 </r>
       <r>     5.6578    -0.0000    28.0000 </r>
       <r>     5.7929    -0.0005    27.9999 </r>
       <r>     5.9279    -0.0007    27.9998 </r>
       <r>     6.0629     0.1062    28.0142 </r>
       <r>     6.1979     0.3320    28.0590 </r>
       <r>     6.3329     0.2017    28.0862 </r>
       <r>     6.4679     0.4151    28.1423 </r>
       <r>     6.6029     0.4425    28.2020 </r>
       <r>     6.7379     0.6957    28.2959 </r>
       <r>     6.8729     0.7102    28.3918 </r>
       <r>     7.0079     0.5021    28.4596 </r>
       <r>     7.1429     0.4463    28.5199 </r>
       <r>     7.2779     0.4971    28.5870 </r>
       <r>     7.4129     0.3683    28.6367 </r>
       <r>     7.5479     0.5506    28.7110 </r>
       <r>     7.6829     1.1769    28.8699 </r>
       <r>     7.8179     1.1770    29.0288 </r>
       <r>     7.9529     1.8349    29.2765 </r>
       <r>     8.0879     1.8069    29.5204 </r>
       <r>     8.2229     2.0390    29.7957 </r>
       <r>     8.3579     1.9373    30.0573 </r>
       <r>     8.4929     1.5955    30.2727 </r>
       <r>     8.6279     1.8707    30.5252 </r>
       <r>     8.7630     1.6560    30.7488 </r>
       <r>     8.8980     1.3651    30.9331 </r>
       <r>     9.0330     1.6334    31.1536 </r>
       <r>     9.1680     2.1136    31.4389 </r>
       <r>     9.3030     2.1865    31.7341 </r>
       <r>     9.4380     1.5883    31.9485 </r>
       <r>     9.5730     0.4018    32.0028 </r>
       <r>     9.7080    -0.0195    32.0001 </r>
       <r>     9.8430    -0.0010    32.0000 </r>
       <r>     9.9780    -0.0000    32.0000 </r>
       <r>    10.1130    -0.0000    32.0000 </r>
       <r>    10.2480     0.0000    32.0000 </r>
       <r>    10.3830     0.0000    32.0000 </r>
       <r>    10.5180     0.0000    32.0000 </r>
       <r>    10.6530     0.0000    32.0000 </r>
       <r>    10.7880     0.0000    32.0000 </r>
       <r>    10.9230     0.0000    32.0000 </r>
       <r>    11.0580     0.0000    32.0000 </r>
       <r>    11.1930     0.0000    32.0000 </r>
       <r>    11.3280     0.0000    32.0000 </r>
      </set>
     </set>
    </array>
   </total>
  </dos>
 </calculation>
 <structure name="finalpos" >
  <crystal>
   <varray name="basis" >
    <v>       3.94465425      -0.07500154       1.54059800 </v>
    <v>       1.39736684       4.69390866       1.78244300 </v>
    <v>       0.01849145      -0.02196321       5.36970700 </v>
   </varray>
   <i name="volume">     99.95839447 </i>
   <varray name="rec_basis" >
    <v>       0.25254570      -0.07473600      -0.00117537 </v>
    <v>       0.00369053       0.21161954       0.00085286 </v>
    <v>      -0.07368178      -0.04880371       0.18628402 </v>
   </varray>
  </crystal>
  <varray name="positions" >
   <v>       0.83809084       0.28053165       0.78132110 </v>
   <v>       0.16191094       0.21868400       0.71947211 </v>
   <v>       0.16190916       0.71946835       0.21867890 </v>
   <v>       0.83808906       0.78131600       0.28052789 </v>
   <v>       0.81405260       0.21315029       0.21314461 </v>
   <v>       0.18594740       0.78684971       0.78685539 </v>
   <v>       0.13812291       0.15081081       0.15080460 </v>
   <v>       0.86187709       0.84918919       0.84919540 </v>
  </varray>
 </structure>
</modeling>
