  24  24   0   0
  0.4176334E+02  0.3540400E-09  0.1044544E-08  0.2750143E-08  0.5000000E-15
  1.000000000000000E-004
  CAR 
 unknown system                          
      4.24831089    -15.12484821  301      0.20025980      1.00000000
    -15.125  0.0000E+00  0.0000E+00
    -15.060  0.0000E+00  0.0000E+00
    -14.996  0.0000E+00  0.0000E+00
    -14.931  0.0000E+00  0.0000E+00
    -14.867  0.0000E+00  0.0000E+00
    -14.802  0.0000E+00  0.0000E+00
    -14.737  0.0000E+00  0.0000E+00
    -14.673  0.5356E-14  0.3459E-15
    -14.608  0.5109E-11  0.3303E-12
    -14.544  0.2147E-08  0.1390E-09
    -14.479  0.4052E-06  0.2630E-07
    -14.414  0.3470E-04  0.2267E-05
    -14.350  0.1370E-02  0.9074E-04
    -14.285  0.2542E-01  0.1732E-02
    -14.221  0.2266E+00  0.1636E-01
    -14.156  0.9922E+00  0.8043E-01
    -14.092  0.2200E+01  0.2225E+00
    -14.027  0.2715E+01  0.3978E+00
    -13.962  0.2453E+01  0.5562E+00
    -13.898  0.2006E+01  0.6858E+00
    -13.833  0.1396E+01  0.7759E+00
    -13.769  0.1432E+01  0.8683E+00
    -13.704  0.1756E+01  0.9817E+00
    -13.640  0.1451E+01  0.1075E+01
    -13.575  0.1658E+01  0.1182E+01
    -13.510  0.2989E+01  0.1375E+01
    -13.446  0.3676E+01  0.1613E+01
    -13.381  0.3070E+01  0.1811E+01
    -13.317  0.2890E+01  0.1998E+01
    -13.252  0.3443E+01  0.2220E+01
    -13.188  0.3566E+01  0.2450E+01
    -13.123  0.3463E+01  0.2674E+01
    -13.058  0.3632E+01  0.2909E+01
    -12.994  0.3744E+01  0.3150E+01
    -12.929  0.3943E+01  0.3405E+01
    -12.865  0.4114E+01  0.3671E+01
    -12.800  0.3904E+01  0.3923E+01
    -12.735  0.3624E+01  0.4157E+01
    -12.671  0.4025E+01  0.4417E+01
    -12.606  0.4786E+01  0.4726E+01
    -12.542  0.4939E+01  0.5045E+01
    -12.477  0.4689E+01  0.5348E+01
    -12.413  0.4477E+01  0.5637E+01
    -12.348  0.4461E+01  0.5925E+01
    -12.283  0.4454E+01  0.6212E+01
    -12.219  0.4469E+01  0.6501E+01
    -12.154  0.5276E+01  0.6842E+01
    -12.090  0.6966E+01  0.7292E+01
    -12.025  0.8878E+01  0.7865E+01
    -11.961  0.9087E+01  0.8452E+01
    -11.896  0.7158E+01  0.8914E+01
    -11.831  0.5559E+01  0.9273E+01
    -11.767  0.5712E+01  0.9642E+01
    -11.702  0.6879E+01  0.1009E+02
    -11.638  0.7766E+01  0.1059E+02
    -11.573  0.8614E+01  0.1114E+02
    -11.509  0.8786E+01  0.1171E+02
    -11.444  0.7470E+01  0.1219E+02
    -11.379  0.7090E+01  0.1265E+02
    -11.315  0.9004E+01  0.1323E+02
    -11.250  0.1025E+02  0.1389E+02
    -11.186  0.9268E+01  0.1449E+02
    -11.121  0.9017E+01  0.1508E+02
    -11.056  0.1032E+02  0.1574E+02
    -10.992  0.1130E+02  0.1647E+02
    -10.927  0.1194E+02  0.1724E+02
    -10.863  0.1341E+02  0.1811E+02
    -10.798  0.1380E+02  0.1900E+02
    -10.734  0.1237E+02  0.1980E+02
    -10.669  0.1207E+02  0.2058E+02
    -10.604  0.1137E+02  0.2131E+02
    -10.540  0.9111E+01  0.2190E+02
    -10.475  0.7820E+01  0.2241E+02
    -10.411  0.6225E+01  0.2281E+02
    -10.346  0.3184E+01  0.2301E+02
    -10.282  0.9701E+00  0.2308E+02
    -10.217  0.6611E+00  0.2312E+02
    -10.152  0.1379E+01  0.2321E+02
    -10.088  0.1613E+01  0.2331E+02
    -10.023  0.9077E+00  0.2337E+02
     -9.959  0.4487E+00  0.2340E+02
     -9.894  0.9154E+00  0.2346E+02
     -9.830  0.1674E+01  0.2357E+02
     -9.765  0.1757E+01  0.2368E+02
     -9.700  0.1728E+01  0.2379E+02
     -9.636  0.1770E+01  0.2391E+02
     -9.571  0.1090E+01  0.2398E+02
     -9.507  0.3224E+00  0.2400E+02
     -9.442  0.4389E-01  0.2400E+02
     -9.377  0.2718E-02  0.2400E+02
     -9.313  0.9960E-04  0.2400E+02
     -9.248  0.9607E-03  0.2400E+02
     -9.184  0.1796E-01  0.2400E+02
     -9.119  0.1582E+00  0.2401E+02
     -9.055  0.6770E+00  0.2406E+02
     -8.990  0.1493E+01  0.2415E+02
     -8.925  0.2027E+01  0.2428E+02
     -8.861  0.2683E+01  0.2446E+02
     -8.796  0.4171E+01  0.2473E+02
     -8.732  0.5330E+01  0.2507E+02
     -8.667  0.5221E+01  0.2541E+02
     -8.603  0.4756E+01  0.2571E+02
     -8.538  0.4774E+01  0.2602E+02
     -8.473  0.5240E+01  0.2636E+02
     -8.409  0.5039E+01  0.2669E+02
     -8.344  0.3708E+01  0.2693E+02
     -8.280  0.2811E+01  0.2711E+02
     -8.215  0.3155E+01  0.2731E+02
     -8.151  0.4218E+01  0.2758E+02
     -8.086  0.5081E+01  0.2791E+02
     -8.021  0.5355E+01  0.2826E+02
     -7.957  0.6167E+01  0.2866E+02
     -7.892  0.8081E+01  0.2918E+02
     -7.828  0.8900E+01  0.2975E+02
     -7.763  0.7035E+01  0.3021E+02
     -7.698  0.4883E+01  0.3052E+02
     -7.634  0.4559E+01  0.3082E+02
     -7.569  0.5182E+01  0.3115E+02
     -7.505  0.6465E+01  0.3157E+02
     -7.440  0.8662E+01  0.3213E+02
     -7.376  0.1019E+02  0.3279E+02
     -7.311  0.1026E+02  0.3345E+02
     -7.246  0.8731E+01  0.3401E+02
     -7.182  0.6744E+01  0.3445E+02
     -7.117  0.6385E+01  0.3486E+02
     -7.053  0.7329E+01  0.3533E+02
     -6.988  0.7406E+01  0.3581E+02
     -6.924  0.6016E+01  0.3620E+02
     -6.859  0.5524E+01  0.3656E+02
     -6.794  0.7625E+01  0.3705E+02
     -6.730  0.1170E+02  0.3780E+02
     -6.665  0.1413E+02  0.3872E+02
     -6.601  0.1281E+02  0.3954E+02
     -6.536  0.1008E+02  0.4019E+02
     -6.472  0.7756E+01  0.4070E+02
     -6.407  0.6037E+01  0.4109E+02
     -6.342  0.5207E+01  0.4142E+02
     -6.278  0.5545E+01  0.4178E+02
     -6.213  0.6429E+01  0.4219E+02
     -6.149  0.5842E+01  0.4257E+02
     -6.084  0.3792E+01  0.4282E+02
     -6.019  0.3089E+01  0.4302E+02
     -5.955  0.3699E+01  0.4326E+02
     -5.890  0.4156E+01  0.4352E+02
     -5.826  0.5029E+01  0.4385E+02
     -5.761  0.6286E+01  0.4425E+02
     -5.697  0.6241E+01  0.4466E+02
     -5.632  0.4999E+01  0.4498E+02
     -5.567  0.4322E+01  0.4526E+02
     -5.503  0.4163E+01  0.4553E+02
     -5.438  0.3999E+01  0.4579E+02
     -5.374  0.4443E+01  0.4607E+02
     -5.309  0.5758E+01  0.4645E+02
     -5.245  0.7051E+01  0.4690E+02
     -5.180  0.6605E+01  0.4733E+02
     -5.115  0.5224E+01  0.4766E+02
     -5.051  0.5387E+01  0.4801E+02
     -4.986  0.6622E+01  0.4844E+02
     -4.922  0.7546E+01  0.4893E+02
     -4.857  0.8099E+01  0.4945E+02
     -4.792  0.9017E+01  0.5003E+02
     -4.728  0.1038E+02  0.5070E+02
     -4.663  0.1093E+02  0.5141E+02
     -4.599  0.1028E+02  0.5207E+02
     -4.534  0.9446E+01  0.5268E+02
     -4.470  0.9062E+01  0.5327E+02
     -4.405  0.1007E+02  0.5392E+02
     -4.340  0.1231E+02  0.5471E+02
     -4.276  0.1325E+02  0.5557E+02
     -4.211  0.1265E+02  0.5639E+02
     -4.147  0.1351E+02  0.5726E+02
     -4.082  0.1545E+02  0.5826E+02
     -4.018  0.1514E+02  0.5923E+02
     -3.953  0.1238E+02  0.6003E+02
     -3.888  0.1013E+02  0.6069E+02
     -3.824  0.1043E+02  0.6136E+02
     -3.759  0.1257E+02  0.6217E+02
     -3.695  0.1399E+02  0.6308E+02
     -3.630  0.1370E+02  0.6396E+02
     -3.566  0.1322E+02  0.6481E+02
     -3.501  0.1389E+02  0.6571E+02
     -3.436  0.1473E+02  0.6666E+02
     -3.372  0.1464E+02  0.6761E+02
     -3.307  0.1409E+02  0.6852E+02
     -3.243  0.1409E+02  0.6943E+02
     -3.178  0.1543E+02  0.7042E+02
     -3.113  0.1715E+02  0.7153E+02
     -3.049  0.1800E+02  0.7269E+02
     -2.984  0.1800E+02  0.7386E+02
     -2.920  0.1665E+02  0.7493E+02
     -2.855  0.1490E+02  0.7589E+02
     -2.791  0.1511E+02  0.7687E+02
     -2.726  0.1711E+02  0.7797E+02
     -2.661  0.1882E+02  0.7919E+02
     -2.597  0.1904E+02  0.8042E+02
     -2.532  0.1801E+02  0.8158E+02
     -2.468  0.1677E+02  0.8267E+02
     -2.403  0.1542E+02  0.8366E+02
     -2.339  0.1393E+02  0.8456E+02
     -2.274  0.1404E+02  0.8547E+02
     -2.209  0.1594E+02  0.8650E+02
     -2.145  0.1755E+02  0.8763E+02
     -2.080  0.1851E+02  0.8883E+02
     -2.016  0.1884E+02  0.9004E+02
     -1.951  0.1803E+02  0.9121E+02
     -1.887  0.1692E+02  0.9230E+02
     -1.822  0.1617E+02  0.9334E+02
     -1.757  0.1481E+02  0.9430E+02
     -1.693  0.1166E+02  0.9505E+02
     -1.628  0.9071E+01  0.9564E+02
     -1.564  0.9306E+01  0.9624E+02
     -1.499  0.1061E+02  0.9692E+02
     -1.434  0.1089E+02  0.9763E+02
     -1.370  0.1044E+02  0.9830E+02
     -1.305  0.1038E+02  0.9897E+02
     -1.241  0.1052E+02  0.9965E+02
     -1.176  0.1019E+02  0.1003E+03
     -1.112  0.9347E+01  0.1009E+03
     -1.047  0.8395E+01  0.1015E+03
     -0.982  0.7982E+01  0.1020E+03
     -0.918  0.8356E+01  0.1025E+03
     -0.853  0.7543E+01  0.1030E+03
     -0.789  0.5459E+01  0.1033E+03
     -0.724  0.4807E+01  0.1037E+03
     -0.660  0.6499E+01  0.1041E+03
     -0.595  0.8016E+01  0.1046E+03
     -0.530  0.6768E+01  0.1050E+03
     -0.466  0.4604E+01  0.1053E+03
     -0.401  0.3704E+01  0.1056E+03
     -0.337  0.3346E+01  0.1058E+03
     -0.272  0.2670E+01  0.1060E+03
     -0.208  0.2030E+01  0.1061E+03
     -0.143  0.2415E+01  0.1062E+03
     -0.078  0.4186E+01  0.1065E+03
     -0.014  0.5944E+01  0.1069E+03
      0.051  0.5600E+01  0.1073E+03
      0.115  0.4585E+01  0.1076E+03
      0.180  0.5024E+01  0.1079E+03
      0.245  0.6104E+01  0.1083E+03
      0.309  0.6411E+01  0.1087E+03
      0.374  0.5932E+01  0.1091E+03
      0.438  0.5398E+01  0.1094E+03
      0.503  0.5241E+01  0.1098E+03
      0.567  0.5336E+01  0.1101E+03
      0.632  0.4860E+01  0.1104E+03
      0.697  0.4575E+01  0.1107E+03
      0.761  0.5533E+01  0.1111E+03
      0.826  0.5865E+01  0.1115E+03
      0.890  0.4973E+01  0.1118E+03
      0.955  0.4843E+01  0.1121E+03
      1.019  0.5062E+01  0.1124E+03
      1.084  0.5037E+01  0.1127E+03
      1.149  0.5669E+01  0.1131E+03
      1.213  0.6520E+01  0.1135E+03
      1.278  0.7324E+01  0.1140E+03
      1.342  0.7804E+01  0.1145E+03
      1.407  0.7626E+01  0.1150E+03
      1.471  0.8636E+01  0.1156E+03
      1.536  0.1114E+02  0.1163E+03
      1.601  0.1283E+02  0.1171E+03
      1.665  0.1277E+02  0.1179E+03
      1.730  0.1230E+02  0.1187E+03
      1.794  0.1209E+02  0.1195E+03
      1.859  0.1148E+02  0.1202E+03
      1.924  0.1088E+02  0.1209E+03
      1.988  0.1101E+02  0.1217E+03
      2.053  0.1145E+02  0.1224E+03
      2.117  0.1283E+02  0.1232E+03
      2.182  0.1503E+02  0.1242E+03
      2.246  0.1552E+02  0.1252E+03
      2.311  0.1352E+02  0.1261E+03
      2.376  0.1181E+02  0.1268E+03
      2.440  0.1172E+02  0.1276E+03
      2.505  0.1307E+02  0.1284E+03
      2.569  0.1536E+02  0.1294E+03
      2.634  0.1636E+02  0.1305E+03
      2.698  0.1492E+02  0.1314E+03
      2.763  0.1273E+02  0.1323E+03
      2.828  0.1125E+02  0.1330E+03
      2.892  0.1072E+02  0.1337E+03
      2.957  0.1027E+02  0.1343E+03
      3.021  0.8897E+01  0.1349E+03
      3.086  0.6587E+01  0.1353E+03
      3.150  0.4426E+01  0.1356E+03
      3.215  0.3009E+01  0.1358E+03
      3.280  0.1785E+01  0.1359E+03
      3.344  0.7126E+00  0.1360E+03
      3.409  0.1603E+00  0.1360E+03
      3.473  0.1831E-01  0.1360E+03
      3.538  0.1003E-02  0.1360E+03
      3.603  0.2558E-04  0.1360E+03
      3.667  0.2983E-06  0.1360E+03
      3.732  0.1573E-08  0.1360E+03
      3.796  0.3722E-11  0.1360E+03
      3.861  0.3901E-14  0.1360E+03
      3.925  0.0000E+00  0.1360E+03
      3.990  0.0000E+00  0.1360E+03
      4.055  0.0000E+00  0.1360E+03
      4.119  0.0000E+00  0.1360E+03
      4.184  0.0000E+00  0.1360E+03
      4.248  0.0000E+00  0.1360E+03
