 running on    8 total cores
 distrk:  each k-point on    8 cores,    1 groups
 distr:  one band on    2 cores,    4 groups
 using from now: INCAR     
 vasp.5.3.5 31Mar14 (build Oct 29 2014 16:16:03) complex                        
  
 POSCAR found type information on POSCAR  P  Si
 POSCAR found :  2 types and      24 ions
 scaLAPACK will be used

 ----------------------------------------------------------------------------- 
|                                                                             |
|  ADVICE TO THIS USER RUNNING 'VASP/VAMP'   (HEAR YOUR MASTER'S VOICE ...):  |
|                                                                             |
|      You have switched on vdW-DFT.                                          |
|      This routine was written and supplied by Jiri Klimes.                  |
|      We recommed that you carefully read and cite the following             |
|      publication                                                            |
|      J. Klimes, D.R. Bowler, A. Michelides                                  |
|        J. Phys.: Cond Matt. 22 022201 (2010)                                |
|      J. Klimes, D.R. Bowler, A. Michelides                                  |
|        Phys. Rev. B. 83, 195131 (2011)                                      |
|      and references therein.                                                |
|                                                                             |
 ----------------------------------------------------------------------------- 


 ----------------------------------------------------------------------------- 
|                                                                             |
|  ADVICE TO THIS USER RUNNING 'VASP/VAMP'   (HEAR YOUR MASTER'S VOICE ...):  |
|                                                                             |
|      You enforced a specific xc-type in the INCAR file,                     |
|      a different type was found on the POTCAR file                          |
|          I HOPE YOU KNOW, WHAT YOU ARE  DOING                               |
|                                                                             |
 ----------------------------------------------------------------------------- 

 LDA part: xc-table for Pade appr. of Perdew


 VERY BAD NEWS! internal error in subroutine IBZKPT:
 Reciprocal lattice and k-lattice belong to different class of lattices. Often results are still useful...      96


 VERY BAD NEWS! internal error in subroutine IBZKPT:
 Reciprocal lattice and k-lattice belong to different class of lattices. Often results are still useful...      96


 VERY BAD NEWS! internal error in subroutine IBZKPT:
 Reciprocal lattice and k-lattice belong to different class of lattices. Often results are still useful...      96


 VERY BAD NEWS! internal error in subroutine IBZKPT:
 Reciprocal lattice and k-lattice belong to different class of lattices. Often results are still useful...      96


 VERY BAD NEWS! internal error in subroutine IBZKPT:
 Reciprocal lattice and k-lattice belong to different class of lattices. Often results are still useful...      96


 VERY BAD NEWS! internal error in subroutine IBZKPT:
 Reciprocal lattice and k-lattice belong to different class of lattices. Often results are still useful...      96


 VERY BAD NEWS! internal error in subroutine IBZKPT:
 Reciprocal lattice and k-lattice belong to different class of lattices. Often results are still useful...      96


 VERY BAD NEWS! internal error in subroutine IBZKPT:
 Reciprocal lattice and k-lattice belong to different class of lattices. Often results are still useful...      96
 POSCAR, INCAR and KPOINTS ok, starting setup
 WARNING: small aliasing (wrap around) errors must be expected
 FFT: planning ...
 WAVECAR not read
 entering main loop
       N       E                     dE             d eps       ncg     rms          rms(c)
Total vdW correction in eV:     15.9127477
DAV:   1     0.490037047503E+03    0.49004E+03   -0.28649E+04  7352   0.790E+02
DAV:   2    -0.671051552702E+02   -0.55714E+03   -0.54217E+03  9688   0.189E+02
DAV:   3    -0.123602345445E+03   -0.56497E+02   -0.55650E+02  8900   0.621E+01
DAV:   4    -0.126132055875E+03   -0.25297E+01   -0.25117E+01 10832   0.140E+01
DAV:   5    -0.126195762848E+03   -0.63707E-01   -0.63628E-01 10104   0.217E+00    0.106E+01
Total vdW correction in eV:     16.3254793
DAV:   6    -0.123434436210E+03    0.27613E+01   -0.67886E+00  8736   0.693E+00    0.560E+00
Total vdW correction in eV:     16.7673450
DAV:   7    -0.123197367096E+03    0.23707E+00   -0.42814E+00  8528   0.545E+00    0.203E+00
Total vdW correction in eV:     16.9233166
DAV:   8    -0.123216419254E+03   -0.19052E-01   -0.53021E-01  9016   0.211E+00    0.951E-01
Total vdW correction in eV:     17.0199808
DAV:   9    -0.123196532022E+03    0.19887E-01   -0.75992E-02  9272   0.856E-01    0.274E-01
Total vdW correction in eV:     17.0498128
DAV:  10    -0.123185346432E+03    0.11186E-01   -0.17105E-02  8896   0.407E-01    0.104E-01
Total vdW correction in eV:     17.0597957
DAV:  11    -0.123179256381E+03    0.60901E-02   -0.33463E-03  8952   0.176E-01    0.516E-02
Total vdW correction in eV:     17.0660856
DAV:  12    -0.123174531023E+03    0.47254E-02   -0.57536E-04  9376   0.739E-02    0.264E-02
Total vdW correction in eV:     17.0709085
DAV:  13    -0.123172030251E+03    0.25008E-02   -0.14991E-04  9192   0.404E-02    0.149E-02
Total vdW correction in eV:     17.0752816
DAV:  14    -0.123170946270E+03    0.10840E-02   -0.92795E-05  9048   0.256E-02    0.928E-03
Total vdW correction in eV:     17.0783206
DAV:  15    -0.123170821451E+03    0.12482E-03   -0.49656E-05  8384   0.192E-02    0.574E-03
Total vdW correction in eV:     17.0798800
DAV:  16    -0.123171333498E+03   -0.51205E-03   -0.10433E-04  8152   0.214E-02    0.344E-03
Total vdW correction in eV:     17.0800969
DAV:  17    -0.123171737242E+03   -0.40374E-03   -0.14288E-04  7832   0.194E-02    0.185E-03
Total vdW correction in eV:     17.0798076
DAV:  18    -0.123171791291E+03   -0.54048E-04   -0.28500E-05  7328   0.109E-02    0.118E-03
Total vdW correction in eV:     17.0795319
DAV:  19    -0.123171821751E+03   -0.30461E-04   -0.25487E-05  6916   0.959E-03    0.823E-04
Total vdW correction in eV:     17.0793884
DAV:  20    -0.123171825434E+03   -0.36824E-05   -0.19835E-05  7080   0.934E-03    0.539E-04
Total vdW correction in eV:     17.0792780
DAV:  21    -0.123171757879E+03    0.67555E-04   -0.13494E-05  6296   0.949E-03    0.324E-04
Total vdW correction in eV:     17.0792668
DAV:  22    -0.123171706469E+03    0.51410E-04   -0.51906E-06  6264   0.644E-03    0.186E-04
Total vdW correction in eV:     17.0792593
DAV:  23    -0.123171685430E+03    0.21039E-04   -0.81992E-06  6668   0.839E-03    0.865E-05
Total vdW correction in eV:     17.0792627
DAV:  24    -0.123171674509E+03    0.10921E-04   -0.32489E-06  6680   0.621E-03    0.526E-05
Total vdW correction in eV:     17.0792615
DAV:  25    -0.123171670403E+03    0.41063E-05   -0.36869E-06  6272   0.648E-03    0.247E-05
Total vdW correction in eV:     17.0792611
DAV:  26    -0.123171669108E+03    0.12953E-05   -0.21849E-06  6016   0.521E-03    0.136E-05
Total vdW correction in eV:     17.0792607
DAV:  27    -0.123171669459E+03   -0.35126E-06   -0.17450E-06  5516   0.470E-03
Total vdW correction in eV:     17.0792608
Total vdW correction in eV:     17.0792608
   1 F= -.12317167E+03 E0= -.12315676E+03  d E =-.298199E-01
