<?xml version="1.0" encoding="ISO-8859-1"?>
<modeling>
 <generator>
  <i name="program" type="string">vasp </i>
  <i name="version" type="string">5.4.1  </i>
  <i name="subversion" type="string">24Jun15 (build May 10 2016 14:18:23) complex                          parallel </i>
  <i name="platform" type="string">IFC91_ompi </i>
  <i name="date" type="string">2016 12 12 </i>
  <i name="time" type="string">06:34:21 </i>
 </generator>
 <incar>
  <i type="string" name="PREC">accurate</i>
  <i type="string" name="ALGO"> Fast</i>
  <i type="int" name="ISPIN">     2</i>
  <i type="int" name="IBRION">     2</i>
  <i name="EDIFF">      0.00010000</i>
  <i type="int" name="NSW">     0</i>
  <i type="int" name="ISIF">     3</i>
  <i name="ENCUT">    500.00000000</i>
  <v name="MAGMOM">      6.00000000      0.50000000      0.50000000      6.00000000      0.50000000      0.50000000</v>
  <i type="string" name="LREAL"> Auto</i>
  <i type="int" name="ISMEAR">     1</i>
  <i name="SIGMA">      0.10000000</i>
  <i type="logical" name="LWAVE"> F  </i>
  <i type="logical" name="LCHARG"> F  </i>
  <i type="logical" name="LVTOT"> T  </i>
  <i type="logical" name="LVHAR"> T  </i>
  <i type="logical" name="LAECHG"> F  </i>
  <v type="int" name="KPOINT_BSE">    -1     0     0     0</v>
  <i type="string" name="GGA"> Bo</i>
  <i name="PARAM1">      0.18333333</i>
  <i name="PARAM2">      0.22000000</i>
  <i type="logical" name="LUSE_VDW"> T  </i>
  <i name="AGGAC">      0.00000000</i>
 </incar>
 <kpoints>
  <generation param="Gamma">
   <v type="int" name="divisions">      13       13        1 </v>
   <v name="usershift">      0.00000000       0.00000000       0.00000000 </v>
   <v name="genvec1">      0.07692308       0.00000000       0.00000000 </v>
   <v name="genvec2">      0.00000000       0.07692308       0.00000000 </v>
   <v name="genvec3">      0.00000000       0.00000000       1.00000000 </v>
   <v name="shift">      0.00000000       0.00000000       0.00000000 </v>
  </generation>
  <varray name="kpointlist" >
   <v>       0.00000000       0.00000000       0.00000000 </v>
   <v>       0.07692308      -0.00000000       0.00000000 </v>
   <v>       0.15384615       0.00000000       0.00000000 </v>
   <v>       0.23076923       0.00000000       0.00000000 </v>
   <v>       0.30769231      -0.00000000       0.00000000 </v>
   <v>       0.38461538       0.00000000       0.00000000 </v>
   <v>       0.46153846       0.00000000       0.00000000 </v>
   <v>       0.07692308       0.07692308       0.00000000 </v>
   <v>       0.15384615       0.07692308       0.00000000 </v>
   <v>       0.23076923       0.07692308       0.00000000 </v>
   <v>       0.30769231       0.07692308       0.00000000 </v>
   <v>       0.38461538       0.07692308       0.00000000 </v>
   <v>       0.46153846       0.07692308       0.00000000 </v>
   <v>      -0.46153846       0.07692308       0.00000000 </v>
   <v>      -0.38461538       0.07692308       0.00000000 </v>
   <v>      -0.30769231       0.07692308       0.00000000 </v>
   <v>      -0.23076923       0.07692308       0.00000000 </v>
   <v>      -0.15384615       0.07692308       0.00000000 </v>
   <v>      -0.07692308       0.07692308       0.00000000 </v>
   <v>       0.15384615       0.15384615       0.00000000 </v>
   <v>       0.23076923       0.15384615       0.00000000 </v>
   <v>       0.30769231       0.15384615       0.00000000 </v>
   <v>       0.38461538       0.15384615       0.00000000 </v>
   <v>       0.46153846       0.15384615       0.00000000 </v>
   <v>      -0.46153846       0.15384615       0.00000000 </v>
   <v>      -0.38461538       0.15384615       0.00000000 </v>
   <v>      -0.30769231       0.15384615       0.00000000 </v>
   <v>      -0.23076923       0.15384615       0.00000000 </v>
   <v>      -0.15384615       0.15384615       0.00000000 </v>
   <v>       0.23076923       0.23076923       0.00000000 </v>
   <v>       0.30769231       0.23076923       0.00000000 </v>
   <v>       0.38461538       0.23076923       0.00000000 </v>
   <v>       0.46153846       0.23076923       0.00000000 </v>
   <v>      -0.46153846       0.23076923       0.00000000 </v>
   <v>      -0.38461538       0.23076923       0.00000000 </v>
   <v>      -0.30769231       0.23076923       0.00000000 </v>
   <v>      -0.23076923       0.23076923       0.00000000 </v>
   <v>       0.30769231       0.30769231       0.00000000 </v>
   <v>       0.38461538       0.30769231       0.00000000 </v>
   <v>       0.46153846       0.30769231       0.00000000 </v>
   <v>      -0.46153846       0.30769231       0.00000000 </v>
   <v>      -0.38461538       0.30769231       0.00000000 </v>
   <v>      -0.30769231       0.30769231       0.00000000 </v>
   <v>       0.38461538       0.38461538       0.00000000 </v>
   <v>       0.46153846       0.38461538       0.00000000 </v>
   <v>      -0.46153846       0.38461538       0.00000000 </v>
   <v>      -0.38461538       0.38461538       0.00000000 </v>
   <v>       0.46153846       0.46153846       0.00000000 </v>
   <v>      -0.46153846       0.46153846       0.00000000 </v>
  </varray>
  <varray name="weights" >
   <v>       0.00591716 </v>
   <v>       0.02366864 </v>
   <v>       0.02366864 </v>
   <v>       0.02366864 </v>
   <v>       0.02366864 </v>
   <v>       0.02366864 </v>
   <v>       0.02366864 </v>
   <v>       0.01183432 </v>
   <v>       0.02366864 </v>
   <v>       0.02366864 </v>
   <v>       0.02366864 </v>
   <v>       0.02366864 </v>
   <v>       0.02366864 </v>
   <v>       0.02366864 </v>
   <v>       0.02366864 </v>
   <v>       0.02366864 </v>
   <v>       0.02366864 </v>
   <v>       0.02366864 </v>
   <v>       0.01183432 </v>
   <v>       0.01183432 </v>
   <v>       0.02366864 </v>
   <v>       0.02366864 </v>
   <v>       0.02366864 </v>
   <v>       0.02366864 </v>
   <v>       0.02366864 </v>
   <v>       0.02366864 </v>
   <v>       0.02366864 </v>
   <v>       0.02366864 </v>
   <v>       0.01183432 </v>
   <v>       0.01183432 </v>
   <v>       0.02366864 </v>
   <v>       0.02366864 </v>
   <v>       0.02366864 </v>
   <v>       0.02366864 </v>
   <v>       0.02366864 </v>
   <v>       0.02366864 </v>
   <v>       0.01183432 </v>
   <v>       0.01183432 </v>
   <v>       0.02366864 </v>
   <v>       0.02366864 </v>
   <v>       0.02366864 </v>
   <v>       0.02366864 </v>
   <v>       0.01183432 </v>
   <v>       0.01183432 </v>
   <v>       0.02366864 </v>
   <v>       0.02366864 </v>
   <v>       0.01183432 </v>
   <v>       0.01183432 </v>
   <v>       0.01183432 </v>
  </varray>
 </kpoints>
 <parameters>
  <separator name="general" >
   <i type="string" name="SYSTEM">unknown system</i>
   <i type="logical" name="LCOMPAT"> F  </i>
  </separator>
  <separator name="electronic" >
   <i type="string" name="PREC">accura</i>
   <i name="ENMAX">    500.00000000</i>
   <i name="ENAUG">    392.42700000</i>
   <i name="EDIFF">      0.00010000</i>
   <i type="int" name="IALGO">    68</i>
   <i type="int" name="IWAVPR">    10</i>
   <i type="int" name="NBANDS">    36</i>
   <i name="NELECT">     48.00000000</i>
   <i type="int" name="TURBO">     0</i>
   <i type="int" name="IRESTART">     0</i>
   <i type="int" name="NREBOOT">     0</i>
   <i type="int" name="NMIN">     0</i>
   <i name="EREF">      0.00000000</i>
   <separator name="electronic smearing" >
    <i type="int" name="ISMEAR">     1</i>
    <i name="SIGMA">      0.10000000</i>
    <i name="KSPACING">      0.50000000</i>
    <i type="logical" name="KGAMMA"> T  </i>
   </separator>
   <separator name="electronic projectors" >
    <i type="logical" name="LREAL"> T  </i>
    <v name="ROPT">     -0.00025000     -0.00025000     -0.00025000     -0.00025000</v>
    <i type="int" name="LMAXPAW">  -100</i>
    <i type="int" name="LMAXMIX">     2</i>
    <i type="logical" name="NLSPLINE"> F  </i>
   </separator>
   <separator name="electronic startup" >
    <i type="int" name="ISTART">     0</i>
    <i type="int" name="ICHARG">     2</i>
    <i type="int" name="INIWAV">     1</i>
   </separator>
   <separator name="electronic spin" >
    <i type="int" name="ISPIN">     2</i>
    <i type="logical" name="LNONCOLLINEAR"> F  </i>
    <v name="MAGMOM">      6.00000000      0.50000000      0.50000000      6.00000000      0.50000000      0.50000000</v>
    <i name="NUPDOWN">     -1.00000000</i>
    <i type="logical" name="LSORBIT"> F  </i>
    <v name="SAXIS">      0.00000000      0.00000000      1.00000000</v>
    <i type="logical" name="LSPIRAL"> F  </i>
    <v name="QSPIRAL">      0.00000000      0.00000000      0.00000000</v>
    <i type="logical" name="LZEROZ"> F  </i>
   </separator>
   <separator name="electronic exchange-correlation" >
    <i type="logical" name="LASPH"> F  </i>
    <i type="logical" name="LMETAGGA"> F  </i>
   </separator>
   <separator name="electronic convergence" >
    <i type="int" name="NELM">    60</i>
    <i type="int" name="NELMDL">     0</i>
    <i type="int" name="NELMIN">     2</i>
    <i name="ENINI">    500.00000000</i>
    <separator name="electronic convergence detail" >
     <i type="logical" name="LDIAG"> T  </i>
     <i type="logical" name="LSUBROT"> F  </i>
     <i name="WEIMIN">      0.00000000</i>
     <i name="EBREAK">      0.00000069</i>
     <i name="DEPER">      0.30000000</i>
     <i type="int" name="NRMM">     4</i>
     <i name="TIME">      0.40000000</i>
    </separator>
   </separator>
   <separator name="electronic mixer" >
    <i name="AMIX">      0.40000000</i>
    <i name="BMIX">      1.00000000</i>
    <i name="AMIN">      0.10000000</i>
    <i name="AMIX_MAG">      1.60000000</i>
    <i name="BMIX_MAG">      1.00000000</i>
    <separator name="electronic mixer details" >
     <i type="int" name="IMIX">     4</i>
     <i type="logical" name="MIXFIRST"> F  </i>
     <i type="int" name="MAXMIX">   -45</i>
     <i name="WC">    100.00000000</i>
     <i type="int" name="INIMIX">     1</i>
     <i type="int" name="MIXPRE">     1</i>
     <i type="int" name="MREMOVE">     5</i>
    </separator>
   </separator>
   <separator name="electronic dipolcorrection" >
    <i type="logical" name="LDIPOL"> F  </i>
    <i type="logical" name="LMONO"> F  </i>
    <i type="int" name="IDIPOL">     0</i>
    <i name="EPSILON">      1.00000000</i>
    <v name="DIPOL">   -100.00000000   -100.00000000   -100.00000000</v>
    <i name="EFIELD">      0.00000000</i>
   </separator>
  </separator>
  <separator name="grids" >
   <i type="int" name="NGX">    24</i>
   <i type="int" name="NGY">    24</i>
   <i type="int" name="NGZ">   180</i>
   <i type="int" name="NGXF">    48</i>
   <i type="int" name="NGYF">    48</i>
   <i type="int" name="NGZF">   360</i>
   <i type="logical" name="ADDGRID"> F  </i>
  </separator>
  <separator name="ionic" >
   <i type="int" name="NSW">     0</i>
   <i type="int" name="IBRION">    -1</i>
   <i type="int" name="ISIF">     3</i>
   <i name="PSTRESS">      0.00000000</i>
   <i name="EDIFFG">      0.00100000</i>
   <i type="int" name="NFREE">     1</i>
   <i name="POTIM">      0.50000000</i>
   <i name="SMASS">     -3.00000000</i>
   <i name="SCALEE">      1.00000000</i>
  </separator>
  <separator name="ionic md" >
   <i name="TEBEG">      0.00010000</i>
   <i name="TEEND">      0.00010000</i>
   <i type="int" name="NBLOCK">     1</i>
   <i type="int" name="KBLOCK">     1</i>
   <i type="int" name="NPACO">   256</i>
   <i name="APACO">     16.00000000</i>
  </separator>
  <separator name="symmetry" >
   <i type="int" name="ISYM">     2</i>
   <i name="SYMPREC">      0.00001000</i>
  </separator>
  <separator name="dos" >
   <i type="logical" name="LORBIT"> F  </i>
   <v name="RWIGS">     -1.00000000     -1.00000000     -1.00000000     -1.00000000</v>
   <i type="int" name="NEDOS">   301</i>
   <i name="EMIN">     10.00000000</i>
   <i name="EMAX">    -10.00000000</i>
   <i name="EFERMI">      0.00000000</i>
  </separator>
  <separator name="writing" >
   <i type="int" name="NWRITE">     2</i>
   <i type="logical" name="LWAVE"> F  </i>
   <i type="logical" name="LCHARG"> F  </i>
   <i type="logical" name="LPARD"> F  </i>
   <i type="logical" name="LVTOT"> F  </i>
   <i type="logical" name="LVHAR"> T  </i>
   <i type="logical" name="LELF"> F  </i>
   <i type="logical" name="LOPTICS"> F  </i>
   <v name="STM">      0.00000000      0.00000000      0.00000000      0.00000000      0.00000000      0.00000000      0.00000000</v>
  </separator>
  <separator name="performance" >
   <i type="int" name="NPAR">     4</i>
   <i type="int" name="NSIM">     4</i>
   <i type="int" name="NBLK">    -1</i>
   <i type="logical" name="LPLANE"> T  </i>
   <i type="logical" name="LSCALAPACK"> T  </i>
   <i type="logical" name="LSCAAWARE"> F  </i>
   <i type="logical" name="LSCALU"> F  </i>
   <i type="logical" name="LASYNC"> F  </i>
   <i type="logical" name="LORBITALREAL"> F  </i>
  </separator>
  <separator name="miscellaneous" >
   <i type="int" name="IDIOT">     3</i>
   <i type="logical" name="LMUSIC"> F  </i>
   <v name="POMASS">     95.94000000     32.06600000     95.94000000     32.06600000</v>
   <v name="DARWINR">      0.00000000      0.00000000      0.00000000      0.00000000</v>
   <v name="DARWINV">      1.00000000      1.00000000      1.00000000      1.00000000</v>
   <i type="logical" name="LCORR"> T  </i>
  </separator>
  <i type="logical" name="GGA_COMPAT"> T  </i>
  <i type="logical" name="LBERRY"> F  </i>
  <i type="int" name="ICORELEVEL">     0</i>
  <i type="logical" name="LDAU"> F  </i>
  <i type="int" name="I_CONSTRAINED_M">     0</i>
  <separator name="electronic exchange-correlation" >
   <i type="string" name="GGA">BO</i>
   <i type="int" name="VOSKOWN">     0</i>
   <i type="logical" name="LHFCALC"> F  </i>
   <i type="string" name="PRECFOCK"></i>
   <i type="logical" name="LSYMGRAD"> F  </i>
   <i type="logical" name="LHFONE"> F  </i>
   <i type="logical" name="LRHFCALC"> F  </i>
   <i type="logical" name="LTHOMAS"> F  </i>
   <i type="logical" name="LMODELHF"> F  </i>
   <i name="ENCUT4O">     -1.00000000</i>
   <i type="int" name="EXXOEP">     0</i>
   <i type="int" name="FOURORBIT">     0</i>
   <i name="AEXX">      0.00000000</i>
   <i name="HFALPHA">      0.00000000</i>
   <i name="MCALPHA">      0.00000000</i>
   <i name="ALDAX">      1.00000000</i>
   <i name="AGGAX">      1.00000000</i>
   <i name="ALDAC">      1.00000000</i>
   <i name="AGGAC">      0.00000000</i>
   <i type="int" name="NKREDX">     1</i>
   <i type="int" name="NKREDY">     1</i>
   <i type="int" name="NKREDZ">     1</i>
   <i type="logical" name="SHIFTRED"> F  </i>
   <i type="logical" name="ODDONLY"> F  </i>
   <i type="logical" name="EVENONLY"> F  </i>
   <i type="int" name="LMAXFOCK">     0</i>
   <i type="int" name="NMAXFOCKAE">     0</i>
   <i type="logical" name="LFOCKAEDFT"> F  </i>
   <i name="HFSCREEN">      0.00000000</i>
   <i name="HFSCREENC">      0.00000000</i>
   <i type="int" name="NBANDSGWLOW">     0</i>
  </separator>
  <separator name="vdW DFT" >
   <i type="logical" name="LUSE_VDW"> T  </i>
   <i name="Zab_VDW">     -0.84910000</i>
   <i name="PARAM1">      0.18333333</i>
   <i name="PARAM2">      0.22000000</i>
   <i name="PARAM3">      0.00000000</i>
  </separator>
  <separator name="model GW" >
   <i type="int" name="MODEL_GW">     0</i>
   <i name="MODEL_EPS0">     20.39722663</i>
   <i name="MODEL_ALPHA">      1.00000000</i>
  </separator>
  <separator name="linear response parameters" >
   <i type="logical" name="LEPSILON"> F  </i>
   <i type="logical" name="LRPA"> F  </i>
   <i type="logical" name="LNABLA"> F  </i>
   <i type="logical" name="LVEL"> F  </i>
   <i type="int" name="KINTER">     0</i>
   <i name="CSHIFT">      0.10000000</i>
   <i name="OMEGAMAX">     -1.00000000</i>
   <i name="DEG_THRESHOLD">      0.00200000</i>
  </separator>
  <separator name="orbital magnetization" >
   <i type="logical" name="NUCIND"> F  </i>
   <v name="MAGPOS">      0.00000000      0.00000000      0.00000000</v>
   <i type="logical" name="LNICSALL"> T  </i>
   <i type="logical" name="ORBITALMAG"> F  </i>
   <i type="logical" name="LMAGBLOCH"> F  </i>
   <i type="logical" name="LCHIMAG"> F  </i>
   <i type="logical" name="LGAUGE"> T  </i>
   <i type="int" name="MAGATOM">     0</i>
   <v name="MAGDIPOL">      0.00000000      0.00000000      0.00000000</v>
   <v name="AVECCONST">      0.00000000      0.00000000      0.00000000</v>
  </separator>
  <separator name="response functions" >
   <i type="logical" name="LADDER"> F  </i>
   <i type="logical" name="LFXC"> F  </i>
   <i type="logical" name="LHARTREE"> T  </i>
   <i type="int" name="IBSE">     0</i>
   <v type="int" name="KPOINT">    -1     0     0     0</v>
   <i type="logical" name="LTCTE"> F  </i>
   <i type="logical" name="LTETE"> F  </i>
   <i type="logical" name="LTRIPLET"> F  </i>
   <i type="logical" name="LFXCEPS"> F  </i>
   <i type="logical" name="LFXHEG"> F  </i>
   <i type="int" name="NATURALO">     0</i>
   <i type="logical" name="L2ORDER"> F  </i>
   <i type="logical" name="LUSEW"> F  </i>
   <i name="ENCUTGW">     -2.00000000</i>
   <i name="ENCUTGWSOFT">     -2.00000000</i>
   <i name="ENCUTLF">     -1.00000000</i>
   <i type="int" name="LMAXMP2">    -1</i>
   <i name="SCISSOR">      0.00000000</i>
   <i type="int" name="NOMEGA">     0</i>
   <i type="int" name="NOMEGAR">     0</i>
   <i type="int" name="NBANDSGW">    -1</i>
   <i type="int" name="NBANDSO">    -1</i>
   <i type="int" name="NBANDSV">    -1</i>
   <i type="int" name="NELM">     1</i>
   <i type="int" name="NELMHF">     1</i>
   <i type="int" name="DIM">     3</i>
   <i type="int" name="ANTIRES">     0</i>
   <i name="OMEGAMAX">    -30.00000000</i>
   <i name="OMEGAMIN">    -30.00000000</i>
   <i name="OMEGATL">   -200.00000000</i>
   <i type="int" name="OMEGAGRID">     0</i>
   <i name="CSHIFT">     -0.10000000</i>
   <i type="logical" name="SELFENERGY"> F  </i>
   <i type="logical" name="LSPECTRAL"> F  </i>
   <i type="logical" name="LSPECTRALGW"> F  </i>
   <i type="logical" name="LSINGLES"> F  </i>
   <i type="logical" name="LFERMIGW"> F  </i>
   <i type="logical" name="ODDONLYGW"> F  </i>
   <i type="logical" name="EVENONLYGW"> F  </i>
   <i type="int" name="NKREDLFX">     1</i>
   <i type="int" name="NKREDLFY">     1</i>
   <i type="int" name="NKREDLFZ">     1</i>
   <i type="int" name="MAXMEM">  1800</i>
   <i type="int" name="TELESCOPE">     0</i>
   <i type="int" name="TAUPAR">     1</i>
   <i type="int" name="OMEGAPAR">    -1</i>
   <i name="LAMBDA">      1.00000000</i>
  </separator>
  <separator name="External order field" >
   <i name="OFIELD_KAPPA">      0.00000000</i>
   <v name="OFIELD_K">      0.00000000      0.00000000      0.00000000</v>
   <i name="OFIELD_Q6_NEAR">      0.00000000</i>
   <i name="OFIELD_Q6_FAR">      0.00000000</i>
   <i name="OFIELD_A">      0.00000000</i>
  </separator>
 </parameters>
 <atominfo>
  <atoms>       6 </atoms>
  <types>       4 </types>
  <array name="atoms" >
   <dimension dim="1">ion</dimension>
   <field type="string">element</field>
   <field type="int">atomtype</field>
   <set>
    <rc><c>Mo</c><c>   1</c></rc>
    <rc><c>S </c><c>   2</c></rc>
    <rc><c>S </c><c>   2</c></rc>
    <rc><c>Mo</c><c>   3</c></rc>
    <rc><c>S </c><c>   4</c></rc>
    <rc><c>S </c><c>   4</c></rc>
   </set>
  </array>
  <array name="atomtypes" >
   <dimension dim="1">type</dimension>
   <field type="int">atomspertype</field>
   <field type="string">element</field>
   <field>mass</field>
   <field>valence</field>
   <field type="string">pseudopotential</field>
   <set>
    <rc><c>   1</c><c>Mo</c><c>     95.94000000</c><c>     12.00000000</c><c> PAW_PBE Mo_pv 08Apr2002                </c></rc>
    <rc><c>   2</c><c>S </c><c>     32.06600000</c><c>      6.00000000</c><c>  PAW_PBE S 17Jan2003                   </c></rc>
    <rc><c>   1</c><c>Mo</c><c>     95.94000000</c><c>     12.00000000</c><c> PAW_PBE Mo_pv 08Apr2002                </c></rc>
    <rc><c>   2</c><c>S </c><c>     32.06600000</c><c>      6.00000000</c><c>  PAW_PBE S 17Jan2003                   </c></rc>
   </set>
  </array>
 </atominfo>
 <structure name="initialpos" >
  <crystal>
   <varray name="basis" >
    <v>       3.19031700       0.00000000       0.00000000 </v>
    <v>      -1.59515800       2.76289700       0.00000000 </v>
    <v>       0.00000000       0.00000000      23.14049200 </v>
   </varray>
   <i name="volume">    203.97226633 </i>
   <varray name="rec_basis" >
    <v>       0.31344848       0.18096941       0.00000000 </v>
    <v>       0.00000000       0.36193894       0.00000000 </v>
    <v>       0.00000000       0.00000000       0.04321429 </v>
   </varray>
  </crystal>
  <varray name="positions" >
   <v>       0.66666700       0.33333300       0.06785900 </v>
   <v>       0.33333300       0.66666700       0.00000000 </v>
   <v>       0.33333300       0.66666700       0.13571500 </v>
   <v>       0.95238100       0.04761900       0.37643000 </v>
   <v>       0.61904700       0.38095300       0.30857200 </v>
   <v>       0.61904700       0.38095300       0.44428600 </v>
  </varray>
 </structure>
 <calculation>
  <scstep>
   <time name="dav">   65.42   65.47</time>
   <time name="total">   84.95   85.03</time>
   <energy>
    <i name="alphaZ">    104.15310261 </i>
    <i name="ewald">   6503.39428715 </i>
    <i name="hartreedc">  -9913.53887725 </i>
    <i name="XCdc">    128.44048865 </i>
    <i name="pawpsdc">   2252.92270536 </i>
    <i name="pawaedc">  -2205.68654582 </i>
    <i name="eentropy">     -0.00138736 </i>
    <i name="bandstr">   -159.95042843 </i>
    <i name="atom">   3688.31848598 </i>
    <i name="e_fr_energy">    398.05183089 </i>
    <i name="e_wo_entrp">    398.05321825 </i>
    <i name="e_0_energy">    398.05229334 </i>
   </energy>
  </scstep>
  <scstep>
   <time name="dav">   70.96   71.02</time>
   <time name="total">   70.97   71.03</time>
   <energy>
    <i name="e_fr_energy">     -1.84885800 </i>
    <i name="e_wo_entrp">     -1.85022810 </i>
    <i name="e_0_energy">     -1.84931470 </i>
   </energy>
  </scstep>
  <scstep>
   <time name="dav">   72.48   72.54</time>
   <time name="total">   72.49   72.55</time>
   <energy>
    <i name="e_fr_energy">    -32.93571769 </i>
    <i name="e_wo_entrp">    -32.93657937 </i>
    <i name="e_0_energy">    -32.93600491 </i>
   </energy>
  </scstep>
  <scstep>
   <time name="dav">   69.77   69.82</time>
   <time name="total">   69.78   69.83</time>
   <energy>
    <i name="e_fr_energy">    -33.79468240 </i>
    <i name="e_wo_entrp">    -33.79633465 </i>
    <i name="e_0_energy">    -33.79523315 </i>
   </energy>
  </scstep>
  <scstep>
   <time name="dav">   72.29   72.35</time>
   <time name="total">   78.05   78.11</time>
   <energy>
    <i name="e_fr_energy">    -33.82118866 </i>
    <i name="e_wo_entrp">    -33.82288833 </i>
    <i name="e_0_energy">    -33.82175522 </i>
   </energy>
  </scstep>
  <scstep>
   <time name="diag">   13.68   13.69</time>
   <time name="diis">   46.10   46.13</time>
   <time name="orth">    0.44    0.44</time>
   <time name="total">   84.74   84.81</time>
   <energy>
    <i name="e_fr_energy">    -30.19446022 </i>
    <i name="e_wo_entrp">    -30.19385866 </i>
    <i name="e_0_energy">    -30.19425970 </i>
   </energy>
  </scstep>
  <scstep>
   <time name="diag">   13.33   13.34</time>
   <time name="diis">   45.04   45.07</time>
   <time name="orth">    0.43    0.43</time>
   <time name="total">   83.24   83.36</time>
   <energy>
    <i name="e_fr_energy">    -33.10948183 </i>
    <i name="e_wo_entrp">    -33.10985373 </i>
    <i name="e_0_energy">    -33.10960580 </i>
   </energy>
  </scstep>
  <scstep>
   <time name="diag">   13.34   13.35</time>
   <time name="diis">   45.77   45.81</time>
   <time name="orth">    0.43    0.43</time>
   <time name="total">   83.93   84.00</time>
   <energy>
    <i name="e_fr_energy">    -34.70078033 </i>
    <i name="e_wo_entrp">    -34.70098479 </i>
    <i name="e_0_energy">    -34.70084848 </i>
   </energy>
  </scstep>
  <scstep>
   <time name="diag">   13.16   13.17</time>
   <time name="diis">   44.39   44.42</time>
   <time name="orth">    0.43    0.43</time>
   <time name="total">   82.28   82.35</time>
   <energy>
    <i name="e_fr_energy">    -36.93832746 </i>
    <i name="e_wo_entrp">    -36.93848914 </i>
    <i name="e_0_energy">    -36.93838135 </i>
   </energy>
  </scstep>
  <scstep>
   <time name="diag">   13.18   13.19</time>
   <time name="diis">   41.69   41.72</time>
   <time name="orth">    0.44    0.44</time>
   <time name="total">   79.57   79.63</time>
   <energy>
    <i name="e_fr_energy">    -38.80398472 </i>
    <i name="e_wo_entrp">    -38.80414669 </i>
    <i name="e_0_energy">    -38.80403871 </i>
   </energy>
  </scstep>
  <scstep>
   <time name="diag">   13.20   13.21</time>
   <time name="diis">   44.25   44.28</time>
   <time name="orth">    0.42    0.42</time>
   <time name="total">   82.06   82.12</time>
   <energy>
    <i name="e_fr_energy">    -39.27717264 </i>
    <i name="e_wo_entrp">    -39.27749906 </i>
    <i name="e_0_energy">    -39.27728144 </i>
   </energy>
  </scstep>
  <scstep>
   <time name="diag">   13.22   13.23</time>
   <time name="diis">   43.69   43.73</time>
   <time name="orth">    0.43    0.43</time>
   <time name="total">   81.57   81.64</time>
   <energy>
    <i name="e_fr_energy">    -39.36638164 </i>
    <i name="e_wo_entrp">    -39.36672762 </i>
    <i name="e_0_energy">    -39.36649697 </i>
   </energy>
  </scstep>
  <scstep>
   <time name="diag">   13.16   13.17</time>
   <time name="diis">   47.57   47.60</time>
   <time name="orth">    0.42    0.42</time>
   <time name="total">   85.37   85.44</time>
   <energy>
    <i name="e_fr_energy">    -39.37707956 </i>
    <i name="e_wo_entrp">    -39.37741502 </i>
    <i name="e_0_energy">    -39.37719138 </i>
   </energy>
  </scstep>
  <scstep>
   <time name="diag">   13.14   13.15</time>
   <time name="diis">   48.57   48.61</time>
   <time name="orth">    0.42    0.42</time>
   <time name="total">   86.41   86.47</time>
   <energy>
    <i name="e_fr_energy">    -39.38083088 </i>
    <i name="e_wo_entrp">    -39.38116764 </i>
    <i name="e_0_energy">    -39.38094314 </i>
   </energy>
  </scstep>
  <scstep>
   <time name="diag">   13.09   13.10</time>
   <time name="diis">   41.21   41.24</time>
   <time name="orth">    0.42    0.42</time>
   <time name="total">   79.01   79.07</time>
   <energy>
    <i name="e_fr_energy">    -39.38036738 </i>
    <i name="e_wo_entrp">    -39.38070167 </i>
    <i name="e_0_energy">    -39.38047881 </i>
   </energy>
  </scstep>
  <scstep>
   <time name="diag">   13.19   13.20</time>
   <time name="diis">   33.17   33.20</time>
   <time name="orth">    0.43    0.43</time>
   <time name="total">   71.11   71.16</time>
   <energy>
    <i name="e_fr_energy">    -39.38087624 </i>
    <i name="e_wo_entrp">    -39.38121047 </i>
    <i name="e_0_energy">    -39.38098765 </i>
   </energy>
  </scstep>
  <scstep>
   <time name="diag">   13.15   13.16</time>
   <time name="diis">   32.36   32.38</time>
   <time name="orth">    0.43    0.43</time>
   <time name="total">   64.57   64.62</time>
   <energy>
    <i name="alphaZ">    104.15310261 </i>
    <i name="ewald">   6503.39428715 </i>
    <i name="hartreedc">  -9897.52533956 </i>
    <i name="XCdc">    122.64540438 </i>
    <i name="pawpsdc">   2399.04426834 </i>
    <i name="pawaedc">  -2361.22995234 </i>
    <i name="eentropy">      0.00033429 </i>
    <i name="bandstr">   -598.18146978 </i>
    <i name="atom">   3688.31848598 </i>
    <i name="e_fr_energy">    -39.38087892 </i>
    <i name="e_wo_entrp">    -39.38121321 </i>
    <i name="e_0_energy">    -39.38099035 </i>
   </energy>
  </scstep>
  <structure>
   <crystal>
    <varray name="basis" >
     <v>       3.19031700       0.00000000       0.00000000 </v>
     <v>      -1.59515800       2.76289700       0.00000000 </v>
     <v>       0.00000000       0.00000000      23.14049200 </v>
    </varray>
    <i name="volume">    203.97226633 </i>
    <varray name="rec_basis" >
     <v>       0.31344848       0.18096941       0.00000000 </v>
     <v>       0.00000000       0.36193894       0.00000000 </v>
     <v>       0.00000000       0.00000000       0.04321429 </v>
    </varray>
   </crystal>
   <varray name="positions" >
    <v>       0.66666700       0.33333300       0.06785900 </v>
    <v>       0.33333300       0.66666700       0.00000000 </v>
    <v>       0.33333300       0.66666700       0.13571500 </v>
    <v>       0.95238100       0.04761900       0.37643000 </v>
    <v>       0.61904700       0.38095300       0.30857200 </v>
    <v>       0.61904700       0.38095300       0.44428600 </v>
   </varray>
  </structure>
  <varray name="forces" >
   <v>      -0.00025758       0.00014871       0.00394094 </v>
   <v>       0.00036393      -0.00021012      -0.05381169 </v>
   <v>      -0.00130345       0.00075255       0.13764784 </v>
   <v>       0.00136361      -0.00078728      -0.00259228 </v>
   <v>      -0.00035096       0.00020262      -0.14160517 </v>
   <v>       0.00018444      -0.00010649       0.05642035 </v>
  </varray>
  <varray name="stress" >
   <v>       3.10521905      -0.01980344       0.08643133 </v>
   <v>      -0.01980344       3.08235457      -0.04990118 </v>
   <v>       0.08643139      -0.04990122      -1.56175504 </v>
  </varray>
  <energy>
   <i name="e_fr_energy">    -39.38087892 </i>
   <i name="e_wo_entrp">    -39.38099035 </i>
   <i name="e_0_energy">      0.00033429 </i>
  </energy>
  <time name="totalsc"> 1467.23 1468.48</time>
  <eigenvalues>
   <array>
    <dimension dim="1">band</dimension>
    <dimension dim="2">kpoint</dimension>
    <dimension dim="3">spin</dimension>
    <field>eigene</field>
    <field>occ</field>
    <set>
     <set comment="spin 1">
      <set comment="kpoint 1">
       <r>  -34.9859    1.0000 </r>
       <r>  -34.9794    1.0000 </r>
       <r>  -34.7959    1.0000 </r>
       <r>  -34.7958    1.0000 </r>
       <r>  -34.7895    1.0000 </r>
       <r>  -34.7894    1.0000 </r>
       <r>  -13.9446    1.0000 </r>
       <r>  -13.9245    1.0000 </r>
       <r>  -12.6673    1.0000 </r>
       <r>  -12.6326    1.0000 </r>
       <r>   -5.5913    1.0000 </r>
       <r>   -5.4526    1.0000 </r>
       <r>   -2.6146    1.0000 </r>
       <r>   -2.6146    1.0000 </r>
       <r>   -2.6086    1.0000 </r>
       <r>   -2.6085    1.0000 </r>
       <r>   -2.0258    1.0000 </r>
       <r>   -1.6086    1.0000 </r>
       <r>   -1.5205    1.0000 </r>
       <r>   -1.5204    1.0000 </r>
       <r>   -1.5143    1.0000 </r>
       <r>   -1.5141    1.0000 </r>
       <r>   -0.1775    1.0000 </r>
       <r>    0.0928    0.8231 </r>
       <r>    2.7103   -0.0000 </r>
       <r>    2.7121   -0.0000 </r>
       <r>    2.7187   -0.0000 </r>
       <r>    2.7204   -0.0000 </r>
       <r>    2.8918    0.0000 </r>
       <r>    2.8945    0.0000 </r>
       <r>    2.9016    0.0000 </r>
       <r>    2.9046    0.0000 </r>
       <r>    5.3472    0.0000 </r>
       <r>    5.6527    0.0000 </r>
       <r>    6.1860    0.0000 </r>
       <r>    6.5712    0.0000 </r>
      </set>
      <set comment="kpoint 2">
       <r>  -34.9818    1.0000 </r>
       <r>  -34.9753    1.0000 </r>
       <r>  -34.8171    1.0000 </r>
       <r>  -34.8107    1.0000 </r>
       <r>  -34.8007    1.0000 </r>
       <r>  -34.7943    1.0000 </r>
       <r>  -13.8580    1.0000 </r>
       <r>  -13.8379    1.0000 </r>
       <r>  -12.6314    1.0000 </r>
       <r>  -12.5976    1.0000 </r>
       <r>   -5.4917    1.0000 </r>
       <r>   -5.3535    1.0000 </r>
       <r>   -2.8012    1.0000 </r>
       <r>   -2.7951    1.0000 </r>
       <r>   -2.5239    1.0000 </r>
       <r>   -2.5178    1.0000 </r>
       <r>   -2.3558    1.0000 </r>
       <r>   -2.1311    1.0000 </r>
       <r>   -1.6579    1.0000 </r>
       <r>   -1.6515    1.0000 </r>
       <r>   -1.3091    1.0000 </r>
       <r>   -1.1318    1.0000 </r>
       <r>   -0.2023    1.0000 </r>
       <r>    0.0327    1.0272 </r>
       <r>    2.5979   -0.0000 </r>
       <r>    2.6117   -0.0000 </r>
       <r>    2.6489   -0.0000 </r>
       <r>    2.7008   -0.0000 </r>
       <r>    2.7976   -0.0000 </r>
       <r>    2.8099   -0.0000 </r>
       <r>    2.8576   -0.0000 </r>
       <r>    2.8679    0.0000 </r>
       <r>    5.4837    0.0000 </r>
       <r>    5.7992    0.0000 </r>
       <r>    6.4823    0.0000 </r>
       <r>    6.9458    0.0000 </r>
      </set>
      <set comment="kpoint 3">
       <r>  -34.9704    1.0000 </r>
       <r>  -34.9639    1.0000 </r>
       <r>  -34.8756    1.0000 </r>
       <r>  -34.8692    1.0000 </r>
       <r>  -34.8141    1.0000 </r>
       <r>  -34.8077    1.0000 </r>
       <r>  -13.6096    1.0000 </r>
       <r>  -13.5900    1.0000 </r>
       <r>  -12.5287    1.0000 </r>
       <r>  -12.4977    1.0000 </r>
       <r>   -5.2316    1.0000 </r>
       <r>   -5.0973    1.0000 </r>
       <r>   -3.2494    1.0000 </r>
       <r>   -3.2424    1.0000 </r>
       <r>   -2.8858    1.0000 </r>
       <r>   -2.7370    1.0000 </r>
       <r>   -2.2682    1.0000 </r>
       <r>   -2.2619    1.0000 </r>
       <r>   -1.9930    1.0000 </r>
       <r>   -1.9864    1.0000 </r>
       <r>   -1.2013    1.0000 </r>
       <r>   -1.0000    1.0000 </r>
       <r>   -0.3420    1.0000 </r>
       <r>   -0.2011    1.0000 </r>
       <r>    2.1933   -0.0000 </r>
       <r>    2.3402   -0.0000 </r>
       <r>    2.5053   -0.0000 </r>
       <r>    2.5683   -0.0000 </r>
       <r>    2.5819   -0.0000 </r>
       <r>    2.5847   -0.0000 </r>
       <r>    3.2053    0.0000 </r>
       <r>    3.2180    0.0000 </r>
       <r>    5.8390    0.0000 </r>
       <r>    6.1506    0.0000 </r>
       <r>    6.9893    0.0000 </r>
       <r>    7.7782    0.0000 </r>
      </set>
      <set comment="kpoint 4">
       <r>  -34.9570    1.0000 </r>
       <r>  -34.9543    1.0000 </r>
       <r>  -34.9506    1.0000 </r>
       <r>  -34.9478    1.0000 </r>
       <r>  -34.8329    1.0000 </r>
       <r>  -34.8265    1.0000 </r>
       <r>  -13.2349    1.0000 </r>
       <r>  -13.2162    1.0000 </r>
       <r>  -12.3746    1.0000 </r>
       <r>  -12.3478    1.0000 </r>
       <r>   -4.9779    1.0000 </r>
       <r>   -4.8684    1.0000 </r>
       <r>   -3.6978    1.0000 </r>
       <r>   -3.6744    1.0000 </r>
       <r>   -3.4424    1.0000 </r>
       <r>   -3.3465    1.0000 </r>
       <r>   -2.3880    1.0000 </r>
       <r>   -2.3811    1.0000 </r>
       <r>   -1.8986    1.0000 </r>
       <r>   -1.8919    1.0000 </r>
       <r>   -1.3668    1.0000 </r>
       <r>   -1.1891    1.0000 </r>
       <r>   -0.6691    1.0000 </r>
       <r>   -0.6119    1.0000 </r>
       <r>    1.9802   -0.0000 </r>
       <r>    2.1921   -0.0000 </r>
       <r>    2.3182   -0.0000 </r>
       <r>    2.3331   -0.0000 </r>
       <r>    2.7066   -0.0000 </r>
       <r>    2.8475   -0.0000 </r>
       <r>    3.5871    0.0000 </r>
       <r>    3.6047    0.0000 </r>
       <r>    6.3694    0.0000 </r>
       <r>    6.6417    0.0000 </r>
       <r>    7.3655    0.0000 </r>
       <r>    8.0498    0.0000 </r>
      </set>
      <set comment="kpoint 5">
       <r>  -35.0423    1.0000 </r>
       <r>  -35.0359    1.0000 </r>
       <r>  -34.9372    1.0000 </r>
       <r>  -34.9307    1.0000 </r>
       <r>  -34.8528    1.0000 </r>
       <r>  -34.8464    1.0000 </r>
       <r>  -12.7957    1.0000 </r>
       <r>  -12.7789    1.0000 </r>
       <r>  -12.1968    1.0000 </r>
       <r>  -12.1753    1.0000 </r>
       <r>   -5.0654    1.0000 </r>
       <r>   -5.0129    1.0000 </r>
       <r>   -3.9937    1.0000 </r>
       <r>   -3.9319    1.0000 </r>
       <r>   -3.8434    1.0000 </r>
       <r>   -3.7850    1.0000 </r>
       <r>   -2.7433    1.0000 </r>
       <r>   -2.7362    1.0000 </r>
       <r>   -1.6347    1.0000 </r>
       <r>   -1.5027    1.0000 </r>
       <r>   -1.4949    1.0000 </r>
       <r>   -1.4863    1.0000 </r>
       <r>   -0.9633    1.0000 </r>
       <r>   -0.9261    1.0000 </r>
       <r>    2.0832   -0.0000 </r>
       <r>    2.1495   -0.0000 </r>
       <r>    2.1624   -0.0000 </r>
       <r>    2.2729   -0.0000 </r>
       <r>    3.1233    0.0000 </r>
       <r>    3.2931    0.0000 </r>
       <r>    3.8897    0.0000 </r>
       <r>    3.9138    0.0000 </r>
       <r>    7.0013    0.0000 </r>
       <r>    7.2044    0.0000 </r>
       <r>    7.5761    0.0000 </r>
       <r>    8.0822    0.0000 </r>
      </set>
      <set comment="kpoint 6">
       <r>  -35.1121    1.0000 </r>
       <r>  -35.1057    1.0000 </r>
       <r>  -34.9229    1.0000 </r>
       <r>  -34.9165    1.0000 </r>
       <r>  -34.8693    1.0000 </r>
       <r>  -34.8629    1.0000 </r>
       <r>  -12.3860    1.0000 </r>
       <r>  -12.3723    1.0000 </r>
       <r>  -12.0355    1.0000 </r>
       <r>  -12.0195    1.0000 </r>
       <r>   -5.3995    1.0000 </r>
       <r>   -5.3742    1.0000 </r>
       <r>   -4.4339    1.0000 </r>
       <r>   -4.3954    1.0000 </r>
       <r>   -3.9065    1.0000 </r>
       <r>   -3.8485    1.0000 </r>
       <r>   -3.0031    1.0000 </r>
       <r>   -2.9960    1.0000 </r>
       <r>   -1.8403    1.0000 </r>
       <r>   -1.7182    1.0000 </r>
       <r>   -1.1851    1.0000 </r>
       <r>   -1.1747    1.0000 </r>
       <r>   -0.9139    1.0000 </r>
       <r>   -0.8656    1.0000 </r>
       <r>    2.1044   -0.0000 </r>
       <r>    2.1140   -0.0000 </r>
       <r>    2.3431   -0.0000 </r>
       <r>    2.4630   -0.0000 </r>
       <r>    3.5291    0.0000 </r>
       <r>    3.6857    0.0000 </r>
       <r>    4.0782    0.0000 </r>
       <r>    4.1082    0.0000 </r>
       <r>    6.8703    0.0000 </r>
       <r>    7.1081    0.0000 </r>
       <r>    7.6952    0.0000 </r>
       <r>    7.8089    0.0000 </r>
      </set>
      <set comment="kpoint 7">
       <r>  -35.1511    1.0000 </r>
       <r>  -35.1447    1.0000 </r>
       <r>  -34.9149    1.0000 </r>
       <r>  -34.9084    1.0000 </r>
       <r>  -34.8785    1.0000 </r>
       <r>  -34.8721    1.0000 </r>
       <r>  -12.1292    1.0000 </r>
       <r>  -12.1184    1.0000 </r>
       <r>  -11.9375    1.0000 </r>
       <r>  -11.9255    1.0000 </r>
       <r>   -5.6424    1.0000 </r>
       <r>   -5.6248    1.0000 </r>
       <r>   -4.6889    1.0000 </r>
       <r>   -4.6611    1.0000 </r>
       <r>   -4.0082    1.0000 </r>
       <r>   -3.9575    1.0000 </r>
       <r>   -3.1391    1.0000 </r>
       <r>   -3.1318    1.0000 </r>
       <r>   -1.9397    1.0000 </r>
       <r>   -1.8345    1.0000 </r>
       <r>   -1.0178    1.0000 </r>
       <r>   -1.0054    1.0000 </r>
       <r>   -0.6870    1.0000 </r>
       <r>   -0.6396    1.0000 </r>
       <r>    2.1301   -0.0000 </r>
       <r>    2.1374   -0.0000 </r>
       <r>    2.5831   -0.0000 </r>
       <r>    2.6306   -0.0000 </r>
       <r>    3.7574    0.0000 </r>
       <r>    3.8869    0.0000 </r>
       <r>    4.1638    0.0000 </r>
       <r>    4.1973    0.0000 </r>
       <r>    6.1139    0.0000 </r>
       <r>    6.4001    0.0000 </r>
       <r>    7.9234    0.0000 </r>
       <r>    7.9911    0.0000 </r>
      </set>
      <set comment="kpoint 8">
       <r>  -34.9740    1.0000 </r>
       <r>  -34.9676    1.0000 </r>
       <r>  -34.8560    1.0000 </r>
       <r>  -34.8496    1.0000 </r>
       <r>  -34.8108    1.0000 </r>
       <r>  -34.8043    1.0000 </r>
       <r>  -13.6904    1.0000 </r>
       <r>  -13.6706    1.0000 </r>
       <r>  -12.5620    1.0000 </r>
       <r>  -12.5301    1.0000 </r>
       <r>   -5.3098    1.0000 </r>
       <r>   -5.1733    1.0000 </r>
       <r>   -3.1139    1.0000 </r>
       <r>   -3.1078    1.0000 </r>
       <r>   -2.7142    1.0000 </r>
       <r>   -2.5407    1.0000 </r>
       <r>   -2.3556    1.0000 </r>
       <r>   -2.3495    1.0000 </r>
       <r>   -1.9707    1.0000 </r>
       <r>   -1.9646    1.0000 </r>
       <r>   -1.1364    1.0000 </r>
       <r>   -0.9424    1.0000 </r>
       <r>   -0.2844    1.0000 </r>
       <r>   -0.1142    1.0012 </r>
       <r>    2.3063   -0.0000 </r>
       <r>    2.4153   -0.0000 </r>
       <r>    2.4654   -0.0000 </r>
       <r>    2.5221   -0.0000 </r>
       <r>    2.6313   -0.0000 </r>
       <r>    2.6394   -0.0000 </r>
       <r>    3.1381    0.0000 </r>
       <r>    3.1446    0.0000 </r>
       <r>    5.7272    0.0000 </r>
       <r>    6.0442    0.0000 </r>
       <r>    6.8983    0.0000 </r>
       <r>    7.5929    0.0000 </r>
      </set>
      <set comment="kpoint 9">
       <r>  -34.9603    1.0000 </r>
       <r>  -34.9538    1.0000 </r>
       <r>  -34.9236    1.0000 </r>
       <r>  -34.9172    1.0000 </r>
       <r>  -34.8293    1.0000 </r>
       <r>  -34.8228    1.0000 </r>
       <r>  -13.3783    1.0000 </r>
       <r>  -13.3592    1.0000 </r>
       <r>  -12.4330    1.0000 </r>
       <r>  -12.4045    1.0000 </r>
       <r>   -5.0339    1.0000 </r>
       <r>   -4.9090    1.0000 </r>
       <r>   -3.5508    1.0000 </r>
       <r>   -3.5393    1.0000 </r>
       <r>   -3.1707    1.0000 </r>
       <r>   -3.0504    1.0000 </r>
       <r>   -2.4545    1.0000 </r>
       <r>   -2.4414    1.0000 </r>
       <r>   -2.0710    1.0000 </r>
       <r>   -2.0647    1.0000 </r>
       <r>   -1.1113    1.0000 </r>
       <r>   -0.9410    1.0000 </r>
       <r>   -0.5259    1.0000 </r>
       <r>   -0.4465    1.0000 </r>
       <r>    1.9820   -0.0000 </r>
       <r>    2.1566   -0.0000 </r>
       <r>    2.4050   -0.0000 </r>
       <r>    2.4238   -0.0000 </r>
       <r>    2.4739   -0.0000 </r>
       <r>    2.5769   -0.0000 </r>
       <r>    3.5442    0.0000 </r>
       <r>    3.5569    0.0000 </r>
       <r>    6.1677    0.0000 </r>
       <r>    6.4675    0.0000 </r>
       <r>    7.2861    0.0000 </r>
       <r>    7.6264    0.0000 </r>
      </set>
      <set comment="kpoint 10">
       <r>  -35.0039    1.0000 </r>
       <r>  -34.9975    1.0000 </r>
       <r>  -34.9437    1.0000 </r>
       <r>  -34.9372    1.0000 </r>
       <r>  -34.8516    1.0000 </r>
       <r>  -34.8452    1.0000 </r>
       <r>  -12.9692    1.0000 </r>
       <r>  -12.9515    1.0000 </r>
       <r>  -12.2652    1.0000 </r>
       <r>  -12.2414    1.0000 </r>
       <r>   -4.9344    1.0000 </r>
       <r>   -4.8570    1.0000 </r>
       <r>   -3.8166    1.0000 </r>
       <r>   -3.7682    1.0000 </r>
       <r>   -3.7003    1.0000 </r>
       <r>   -3.6361    1.0000 </r>
       <r>   -2.8418    1.0000 </r>
       <r>   -2.8126    1.0000 </r>
       <r>   -1.7868    1.0000 </r>
       <r>   -1.7799    1.0000 </r>
       <r>   -1.3230    1.0000 </r>
       <r>   -1.1890    1.0000 </r>
       <r>   -0.8345    1.0000 </r>
       <r>   -0.8041    1.0000 </r>
       <r>    1.8881   -0.0000 </r>
       <r>    2.0387   -0.0000 </r>
       <r>    2.2918   -0.0000 </r>
       <r>    2.3528   -0.0000 </r>
       <r>    2.7614   -0.0000 </r>
       <r>    2.8999    0.0000 </r>
       <r>    3.8975    0.0000 </r>
       <r>    3.9176    0.0000 </r>
       <r>    6.7742    0.0000 </r>
       <r>    7.0156    0.0000 </r>
       <r>    7.6295    0.0000 </r>
       <r>    8.0871    0.0000 </r>
      </set>
      <set comment="kpoint 11">
       <r>  -35.0785    1.0000 </r>
       <r>  -35.0722    1.0000 </r>
       <r>  -34.9280    1.0000 </r>
       <r>  -34.9215    1.0000 </r>
       <r>  -34.8727    1.0000 </r>
       <r>  -34.8662    1.0000 </r>
       <r>  -12.5397    1.0000 </r>
       <r>  -12.5245    1.0000 </r>
       <r>  -12.0919    1.0000 </r>
       <r>  -12.0735    1.0000 </r>
       <r>   -5.1839    1.0000 </r>
       <r>   -5.1490    1.0000 </r>
       <r>   -4.2523    1.0000 </r>
       <r>   -4.2139    1.0000 </r>
       <r>   -3.8286    1.0000 </r>
       <r>   -3.7664    1.0000 </r>
       <r>   -3.0540    1.0000 </r>
       <r>   -3.0259    1.0000 </r>
       <r>   -1.6378    1.0000 </r>
       <r>   -1.6190    1.0000 </r>
       <r>   -1.6024    1.0000 </r>
       <r>   -1.5058    1.0000 </r>
       <r>   -0.8564    1.0000 </r>
       <r>   -0.8342    1.0000 </r>
       <r>    1.9916   -0.0000 </r>
       <r>    2.0822   -0.0000 </r>
       <r>    2.3371   -0.0000 </r>
       <r>    2.4111   -0.0000 </r>
       <r>    3.1949    0.0000 </r>
       <r>    3.3324    0.0000 </r>
       <r>    4.1050    0.0000 </r>
       <r>    4.1263    0.0000 </r>
       <r>    7.2964    0.0000 </r>
       <r>    7.5123    0.0000 </r>
       <r>    7.6646    0.0000 </r>
       <r>    7.9069    0.0000 </r>
      </set>
      <set comment="kpoint 12">
       <r>  -35.1309    1.0000 </r>
       <r>  -35.1245    1.0000 </r>
       <r>  -34.9168    1.0000 </r>
       <r>  -34.9104    1.0000 </r>
       <r>  -34.8875    1.0000 </r>
       <r>  -34.8811    1.0000 </r>
       <r>  -12.1986    1.0000 </r>
       <r>  -12.1867    1.0000 </r>
       <r>  -11.9579    1.0000 </r>
       <r>  -11.9445    1.0000 </r>
       <r>   -5.4729    1.0000 </r>
       <r>   -5.4526    1.0000 </r>
       <r>   -4.6454    1.0000 </r>
       <r>   -4.6202    1.0000 </r>
       <r>   -3.9265    1.0000 </r>
       <r>   -3.8732    1.0000 </r>
       <r>   -3.1442    1.0000 </r>
       <r>   -3.1273    1.0000 </r>
       <r>   -1.8465    1.0000 </r>
       <r>   -1.7508    1.0000 </r>
       <r>   -1.4830    1.0000 </r>
       <r>   -1.4648    1.0000 </r>
       <r>   -0.6384    1.0000 </r>
       <r>   -0.6101    1.0000 </r>
       <r>    2.1231   -0.0000 </r>
       <r>    2.1566   -0.0000 </r>
       <r>    2.5173   -0.0000 </r>
       <r>    2.5765   -0.0000 </r>
       <r>    3.6035    0.0000 </r>
       <r>    3.7101    0.0000 </r>
       <r>    4.1170    0.0000 </r>
       <r>    4.1497    0.0000 </r>
       <r>    6.5200    0.0000 </r>
       <r>    6.8048    0.0000 </r>
       <r>    8.0606    0.0000 </r>
       <r>    8.1649    0.0000 </r>
      </set>
      <set comment="kpoint 13">
       <r>  -35.1497    1.0000 </r>
       <r>  -35.1433    1.0000 </r>
       <r>  -34.9128    1.0000 </r>
       <r>  -34.9063    1.0000 </r>
       <r>  -34.8929    1.0000 </r>
       <r>  -34.8865    1.0000 </r>
       <r>  -12.0656    1.0000 </r>
       <r>  -12.0556    1.0000 </r>
       <r>  -11.9067    1.0000 </r>
       <r>  -11.8956    1.0000 </r>
       <r>   -5.5908    1.0000 </r>
       <r>   -5.5742    1.0000 </r>
       <r>   -4.7888    1.0000 </r>
       <r>   -4.7674    1.0000 </r>
       <r>   -3.9966    1.0000 </r>
       <r>   -3.9469    1.0000 </r>
       <r>   -3.1658    1.0000 </r>
       <r>   -3.1563    1.0000 </r>
       <r>   -1.9306    1.0000 </r>
       <r>   -1.8392    1.0000 </r>
       <r>   -1.4115    1.0000 </r>
       <r>   -1.3989    1.0000 </r>
       <r>   -0.5020    1.0000 </r>
       <r>   -0.4698    1.0000 </r>
       <r>    2.1516   -0.0000 </r>
       <r>    2.1612   -0.0000 </r>
       <r>    2.6658   -0.0000 </r>
       <r>    2.6964   -0.0000 </r>
       <r>    3.8744    0.0000 </r>
       <r>    3.9132    0.0000 </r>
       <r>    3.9962    0.0000 </r>
       <r>    4.0567    0.0000 </r>
       <r>    6.0925    0.0000 </r>
       <r>    6.3981    0.0000 </r>
       <r>    8.2934    0.0000 </r>
       <r>    8.3728    0.0000 </r>
      </set>
      <set comment="kpoint 14">
       <r>  -35.1309    1.0000 </r>
       <r>  -35.1245    1.0000 </r>
       <r>  -34.9168    1.0000 </r>
       <r>  -34.9104    1.0000 </r>
       <r>  -34.8875    1.0000 </r>
       <r>  -34.8811    1.0000 </r>
       <r>  -12.1985    1.0000 </r>
       <r>  -12.1868    1.0000 </r>
       <r>  -11.9578    1.0000 </r>
       <r>  -11.9446    1.0000 </r>
       <r>   -5.4728    1.0000 </r>
       <r>   -5.4526    1.0000 </r>
       <r>   -4.6452    1.0000 </r>
       <r>   -4.6204    1.0000 </r>
       <r>   -3.9264    1.0000 </r>
       <r>   -3.8734    1.0000 </r>
       <r>   -3.1443    1.0000 </r>
       <r>   -3.1271    1.0000 </r>
       <r>   -1.8450    1.0000 </r>
       <r>   -1.7517    1.0000 </r>
       <r>   -1.4781    1.0000 </r>
       <r>   -1.4706    1.0000 </r>
       <r>   -0.6388    1.0000 </r>
       <r>   -0.6096    1.0000 </r>
       <r>    2.1223   -0.0000 </r>
       <r>    2.1575   -0.0000 </r>
       <r>    2.5178   -0.0000 </r>
       <r>    2.5761   -0.0000 </r>
       <r>    3.6084    0.0000 </r>
       <r>    3.7051    0.0000 </r>
       <r>    4.1148    0.0000 </r>
       <r>    4.1517    0.0000 </r>
       <r>    6.5198    0.0000 </r>
       <r>    6.8046    0.0000 </r>
       <r>    8.0608    0.0000 </r>
       <r>    8.1097    0.0000 </r>
      </set>
      <set comment="kpoint 15">
       <r>  -35.0786    1.0000 </r>
       <r>  -35.0722    1.0000 </r>
       <r>  -34.9280    1.0000 </r>
       <r>  -34.9215    1.0000 </r>
       <r>  -34.8726    1.0000 </r>
       <r>  -34.8662    1.0000 </r>
       <r>  -12.5396    1.0000 </r>
       <r>  -12.5246    1.0000 </r>
       <r>  -12.0918    1.0000 </r>
       <r>  -12.0737    1.0000 </r>
       <r>   -5.1838    1.0000 </r>
       <r>   -5.1490    1.0000 </r>
       <r>   -4.2520    1.0000 </r>
       <r>   -4.2141    1.0000 </r>
       <r>   -3.8281    1.0000 </r>
       <r>   -3.7670    1.0000 </r>
       <r>   -3.0539    1.0000 </r>
       <r>   -3.0259    1.0000 </r>
       <r>   -1.6309    1.0000 </r>
       <r>   -1.6215    1.0000 </r>
       <r>   -1.6039    1.0000 </r>
       <r>   -1.5091    1.0000 </r>
       <r>   -0.8563    1.0000 </r>
       <r>   -0.8344    1.0000 </r>
       <r>    1.9919   -0.0000 </r>
       <r>    2.0822   -0.0000 </r>
       <r>    2.3375   -0.0000 </r>
       <r>    2.4105   -0.0000 </r>
       <r>    3.1988    0.0000 </r>
       <r>    3.3281    0.0000 </r>
       <r>    4.1062    0.0000 </r>
       <r>    4.1254    0.0000 </r>
       <r>    7.2995    0.0000 </r>
       <r>    7.5181    0.0000 </r>
       <r>    7.6667    0.0000 </r>
       <r>    8.0004    0.0000 </r>
      </set>
      <set comment="kpoint 16">
       <r>  -35.0039    1.0000 </r>
       <r>  -34.9975    1.0000 </r>
       <r>  -34.9437    1.0000 </r>
       <r>  -34.9372    1.0000 </r>
       <r>  -34.8516    1.0000 </r>
       <r>  -34.8452    1.0000 </r>
       <r>  -12.9691    1.0000 </r>
       <r>  -12.9516    1.0000 </r>
       <r>  -12.2650    1.0000 </r>
       <r>  -12.2415    1.0000 </r>
       <r>   -4.9343    1.0000 </r>
       <r>   -4.8570    1.0000 </r>
       <r>   -3.8156    1.0000 </r>
       <r>   -3.7690    1.0000 </r>
       <r>   -3.7002    1.0000 </r>
       <r>   -3.6364    1.0000 </r>
       <r>   -2.8413    1.0000 </r>
       <r>   -2.8129    1.0000 </r>
       <r>   -1.7868    1.0000 </r>
       <r>   -1.7798    1.0000 </r>
       <r>   -1.3206    1.0000 </r>
       <r>   -1.1915    1.0000 </r>
       <r>   -0.8339    1.0000 </r>
       <r>   -0.8054    1.0000 </r>
       <r>    1.8889   -0.0000 </r>
       <r>    2.0379   -0.0000 </r>
       <r>    2.2922   -0.0000 </r>
       <r>    2.3523   -0.0000 </r>
       <r>    2.7640   -0.0000 </r>
       <r>    2.8973    0.0000 </r>
       <r>    3.8984    0.0000 </r>
       <r>    3.9170    0.0000 </r>
       <r>    6.7749    0.0000 </r>
       <r>    7.0157    0.0000 </r>
       <r>    7.6311    0.0000 </r>
       <r>    8.1225    0.0000 </r>
      </set>
      <set comment="kpoint 17">
       <r>  -34.9603    1.0000 </r>
       <r>  -34.9538    1.0000 </r>
       <r>  -34.9236    1.0000 </r>
       <r>  -34.9172    1.0000 </r>
       <r>  -34.8292    1.0000 </r>
       <r>  -34.8228    1.0000 </r>
       <r>  -13.3782    1.0000 </r>
       <r>  -13.3592    1.0000 </r>
       <r>  -12.4329    1.0000 </r>
       <r>  -12.4047    1.0000 </r>
       <r>   -5.0337    1.0000 </r>
       <r>   -4.9091    1.0000 </r>
       <r>   -3.5504    1.0000 </r>
       <r>   -3.5397    1.0000 </r>
       <r>   -3.1709    1.0000 </r>
       <r>   -3.0502    1.0000 </r>
       <r>   -2.4540    1.0000 </r>
       <r>   -2.4419    1.0000 </r>
       <r>   -2.0710    1.0000 </r>
       <r>   -2.0647    1.0000 </r>
       <r>   -1.1086    1.0000 </r>
       <r>   -0.9433    1.0000 </r>
       <r>   -0.5248    1.0000 </r>
       <r>   -0.4488    1.0000 </r>
       <r>    1.9828   -0.0000 </r>
       <r>    2.1567   -0.0000 </r>
       <r>    2.4051   -0.0000 </r>
       <r>    2.4226   -0.0000 </r>
       <r>    2.4759   -0.0000 </r>
       <r>    2.5757   -0.0000 </r>
       <r>    3.5439    0.0000 </r>
       <r>    3.5574    0.0000 </r>
       <r>    6.1681    0.0000 </r>
       <r>    6.4674    0.0000 </r>
       <r>    7.2850    0.0000 </r>
       <r>    7.6273    0.0000 </r>
      </set>
      <set comment="kpoint 18">
       <r>  -34.9740    1.0000 </r>
       <r>  -34.9676    1.0000 </r>
       <r>  -34.8561    1.0000 </r>
       <r>  -34.8496    1.0000 </r>
       <r>  -34.8107    1.0000 </r>
       <r>  -34.8043    1.0000 </r>
       <r>  -13.6904    1.0000 </r>
       <r>  -13.6707    1.0000 </r>
       <r>  -12.5620    1.0000 </r>
       <r>  -12.5302    1.0000 </r>
       <r>   -5.3096    1.0000 </r>
       <r>   -5.1735    1.0000 </r>
       <r>   -3.1139    1.0000 </r>
       <r>   -3.1078    1.0000 </r>
       <r>   -2.7144    1.0000 </r>
       <r>   -2.5404    1.0000 </r>
       <r>   -2.3556    1.0000 </r>
       <r>   -2.3495    1.0000 </r>
       <r>   -1.9707    1.0000 </r>
       <r>   -1.9646    1.0000 </r>
       <r>   -1.1340    1.0000 </r>
       <r>   -0.9444    1.0000 </r>
       <r>   -0.2835    1.0000 </r>
       <r>   -0.1163    1.0011 </r>
       <r>    2.3093   -0.0000 </r>
       <r>    2.4153   -0.0000 </r>
       <r>    2.4667   -0.0000 </r>
       <r>    2.5190   -0.0000 </r>
       <r>    2.6313   -0.0000 </r>
       <r>    2.6393   -0.0000 </r>
       <r>    3.1379    0.0000 </r>
       <r>    3.1449    0.0000 </r>
       <r>    5.7273    0.0000 </r>
       <r>    6.0441    0.0000 </r>
       <r>    6.8878    0.0000 </r>
       <r>    7.5969    0.0000 </r>
      </set>
      <set comment="kpoint 19">
       <r>  -34.9818    1.0000 </r>
       <r>  -34.9753    1.0000 </r>
       <r>  -34.8171    1.0000 </r>
       <r>  -34.8107    1.0000 </r>
       <r>  -34.8007    1.0000 </r>
       <r>  -34.7943    1.0000 </r>
       <r>  -13.8579    1.0000 </r>
       <r>  -13.8380    1.0000 </r>
       <r>  -12.6314    1.0000 </r>
       <r>  -12.5977    1.0000 </r>
       <r>   -5.4917    1.0000 </r>
       <r>   -5.3535    1.0000 </r>
       <r>   -2.8012    1.0000 </r>
       <r>   -2.7951    1.0000 </r>
       <r>   -2.5239    1.0000 </r>
       <r>   -2.5178    1.0000 </r>
       <r>   -2.3559    1.0000 </r>
       <r>   -2.1310    1.0000 </r>
       <r>   -1.6579    1.0000 </r>
       <r>   -1.6516    1.0000 </r>
       <r>   -1.3076    1.0000 </r>
       <r>   -1.1332    1.0000 </r>
       <r>   -0.2020    1.0000 </r>
       <r>    0.0319    1.0279 </r>
       <r>    2.6011   -0.0000 </r>
       <r>    2.6108   -0.0000 </r>
       <r>    2.6513   -0.0000 </r>
       <r>    2.6969   -0.0000 </r>
       <r>    2.7988   -0.0000 </r>
       <r>    2.8089   -0.0000 </r>
       <r>    2.8586   -0.0000 </r>
       <r>    2.8666    0.0000 </r>
       <r>    5.4853    0.0000 </r>
       <r>    5.7992    0.0000 </r>
       <r>    6.4829    0.0000 </r>
       <r>    6.9458    0.0000 </r>
      </set>
      <set comment="kpoint 20">
       <r>  -34.9857    1.0000 </r>
       <r>  -34.9793    1.0000 </r>
       <r>  -34.9460    1.0000 </r>
       <r>  -34.9396    1.0000 </r>
       <r>  -34.8556    1.0000 </r>
       <r>  -34.8492    1.0000 </r>
       <r>  -13.0303    1.0000 </r>
       <r>  -13.0123    1.0000 </r>
       <r>  -12.2888    1.0000 </r>
       <r>  -12.2642    1.0000 </r>
       <r>   -4.8779    1.0000 </r>
       <r>   -4.7872    1.0000 </r>
       <r>   -3.7760    1.0000 </r>
       <r>   -3.7389    1.0000 </r>
       <r>   -3.4863    1.0000 </r>
       <r>   -3.4221    1.0000 </r>
       <r>   -3.0710    1.0000 </r>
       <r>   -3.0206    1.0000 </r>
       <r>   -1.9386    1.0000 </r>
       <r>   -1.9320    1.0000 </r>
       <r>   -1.0915    1.0000 </r>
       <r>   -0.9687    1.0000 </r>
       <r>   -0.7700    1.0000 </r>
       <r>   -0.7435    1.0000 </r>
       <r>    1.7976   -0.0000 </r>
       <r>    1.9595   -0.0000 </r>
       <r>    2.3356   -0.0000 </r>
       <r>    2.3970   -0.0000 </r>
       <r>    2.5290   -0.0000 </r>
       <r>    2.6526   -0.0000 </r>
       <r>    3.9362    0.0000 </r>
       <r>    3.9732    0.0000 </r>
       <r>    6.6968    0.0000 </r>
       <r>    6.9589    0.0000 </r>
       <r>    7.7046    0.0000 </r>
       <r>    8.0090    0.0000 </r>
      </set>
      <set comment="kpoint 21">
       <r>  -35.0485    1.0000 </r>
       <r>  -35.0421    1.0000 </r>
       <r>  -34.9309    1.0000 </r>
       <r>  -34.9244    1.0000 </r>
       <r>  -34.8859    1.0000 </r>
       <r>  -34.8795    1.0000 </r>
       <r>  -12.6254    1.0000 </r>
       <r>  -12.6093    1.0000 </r>
       <r>  -12.1210    1.0000 </r>
       <r>  -12.1012    1.0000 </r>
       <r>   -4.9824    1.0000 </r>
       <r>   -4.9364    1.0000 </r>
       <r>   -4.0741    1.0000 </r>
       <r>   -4.0525    1.0000 </r>
       <r>   -3.7359    1.0000 </r>
       <r>   -3.6731    1.0000 </r>
       <r>   -3.2765    1.0000 </r>
       <r>   -3.2036    1.0000 </r>
       <r>   -2.0620    1.0000 </r>
       <r>   -2.0540    1.0000 </r>
       <r>   -1.3074    1.0000 </r>
       <r>   -1.2236    1.0000 </r>
       <r>   -0.8261    1.0000 </r>
       <r>   -0.8189    1.0000 </r>
       <r>    1.8355   -0.0000 </r>
       <r>    2.0046   -0.0000 </r>
       <r>    2.4018   -0.0000 </r>
       <r>    2.4386   -0.0000 </r>
       <r>    2.7983   -0.0000 </r>
       <r>    2.9229    0.0000 </r>
       <r>    4.1971    0.0000 </r>
       <r>    4.2479    0.0000 </r>
       <r>    7.3478    0.0000 </r>
       <r>    7.5465    0.0000 </r>
       <r>    7.9277    0.0000 </r>
       <r>    8.4342    0.0000 </r>
      </set>
      <set comment="kpoint 22">
       <r>  -35.0991    1.0000 </r>
       <r>  -35.0927    1.0000 </r>
       <r>  -34.9182    1.0000 </r>
       <r>  -34.9119    1.0000 </r>
       <r>  -34.9118    1.0000 </r>
       <r>  -34.9055    1.0000 </r>
       <r>  -12.2526    1.0000 </r>
       <r>  -12.2395    1.0000 </r>
       <r>  -11.9675    1.0000 </r>
       <r>  -11.9528    1.0000 </r>
       <r>   -5.1944    1.0000 </r>
       <r>   -5.1680    1.0000 </r>
       <r>   -4.6208    1.0000 </r>
       <r>   -4.6064    1.0000 </r>
       <r>   -3.7525    1.0000 </r>
       <r>   -3.6970    1.0000 </r>
       <r>   -3.2472    1.0000 </r>
       <r>   -3.1912    1.0000 </r>
       <r>   -2.1948    1.0000 </r>
       <r>   -2.1745    1.0000 </r>
       <r>   -1.6370    1.0000 </r>
       <r>   -1.5713    1.0000 </r>
       <r>   -0.6530    1.0000 </r>
       <r>   -0.6419    1.0000 </r>
       <r>    2.0558   -0.0000 </r>
       <r>    2.1823   -0.0000 </r>
       <r>    2.5204   -0.0000 </r>
       <r>    2.5457   -0.0000 </r>
       <r>    3.1579    0.0000 </r>
       <r>    3.2550    0.0000 </r>
       <r>    4.2790    0.0000 </r>
       <r>    4.3428    0.0000 </r>
       <r>    7.1457    0.0000 </r>
       <r>    7.4146    0.0000 </r>
       <r>    8.2750    0.0000 </r>
       <r>    8.3606    0.0000 </r>
      </set>
      <set comment="kpoint 23">
       <r>  -35.1273    1.0000 </r>
       <r>  -35.1209    1.0000 </r>
       <r>  -34.9268    1.0000 </r>
       <r>  -34.9204    1.0000 </r>
       <r>  -34.9111    1.0000 </r>
       <r>  -34.9046    1.0000 </r>
       <r>  -12.0222    1.0000 </r>
       <r>  -12.0122    1.0000 </r>
       <r>  -11.8735    1.0000 </r>
       <r>  -11.8626    1.0000 </r>
       <r>   -5.3273    1.0000 </r>
       <r>   -5.3098    1.0000 </r>
       <r>   -4.9286    1.0000 </r>
       <r>   -4.9159    1.0000 </r>
       <r>   -3.8959    1.0000 </r>
       <r>   -3.8464    1.0000 </r>
       <r>   -3.1594    1.0000 </r>
       <r>   -3.1278    1.0000 </r>
       <r>   -2.1886    1.0000 </r>
       <r>   -2.1646    1.0000 </r>
       <r>   -1.8912    1.0000 </r>
       <r>   -1.8259    1.0000 </r>
       <r>   -0.4234    1.0000 </r>
       <r>   -0.4028    1.0000 </r>
       <r>    2.0778   -0.0000 </r>
       <r>    2.1053   -0.0000 </r>
       <r>    2.7881   -0.0000 </r>
       <r>    2.8418   -0.0000 </r>
       <r>    3.4324    0.0000 </r>
       <r>    3.4812    0.0000 </r>
       <r>    4.2306    0.0000 </r>
       <r>    4.3243    0.0000 </r>
       <r>    6.4403    0.0000 </r>
       <r>    6.7620    0.0000 </r>
       <r>    8.7021    0.0000 </r>
       <r>    8.8796    0.0000 </r>
      </set>
      <set comment="kpoint 24">
       <r>  -35.1273    1.0000 </r>
       <r>  -35.1209    1.0000 </r>
       <r>  -34.9268    1.0000 </r>
       <r>  -34.9203    1.0000 </r>
       <r>  -34.9111    1.0000 </r>
       <r>  -34.9046    1.0000 </r>
       <r>  -12.0220    1.0000 </r>
       <r>  -12.0124    1.0000 </r>
       <r>  -11.8733    1.0000 </r>
       <r>  -11.8628    1.0000 </r>
       <r>   -5.3272    1.0000 </r>
       <r>   -5.3099    1.0000 </r>
       <r>   -4.9285    1.0000 </r>
       <r>   -4.9160    1.0000 </r>
       <r>   -3.8958    1.0000 </r>
       <r>   -3.8464    1.0000 </r>
       <r>   -3.1595    1.0000 </r>
       <r>   -3.1275    1.0000 </r>
       <r>   -2.1850    1.0000 </r>
       <r>   -2.1676    1.0000 </r>
       <r>   -1.8912    1.0000 </r>
       <r>   -1.8267    1.0000 </r>
       <r>   -0.4234    1.0000 </r>
       <r>   -0.4027    1.0000 </r>
       <r>    2.0774   -0.0000 </r>
       <r>    2.1057   -0.0000 </r>
       <r>    2.7880   -0.0000 </r>
       <r>    2.8419   -0.0000 </r>
       <r>    3.4477    0.0000 </r>
       <r>    3.4655    0.0000 </r>
       <r>    4.2307    0.0000 </r>
       <r>    4.3243    0.0000 </r>
       <r>    6.4403    0.0000 </r>
       <r>    6.7619    0.0000 </r>
       <r>    8.7292    0.0000 </r>
       <r>    9.0155    0.0000 </r>
      </set>
      <set comment="kpoint 25">
       <r>  -35.0991    1.0000 </r>
       <r>  -35.0927    1.0000 </r>
       <r>  -34.9182    1.0000 </r>
       <r>  -34.9119    1.0000 </r>
       <r>  -34.9118    1.0000 </r>
       <r>  -34.9055    1.0000 </r>
       <r>  -12.2522    1.0000 </r>
       <r>  -12.2398    1.0000 </r>
       <r>  -11.9672    1.0000 </r>
       <r>  -11.9531    1.0000 </r>
       <r>   -5.1943    1.0000 </r>
       <r>   -5.1680    1.0000 </r>
       <r>   -4.6204    1.0000 </r>
       <r>   -4.6068    1.0000 </r>
       <r>   -3.7516    1.0000 </r>
       <r>   -3.6978    1.0000 </r>
       <r>   -3.2469    1.0000 </r>
       <r>   -3.1914    1.0000 </r>
       <r>   -2.1902    1.0000 </r>
       <r>   -2.1788    1.0000 </r>
       <r>   -1.6349    1.0000 </r>
       <r>   -1.5746    1.0000 </r>
       <r>   -0.6532    1.0000 </r>
       <r>   -0.6416    1.0000 </r>
       <r>    2.0551   -0.0000 </r>
       <r>    2.1833   -0.0000 </r>
       <r>    2.5212   -0.0000 </r>
       <r>    2.5447   -0.0000 </r>
       <r>    3.1665    0.0000 </r>
       <r>    3.2457    0.0000 </r>
       <r>    4.2805    0.0000 </r>
       <r>    4.3415    0.0000 </r>
       <r>    7.1461    0.0000 </r>
       <r>    7.4128    0.0000 </r>
       <r>    8.2411    0.0000 </r>
       <r>    8.3702    0.0000 </r>
      </set>
      <set comment="kpoint 26">
       <r>  -35.0485    1.0000 </r>
       <r>  -35.0421    1.0000 </r>
       <r>  -34.9309    1.0000 </r>
       <r>  -34.9244    1.0000 </r>
       <r>  -34.8859    1.0000 </r>
       <r>  -34.8795    1.0000 </r>
       <r>  -12.6251    1.0000 </r>
       <r>  -12.6096    1.0000 </r>
       <r>  -12.1207    1.0000 </r>
       <r>  -12.1016    1.0000 </r>
       <r>   -4.9825    1.0000 </r>
       <r>   -4.9363    1.0000 </r>
       <r>   -4.0737    1.0000 </r>
       <r>   -4.0531    1.0000 </r>
       <r>   -3.7330    1.0000 </r>
       <r>   -3.6755    1.0000 </r>
       <r>   -3.2759    1.0000 </r>
       <r>   -3.2042    1.0000 </r>
       <r>   -2.0624    1.0000 </r>
       <r>   -2.0536    1.0000 </r>
       <r>   -1.3024    1.0000 </r>
       <r>   -1.2293    1.0000 </r>
       <r>   -0.8272    1.0000 </r>
       <r>   -0.8180    1.0000 </r>
       <r>    1.8358   -0.0000 </r>
       <r>    2.0044   -0.0000 </r>
       <r>    2.4025   -0.0000 </r>
       <r>    2.4376   -0.0000 </r>
       <r>    2.8021   -0.0000 </r>
       <r>    2.9192    0.0000 </r>
       <r>    4.2002    0.0000 </r>
       <r>    4.2451    0.0000 </r>
       <r>    7.3474    0.0000 </r>
       <r>    7.5477    0.0000 </r>
       <r>    7.9301    0.0000 </r>
       <r>    8.4498    0.0000 </r>
      </set>
      <set comment="kpoint 27">
       <r>  -34.9857    1.0000 </r>
       <r>  -34.9793    1.0000 </r>
       <r>  -34.9460    1.0000 </r>
       <r>  -34.9396    1.0000 </r>
       <r>  -34.8556    1.0000 </r>
       <r>  -34.8492    1.0000 </r>
       <r>  -13.0301    1.0000 </r>
       <r>  -13.0124    1.0000 </r>
       <r>  -12.2885    1.0000 </r>
       <r>  -12.2645    1.0000 </r>
       <r>   -4.8779    1.0000 </r>
       <r>   -4.7871    1.0000 </r>
       <r>   -3.7734    1.0000 </r>
       <r>   -3.7416    1.0000 </r>
       <r>   -3.4862    1.0000 </r>
       <r>   -3.4219    1.0000 </r>
       <r>   -3.0699    1.0000 </r>
       <r>   -3.0217    1.0000 </r>
       <r>   -1.9390    1.0000 </r>
       <r>   -1.9316    1.0000 </r>
       <r>   -1.0849    1.0000 </r>
       <r>   -0.9745    1.0000 </r>
       <r>   -0.7682    1.0000 </r>
       <r>   -0.7474    1.0000 </r>
       <r>    1.7983   -0.0000 </r>
       <r>    1.9592   -0.0000 </r>
       <r>    2.3362   -0.0000 </r>
       <r>    2.3963   -0.0000 </r>
       <r>    2.5308   -0.0000 </r>
       <r>    2.6515   -0.0000 </r>
       <r>    3.9373    0.0000 </r>
       <r>    3.9723    0.0000 </r>
       <r>    6.6969    0.0000 </r>
       <r>    6.9584    0.0000 </r>
       <r>    7.7057    0.0000 </r>
       <r>    8.0118    0.0000 </r>
      </set>
      <set comment="kpoint 28">
       <r>  -34.9603    1.0000 </r>
       <r>  -34.9538    1.0000 </r>
       <r>  -34.9236    1.0000 </r>
       <r>  -34.9172    1.0000 </r>
       <r>  -34.8292    1.0000 </r>
       <r>  -34.8228    1.0000 </r>
       <r>  -13.3782    1.0000 </r>
       <r>  -13.3593    1.0000 </r>
       <r>  -12.4329    1.0000 </r>
       <r>  -12.4047    1.0000 </r>
       <r>   -5.0336    1.0000 </r>
       <r>   -4.9092    1.0000 </r>
       <r>   -3.5492    1.0000 </r>
       <r>   -3.5409    1.0000 </r>
       <r>   -3.1708    1.0000 </r>
       <r>   -3.0503    1.0000 </r>
       <r>   -2.4541    1.0000 </r>
       <r>   -2.4417    1.0000 </r>
       <r>   -2.0710    1.0000 </r>
       <r>   -2.0647    1.0000 </r>
       <r>   -1.1052    1.0000 </r>
       <r>   -0.9463    1.0000 </r>
       <r>   -0.5235    1.0000 </r>
       <r>   -0.4515    1.0000 </r>
       <r>    1.9843   -0.0000 </r>
       <r>    2.1565   -0.0000 </r>
       <r>    2.4040   -0.0000 </r>
       <r>    2.4251   -0.0000 </r>
       <r>    2.4751   -0.0000 </r>
       <r>    2.5750   -0.0000 </r>
       <r>    3.5421    0.0000 </r>
       <r>    3.5590    0.0000 </r>
       <r>    6.1682    0.0000 </r>
       <r>    6.4670    0.0000 </r>
       <r>    7.2851    0.0000 </r>
       <r>    7.6275    0.0000 </r>
      </set>
      <set comment="kpoint 29">
       <r>  -34.9704    1.0000 </r>
       <r>  -34.9639    1.0000 </r>
       <r>  -34.8756    1.0000 </r>
       <r>  -34.8692    1.0000 </r>
       <r>  -34.8141    1.0000 </r>
       <r>  -34.8077    1.0000 </r>
       <r>  -13.6096    1.0000 </r>
       <r>  -13.5900    1.0000 </r>
       <r>  -12.5286    1.0000 </r>
       <r>  -12.4978    1.0000 </r>
       <r>   -5.2314    1.0000 </r>
       <r>   -5.0974    1.0000 </r>
       <r>   -3.2489    1.0000 </r>
       <r>   -3.2429    1.0000 </r>
       <r>   -2.8859    1.0000 </r>
       <r>   -2.7369    1.0000 </r>
       <r>   -2.2682    1.0000 </r>
       <r>   -2.2619    1.0000 </r>
       <r>   -1.9930    1.0000 </r>
       <r>   -1.9864    1.0000 </r>
       <r>   -1.1969    1.0000 </r>
       <r>   -1.0039    1.0000 </r>
       <r>   -0.3405    1.0000 </r>
       <r>   -0.2044    1.0000 </r>
       <r>    2.1975   -0.0000 </r>
       <r>    2.3390   -0.0000 </r>
       <r>    2.5070   -0.0000 </r>
       <r>    2.5684   -0.0000 </r>
       <r>    2.5808   -0.0000 </r>
       <r>    2.5825   -0.0000 </r>
       <r>    3.2059    0.0000 </r>
       <r>    3.2174    0.0000 </r>
       <r>    5.8389    0.0000 </r>
       <r>    6.1503    0.0000 </r>
       <r>    6.9885    0.0000 </r>
       <r>    7.8075    0.0000 </r>
      </set>
      <set comment="kpoint 30">
       <r>  -35.0810    1.0000 </r>
       <r>  -35.0746    1.0000 </r>
       <r>  -34.9275    1.0000 </r>
       <r>  -34.9211    1.0000 </r>
       <r>  -34.9188    1.0000 </r>
       <r>  -34.9123    1.0000 </r>
       <r>  -12.2728    1.0000 </r>
       <r>  -12.2594    1.0000 </r>
       <r>  -11.9700    1.0000 </r>
       <r>  -11.9547    1.0000 </r>
       <r>   -5.0468    1.0000 </r>
       <r>   -5.0156    1.0000 </r>
       <r>   -4.6084    1.0000 </r>
       <r>   -4.6005    1.0000 </r>
       <r>   -3.5970    1.0000 </r>
       <r>   -3.5420    1.0000 </r>
       <r>   -3.3084    1.0000 </r>
       <r>   -3.2341    1.0000 </r>
       <r>   -2.5893    1.0000 </r>
       <r>   -2.5830    1.0000 </r>
       <r>   -1.5201    1.0000 </r>
       <r>   -1.4724    1.0000 </r>
       <r>   -0.6797    1.0000 </r>
       <r>   -0.6725    1.0000 </r>
       <r>    2.0121   -0.0000 </r>
       <r>    2.1805   -0.0000 </r>
       <r>    2.5344   -0.0000 </r>
       <r>    2.5451   -0.0000 </r>
       <r>    2.9410    0.0000 </r>
       <r>    3.0376    0.0000 </r>
       <r>    4.3807    0.0000 </r>
       <r>    4.4473    0.0000 </r>
       <r>    7.5702    0.0000 </r>
       <r>    7.7749    0.0000 </r>
       <r>    8.2528    0.0000 </r>
       <r>    8.3673    0.0000 </r>
      </set>
      <set comment="kpoint 31">
       <r>  -35.0978    1.0000 </r>
       <r>  -35.0914    1.0000 </r>
       <r>  -34.9630    1.0000 </r>
       <r>  -34.9566    1.0000 </r>
       <r>  -34.9102    1.0000 </r>
       <r>  -34.9037    1.0000 </r>
       <r>  -12.0017    1.0000 </r>
       <r>  -11.9915    1.0000 </r>
       <r>  -11.8515    1.0000 </r>
       <r>  -11.8404    1.0000 </r>
       <r>   -5.0334    1.0000 </r>
       <r>   -5.0243    1.0000 </r>
       <r>   -5.0177    1.0000 </r>
       <r>   -5.0001    1.0000 </r>
       <r>   -3.6838    1.0000 </r>
       <r>   -3.6409    1.0000 </r>
       <r>   -3.1482    1.0000 </r>
       <r>   -3.0930    1.0000 </r>
       <r>   -2.9432    1.0000 </r>
       <r>   -2.9170    1.0000 </r>
       <r>   -1.8451    1.0000 </r>
       <r>   -1.8098    1.0000 </r>
       <r>   -0.4118    1.0000 </r>
       <r>   -0.4027    1.0000 </r>
       <r>    1.9688   -0.0000 </r>
       <r>    2.0133   -0.0000 </r>
       <r>    2.8764    0.0000 </r>
       <r>    2.9586    0.0000 </r>
       <r>    3.0859    0.0000 </r>
       <r>    3.1445    0.0000 </r>
       <r>    4.4933    0.0000 </r>
       <r>    4.5647    0.0000 </r>
       <r>    7.0124    0.0000 </r>
       <r>    7.2795    0.0000 </r>
       <r>    8.3578    0.0000 </r>
       <r>    8.5509    0.0000 </r>
      </set>
      <set comment="kpoint 32">
       <r>  -35.1022    1.0000 </r>
       <r>  -35.0958    1.0000 </r>
       <r>  -34.9775    1.0000 </r>
       <r>  -34.9711    1.0000 </r>
       <r>  -34.9071    1.0000 </r>
       <r>  -34.9006    1.0000 </r>
       <r>  -11.8985    1.0000 </r>
       <r>  -11.8904    1.0000 </r>
       <r>  -11.8057    1.0000 </r>
       <r>  -11.7970    1.0000 </r>
       <r>   -5.1827    1.0000 </r>
       <r>   -5.1753    1.0000 </r>
       <r>   -4.9713    1.0000 </r>
       <r>   -4.9568    1.0000 </r>
       <r>   -3.8509    1.0000 </r>
       <r>   -3.8064    1.0000 </r>
       <r>   -3.0269    1.0000 </r>
       <r>   -3.0048    1.0000 </r>
       <r>   -2.9841    1.0000 </r>
       <r>   -2.9660    1.0000 </r>
       <r>   -2.0280    1.0000 </r>
       <r>   -1.9877    1.0000 </r>
       <r>   -0.2392    1.0000 </r>
       <r>   -0.2254    1.0000 </r>
       <r>    1.8377   -0.0000 </r>
       <r>    1.8468   -0.0000 </r>
       <r>    3.0959    0.0000 </r>
       <r>    3.1416    0.0000 </r>
       <r>    3.1719    0.0000 </r>
       <r>    3.2251    0.0000 </r>
       <r>    4.5356    0.0000 </r>
       <r>    4.6062    0.0000 </r>
       <r>    6.6670    0.0000 </r>
       <r>    6.9933    0.0000 </r>
       <r>    8.2906    0.0000 </r>
       <r>    8.6027    0.0000 </r>
      </set>
      <set comment="kpoint 33">
       <r>  -35.0978    1.0000 </r>
       <r>  -35.0914    1.0000 </r>
       <r>  -34.9630    1.0000 </r>
       <r>  -34.9566    1.0000 </r>
       <r>  -34.9102    1.0000 </r>
       <r>  -34.9037    1.0000 </r>
       <r>  -12.0012    1.0000 </r>
       <r>  -11.9919    1.0000 </r>
       <r>  -11.8510    1.0000 </r>
       <r>  -11.8410    1.0000 </r>
       <r>   -5.0333    1.0000 </r>
       <r>   -5.0250    1.0000 </r>
       <r>   -5.0170    1.0000 </r>
       <r>   -5.0003    1.0000 </r>
       <r>   -3.6835    1.0000 </r>
       <r>   -3.6409    1.0000 </r>
       <r>   -3.1474    1.0000 </r>
       <r>   -3.0934    1.0000 </r>
       <r>   -2.9394    1.0000 </r>
       <r>   -2.9211    1.0000 </r>
       <r>   -1.8462    1.0000 </r>
       <r>   -1.8094    1.0000 </r>
       <r>   -0.4119    1.0000 </r>
       <r>   -0.4025    1.0000 </r>
       <r>    1.9686   -0.0000 </r>
       <r>    2.0133   -0.0000 </r>
       <r>    2.8782    0.0000 </r>
       <r>    2.9569    0.0000 </r>
       <r>    3.0967    0.0000 </r>
       <r>    3.1328    0.0000 </r>
       <r>    4.4965    0.0000 </r>
       <r>    4.5609    0.0000 </r>
       <r>    7.0156    0.0000 </r>
       <r>    7.2830    0.0000 </r>
       <r>    8.4068    0.0000 </r>
       <r>    8.5623    0.0000 </r>
      </set>
      <set comment="kpoint 34">
       <r>  -35.0810    1.0000 </r>
       <r>  -35.0746    1.0000 </r>
       <r>  -34.9275    1.0000 </r>
       <r>  -34.9211    1.0000 </r>
       <r>  -34.9188    1.0000 </r>
       <r>  -34.9123    1.0000 </r>
       <r>  -12.2722    1.0000 </r>
       <r>  -12.2599    1.0000 </r>
       <r>  -11.9694    1.0000 </r>
       <r>  -11.9555    1.0000 </r>
       <r>   -5.0467    1.0000 </r>
       <r>   -5.0157    1.0000 </r>
       <r>   -4.6080    1.0000 </r>
       <r>   -4.6012    1.0000 </r>
       <r>   -3.5895    1.0000 </r>
       <r>   -3.5481    1.0000 </r>
       <r>   -3.3079    1.0000 </r>
       <r>   -3.2354    1.0000 </r>
       <r>   -2.5912    1.0000 </r>
       <r>   -2.5812    1.0000 </r>
       <r>   -1.5122    1.0000 </r>
       <r>   -1.4812    1.0000 </r>
       <r>   -0.6813    1.0000 </r>
       <r>   -0.6707    1.0000 </r>
       <r>    2.0115   -0.0000 </r>
       <r>    2.1808   -0.0000 </r>
       <r>    2.5354   -0.0000 </r>
       <r>    2.5442   -0.0000 </r>
       <r>    2.9453    0.0000 </r>
       <r>    3.0326    0.0000 </r>
       <r>    4.3885    0.0000 </r>
       <r>    4.4396    0.0000 </r>
       <r>    7.6021    0.0000 </r>
       <r>    7.7528    0.0000 </r>
       <r>    8.2723    0.0000 </r>
       <r>    8.3722    0.0000 </r>
      </set>
      <set comment="kpoint 35">
       <r>  -35.0485    1.0000 </r>
       <r>  -35.0421    1.0000 </r>
       <r>  -34.9309    1.0000 </r>
       <r>  -34.9244    1.0000 </r>
       <r>  -34.8859    1.0000 </r>
       <r>  -34.8795    1.0000 </r>
       <r>  -12.6249    1.0000 </r>
       <r>  -12.6097    1.0000 </r>
       <r>  -12.1204    1.0000 </r>
       <r>  -12.1018    1.0000 </r>
       <r>   -4.9825    1.0000 </r>
       <r>   -4.9364    1.0000 </r>
       <r>   -4.0732    1.0000 </r>
       <r>   -4.0541    1.0000 </r>
       <r>   -3.7273    1.0000 </r>
       <r>   -3.6799    1.0000 </r>
       <r>   -3.2760    1.0000 </r>
       <r>   -3.2048    1.0000 </r>
       <r>   -2.0628    1.0000 </r>
       <r>   -2.0533    1.0000 </r>
       <r>   -1.2954    1.0000 </r>
       <r>   -1.2360    1.0000 </r>
       <r>   -0.8266    1.0000 </r>
       <r>   -0.8191    1.0000 </r>
       <r>    1.8352   -0.0000 </r>
       <r>    2.0046   -0.0000 </r>
       <r>    2.4029   -0.0000 </r>
       <r>    2.4380   -0.0000 </r>
       <r>    2.7991   -0.0000 </r>
       <r>    2.9224    0.0000 </r>
       <r>    4.2029    0.0000 </r>
       <r>    4.2420    0.0000 </r>
       <r>    7.3477    0.0000 </r>
       <r>    7.5438    0.0000 </r>
       <r>    7.9498    0.0000 </r>
       <r>    8.3742    0.0000 </r>
      </set>
      <set comment="kpoint 36">
       <r>  -35.0039    1.0000 </r>
       <r>  -34.9975    1.0000 </r>
       <r>  -34.9437    1.0000 </r>
       <r>  -34.9372    1.0000 </r>
       <r>  -34.8516    1.0000 </r>
       <r>  -34.8452    1.0000 </r>
       <r>  -12.9689    1.0000 </r>
       <r>  -12.9517    1.0000 </r>
       <r>  -12.2648    1.0000 </r>
       <r>  -12.2418    1.0000 </r>
       <r>   -4.9344    1.0000 </r>
       <r>   -4.8570    1.0000 </r>
       <r>   -3.8115    1.0000 </r>
       <r>   -3.7735    1.0000 </r>
       <r>   -3.6991    1.0000 </r>
       <r>   -3.6370    1.0000 </r>
       <r>   -2.8414    1.0000 </r>
       <r>   -2.8129    1.0000 </r>
       <r>   -1.7871    1.0000 </r>
       <r>   -1.7796    1.0000 </r>
       <r>   -1.3118    1.0000 </r>
       <r>   -1.1997    1.0000 </r>
       <r>   -0.8308    1.0000 </r>
       <r>   -0.8101    1.0000 </r>
       <r>    1.8887   -0.0000 </r>
       <r>    2.0391   -0.0000 </r>
       <r>    2.2917   -0.0000 </r>
       <r>    2.3533   -0.0000 </r>
       <r>    2.7628   -0.0000 </r>
       <r>    2.8986    0.0000 </r>
       <r>    3.8955    0.0000 </r>
       <r>    3.9193    0.0000 </r>
       <r>    6.7764    0.0000 </r>
       <r>    7.0139    0.0000 </r>
       <r>    7.6329    0.0000 </r>
       <r>    8.5069    0.0000 </r>
      </set>
      <set comment="kpoint 37">
       <r>  -34.9571    1.0000 </r>
       <r>  -34.9543    1.0000 </r>
       <r>  -34.9506    1.0000 </r>
       <r>  -34.9478    1.0000 </r>
       <r>  -34.8329    1.0000 </r>
       <r>  -34.8265    1.0000 </r>
       <r>  -13.2347    1.0000 </r>
       <r>  -13.2164    1.0000 </r>
       <r>  -12.3744    1.0000 </r>
       <r>  -12.3481    1.0000 </r>
       <r>   -4.9777    1.0000 </r>
       <r>   -4.8685    1.0000 </r>
       <r>   -3.6942    1.0000 </r>
       <r>   -3.6779    1.0000 </r>
       <r>   -3.4420    1.0000 </r>
       <r>   -3.3470    1.0000 </r>
       <r>   -2.3881    1.0000 </r>
       <r>   -2.3811    1.0000 </r>
       <r>   -1.8986    1.0000 </r>
       <r>   -1.8919    1.0000 </r>
       <r>   -1.3578    1.0000 </r>
       <r>   -1.1973    1.0000 </r>
       <r>   -0.6655    1.0000 </r>
       <r>   -0.6179    1.0000 </r>
       <r>    1.9829   -0.0000 </r>
       <r>    2.1914   -0.0000 </r>
       <r>    2.3179   -0.0000 </r>
       <r>    2.3334   -0.0000 </r>
       <r>    2.7086   -0.0000 </r>
       <r>    2.8453   -0.0000 </r>
       <r>    3.5870    0.0000 </r>
       <r>    3.6048    0.0000 </r>
       <r>    6.3707    0.0000 </r>
       <r>    6.6406    0.0000 </r>
       <r>    7.3701    0.0000 </r>
       <r>    8.4663    0.0000 </r>
      </set>
      <set comment="kpoint 38">
       <r>  -35.0777    1.0000 </r>
       <r>  -35.0713    1.0000 </r>
       <r>  -35.0114    1.0000 </r>
       <r>  -35.0049    1.0000 </r>
       <r>  -34.9056    1.0000 </r>
       <r>  -34.8991    1.0000 </r>
       <r>  -11.8546    1.0000 </r>
       <r>  -11.8470    1.0000 </r>
       <r>  -11.7794    1.0000 </r>
       <r>  -11.7714    1.0000 </r>
       <r>   -5.2825    1.0000 </r>
       <r>   -5.2760    1.0000 </r>
       <r>   -4.6829    1.0000 </r>
[...]
       <r>    -2.2175     1.4391    18.3534 </r>
       <r>    -2.0556     3.1457    18.8629 </r>
       <r>    -1.8937     3.4086    19.4149 </r>
       <r>    -1.7317     4.0466    20.0702 </r>
       <r>    -1.5698     2.8621    20.5337 </r>
       <r>    -1.4078     3.1167    21.0384 </r>
       <r>    -1.2459     1.7599    21.3234 </r>
       <r>    -1.0839     2.3699    21.7072 </r>
       <r>    -0.9220     1.9668    22.0257 </r>
       <r>    -0.7600     3.3765    22.5725 </r>
       <r>    -0.5981     2.9617    23.0522 </r>
       <r>    -0.4362     2.1208    23.3956 </r>
       <r>    -0.2742     1.9428    23.7102 </r>
       <r>    -0.1123     1.3162    23.9234 </r>
       <r>     0.0497     0.3749    23.9841 </r>
       <r>     0.2116     0.1026    24.0007 </r>
       <r>     0.3736    -0.0045    24.0000 </r>
       <r>     0.5355    -0.0000    24.0000 </r>
       <r>     0.6974    -0.0000    24.0000 </r>
       <r>     0.8594    -0.0000    24.0000 </r>
       <r>     1.0213    -0.0000    24.0000 </r>
       <r>     1.1833    -0.0000    24.0000 </r>
       <r>     1.3452    -0.0000    24.0000 </r>
       <r>     1.5072    -0.0057    23.9991 </r>
       <r>     1.6691     0.1186    24.0183 </r>
       <r>     1.8311     0.8555    24.1568 </r>
       <r>     1.9930     2.5108    24.5634 </r>
       <r>     2.1549     5.8243    25.5067 </r>
       <r>     2.3169     3.3582    26.0505 </r>
       <r>     2.4788     4.8761    26.8402 </r>
       <r>     2.6408     5.3225    27.7021 </r>
       <r>     2.8027     2.8724    28.1673 </r>
       <r>     2.9647     3.4433    28.7249 </r>
       <r>     3.1266     2.1236    29.0688 </r>
       <r>     3.2886     3.1858    29.5847 </r>
       <r>     3.4505     1.2735    29.7910 </r>
       <r>     3.6124     2.0513    30.1231 </r>
       <r>     3.7744     1.1172    30.3041 </r>
       <r>     3.9363     1.8310    30.6006 </r>
       <r>     4.0983     1.9126    30.9103 </r>
       <r>     4.2602     3.1041    31.4130 </r>
       <r>     4.4222     1.7029    31.6888 </r>
       <r>     4.5841     1.1769    31.8794 </r>
       <r>     4.7461     0.6541    31.9853 </r>
       <r>     4.9080     0.0951    32.0007 </r>
       <r>     5.0699    -0.0044    32.0000 </r>
       <r>     5.2319    -0.0015    31.9998 </r>
       <r>     5.3938     0.0299    32.0046 </r>
       <r>     5.5558     0.2148    32.0394 </r>
       <r>     5.7177     0.1331    32.0609 </r>
       <r>     5.8797     0.5311    32.1470 </r>
       <r>     6.0416     0.1453    32.1705 </r>
       <r>     6.2035     1.0481    32.3402 </r>
       <r>     6.3655     0.4954    32.4204 </r>
       <r>     6.5274     1.4586    32.6567 </r>
       <r>     6.6894     1.0225    32.8223 </r>
       <r>     6.8513     1.4458    33.0564 </r>
       <r>     7.0133     1.6899    33.3301 </r>
       <r>     7.1752     1.4665    33.5676 </r>
       <r>     7.3372     2.0249    33.8955 </r>
       <r>     7.4991     1.1402    34.0801 </r>
       <r>     7.6610     2.1998    34.4364 </r>
       <r>     7.8230     1.6020    34.6958 </r>
       <r>     7.9849     1.4102    34.9242 </r>
       <r>     8.1469     1.8117    35.2176 </r>
       <r>     8.3088     1.1705    35.4072 </r>
       <r>     8.4708     1.9230    35.7186 </r>
       <r>     8.6327     0.8003    35.8482 </r>
       <r>     8.7947     0.4862    35.9269 </r>
       <r>     8.9566     0.2191    35.9624 </r>
       <r>     9.1185     0.2411    36.0014 </r>
       <r>     9.2805    -0.0088    36.0000 </r>
       <r>     9.4424    -0.0001    36.0000 </r>
       <r>     9.6044    -0.0000    36.0000 </r>
       <r>     9.7663    -0.0000    36.0000 </r>
       <r>     9.9283     0.0000    36.0000 </r>
       <r>    10.0902     0.0000    36.0000 </r>
       <r>    10.2522     0.0000    36.0000 </r>
       <r>    10.4141     0.0000    36.0000 </r>
       <r>    10.5760     0.0000    36.0000 </r>
       <r>    10.7380     0.0000    36.0000 </r>
       <r>    10.8999     0.0000    36.0000 </r>
       <r>    11.0619     0.0000    36.0000 </r>
       <r>    11.2238     0.0000    36.0000 </r>
      </set>
      <set comment="spin 2">
       <r>   -37.3594     0.0000     0.0000 </r>
       <r>   -37.1975     0.0000     0.0000 </r>
       <r>   -37.0355     0.0000     0.0000 </r>
       <r>   -36.8736     0.0000     0.0000 </r>
       <r>   -36.7116     0.0000     0.0000 </r>
       <r>   -36.5497     0.0000     0.0000 </r>
       <r>   -36.3878     0.0000     0.0000 </r>
       <r>   -36.2258     0.0000     0.0000 </r>
       <r>   -36.0639    -0.0000    -0.0000 </r>
       <r>   -35.9019    -0.0000    -0.0000 </r>
       <r>   -35.7400    -0.0000    -0.0000 </r>
       <r>   -35.5780    -0.0000    -0.0000 </r>
       <r>   -35.4161    -0.0008    -0.0001 </r>
       <r>   -35.2541    -0.1888    -0.0307 </r>
       <r>   -35.0922     4.1530     0.6418 </r>
       <r>   -34.9303    15.1450     3.0945 </r>
       <r>   -34.7683    17.9534     6.0019 </r>
       <r>   -34.6064     0.0150     6.0044 </r>
       <r>   -34.4444    -0.0269     6.0000 </r>
       <r>   -34.2825    -0.0000     6.0000 </r>
       <r>   -34.1205    -0.0000     6.0000 </r>
       <r>   -33.9586     0.0000     6.0000 </r>
       <r>   -33.7966     0.0000     6.0000 </r>
       <r>   -33.6347     0.0000     6.0000 </r>
       <r>   -33.4728     0.0000     6.0000 </r>
       <r>   -33.3108     0.0000     6.0000 </r>
       <r>   -33.1489     0.0000     6.0000 </r>
       <r>   -32.9869     0.0000     6.0000 </r>
       <r>   -32.8250     0.0000     6.0000 </r>
       <r>   -32.6630     0.0000     6.0000 </r>
       <r>   -32.5011     0.0000     6.0000 </r>
       <r>   -32.3392     0.0000     6.0000 </r>
       <r>   -32.1772     0.0000     6.0000 </r>
       <r>   -32.0153     0.0000     6.0000 </r>
       <r>   -31.8533     0.0000     6.0000 </r>
       <r>   -31.6914     0.0000     6.0000 </r>
       <r>   -31.5294     0.0000     6.0000 </r>
       <r>   -31.3675     0.0000     6.0000 </r>
       <r>   -31.2055     0.0000     6.0000 </r>
       <r>   -31.0436     0.0000     6.0000 </r>
       <r>   -30.8817     0.0000     6.0000 </r>
       <r>   -30.7197     0.0000     6.0000 </r>
       <r>   -30.5578     0.0000     6.0000 </r>
       <r>   -30.3958     0.0000     6.0000 </r>
       <r>   -30.2339     0.0000     6.0000 </r>
       <r>   -30.0719     0.0000     6.0000 </r>
       <r>   -29.9100     0.0000     6.0000 </r>
       <r>   -29.7480     0.0000     6.0000 </r>
       <r>   -29.5861     0.0000     6.0000 </r>
       <r>   -29.4242     0.0000     6.0000 </r>
       <r>   -29.2622     0.0000     6.0000 </r>
       <r>   -29.1003     0.0000     6.0000 </r>
       <r>   -28.9383     0.0000     6.0000 </r>
       <r>   -28.7764     0.0000     6.0000 </r>
       <r>   -28.6144     0.0000     6.0000 </r>
       <r>   -28.4525     0.0000     6.0000 </r>
       <r>   -28.2905     0.0000     6.0000 </r>
       <r>   -28.1286     0.0000     6.0000 </r>
       <r>   -27.9667     0.0000     6.0000 </r>
       <r>   -27.8047     0.0000     6.0000 </r>
       <r>   -27.6428     0.0000     6.0000 </r>
       <r>   -27.4808     0.0000     6.0000 </r>
       <r>   -27.3189     0.0000     6.0000 </r>
       <r>   -27.1569     0.0000     6.0000 </r>
       <r>   -26.9950     0.0000     6.0000 </r>
       <r>   -26.8331     0.0000     6.0000 </r>
       <r>   -26.6711     0.0000     6.0000 </r>
       <r>   -26.5092     0.0000     6.0000 </r>
       <r>   -26.3472     0.0000     6.0000 </r>
       <r>   -26.1853     0.0000     6.0000 </r>
       <r>   -26.0233     0.0000     6.0000 </r>
       <r>   -25.8614     0.0000     6.0000 </r>
       <r>   -25.6994     0.0000     6.0000 </r>
       <r>   -25.5375     0.0000     6.0000 </r>
       <r>   -25.3756     0.0000     6.0000 </r>
       <r>   -25.2136     0.0000     6.0000 </r>
       <r>   -25.0517     0.0000     6.0000 </r>
       <r>   -24.8897     0.0000     6.0000 </r>
       <r>   -24.7278     0.0000     6.0000 </r>
       <r>   -24.5658     0.0000     6.0000 </r>
       <r>   -24.4039     0.0000     6.0000 </r>
       <r>   -24.2419     0.0000     6.0000 </r>
       <r>   -24.0800     0.0000     6.0000 </r>
       <r>   -23.9181     0.0000     6.0000 </r>
       <r>   -23.7561     0.0000     6.0000 </r>
       <r>   -23.5942     0.0000     6.0000 </r>
       <r>   -23.4322     0.0000     6.0000 </r>
       <r>   -23.2703     0.0000     6.0000 </r>
       <r>   -23.1083     0.0000     6.0000 </r>
       <r>   -22.9464     0.0000     6.0000 </r>
       <r>   -22.7844     0.0000     6.0000 </r>
       <r>   -22.6225     0.0000     6.0000 </r>
       <r>   -22.4606     0.0000     6.0000 </r>
       <r>   -22.2986     0.0000     6.0000 </r>
       <r>   -22.1367     0.0000     6.0000 </r>
       <r>   -21.9747     0.0000     6.0000 </r>
       <r>   -21.8128     0.0000     6.0000 </r>
       <r>   -21.6508     0.0000     6.0000 </r>
       <r>   -21.4889     0.0000     6.0000 </r>
       <r>   -21.3270     0.0000     6.0000 </r>
       <r>   -21.1650     0.0000     6.0000 </r>
       <r>   -21.0031     0.0000     6.0000 </r>
       <r>   -20.8411     0.0000     6.0000 </r>
       <r>   -20.6792     0.0000     6.0000 </r>
       <r>   -20.5172     0.0000     6.0000 </r>
       <r>   -20.3553     0.0000     6.0000 </r>
       <r>   -20.1933     0.0000     6.0000 </r>
       <r>   -20.0314     0.0000     6.0000 </r>
       <r>   -19.8695     0.0000     6.0000 </r>
       <r>   -19.7075     0.0000     6.0000 </r>
       <r>   -19.5456     0.0000     6.0000 </r>
       <r>   -19.3836     0.0000     6.0000 </r>
       <r>   -19.2217     0.0000     6.0000 </r>
       <r>   -19.0597     0.0000     6.0000 </r>
       <r>   -18.8978     0.0000     6.0000 </r>
       <r>   -18.7358     0.0000     6.0000 </r>
       <r>   -18.5739     0.0000     6.0000 </r>
       <r>   -18.4120     0.0000     6.0000 </r>
       <r>   -18.2500     0.0000     6.0000 </r>
       <r>   -18.0881     0.0000     6.0000 </r>
       <r>   -17.9261     0.0000     6.0000 </r>
       <r>   -17.7642     0.0000     6.0000 </r>
       <r>   -17.6022     0.0000     6.0000 </r>
       <r>   -17.4403     0.0000     6.0000 </r>
       <r>   -17.2783     0.0000     6.0000 </r>
       <r>   -17.1164     0.0000     6.0000 </r>
       <r>   -16.9545     0.0000     6.0000 </r>
       <r>   -16.7925     0.0000     6.0000 </r>
       <r>   -16.6306     0.0000     6.0000 </r>
       <r>   -16.4686     0.0000     6.0000 </r>
       <r>   -16.3067     0.0000     6.0000 </r>
       <r>   -16.1447     0.0000     6.0000 </r>
       <r>   -15.9828     0.0000     6.0000 </r>
       <r>   -15.8209     0.0000     6.0000 </r>
       <r>   -15.6589     0.0000     6.0000 </r>
       <r>   -15.4970     0.0000     6.0000 </r>
       <r>   -15.3350     0.0000     6.0000 </r>
       <r>   -15.1731     0.0000     6.0000 </r>
       <r>   -15.0111     0.0000     6.0000 </r>
       <r>   -14.8492    -0.0000     6.0000 </r>
       <r>   -14.6872    -0.0000     6.0000 </r>
       <r>   -14.5253    -0.0000     6.0000 </r>
       <r>   -14.3634    -0.0000     6.0000 </r>
       <r>   -14.2014    -0.0000     6.0000 </r>
       <r>   -14.0395    -0.0066     5.9989 </r>
       <r>   -13.8775     0.1846     6.0288 </r>
       <r>   -13.7156     0.4333     6.0990 </r>
       <r>   -13.5536     0.7123     6.2143 </r>
       <r>   -13.3917     0.3340     6.2684 </r>
       <r>   -13.2297     0.8362     6.4038 </r>
       <r>   -13.0678     0.2621     6.4463 </r>
       <r>   -12.9059     1.1660     6.6351 </r>
       <r>   -12.7439     0.4099     6.7015 </r>
       <r>   -12.5820     1.4237     6.9321 </r>
       <r>   -12.4200     2.3943     7.3198 </r>
       <r>   -12.2581     2.5437     7.7318 </r>
       <r>   -12.0961     3.9104     8.3650 </r>
       <r>   -11.9342     5.4390     9.2458 </r>
       <r>   -11.7722     4.3924     9.9572 </r>
       <r>   -11.6103     0.2819    10.0028 </r>
       <r>   -11.4484    -0.0173    10.0000 </r>
       <r>   -11.2864    -0.0000    10.0000 </r>
       <r>   -11.1245    -0.0000    10.0000 </r>
       <r>   -10.9625     0.0000    10.0000 </r>
       <r>   -10.8006     0.0000    10.0000 </r>
       <r>   -10.6386     0.0000    10.0000 </r>
       <r>   -10.4767     0.0000    10.0000 </r>
       <r>   -10.3148     0.0000    10.0000 </r>
       <r>   -10.1528     0.0000    10.0000 </r>
       <r>    -9.9909     0.0000    10.0000 </r>
       <r>    -9.8289     0.0000    10.0000 </r>
       <r>    -9.6670     0.0000    10.0000 </r>
       <r>    -9.5050     0.0000    10.0000 </r>
       <r>    -9.3431     0.0000    10.0000 </r>
       <r>    -9.1811     0.0000    10.0000 </r>
       <r>    -9.0192     0.0000    10.0000 </r>
       <r>    -8.8573     0.0000    10.0000 </r>
       <r>    -8.6953     0.0000    10.0000 </r>
       <r>    -8.5334     0.0000    10.0000 </r>
       <r>    -8.3714     0.0000    10.0000 </r>
       <r>    -8.2095     0.0000    10.0000 </r>
       <r>    -8.0475     0.0000    10.0000 </r>
       <r>    -7.8856     0.0000    10.0000 </r>
       <r>    -7.7236     0.0000    10.0000 </r>
       <r>    -7.5617     0.0000    10.0000 </r>
       <r>    -7.3998     0.0000    10.0000 </r>
       <r>    -7.2378     0.0000    10.0000 </r>
       <r>    -7.0759     0.0000    10.0000 </r>
       <r>    -6.9139     0.0000    10.0000 </r>
       <r>    -6.7520     0.0000    10.0000 </r>
       <r>    -6.5900    -0.0000    10.0000 </r>
       <r>    -6.4281    -0.0000    10.0000 </r>
       <r>    -6.2661    -0.0000    10.0000 </r>
       <r>    -6.1042    -0.0000    10.0000 </r>
       <r>    -5.9423    -0.0000    10.0000 </r>
       <r>    -5.7803    -0.0170     9.9972 </r>
       <r>    -5.6184     0.3660    10.0565 </r>
       <r>    -5.4564     1.2326    10.2561 </r>
       <r>    -5.2945     1.9725    10.5756 </r>
       <r>    -5.1325     2.8400    11.0355 </r>
       <r>    -4.9706     4.3312    11.7369 </r>
       <r>    -4.8087     3.7494    12.3441 </r>
       <r>    -4.6467     1.7886    12.6337 </r>
       <r>    -4.4848     1.8899    12.9398 </r>
       <r>    -4.3228     0.3375    12.9945 </r>
       <r>    -4.1609     0.7974    13.1236 </r>
       <r>    -3.9989     1.2207    13.3213 </r>
       <r>    -3.8370     3.6390    13.9106 </r>
       <r>    -3.6750     5.5211    14.8047 </r>
       <r>    -3.5131     2.7315    15.2470 </r>
       <r>    -3.3512     1.2983    15.4573 </r>
       <r>    -3.1892     2.8692    15.9219 </r>
       <r>    -3.0273     5.8090    16.8627 </r>
       <r>    -2.8653     3.1151    17.3671 </r>
       <r>    -2.7034     1.9369    17.6808 </r>
       <r>    -2.5414     0.9558    17.8356 </r>
       <r>    -2.3795     1.7580    18.1203 </r>
       <r>    -2.2175     1.4397    18.3534 </r>
       <r>    -2.0556     3.1457    18.8629 </r>
       <r>    -1.8937     3.4098    19.4151 </r>
       <r>    -1.7317     4.0462    20.0703 </r>
       <r>    -1.5698     2.8626    20.5339 </r>
       <r>    -1.4078     3.1153    21.0384 </r>
       <r>    -1.2459     1.7608    21.3236 </r>
       <r>    -1.0839     2.3687    21.7072 </r>
       <r>    -0.9220     1.9698    22.0262 </r>
       <r>    -0.7600     3.3744    22.5726 </r>
       <r>    -0.5981     2.9621    23.0523 </r>
       <r>    -0.4362     2.1202    23.3957 </r>
       <r>    -0.2742     1.9431    23.7104 </r>
       <r>    -0.1123     1.3157    23.9234 </r>
       <r>     0.0497     0.3750    23.9841 </r>
       <r>     0.2116     0.1024    24.0007 </r>
       <r>     0.3736    -0.0045    24.0000 </r>
       <r>     0.5355    -0.0000    24.0000 </r>
       <r>     0.6974    -0.0000    24.0000 </r>
       <r>     0.8594    -0.0000    24.0000 </r>
       <r>     1.0213    -0.0000    24.0000 </r>
       <r>     1.1833    -0.0000    24.0000 </r>
       <r>     1.3452    -0.0000    24.0000 </r>
       <r>     1.5072    -0.0057    23.9991 </r>
       <r>     1.6691     0.1187    24.0183 </r>
       <r>     1.8311     0.8542    24.1566 </r>
       <r>     1.9930     2.5107    24.5632 </r>
       <r>     2.1549     5.8256    25.5067 </r>
       <r>     2.3169     3.3569    26.0503 </r>
       <r>     2.4788     4.8772    26.8401 </r>
       <r>     2.6408     5.3215    27.7019 </r>
       <r>     2.8027     2.8727    28.1671 </r>
       <r>     2.9647     3.4447    28.7250 </r>
       <r>     3.1266     2.1232    29.0688 </r>
       <r>     3.2886     3.1861    29.5848 </r>
       <r>     3.4505     1.2733    29.7910 </r>
       <r>     3.6124     2.0508    30.1231 </r>
       <r>     3.7744     1.1176    30.3041 </r>
       <r>     3.9363     1.8305    30.6005 </r>
       <r>     4.0983     1.9133    30.9104 </r>
       <r>     4.2602     3.1041    31.4131 </r>
       <r>     4.4222     1.7028    31.6888 </r>
       <r>     4.5841     1.1774    31.8795 </r>
       <r>     4.7461     0.6537    31.9853 </r>
       <r>     4.9080     0.0948    32.0007 </r>
       <r>     5.0699    -0.0043    32.0000 </r>
       <r>     5.2319    -0.0011    31.9998 </r>
       <r>     5.3938     0.0152    32.0023 </r>
       <r>     5.5558     0.1972    32.0342 </r>
       <r>     5.7177     0.0914    32.0490 </r>
       <r>     5.8797     0.4430    32.1208 </r>
       <r>     6.0416     0.2169    32.1559 </r>
       <r>     6.2035     0.8808    32.2985 </r>
       <r>     6.3655     0.7365    32.4178 </r>
       <r>     6.5274     1.2522    32.6206 </r>
       <r>     6.6894     1.0432    32.7895 </r>
       <r>     6.8513     1.8035    33.0816 </r>
       <r>     7.0133     1.2053    33.2768 </r>
       <r>     7.1752     1.8069    33.5694 </r>
       <r>     7.3372     2.2708    33.9371 </r>
       <r>     7.4991     1.1754    34.1275 </r>
       <r>     7.6610     2.2477    34.4915 </r>
       <r>     7.8230     1.5059    34.7353 </r>
       <r>     7.9849     1.9091    35.0445 </r>
       <r>     8.1469     1.0330    35.2118 </r>
       <r>     8.3088     1.3781    35.4350 </r>
       <r>     8.4708     1.8607    35.7363 </r>
       <r>     8.6327     0.4833    35.8146 </r>
       <r>     8.7947     0.6748    35.9239 </r>
       <r>     8.9566     0.4793    36.0015 </r>
       <r>     9.1185    -0.0088    36.0001 </r>
       <r>     9.2805    -0.0004    36.0000 </r>
       <r>     9.4424    -0.0000    36.0000 </r>
       <r>     9.6044    -0.0000    36.0000 </r>
       <r>     9.7663     0.0000    36.0000 </r>
       <r>     9.9283     0.0000    36.0000 </r>
       <r>    10.0902     0.0000    36.0000 </r>
       <r>    10.2522     0.0000    36.0000 </r>
       <r>    10.4141     0.0000    36.0000 </r>
       <r>    10.5760     0.0000    36.0000 </r>
       <r>    10.7380     0.0000    36.0000 </r>
       <r>    10.8999     0.0000    36.0000 </r>
       <r>    11.0619     0.0000    36.0000 </r>
       <r>    11.2238     0.0000    36.0000 </r>
      </set>
     </set>
    </array>
   </total>
  </dos>
 </calculation>
 <structure name="finalpos" >
  <crystal>
   <varray name="basis" >
    <v>       3.19031700       0.00000000       0.00000000 </v>
    <v>      -1.59515800       2.76289700       0.00000000 </v>
    <v>       0.00000000       0.00000000      23.14049200 </v>
   </varray>
   <i name="volume">    203.97226633 </i>
   <varray name="rec_basis" >
    <v>       0.31344848       0.18096941       0.00000000 </v>
    <v>       0.00000000       0.36193894       0.00000000 </v>
    <v>       0.00000000       0.00000000       0.04321429 </v>
   </varray>
  </crystal>
  <varray name="positions" >
   <v>       0.66666700       0.33333300       0.06785900 </v>
   <v>       0.33333300       0.66666700       0.00000000 </v>
   <v>       0.33333300       0.66666700       0.13571500 </v>
   <v>       0.95238100       0.04761900       0.37643000 </v>
   <v>       0.61904700       0.38095300       0.30857200 </v>
   <v>       0.61904700       0.38095300       0.44428600 </v>
  </varray>
 </structure>
</modeling>
