<?xml version="1.0" encoding="ISO-8859-1"?>
<modeling>
 <generator>
  <i name="program" type="string">vasp </i>
  <i name="version" type="string">5.4.1  </i>
  <i name="subversion" type="string">24Jun15 (build May 10 2016 14:18:23) complex                          parallel </i>
  <i name="platform" type="string">IFC91_ompi </i>
  <i name="date" type="string">2016 12 09 </i>
  <i name="time" type="string">14:22:24 </i>
 </generator>
 <incar>
  <i type="string" name="PREC">accurate</i>
  <i type="string" name="ALGO"> Fast</i>
  <i type="int" name="ISPIN">     2</i>
  <i type="int" name="IBRION">     2</i>
  <i name="EDIFF">      0.00010000</i>
  <i type="int" name="NSW">     0</i>
  <i type="int" name="ISIF">     3</i>
  <i name="ENCUT">    500.00000000</i>
  <v name="MAGMOM">      6.00000000      0.50000000      0.50000000      6.00000000      0.50000000      0.50000000</v>
  <i type="string" name="LREAL"> Auto</i>
  <i type="int" name="ISMEAR">     1</i>
  <i name="SIGMA">      0.10000000</i>
  <i type="logical" name="LWAVE"> F  </i>
  <i type="logical" name="LCHARG"> F  </i>
  <i type="logical" name="LVTOT"> T  </i>
  <i type="logical" name="LVHAR"> T  </i>
  <i type="logical" name="LAECHG"> F  </i>
  <v type="int" name="KPOINT_BSE">    -1     0     0     0</v>
  <i type="string" name="GGA"> Bo</i>
  <i name="PARAM1">      0.18333333</i>
  <i name="PARAM2">      0.22000000</i>
  <i type="logical" name="LUSE_VDW"> T  </i>
  <i name="AGGAC">      0.00000000</i>
 </incar>
 <kpoints>
  <generation param="Gamma">
   <v type="int" name="divisions">      13       13        1 </v>
   <v name="usershift">      0.00000000       0.00000000       0.00000000 </v>
   <v name="genvec1">      0.07692308       0.00000000       0.00000000 </v>
   <v name="genvec2">      0.00000000       0.07692308       0.00000000 </v>
   <v name="genvec3">      0.00000000       0.00000000       1.00000000 </v>
   <v name="shift">      0.00000000       0.00000000       0.00000000 </v>
  </generation>
  <varray name="kpointlist" >
   <v>       0.00000000       0.00000000       0.00000000 </v>
   <v>       0.07692308      -0.00000000       0.00000000 </v>
   <v>       0.15384615       0.00000000       0.00000000 </v>
   <v>       0.23076923       0.00000000       0.00000000 </v>
   <v>       0.30769231      -0.00000000       0.00000000 </v>
   <v>       0.38461538       0.00000000       0.00000000 </v>
   <v>       0.46153846       0.00000000       0.00000000 </v>
   <v>       0.00000000       0.07692308       0.00000000 </v>
   <v>       0.07692308       0.07692308       0.00000000 </v>
   <v>       0.15384615       0.07692308       0.00000000 </v>
   <v>       0.23076923       0.07692308       0.00000000 </v>
   <v>       0.30769231       0.07692308       0.00000000 </v>
   <v>       0.38461538       0.07692308       0.00000000 </v>
   <v>       0.46153846       0.07692308       0.00000000 </v>
   <v>      -0.46153846       0.07692308       0.00000000 </v>
   <v>      -0.38461538       0.07692308       0.00000000 </v>
   <v>      -0.30769231       0.07692308       0.00000000 </v>
   <v>      -0.23076923       0.07692308       0.00000000 </v>
   <v>      -0.15384615       0.07692308       0.00000000 </v>
   <v>      -0.07692308       0.07692308       0.00000000 </v>
   <v>       0.00000000       0.15384615       0.00000000 </v>
   <v>       0.07692308       0.15384615       0.00000000 </v>
   <v>       0.15384615       0.15384615       0.00000000 </v>
   <v>       0.23076923       0.15384615       0.00000000 </v>
   <v>       0.30769231       0.15384615       0.00000000 </v>
   <v>       0.38461538       0.15384615       0.00000000 </v>
   <v>       0.46153846       0.15384615       0.00000000 </v>
   <v>      -0.46153846       0.15384615       0.00000000 </v>
   <v>      -0.38461538       0.15384615       0.00000000 </v>
   <v>      -0.30769231       0.15384615       0.00000000 </v>
   <v>      -0.23076923       0.15384615       0.00000000 </v>
   <v>      -0.15384615       0.15384615       0.00000000 </v>
   <v>      -0.07692308       0.15384615       0.00000000 </v>
   <v>       0.00000000       0.23076923       0.00000000 </v>
   <v>       0.07692308       0.23076923       0.00000000 </v>
   <v>       0.15384615       0.23076923       0.00000000 </v>
   <v>       0.23076923       0.23076923       0.00000000 </v>
   <v>       0.30769231       0.23076923       0.00000000 </v>
   <v>       0.38461538       0.23076923       0.00000000 </v>
   <v>       0.46153846       0.23076923       0.00000000 </v>
   <v>      -0.46153846       0.23076923       0.00000000 </v>
   <v>      -0.38461538       0.23076923       0.00000000 </v>
   <v>      -0.30769231       0.23076923       0.00000000 </v>
   <v>      -0.23076923       0.23076923       0.00000000 </v>
   <v>      -0.15384615       0.23076923       0.00000000 </v>
   <v>      -0.07692308       0.23076923       0.00000000 </v>
   <v>       0.00000000       0.30769231       0.00000000 </v>
   <v>       0.07692308       0.30769231       0.00000000 </v>
   <v>       0.15384615       0.30769231       0.00000000 </v>
   <v>       0.23076923       0.30769231       0.00000000 </v>
   <v>       0.30769231       0.30769231       0.00000000 </v>
   <v>       0.38461538       0.30769231       0.00000000 </v>
   <v>       0.46153846       0.30769231       0.00000000 </v>
   <v>      -0.46153846       0.30769231       0.00000000 </v>
   <v>      -0.38461538       0.30769231       0.00000000 </v>
   <v>      -0.30769231       0.30769231       0.00000000 </v>
   <v>      -0.23076923       0.30769231       0.00000000 </v>
   <v>      -0.15384615       0.30769231       0.00000000 </v>
   <v>      -0.07692308       0.30769231       0.00000000 </v>
   <v>       0.00000000       0.38461538       0.00000000 </v>
   <v>       0.07692308       0.38461538       0.00000000 </v>
   <v>       0.15384615       0.38461538       0.00000000 </v>
   <v>       0.23076923       0.38461538       0.00000000 </v>
   <v>       0.30769231       0.38461538       0.00000000 </v>
   <v>       0.38461538       0.38461538       0.00000000 </v>
   <v>       0.46153846       0.38461538       0.00000000 </v>
   <v>      -0.46153846       0.38461538       0.00000000 </v>
   <v>      -0.38461538       0.38461538       0.00000000 </v>
   <v>      -0.30769231       0.38461538       0.00000000 </v>
   <v>      -0.23076923       0.38461538       0.00000000 </v>
   <v>      -0.15384615       0.38461538       0.00000000 </v>
   <v>      -0.07692308       0.38461538       0.00000000 </v>
   <v>       0.00000000       0.46153846       0.00000000 </v>
   <v>       0.07692308       0.46153846       0.00000000 </v>
   <v>       0.15384615       0.46153846       0.00000000 </v>
   <v>       0.23076923       0.46153846       0.00000000 </v>
   <v>       0.30769231       0.46153846       0.00000000 </v>
   <v>       0.38461538       0.46153846       0.00000000 </v>
   <v>       0.46153846       0.46153846       0.00000000 </v>
   <v>      -0.46153846       0.46153846       0.00000000 </v>
   <v>      -0.38461538       0.46153846       0.00000000 </v>
   <v>      -0.30769231       0.46153846       0.00000000 </v>
   <v>      -0.23076923       0.46153846       0.00000000 </v>
   <v>      -0.15384615       0.46153846       0.00000000 </v>
   <v>      -0.07692308       0.46153846       0.00000000 </v>
  </varray>
  <varray name="weights" >
   <v>       0.00591716 </v>
   <v>       0.01183432 </v>
   <v>       0.01183432 </v>
   <v>       0.01183432 </v>
   <v>       0.01183432 </v>
   <v>       0.01183432 </v>
   <v>       0.01183432 </v>
   <v>       0.01183432 </v>
   <v>       0.01183432 </v>
   <v>       0.01183432 </v>
   <v>       0.01183432 </v>
   <v>       0.01183432 </v>
   <v>       0.01183432 </v>
   <v>       0.01183432 </v>
   <v>       0.01183432 </v>
   <v>       0.01183432 </v>
   <v>       0.01183432 </v>
   <v>       0.01183432 </v>
   <v>       0.01183432 </v>
   <v>       0.01183432 </v>
   <v>       0.01183432 </v>
   <v>       0.01183432 </v>
   <v>       0.01183432 </v>
   <v>       0.01183432 </v>
   <v>       0.01183432 </v>
   <v>       0.01183432 </v>
   <v>       0.01183432 </v>
   <v>       0.01183432 </v>
   <v>       0.01183432 </v>
   <v>       0.01183432 </v>
   <v>       0.01183432 </v>
   <v>       0.01183432 </v>
   <v>       0.01183432 </v>
   <v>       0.01183432 </v>
   <v>       0.01183432 </v>
   <v>       0.01183432 </v>
   <v>       0.01183432 </v>
   <v>       0.01183432 </v>
   <v>       0.01183432 </v>
   <v>       0.01183432 </v>
   <v>       0.01183432 </v>
   <v>       0.01183432 </v>
   <v>       0.01183432 </v>
   <v>       0.01183432 </v>
   <v>       0.01183432 </v>
   <v>       0.01183432 </v>
   <v>       0.01183432 </v>
   <v>       0.01183432 </v>
   <v>       0.01183432 </v>
   <v>       0.01183432 </v>
   <v>       0.01183432 </v>
   <v>       0.01183432 </v>
   <v>       0.01183432 </v>
   <v>       0.01183432 </v>
   <v>       0.01183432 </v>
   <v>       0.01183432 </v>
   <v>       0.01183432 </v>
   <v>       0.01183432 </v>
   <v>       0.01183432 </v>
   <v>       0.01183432 </v>
   <v>       0.01183432 </v>
   <v>       0.01183432 </v>
   <v>       0.01183432 </v>
   <v>       0.01183432 </v>
   <v>       0.01183432 </v>
   <v>       0.01183432 </v>
   <v>       0.01183432 </v>
   <v>       0.01183432 </v>
   <v>       0.01183432 </v>
   <v>       0.01183432 </v>
   <v>       0.01183432 </v>
   <v>       0.01183432 </v>
   <v>       0.01183432 </v>
   <v>       0.01183432 </v>
   <v>       0.01183432 </v>
   <v>       0.01183432 </v>
   <v>       0.01183432 </v>
   <v>       0.01183432 </v>
   <v>       0.01183432 </v>
   <v>       0.01183432 </v>
   <v>       0.01183432 </v>
   <v>       0.01183432 </v>
   <v>       0.01183432 </v>
   <v>       0.01183432 </v>
   <v>       0.01183432 </v>
  </varray>
 </kpoints>
 <parameters>
  <separator name="general" >
   <i type="string" name="SYSTEM">unknown system</i>
   <i type="logical" name="LCOMPAT"> F  </i>
  </separator>
  <separator name="electronic" >
   <i type="string" name="PREC">accura</i>
   <i name="ENMAX">    500.00000000</i>
   <i name="ENAUG">    392.42700000</i>
   <i name="EDIFF">      0.00010000</i>
   <i type="int" name="IALGO">    68</i>
   <i type="int" name="IWAVPR">    10</i>
   <i type="int" name="NBANDS">    36</i>
   <i name="NELECT">     48.00000000</i>
   <i type="int" name="TURBO">     0</i>
   <i type="int" name="IRESTART">     0</i>
   <i type="int" name="NREBOOT">     0</i>
   <i type="int" name="NMIN">     0</i>
   <i name="EREF">      0.00000000</i>
   <separator name="electronic smearing" >
    <i type="int" name="ISMEAR">     1</i>
    <i name="SIGMA">      0.10000000</i>
    <i name="KSPACING">      0.50000000</i>
    <i type="logical" name="KGAMMA"> T  </i>
   </separator>
   <separator name="electronic projectors" >
    <i type="logical" name="LREAL"> T  </i>
    <v name="ROPT">     -0.00025000     -0.00025000     -0.00025000     -0.00025000</v>
    <i type="int" name="LMAXPAW">  -100</i>
    <i type="int" name="LMAXMIX">     2</i>
    <i type="logical" name="NLSPLINE"> F  </i>
   </separator>
   <separator name="electronic startup" >
    <i type="int" name="ISTART">     0</i>
    <i type="int" name="ICHARG">     2</i>
    <i type="int" name="INIWAV">     1</i>
   </separator>
   <separator name="electronic spin" >
    <i type="int" name="ISPIN">     2</i>
    <i type="logical" name="LNONCOLLINEAR"> F  </i>
    <v name="MAGMOM">      6.00000000      0.50000000      0.50000000      6.00000000      0.50000000      0.50000000</v>
    <i name="NUPDOWN">     -1.00000000</i>
    <i type="logical" name="LSORBIT"> F  </i>
    <v name="SAXIS">      0.00000000      0.00000000      1.00000000</v>
    <i type="logical" name="LSPIRAL"> F  </i>
    <v name="QSPIRAL">      0.00000000      0.00000000      0.00000000</v>
    <i type="logical" name="LZEROZ"> F  </i>
   </separator>
   <separator name="electronic exchange-correlation" >
    <i type="logical" name="LASPH"> F  </i>
    <i type="logical" name="LMETAGGA"> F  </i>
   </separator>
   <separator name="electronic convergence" >
    <i type="int" name="NELM">    60</i>
    <i type="int" name="NELMDL">     0</i>
    <i type="int" name="NELMIN">     2</i>
    <i name="ENINI">    500.00000000</i>
    <separator name="electronic convergence detail" >
     <i type="logical" name="LDIAG"> T  </i>
     <i type="logical" name="LSUBROT"> F  </i>
     <i name="WEIMIN">      0.00000000</i>
     <i name="EBREAK">      0.00000069</i>
     <i name="DEPER">      0.30000000</i>
     <i type="int" name="NRMM">     4</i>
     <i name="TIME">      0.40000000</i>
    </separator>
   </separator>
   <separator name="electronic mixer" >
    <i name="AMIX">      0.40000000</i>
    <i name="BMIX">      1.00000000</i>
    <i name="AMIN">      0.10000000</i>
    <i name="AMIX_MAG">      1.60000000</i>
    <i name="BMIX_MAG">      1.00000000</i>
    <separator name="electronic mixer details" >
     <i type="int" name="IMIX">     4</i>
     <i type="logical" name="MIXFIRST"> F  </i>
     <i type="int" name="MAXMIX">   -45</i>
     <i name="WC">    100.00000000</i>
     <i type="int" name="INIMIX">     1</i>
     <i type="int" name="MIXPRE">     1</i>
     <i type="int" name="MREMOVE">     5</i>
    </separator>
   </separator>
   <separator name="electronic dipolcorrection" >
    <i type="logical" name="LDIPOL"> F  </i>
    <i type="logical" name="LMONO"> F  </i>
    <i type="int" name="IDIPOL">     0</i>
    <i name="EPSILON">      1.00000000</i>
    <v name="DIPOL">   -100.00000000   -100.00000000   -100.00000000</v>
    <i name="EFIELD">      0.00000000</i>
   </separator>
  </separator>
  <separator name="grids" >
   <i type="int" name="NGX">    24</i>
   <i type="int" name="NGY">    24</i>
   <i type="int" name="NGZ">   180</i>
   <i type="int" name="NGXF">    48</i>
   <i type="int" name="NGYF">    48</i>
   <i type="int" name="NGZF">   360</i>
   <i type="logical" name="ADDGRID"> F  </i>
  </separator>
  <separator name="ionic" >
   <i type="int" name="NSW">     0</i>
   <i type="int" name="IBRION">    -1</i>
   <i type="int" name="ISIF">     3</i>
   <i name="PSTRESS">      0.00000000</i>
   <i name="EDIFFG">      0.00100000</i>
   <i type="int" name="NFREE">     1</i>
   <i name="POTIM">      0.50000000</i>
   <i name="SMASS">     -3.00000000</i>
   <i name="SCALEE">      1.00000000</i>
  </separator>
  <separator name="ionic md" >
   <i name="TEBEG">      0.00010000</i>
   <i name="TEEND">      0.00010000</i>
   <i type="int" name="NBLOCK">     1</i>
   <i type="int" name="KBLOCK">     1</i>
   <i type="int" name="NPACO">   256</i>
   <i name="APACO">     16.00000000</i>
  </separator>
  <separator name="symmetry" >
   <i type="int" name="ISYM">     2</i>
   <i name="SYMPREC">      0.00001000</i>
  </separator>
  <separator name="dos" >
   <i type="logical" name="LORBIT"> F  </i>
   <v name="RWIGS">     -1.00000000     -1.00000000     -1.00000000     -1.00000000</v>
   <i type="int" name="NEDOS">   301</i>
   <i name="EMIN">     10.00000000</i>
   <i name="EMAX">    -10.00000000</i>
   <i name="EFERMI">      0.00000000</i>
  </separator>
  <separator name="writing" >
   <i type="int" name="NWRITE">     2</i>
   <i type="logical" name="LWAVE"> F  </i>
   <i type="logical" name="LCHARG"> F  </i>
   <i type="logical" name="LPARD"> F  </i>
   <i type="logical" name="LVTOT"> F  </i>
   <i type="logical" name="LVHAR"> T  </i>
   <i type="logical" name="LELF"> F  </i>
   <i type="logical" name="LOPTICS"> F  </i>
   <v name="STM">      0.00000000      0.00000000      0.00000000      0.00000000      0.00000000      0.00000000      0.00000000</v>
  </separator>
  <separator name="performance" >
   <i type="int" name="NPAR">     4</i>
   <i type="int" name="NSIM">     4</i>
   <i type="int" name="NBLK">    -1</i>
   <i type="logical" name="LPLANE"> T  </i>
   <i type="logical" name="LSCALAPACK"> T  </i>
   <i type="logical" name="LSCAAWARE"> F  </i>
   <i type="logical" name="LSCALU"> F  </i>
   <i type="logical" name="LASYNC"> F  </i>
   <i type="logical" name="LORBITALREAL"> F  </i>
  </separator>
  <separator name="miscellaneous" >
   <i type="int" name="IDIOT">     3</i>
   <i type="logical" name="LMUSIC"> F  </i>
   <v name="POMASS">     95.94000000     32.06600000     95.94000000     32.06600000</v>
   <v name="DARWINR">      0.00000000      0.00000000      0.00000000      0.00000000</v>
   <v name="DARWINV">      1.00000000      1.00000000      1.00000000      1.00000000</v>
   <i type="logical" name="LCORR"> T  </i>
  </separator>
  <i type="logical" name="GGA_COMPAT"> T  </i>
  <i type="logical" name="LBERRY"> F  </i>
  <i type="int" name="ICORELEVEL">     0</i>
  <i type="logical" name="LDAU"> F  </i>
  <i type="int" name="I_CONSTRAINED_M">     0</i>
  <separator name="electronic exchange-correlation" >
   <i type="string" name="GGA">BO</i>
   <i type="int" name="VOSKOWN">     0</i>
   <i type="logical" name="LHFCALC"> F  </i>
   <i type="string" name="PRECFOCK"></i>
   <i type="logical" name="LSYMGRAD"> F  </i>
   <i type="logical" name="LHFONE"> F  </i>
   <i type="logical" name="LRHFCALC"> F  </i>
   <i type="logical" name="LTHOMAS"> F  </i>
   <i type="logical" name="LMODELHF"> F  </i>
   <i name="ENCUT4O">     -1.00000000</i>
   <i type="int" name="EXXOEP">     0</i>
   <i type="int" name="FOURORBIT">     0</i>
   <i name="AEXX">      0.00000000</i>
   <i name="HFALPHA">      0.00000000</i>
   <i name="MCALPHA">      0.00000000</i>
   <i name="ALDAX">      1.00000000</i>
   <i name="AGGAX">      1.00000000</i>
   <i name="ALDAC">      1.00000000</i>
   <i name="AGGAC">      0.00000000</i>
   <i type="int" name="NKREDX">     1</i>
   <i type="int" name="NKREDY">     1</i>
   <i type="int" name="NKREDZ">     1</i>
   <i type="logical" name="SHIFTRED"> F  </i>
   <i type="logical" name="ODDONLY"> F  </i>
   <i type="logical" name="EVENONLY"> F  </i>
   <i type="int" name="LMAXFOCK">     0</i>
   <i type="int" name="NMAXFOCKAE">     0</i>
   <i type="logical" name="LFOCKAEDFT"> F  </i>
   <i name="HFSCREEN">      0.00000000</i>
   <i name="HFSCREENC">      0.00000000</i>
   <i type="int" name="NBANDSGWLOW">     0</i>
  </separator>
  <separator name="vdW DFT" >
   <i type="logical" name="LUSE_VDW"> T  </i>
   <i name="Zab_VDW">     -0.84910000</i>
   <i name="PARAM1">      0.18333333</i>
   <i name="PARAM2">      0.22000000</i>
   <i name="PARAM3">      0.00000000</i>
  </separator>
  <separator name="model GW" >
   <i type="int" name="MODEL_GW">     0</i>
   <i name="MODEL_EPS0">     20.39722663</i>
   <i name="MODEL_ALPHA">      1.00000000</i>
  </separator>
  <separator name="linear response parameters" >
   <i type="logical" name="LEPSILON"> F  </i>
   <i type="logical" name="LRPA"> F  </i>
   <i type="logical" name="LNABLA"> F  </i>
   <i type="logical" name="LVEL"> F  </i>
   <i type="int" name="KINTER">     0</i>
   <i name="CSHIFT">      0.10000000</i>
   <i name="OMEGAMAX">     -1.00000000</i>
   <i name="DEG_THRESHOLD">      0.00200000</i>
  </separator>
  <separator name="orbital magnetization" >
   <i type="logical" name="NUCIND"> F  </i>
   <v name="MAGPOS">      0.00000000      0.00000000      0.00000000</v>
   <i type="logical" name="LNICSALL"> T  </i>
   <i type="logical" name="ORBITALMAG"> F  </i>
   <i type="logical" name="LMAGBLOCH"> F  </i>
   <i type="logical" name="LCHIMAG"> F  </i>
   <i type="logical" name="LGAUGE"> T  </i>
   <i type="int" name="MAGATOM">     0</i>
   <v name="MAGDIPOL">      0.00000000      0.00000000      0.00000000</v>
   <v name="AVECCONST">      0.00000000      0.00000000      0.00000000</v>
  </separator>
  <separator name="response functions" >
   <i type="logical" name="LADDER"> F  </i>
   <i type="logical" name="LFXC"> F  </i>
   <i type="logical" name="LHARTREE"> T  </i>
   <i type="int" name="IBSE">     0</i>
   <v type="int" name="KPOINT">    -1     0     0     0</v>
   <i type="logical" name="LTCTE"> F  </i>
   <i type="logical" name="LTETE"> F  </i>
   <i type="logical" name="LTRIPLET"> F  </i>
   <i type="logical" name="LFXCEPS"> F  </i>
   <i type="logical" name="LFXHEG"> F  </i>
   <i type="int" name="NATURALO">     0</i>
   <i type="logical" name="L2ORDER"> F  </i>
   <i type="logical" name="LUSEW"> F  </i>
   <i name="ENCUTGW">     -2.00000000</i>
   <i name="ENCUTGWSOFT">     -2.00000000</i>
   <i name="ENCUTLF">     -1.00000000</i>
   <i type="int" name="LMAXMP2">    -1</i>
   <i name="SCISSOR">      0.00000000</i>
   <i type="int" name="NOMEGA">     0</i>
   <i type="int" name="NOMEGAR">     0</i>
   <i type="int" name="NBANDSGW">    -1</i>
   <i type="int" name="NBANDSO">    -1</i>
   <i type="int" name="NBANDSV">    -1</i>
   <i type="int" name="NELM">     1</i>
   <i type="int" name="NELMHF">     1</i>
   <i type="int" name="DIM">     3</i>
   <i type="int" name="ANTIRES">     0</i>
   <i name="OMEGAMAX">    -30.00000000</i>
   <i name="OMEGAMIN">    -30.00000000</i>
   <i name="OMEGATL">   -200.00000000</i>
   <i type="int" name="OMEGAGRID">     0</i>
   <i name="CSHIFT">     -0.10000000</i>
   <i type="logical" name="SELFENERGY"> F  </i>
   <i type="logical" name="LSPECTRAL"> F  </i>
   <i type="logical" name="LSPECTRALGW"> F  </i>
   <i type="logical" name="LSINGLES"> F  </i>
   <i type="logical" name="LFERMIGW"> F  </i>
   <i type="logical" name="ODDONLYGW"> F  </i>
   <i type="logical" name="EVENONLYGW"> F  </i>
   <i type="int" name="NKREDLFX">     1</i>
   <i type="int" name="NKREDLFY">     1</i>
   <i type="int" name="NKREDLFZ">     1</i>
   <i type="int" name="MAXMEM">  1800</i>
   <i type="int" name="TELESCOPE">     0</i>
   <i type="int" name="TAUPAR">     1</i>
   <i type="int" name="OMEGAPAR">    -1</i>
   <i name="LAMBDA">      1.00000000</i>
  </separator>
  <separator name="External order field" >
   <i name="OFIELD_KAPPA">      0.00000000</i>
   <v name="OFIELD_K">      0.00000000      0.00000000      0.00000000</v>
   <i name="OFIELD_Q6_NEAR">      0.00000000</i>
   <i name="OFIELD_Q6_FAR">      0.00000000</i>
   <i name="OFIELD_A">      0.00000000</i>
  </separator>
 </parameters>
 <atominfo>
  <atoms>       6 </atoms>
  <types>       4 </types>
  <array name="atoms" >
   <dimension dim="1">ion</dimension>
   <field type="string">element</field>
   <field type="int">atomtype</field>
   <set>
    <rc><c>Mo</c><c>   1</c></rc>
    <rc><c>S </c><c>   2</c></rc>
    <rc><c>S </c><c>   2</c></rc>
    <rc><c>Mo</c><c>   3</c></rc>
    <rc><c>S </c><c>   4</c></rc>
    <rc><c>S </c><c>   4</c></rc>
   </set>
  </array>
  <array name="atomtypes" >
   <dimension dim="1">type</dimension>
   <field type="int">atomspertype</field>
   <field type="string">element</field>
   <field>mass</field>
   <field>valence</field>
   <field type="string">pseudopotential</field>
   <set>
    <rc><c>   1</c><c>Mo</c><c>     95.94000000</c><c>     12.00000000</c><c> PAW_PBE Mo_pv 08Apr2002                </c></rc>
    <rc><c>   2</c><c>S </c><c>     32.06600000</c><c>      6.00000000</c><c>  PAW_PBE S 17Jan2003                   </c></rc>
    <rc><c>   1</c><c>Mo</c><c>     95.94000000</c><c>     12.00000000</c><c> PAW_PBE Mo_pv 08Apr2002                </c></rc>
    <rc><c>   2</c><c>S </c><c>     32.06600000</c><c>      6.00000000</c><c>  PAW_PBE S 17Jan2003                   </c></rc>
   </set>
  </array>
 </atominfo>
 <structure name="initialpos" >
  <crystal>
   <varray name="basis" >
    <v>       3.19031700       0.00000000       0.00000000 </v>
    <v>      -1.59515800       2.76289700       0.00000000 </v>
    <v>       0.00000000       0.00000000      23.14049200 </v>
   </varray>
   <i name="volume">    203.97226633 </i>
   <varray name="rec_basis" >
    <v>       0.31344848       0.18096941       0.00000000 </v>
    <v>       0.00000000       0.36193894       0.00000000 </v>
    <v>       0.00000000       0.00000000       0.04321429 </v>
   </varray>
  </crystal>
  <varray name="positions" >
   <v>       0.66666700       0.33333300       0.06785900 </v>
   <v>       0.33333300       0.66666700       0.00000000 </v>
   <v>       0.33333300       0.66666700       0.13571500 </v>
   <v>       0.66666700       0.04761871       0.35482300 </v>
   <v>       0.33333300       0.38095271       0.28696500 </v>
   <v>       0.33333300       0.38095271       0.42267900 </v>
  </varray>
 </structure>
 <calculation>
  <scstep>
   <time name="dav">   57.29   57.79</time>
   <time name="total">   67.48   68.28</time>
   <energy>
    <i name="alphaZ">    104.15310261 </i>
    <i name="ewald">   7699.15925134 </i>
    <i name="hartreedc"> -11109.20445245 </i>
    <i name="XCdc">    128.46668660 </i>
    <i name="pawpsdc">   2252.92270536 </i>
    <i name="pawaedc">  -2205.68654582 </i>
    <i name="eentropy">      0.00049037 </i>
    <i name="bandstr">   -159.63831129 </i>
    <i name="atom">   3688.31848598 </i>
    <i name="e_fr_energy">    398.49141270 </i>
    <i name="e_wo_entrp">    398.49092233 </i>
    <i name="e_0_energy">    398.49124924 </i>
   </energy>
  </scstep>
  <scstep>
   <time name="dav">   62.32   62.81</time>
   <time name="total">   62.33   62.82</time>
   <energy>
    <i name="e_fr_energy">     -1.49392093 </i>
    <i name="e_wo_entrp">     -1.49193349 </i>
    <i name="e_0_energy">     -1.49325845 </i>
   </energy>
  </scstep>
  <scstep>
   <time name="dav">   63.94   64.01</time>
   <time name="total">   63.95   64.03</time>
   <energy>
    <i name="e_fr_energy">    -32.96172223 </i>
    <i name="e_wo_entrp">    -32.96225935 </i>
    <i name="e_0_energy">    -32.96190127 </i>
   </energy>
  </scstep>
  <scstep>
   <time name="dav">   61.02   61.64</time>
   <time name="total">   61.02   61.65</time>
   <energy>
    <i name="e_fr_energy">    -33.83832051 </i>
    <i name="e_wo_entrp">    -33.83927940 </i>
    <i name="e_0_energy">    -33.83864014 </i>
   </energy>
  </scstep>
  <scstep>
   <time name="dav">   64.43   64.97</time>
   <time name="total">   69.29   69.85</time>
   <energy>
    <i name="e_fr_energy">    -33.86539328 </i>
    <i name="e_wo_entrp">    -33.86636907 </i>
    <i name="e_0_energy">    -33.86571854 </i>
   </energy>
  </scstep>
  <scstep>
   <time name="diag">   11.45   11.79</time>
   <time name="diis">   40.40   41.98</time>
   <time name="orth">    0.39    0.39</time>
   <time name="total">   67.09   69.57</time>
   <energy>
    <i name="e_fr_energy">    -30.12253368 </i>
    <i name="e_wo_entrp">    -30.12234169 </i>
    <i name="e_0_energy">    -30.12246968 </i>
   </energy>
  </scstep>
  <scstep>
   <time name="diag">   11.49   11.91</time>
   <time name="diis">   42.21   43.10</time>
   <time name="orth">    0.39    0.39</time>
   <time name="total">   68.88   70.65</time>
   <energy>
    <i name="e_fr_energy">    -32.81645499 </i>
    <i name="e_wo_entrp">    -32.81709398 </i>
    <i name="e_0_energy">    -32.81666799 </i>
   </energy>
  </scstep>
  <scstep>
   <time name="diag">   11.87   12.10</time>
   <time name="diis">   45.28   45.96</time>
   <time name="orth">    0.39    0.39</time>
   <time name="total">   72.22   73.44</time>
   <energy>
    <i name="e_fr_energy">    -34.33343432 </i>
    <i name="e_wo_entrp">    -34.33359895 </i>
    <i name="e_0_energy">    -34.33348919 </i>
   </energy>
  </scstep>
  <scstep>
   <time name="diag">   11.58   12.02</time>
   <time name="diis">   41.70   42.04</time>
   <time name="orth">    0.47    0.47</time>
   <time name="total">   68.54   69.79</time>
   <energy>
    <i name="e_fr_energy">    -37.06062380 </i>
    <i name="e_wo_entrp">    -37.06079041 </i>
    <i name="e_0_energy">    -37.06067934 </i>
   </energy>
  </scstep>
  <scstep>
   <time name="diag">   11.62   11.68</time>
   <time name="diis">   38.79   39.09</time>
   <time name="orth">    0.39    0.39</time>
   <time name="total">   66.03   66.82</time>
   <energy>
    <i name="e_fr_energy">    -39.07519363 </i>
    <i name="e_wo_entrp">    -39.07535969 </i>
    <i name="e_0_energy">    -39.07524898 </i>
   </energy>
  </scstep>
  <scstep>
   <time name="diag">   11.69   11.82</time>
   <time name="diis">   41.64   42.07</time>
   <time name="orth">    0.39    0.40</time>
   <time name="total">   69.20   70.02</time>
   <energy>
    <i name="e_fr_energy">    -39.37561109 </i>
    <i name="e_wo_entrp">    -39.37594125 </i>
    <i name="e_0_energy">    -39.37572114 </i>
   </energy>
  </scstep>
  <scstep>
   <time name="diag">   12.03   12.15</time>
   <time name="diis">   52.28   52.70</time>
   <time name="orth">    0.39    0.39</time>
   <time name="total">   79.57   80.37</time>
   <energy>
    <i name="e_fr_energy">    -39.50751490 </i>
    <i name="e_wo_entrp">    -39.50784059 </i>
    <i name="e_0_energy">    -39.50762346 </i>
   </energy>
  </scstep>
  <scstep>
   <time name="diag">   11.63   11.71</time>
   <time name="diis">   41.24   41.35</time>
   <time name="orth">    0.39    0.39</time>
   <time name="total">   68.24   68.66</time>
   <energy>
    <i name="e_fr_energy">    -39.40527429 </i>
    <i name="e_wo_entrp">    -39.40559264 </i>
    <i name="e_0_energy">    -39.40538041 </i>
   </energy>
  </scstep>
  <scstep>
   <time name="diag">   11.69   12.03</time>
   <time name="diis">   41.47   42.47</time>
   <time name="orth">    0.39    0.39</time>
   <time name="total">   68.49   70.16</time>
   <energy>
    <i name="e_fr_energy">    -39.40706538 </i>
    <i name="e_wo_entrp">    -39.40739736 </i>
    <i name="e_0_energy">    -39.40717604 </i>
   </energy>
  </scstep>
  <scstep>
   <time name="diag">   11.64   11.74</time>
   <time name="diis">   39.95   40.18</time>
   <time name="orth">    0.40    0.40</time>
   <time name="total">   67.09   67.61</time>
   <energy>
    <i name="e_fr_energy">    -39.40803270 </i>
    <i name="e_wo_entrp">    -39.40836478 </i>
    <i name="e_0_energy">    -39.40814339 </i>
   </energy>
  </scstep>
  <scstep>
   <time name="diag">   11.58   11.65</time>
   <time name="diis">   33.84   33.99</time>
   <time name="orth">    0.39    0.39</time>
   <time name="total">   60.70   61.08</time>
   <energy>
    <i name="e_fr_energy">    -39.40910275 </i>
    <i name="e_wo_entrp">    -39.40943481 </i>
    <i name="e_0_energy">    -39.40921344 </i>
   </energy>
  </scstep>
  <scstep>
   <time name="diag">   11.51   11.67</time>
   <time name="diis">   30.88   31.30</time>
   <time name="orth">    0.39    0.39</time>
   <time name="total">   57.99   59.21</time>
   <energy>
    <i name="e_fr_energy">    -39.40952857 </i>
    <i name="e_wo_entrp">    -39.40986059 </i>
    <i name="e_0_energy">    -39.40963925 </i>
   </energy>
  </scstep>
  <scstep>
   <time name="diag">   11.48   11.65</time>
   <time name="diis">   29.14   29.29</time>
   <time name="orth">    0.39    0.39</time>
   <time name="total">   55.93   56.56</time>
   <energy>
    <i name="e_fr_energy">    -39.40974323 </i>
    <i name="e_wo_entrp">    -39.41007524 </i>
    <i name="e_0_energy">    -39.40985390 </i>
   </energy>
  </scstep>
  <scstep>
   <time name="diag">   11.41   11.42</time>
   <time name="diis">   28.51   28.54</time>
   <time name="orth">    0.39    0.39</time>
   <time name="total">   55.25   55.29</time>
   <energy>
    <i name="e_fr_energy">    -39.41013367 </i>
    <i name="e_wo_entrp">    -39.41046562 </i>
    <i name="e_0_energy">    -39.41024432 </i>
   </energy>
  </scstep>
  <scstep>
   <time name="diag">   11.39   11.40</time>
   <time name="diis">   28.72   28.74</time>
   <time name="orth">    0.39    0.39</time>
   <time name="total">   55.46   55.59</time>
   <energy>
    <i name="e_fr_energy">    -39.41034917 </i>
    <i name="e_wo_entrp">    -39.41068110 </i>
    <i name="e_0_energy">    -39.41045981 </i>
   </energy>
  </scstep>
  <scstep>
   <time name="diag">   11.36   11.37</time>
   <time name="diis">   27.47   27.49</time>
   <time name="orth">    0.39    0.39</time>
   <time name="total">   54.12   54.16</time>
   <energy>
    <i name="e_fr_energy">    -39.41048322 </i>
    <i name="e_wo_entrp">    -39.41081515 </i>
    <i name="e_0_energy">    -39.41059386 </i>
   </energy>
  </scstep>
  <scstep>
   <time name="diag">   11.46   11.47</time>
   <time name="diis">   26.53   26.55</time>
   <time name="orth">    0.39    0.39</time>
   <time name="total">   48.10   48.14</time>
   <energy>
    <i name="alphaZ">    104.15310261 </i>
    <i name="ewald">   7699.15925134 </i>
    <i name="hartreedc"> -11092.88063747 </i>
    <i name="XCdc">    122.66843492 </i>
    <i name="pawpsdc">   2399.37277944 </i>
    <i name="pawaedc">  -2361.55777484 </i>
    <i name="eentropy">      0.00033192 </i>
    <i name="bandstr">   -598.64450497 </i>
    <i name="atom">   3688.31848598 </i>
    <i name="e_fr_energy">    -39.41053108 </i>
    <i name="e_wo_entrp">    -39.41086299 </i>
    <i name="e_0_energy">    -39.41064172 </i>
   </energy>
  </scstep>
  <structure>
   <crystal>
    <varray name="basis" >
     <v>       3.19031700       0.00000000       0.00000000 </v>
     <v>      -1.59515800       2.76289700       0.00000000 </v>
     <v>       0.00000000       0.00000000      23.14049200 </v>
    </varray>
    <i name="volume">    203.97226633 </i>
    <varray name="rec_basis" >
     <v>       0.31344848       0.18096941       0.00000000 </v>
     <v>       0.00000000       0.36193894       0.00000000 </v>
     <v>       0.00000000       0.00000000       0.04321429 </v>
    </varray>
   </crystal>
   <varray name="positions" >
    <v>       0.66666700       0.33333300       0.06785900 </v>
    <v>       0.33333300       0.66666700       0.00000000 </v>
    <v>       0.33333300       0.66666700       0.13571500 </v>
    <v>       0.66666700       0.04761871       0.35482300 </v>
    <v>       0.33333300       0.38095271       0.28696500 </v>
    <v>       0.33333300       0.38095271       0.42267900 </v>
   </varray>
  </structure>
  <varray name="forces" >
   <v>      -0.00377074       0.00543823      -0.00971609 </v>
   <v>       0.00061282       0.00071635      -0.05592197 </v>
   <v>      -0.01820258       0.03089464       0.07979871 </v>
   <v>       0.00338690      -0.00683574       0.01111934 </v>
   <v>       0.01511081      -0.02686676      -0.08284631 </v>
   <v>       0.00286279      -0.00334671       0.05756631 </v>
  </varray>
  <varray name="stress" >
   <v>       3.38875828      -0.18722013       0.62611984 </v>
   <v>      -0.18722010       3.59426028      -1.08073746 </v>
   <v>       0.62611994      -1.08073742       1.45942441 </v>
  </varray>
  <energy>
   <i name="e_fr_energy">    -39.41053108 </i>
   <i name="e_wo_entrp">    -39.41064172 </i>
   <i name="e_0_energy">      0.00033192 </i>
  </energy>
  <time name="totalsc"> 1508.36 1525.21</time>
  <eigenvalues>
   <array>
    <dimension dim="1">band</dimension>
    <dimension dim="2">kpoint</dimension>
    <dimension dim="3">spin</dimension>
    <field>eigene</field>
    <field>occ</field>
    <set>
     <set comment="spin 1">
      <set comment="kpoint 1">
       <r>  -34.9900    1.0000 </r>
       <r>  -34.9896    1.0000 </r>
       <r>  -34.7988    1.0000 </r>
       <r>  -34.7986    1.0000 </r>
       <r>  -34.7984    1.0000 </r>
       <r>  -34.7982    1.0000 </r>
       <r>  -13.9751    1.0000 </r>
       <r>  -13.9180    1.0000 </r>
       <r>  -12.7100    1.0000 </r>
       <r>  -12.6142    1.0000 </r>
       <r>   -5.6906    1.0000 </r>
       <r>   -5.3947    1.0000 </r>
       <r>   -2.6204    1.0000 </r>
       <r>   -2.6194    1.0000 </r>
       <r>   -2.6181    1.0000 </r>
       <r>   -2.6172    1.0000 </r>
       <r>   -2.1863    1.0000 </r>
       <r>   -1.5285    1.0000 </r>
       <r>   -1.5265    1.0000 </r>
       <r>   -1.5253    1.0000 </r>
       <r>   -1.5223    1.0000 </r>
       <r>   -1.4666    1.0000 </r>
       <r>   -0.2271    1.0000 </r>
       <r>    0.2253    0.7990 </r>
       <r>    2.6934   -0.0000 </r>
       <r>    2.7012   -0.0000 </r>
       <r>    2.7099   -0.0000 </r>
       <r>    2.7163   -0.0000 </r>
       <r>    2.8743   -0.0000 </r>
       <r>    2.8826   -0.0000 </r>
       <r>    2.8940   -0.0000 </r>
       <r>    2.9038   -0.0000 </r>
       <r>    5.2490    0.0000 </r>
       <r>    5.3905    0.0000 </r>
       <r>    6.3701    0.0000 </r>
       <r>    6.5445    0.0000 </r>
      </set>
      <set comment="kpoint 2">
       <r>  -34.9859    1.0000 </r>
       <r>  -34.9855    1.0000 </r>
       <r>  -34.8200    1.0000 </r>
       <r>  -34.8195    1.0000 </r>
       <r>  -34.8036    1.0000 </r>
       <r>  -34.8031    1.0000 </r>
       <r>  -13.8885    1.0000 </r>
       <r>  -13.8314    1.0000 </r>
       <r>  -12.6734    1.0000 </r>
       <r>  -12.5797    1.0000 </r>
       <r>   -5.5916    1.0000 </r>
       <r>   -5.2956    1.0000 </r>
       <r>   -2.8086    1.0000 </r>
       <r>   -2.8029    1.0000 </r>
       <r>   -2.5292    1.0000 </r>
       <r>   -2.5274    1.0000 </r>
       <r>   -2.4668    1.0000 </r>
       <r>   -2.0694    1.0000 </r>
       <r>   -1.6642    1.0000 </r>
       <r>   -1.6617    1.0000 </r>
       <r>   -1.3723    1.0000 </r>
       <r>   -1.0597    1.0000 </r>
       <r>   -0.2488    1.0000 </r>
       <r>    0.1553    1.0317 </r>
       <r>    2.5618   -0.0000 </r>
       <r>    2.6092   -0.0000 </r>
       <r>    2.6324   -0.0000 </r>
       <r>    2.7329   -0.0000 </r>
       <r>    2.7878   -0.0000 </r>
       <r>    2.8000   -0.0000 </r>
       <r>    2.8491   -0.0000 </r>
       <r>    2.8574   -0.0000 </r>
       <r>    5.3883    0.0000 </r>
       <r>    5.5281    0.0000 </r>
       <r>    6.7285    0.0000 </r>
       <r>    6.9267    0.0000 </r>
      </set>
      <set comment="kpoint 3">
       <r>  -34.9745    1.0000 </r>
       <r>  -34.9741    1.0000 </r>
       <r>  -34.8784    1.0000 </r>
       <r>  -34.8780    1.0000 </r>
       <r>  -34.8170    1.0000 </r>
       <r>  -34.8165    1.0000 </r>
       <r>  -13.6403    1.0000 </r>
       <r>  -13.5834    1.0000 </r>
       <r>  -12.5687    1.0000 </r>
       <r>  -12.4810    1.0000 </r>
       <r>   -5.3321    1.0000 </r>
       <r>   -5.0413    1.0000 </r>
       <r>   -3.2647    1.0000 </r>
       <r>   -3.2457    1.0000 </r>
       <r>   -2.9636    1.0000 </r>
       <r>   -2.6856    1.0000 </r>
       <r>   -2.2734    1.0000 </r>
       <r>   -2.2715    1.0000 </r>
       <r>   -1.9994    1.0000 </r>
       <r>   -1.9967    1.0000 </r>
       <r>   -1.3021    1.0000 </r>
       <r>   -0.9205    1.0000 </r>
       <r>   -0.3818    1.0000 </r>
       <r>   -0.1086    1.0000 </r>
       <r>    2.1484   -0.0000 </r>
       <r>    2.3628   -0.0000 </r>
       <r>    2.4844   -0.0000 </r>
       <r>    2.5611   -0.0000 </r>
       <r>    2.5706   -0.0000 </r>
       <r>    2.6380   -0.0000 </r>
       <r>    3.1966    0.0000 </r>
       <r>    3.2070    0.0000 </r>
       <r>    5.7432    0.0000 </r>
       <r>    5.8776    0.0000 </r>
       <r>    7.4022    0.0000 </r>
       <r>    7.8295    0.0000 </r>
      </set>
      <set comment="kpoint 4">
       <r>  -34.9600    1.0000 </r>
       <r>  -34.9595    1.0000 </r>
       <r>  -34.9584    1.0000 </r>
       <r>  -34.9580    1.0000 </r>
       <r>  -34.8358    1.0000 </r>
       <r>  -34.8354    1.0000 </r>
       <r>  -13.2656    1.0000 </r>
       <r>  -13.2096    1.0000 </r>
       <r>  -12.4116    1.0000 </r>
       <r>  -12.3329    1.0000 </r>
       <r>   -5.0673    1.0000 </r>
       <r>   -4.8257    1.0000 </r>
       <r>   -3.7433    1.0000 </r>
       <r>   -3.6617    1.0000 </r>
       <r>   -3.4939    1.0000 </r>
       <r>   -3.3023    1.0000 </r>
       <r>   -2.3945    1.0000 </r>
       <r>   -2.3916    1.0000 </r>
       <r>   -1.9047    1.0000 </r>
       <r>   -1.9017    1.0000 </r>
       <r>   -1.4895    1.0000 </r>
       <r>   -1.0975    1.0000 </r>
       <r>   -0.7026    1.0000 </r>
       <r>   -0.5506    1.0000 </r>
       <r>    1.9253   -0.0000 </r>
       <r>    2.2375   -0.0000 </r>
       <r>    2.3106   -0.0000 </r>
       <r>    2.3220   -0.0000 </r>
       <r>    2.6801   -0.0000 </r>
       <r>    2.9108   -0.0000 </r>
       <r>    3.5790    0.0000 </r>
       <r>    3.5923    0.0000 </r>
       <r>    6.2595    0.0000 </r>
       <r>    6.3892    0.0000 </r>
       <r>    7.8557    0.0000 </r>
       <r>    8.2781    0.0000 </r>
      </set>
      <set comment="kpoint 5">
       <r>  -35.0452    1.0000 </r>
       <r>  -35.0447    1.0000 </r>
       <r>  -34.9413    1.0000 </r>
       <r>  -34.9409    1.0000 </r>
       <r>  -34.8557    1.0000 </r>
       <r>  -34.8553    1.0000 </r>
       <r>  -12.8264    1.0000 </r>
       <r>  -12.7724    1.0000 </r>
       <r>  -12.2303    1.0000 </r>
       <r>  -12.1622    1.0000 </r>
       <r>   -5.1185    1.0000 </r>
       <r>   -4.9953    1.0000 </r>
       <r>   -4.0772    1.0000 </r>
       <r>   -3.9183    1.0000 </r>
       <r>   -3.8949    1.0000 </r>
       <r>   -3.7187    1.0000 </r>
       <r>   -2.7499    1.0000 </r>
       <r>   -2.7467    1.0000 </r>
       <r>   -1.7733    1.0000 </r>
       <r>   -1.5086    1.0000 </r>
       <r>   -1.5062    1.0000 </r>
       <r>   -1.3809    1.0000 </r>
       <r>   -0.9943    1.0000 </r>
       <r>   -0.8782    1.0000 </r>
       <r>    2.0253   -0.0000 </r>
       <r>    2.1434   -0.0000 </r>
       <r>    2.1508   -0.0000 </r>
       <r>    2.3186   -0.0000 </r>
       <r>    3.0815    0.0000 </r>
       <r>    3.3632    0.0000 </r>
       <r>    3.8824    0.0000 </r>
       <r>    3.8993    0.0000 </r>
       <r>    6.8922    0.0000 </r>
       <r>    7.0059    0.0000 </r>
       <r>    7.8047    0.0000 </r>
       <r>    8.1476    0.0000 </r>
      </set>
      <set comment="kpoint 6">
       <r>  -35.1149    1.0000 </r>
       <r>  -35.1145    1.0000 </r>
       <r>  -34.9271    1.0000 </r>
       <r>  -34.9266    1.0000 </r>
       <r>  -34.8722    1.0000 </r>
       <r>  -34.8717    1.0000 </r>
       <r>  -12.4171    1.0000 </r>
       <r>  -12.3661    1.0000 </r>
       <r>  -12.0656    1.0000 </r>
       <r>  -12.0075    1.0000 </r>
       <r>   -5.4377    1.0000 </r>
       <r>   -5.3629    1.0000 </r>
       <r>   -4.4931    1.0000 </r>
       <r>   -4.3737    1.0000 </r>
       <r>   -3.9972    1.0000 </r>
       <r>   -3.7860    1.0000 </r>
       <r>   -3.0098    1.0000 </r>
       <r>   -3.0065    1.0000 </r>
       <r>   -1.9910    1.0000 </r>
       <r>   -1.6036    1.0000 </r>
       <r>   -1.1925    1.0000 </r>
       <r>   -1.1857    1.0000 </r>
       <r>   -0.9538    1.0000 </r>
       <r>   -0.8126    1.0000 </r>
       <r>    2.0987   -0.0000 </r>
       <r>    2.1040   -0.0000 </r>
       <r>    2.2942   -0.0000 </r>
       <r>    2.4926   -0.0000 </r>
       <r>    3.4578    0.0000 </r>
       <r>    3.7654    0.0000 </r>
       <r>    4.0715    0.0000 </r>
       <r>    4.0916    0.0000 </r>
       <r>    6.7208    0.0000 </r>
       <r>    7.1990    0.0000 </r>
       <r>    7.5445    0.0000 </r>
       <r>    7.9042    0.0000 </r>
      </set>
      <set comment="kpoint 7">
       <r>  -35.1540    1.0000 </r>
       <r>  -35.1535    1.0000 </r>
       <r>  -34.9190    1.0000 </r>
       <r>  -34.9186    1.0000 </r>
       <r>  -34.8814    1.0000 </r>
       <r>  -34.8810    1.0000 </r>
       <r>  -12.1616    1.0000 </r>
       <r>  -12.1128    1.0000 </r>
       <r>  -11.9647    1.0000 </r>
       <r>  -11.9133    1.0000 </r>
       <r>   -5.6801    1.0000 </r>
       <r>   -5.6129    1.0000 </r>
       <r>   -4.7453    1.0000 </r>
       <r>   -4.6384    1.0000 </r>
       <r>   -4.0992    1.0000 </r>
       <r>   -3.8988    1.0000 </r>
       <r>   -3.1458    1.0000 </r>
       <r>   -3.1424    1.0000 </r>
       <r>   -2.0979    1.0000 </r>
       <r>   -1.7134    1.0000 </r>
       <r>   -1.0260    1.0000 </r>
       <r>   -1.0176    1.0000 </r>
       <r>   -0.7428    1.0000 </r>
       <r>   -0.5730    1.0000 </r>
       <r>    2.1255   -0.0000 </r>
       <r>    2.1282   -0.0000 </r>
       <r>    2.5465   -0.0000 </r>
       <r>    2.6466   -0.0000 </r>
       <r>    3.6507    0.0000 </r>
       <r>    3.9767    0.0000 </r>
       <r>    4.1573    0.0000 </r>
       <r>    4.1790    0.0000 </r>
       <r>    5.9320    0.0000 </r>
       <r>    6.5838    0.0000 </r>
       <r>    7.8768    0.0000 </r>
       <r>    8.0302    0.0000 </r>
      </set>
      <set comment="kpoint 8">
       <r>  -34.9859    1.0000 </r>
       <r>  -34.9855    1.0000 </r>
       <r>  -34.8199    1.0000 </r>
       <r>  -34.8196    1.0000 </r>
       <r>  -34.8036    1.0000 </r>
       <r>  -34.8030    1.0000 </r>
       <r>  -13.8884    1.0000 </r>
       <r>  -13.8315    1.0000 </r>
       <r>  -12.6733    1.0000 </r>
       <r>  -12.5799    1.0000 </r>
       <r>   -5.5914    1.0000 </r>
       <r>   -5.2959    1.0000 </r>
       <r>   -2.8083    1.0000 </r>
       <r>   -2.8032    1.0000 </r>
       <r>   -2.5293    1.0000 </r>
       <r>   -2.5269    1.0000 </r>
       <r>   -2.4680    1.0000 </r>
       <r>   -2.0693    1.0000 </r>
       <r>   -1.6653    1.0000 </r>
       <r>   -1.6605    1.0000 </r>
       <r>   -1.3650    1.0000 </r>
       <r>   -1.0655    1.0000 </r>
       <r>   -0.2478    1.0000 </r>
       <r>    0.1501    1.0340 </r>
       <r>    2.5813   -0.0000 </r>
       <r>    2.6066   -0.0000 </r>
       <r>    2.6387   -0.0000 </r>
       <r>    2.7117   -0.0000 </r>
       <r>    2.7818   -0.0000 </r>
       <r>    2.8051   -0.0000 </r>
       <r>    2.8470   -0.0000 </r>
       <r>    2.8624   -0.0000 </r>
       <r>    5.3865    0.0000 </r>
       <r>    5.5279    0.0000 </r>
       <r>    6.7251    0.0000 </r>
       <r>    6.9276    0.0000 </r>
      </set>
      <set comment="kpoint 9">
       <r>  -34.9782    1.0000 </r>
       <r>  -34.9777    1.0000 </r>
       <r>  -34.8588    1.0000 </r>
       <r>  -34.8585    1.0000 </r>
       <r>  -34.8137    1.0000 </r>
       <r>  -34.8131    1.0000 </r>
       <r>  -13.7209    1.0000 </r>
       <r>  -13.6641    1.0000 </r>
       <r>  -12.6026    1.0000 </r>
       <r>  -12.5132    1.0000 </r>
       <r>   -5.4103    1.0000 </r>
       <r>   -5.1166    1.0000 </r>
       <r>   -3.1246    1.0000 </r>
       <r>   -3.1140    1.0000 </r>
       <r>   -2.8027    1.0000 </r>
       <r>   -2.4843    1.0000 </r>
       <r>   -2.3607    1.0000 </r>
       <r>   -2.3591    1.0000 </r>
       <r>   -1.9804    1.0000 </r>
       <r>   -1.9718    1.0000 </r>
       <r>   -1.2182    1.0000 </r>
       <r>   -0.8757    1.0000 </r>
       <r>   -0.3241    1.0000 </r>
       <r>   -0.0174    1.0003 </r>
       <r>    2.2731   -0.0000 </r>
       <r>    2.4192   -0.0000 </r>
       <r>    2.4500   -0.0000 </r>
       <r>    2.5600   -0.0000 </r>
       <r>    2.6198   -0.0000 </r>
       <r>    2.6414   -0.0000 </r>
       <r>    3.1267    0.0000 </r>
       <r>    3.1398    0.0000 </r>
       <r>    5.6310    0.0000 </r>
       <r>    5.7687    0.0000 </r>
       <r>    7.2502    0.0000 </r>
       <r>    7.5905    0.0000 </r>
      </set>
      <set comment="kpoint 10">
       <r>  -34.9645    1.0000 </r>
       <r>  -34.9640    1.0000 </r>
       <r>  -34.9264    1.0000 </r>
       <r>  -34.9261    1.0000 </r>
       <r>  -34.8322    1.0000 </r>
       <r>  -34.8316    1.0000 </r>
       <r>  -13.4089    1.0000 </r>
       <r>  -13.3527    1.0000 </r>
       <r>  -12.4710    1.0000 </r>
       <r>  -12.3892    1.0000 </r>
       <r>   -5.1311    1.0000 </r>
       <r>   -4.8584    1.0000 </r>
       <r>   -3.5766    1.0000 </r>
       <r>   -3.5362    1.0000 </r>
       <r>   -3.2361    1.0000 </r>
       <r>   -3.0046    1.0000 </r>
       <r>   -2.4715    1.0000 </r>
       <r>   -2.4409    1.0000 </r>
       <r>   -2.0772    1.0000 </r>
       <r>   -2.0741    1.0000 </r>
       <r>   -1.2124    1.0000 </r>
       <r>   -0.8727    1.0000 </r>
       <r>   -0.5574    1.0000 </r>
       <r>   -0.3773    1.0000 </r>
       <r>    1.9354   -0.0000 </r>
       <r>    2.1855   -0.0000 </r>
       <r>    2.3865   -0.0000 </r>
       <r>    2.4178   -0.0000 </r>
       <r>    2.4598   -0.0000 </r>
       <r>    2.6358   -0.0000 </r>
       <r>    3.5300    0.0000 </r>
       <r>    3.5587    0.0000 </r>
       <r>    6.0666    0.0000 </r>
       <r>    6.2010    0.0000 </r>
       <r>    7.7877    0.0000 </r>
       <r>    8.3218    0.0000 </r>
      </set>
      <set comment="kpoint 11">
       <r>  -35.0068    1.0000 </r>
       <r>  -35.0064    1.0000 </r>
       <r>  -34.9478    1.0000 </r>
       <r>  -34.9474    1.0000 </r>
       <r>  -34.8545    1.0000 </r>
       <r>  -34.8540    1.0000 </r>
       <r>  -12.9997    1.0000 </r>
       <r>  -12.9451    1.0000 </r>
       <r>  -12.2998    1.0000 </r>
       <r>  -12.2279    1.0000 </r>
       <r>   -5.0038    1.0000 </r>
       <r>   -4.8304    1.0000 </r>
       <r>   -3.8993    1.0000 </r>
       <r>   -3.7478    1.0000 </r>
       <r>   -3.7317    1.0000 </r>
       <r>   -3.5923    1.0000 </r>
       <r>   -2.8675    1.0000 </r>
       <r>   -2.8024    1.0000 </r>
       <r>   -1.7970    1.0000 </r>
       <r>   -1.7880    1.0000 </r>
       <r>   -1.4353    1.0000 </r>
       <r>   -1.1086    1.0000 </r>
       <r>   -0.8606    1.0000 </r>
       <r>   -0.7587    1.0000 </r>
       <r>    1.8387   -0.0000 </r>
       <r>    2.0619   -0.0000 </r>
       <r>    2.2709   -0.0000 </r>
       <r>    2.3698   -0.0000 </r>
       <r>    2.7369   -0.0000 </r>
       <r>    2.9525   -0.0000 </r>
       <r>    3.8775    0.0000 </r>
       <r>    3.9281    0.0000 </r>
       <r>    6.6610    0.0000 </r>
       <r>    6.7809    0.0000 </r>
       <r>    8.1611    0.0000 </r>
       <r>    8.4883    0.0000 </r>
      </set>
      <set comment="kpoint 12">
       <r>  -35.0814    1.0000 </r>
       <r>  -35.0810    1.0000 </r>
       <r>  -34.9321    1.0000 </r>
       <r>  -34.9317    1.0000 </r>
       <r>  -34.8755    1.0000 </r>
       <r>  -34.8751    1.0000 </r>
       <r>  -12.5703    1.0000 </r>
       <r>  -12.5184    1.0000 </r>
       <r>  -12.1231    1.0000 </r>
       <r>  -12.0616    1.0000 </r>
       <r>   -5.2253    1.0000 </r>
       <r>   -5.1372    1.0000 </r>
       <r>   -4.3056    1.0000 </r>
       <r>   -4.1972    1.0000 </r>
       <r>   -3.9190    1.0000 </r>
       <r>   -3.7071    1.0000 </r>
       <r>   -3.0802    1.0000 </r>
       <r>   -3.0153    1.0000 </r>
       <r>   -1.7561    1.0000 </r>
       <r>   -1.6315    1.0000 </r>
       <r>   -1.6185    1.0000 </r>
       <r>   -1.4003    1.0000 </r>
       <r>   -0.8825    1.0000 </r>
       <r>   -0.8056    1.0000 </r>
       <r>    1.9528   -0.0000 </r>
       <r>    2.0957   -0.0000 </r>
       <r>    2.3093   -0.0000 </r>
       <r>    2.4334   -0.0000 </r>
       <r>    3.1588    0.0000 </r>
       <r>    3.3738    0.0000 </r>
       <r>    4.0698    0.0000 </r>
       <r>    4.1541    0.0000 </r>
       <r>    7.2298    0.0000 </r>
       <r>    7.3732    0.0000 </r>
       <r>    7.4988    0.0000 </r>
       <r>    8.0801    0.0000 </r>
      </set>
      <set comment="kpoint 13">
       <r>  -35.1338    1.0000 </r>
       <r>  -35.1334    1.0000 </r>
       <r>  -34.9210    1.0000 </r>
       <r>  -34.9206    1.0000 </r>
       <r>  -34.8904    1.0000 </r>
       <r>  -34.8899    1.0000 </r>
       <r>  -12.2301    1.0000 </r>
       <r>  -12.1810    1.0000 </r>
       <r>  -11.9859    1.0000 </r>
       <r>  -11.9328    1.0000 </r>
       <r>   -5.5099    1.0000 </r>
       <r>   -5.4417    1.0000 </r>
       <r>   -4.6929    1.0000 </r>
       <r>   -4.6029    1.0000 </r>
       <r>   -4.0238    1.0000 </r>
       <r>   -3.8152    1.0000 </r>
       <r>   -3.1672    1.0000 </r>
       <r>   -3.1216    1.0000 </r>
       <r>   -1.9904    1.0000 </r>
       <r>   -1.6500    1.0000 </r>
       <r>   -1.5046    1.0000 </r>
       <r>   -1.4457    1.0000 </r>
       <r>   -0.6736    1.0000 </r>
       <r>   -0.5751    1.0000 </r>
       <r>    2.1000   -0.0000 </r>
       <r>    2.1632   -0.0000 </r>
       <r>    2.4853   -0.0000 </r>
       <r>    2.5935   -0.0000 </r>
       <r>    3.5504    0.0000 </r>
       <r>    3.7366    0.0000 </r>
       <r>    4.0643    0.0000 </r>
       <r>    4.1991    0.0000 </r>
       <r>    6.3428    0.0000 </r>
       <r>    6.9717    0.0000 </r>
       <r>    7.9918    0.0000 </r>
       <r>    8.2031    0.0000 </r>
      </set>
      <set comment="kpoint 14">
       <r>  -35.1526    1.0000 </r>
       <r>  -35.1521    1.0000 </r>
       <r>  -34.9170    1.0000 </r>
       <r>  -34.9165    1.0000 </r>
       <r>  -34.8957    1.0000 </r>
       <r>  -34.8953    1.0000 </r>
       <r>  -12.0984    1.0000 </r>
       <r>  -12.0504    1.0000 </r>
       <r>  -11.9328    1.0000 </r>
       <r>  -11.8835    1.0000 </r>
       <r>   -5.6285    1.0000 </r>
       <r>   -5.5624    1.0000 </r>
       <r>   -4.8359    1.0000 </r>
       <r>   -4.7498    1.0000 </r>
       <r>   -4.0914    1.0000 </r>
       <r>   -3.8908    1.0000 </r>
       <r>   -3.1872    1.0000 </r>
       <r>   -3.1525    1.0000 </r>
       <r>   -2.0813    1.0000 </r>
       <r>   -1.7284    1.0000 </r>
       <r>   -1.4408    1.0000 </r>
       <r>   -1.3792    1.0000 </r>
       <r>   -0.5450    1.0000 </r>
       <r>   -0.4267    1.0000 </r>
       <r>    2.1353   -0.0000 </r>
       <r>    2.1634   -0.0000 </r>
       <r>    2.6310   -0.0000 </r>
       <r>    2.7165   -0.0000 </r>
       <r>    3.7901    0.0000 </r>
       <r>    3.9036    0.0000 </r>
       <r>    3.9639    0.0000 </r>
       <r>    4.1347    0.0000 </r>
       <r>    5.9032    0.0000 </r>
       <r>    6.6018    0.0000 </r>
       <r>    8.3113    0.0000 </r>
       <r>    8.4204    0.0000 </r>
      </set>
      <set comment="kpoint 15">
       <r>  -35.1338    1.0000 </r>
       <r>  -35.1333    1.0000 </r>
       <r>  -34.9210    1.0000 </r>
       <r>  -34.9206    1.0000 </r>
       <r>  -34.8904    1.0000 </r>
       <r>  -34.8900    1.0000 </r>
       <r>  -12.2301    1.0000 </r>
       <r>  -12.1810    1.0000 </r>
       <r>  -11.9859    1.0000 </r>
       <r>  -11.9328    1.0000 </r>
       <r>   -5.5099    1.0000 </r>
       <r>   -5.4417    1.0000 </r>
       <r>   -4.6929    1.0000 </r>
       <r>   -4.6029    1.0000 </r>
       <r>   -4.0238    1.0000 </r>
       <r>   -3.8152    1.0000 </r>
       <r>   -3.1672    1.0000 </r>
       <r>   -3.1216    1.0000 </r>
       <r>   -1.9904    1.0000 </r>
       <r>   -1.6500    1.0000 </r>
       <r>   -1.5045    1.0000 </r>
       <r>   -1.4458    1.0000 </r>
       <r>   -0.6736    1.0000 </r>
       <r>   -0.5750    1.0000 </r>
       <r>    2.1000   -0.0000 </r>
       <r>    2.1632   -0.0000 </r>
       <r>    2.4853   -0.0000 </r>
       <r>    2.5935   -0.0000 </r>
       <r>    3.5505    0.0000 </r>
       <r>    3.7366    0.0000 </r>
       <r>    4.0643    0.0000 </r>
       <r>    4.1991    0.0000 </r>
       <r>    6.3428    0.0000 </r>
       <r>    6.9717    0.0000 </r>
       <r>    8.0629    0.0000 </r>
       <r>    8.2884    0.0000 </r>
      </set>
      <set comment="kpoint 16">
       <r>  -35.0815    1.0000 </r>
       <r>  -35.0810    1.0000 </r>
       <r>  -34.9321    1.0000 </r>
       <r>  -34.9317    1.0000 </r>
       <r>  -34.8755    1.0000 </r>
       <r>  -34.8751    1.0000 </r>
       <r>  -12.5703    1.0000 </r>
       <r>  -12.5184    1.0000 </r>
       <r>  -12.1231    1.0000 </r>
       <r>  -12.0616    1.0000 </r>
       <r>   -5.2253    1.0000 </r>
       <r>   -5.1372    1.0000 </r>
       <r>   -4.3056    1.0000 </r>
       <r>   -4.1972    1.0000 </r>
       <r>   -3.9190    1.0000 </r>
       <r>   -3.7071    1.0000 </r>
       <r>   -3.0802    1.0000 </r>
       <r>   -3.0153    1.0000 </r>
       <r>   -1.7561    1.0000 </r>
       <r>   -1.6314    1.0000 </r>
       <r>   -1.6186    1.0000 </r>
       <r>   -1.4003    1.0000 </r>
       <r>   -0.8825    1.0000 </r>
       <r>   -0.8056    1.0000 </r>
       <r>    1.9528   -0.0000 </r>
       <r>    2.0957   -0.0000 </r>
       <r>    2.3093   -0.0000 </r>
       <r>    2.4334   -0.0000 </r>
       <r>    3.1589    0.0000 </r>
       <r>    3.3738    0.0000 </r>
       <r>    4.0697    0.0000 </r>
       <r>    4.1542    0.0000 </r>
       <r>    7.2291    0.0000 </r>
       <r>    7.3753    0.0000 </r>
       <r>    7.4974    0.0000 </r>
       <r>    8.0654    0.0000 </r>
      </set>
      <set comment="kpoint 17">
       <r>  -35.0068    1.0000 </r>
       <r>  -35.0063    1.0000 </r>
       <r>  -34.9478    1.0000 </r>
       <r>  -34.9474    1.0000 </r>
       <r>  -34.8545    1.0000 </r>
       <r>  -34.8541    1.0000 </r>
       <r>  -12.9997    1.0000 </r>
       <r>  -12.9451    1.0000 </r>
       <r>  -12.2998    1.0000 </r>
       <r>  -12.2279    1.0000 </r>
       <r>   -5.0038    1.0000 </r>
       <r>   -4.8304    1.0000 </r>
       <r>   -3.8993    1.0000 </r>
       <r>   -3.7478    1.0000 </r>
       <r>   -3.7317    1.0000 </r>
       <r>   -3.5923    1.0000 </r>
       <r>   -2.8675    1.0000 </r>
       <r>   -2.8024    1.0000 </r>
       <r>   -1.7970    1.0000 </r>
       <r>   -1.7879    1.0000 </r>
       <r>   -1.4353    1.0000 </r>
       <r>   -1.1086    1.0000 </r>
       <r>   -0.8607    1.0000 </r>
       <r>   -0.7587    1.0000 </r>
       <r>    1.8387   -0.0000 </r>
       <r>    2.0619   -0.0000 </r>
       <r>    2.2709   -0.0000 </r>
       <r>    2.3698   -0.0000 </r>
       <r>    2.7369   -0.0000 </r>
       <r>    2.9525   -0.0000 </r>
       <r>    3.8774    0.0000 </r>
       <r>    3.9282    0.0000 </r>
       <r>    6.6613    0.0000 </r>
       <r>    6.7809    0.0000 </r>
       <r>    8.1800    0.0000 </r>
       <r>    8.5627    0.0000 </r>
      </set>
      <set comment="kpoint 18">
       <r>  -34.9644    1.0000 </r>
       <r>  -34.9640    1.0000 </r>
       <r>  -34.9265    1.0000 </r>
       <r>  -34.9260    1.0000 </r>
       <r>  -34.8321    1.0000 </r>
       <r>  -34.8317    1.0000 </r>
       <r>  -13.4089    1.0000 </r>
       <r>  -13.3527    1.0000 </r>
       <r>  -12.4710    1.0000 </r>
       <r>  -12.3892    1.0000 </r>
       <r>   -5.1311    1.0000 </r>
       <r>   -4.8584    1.0000 </r>
       <r>   -3.5766    1.0000 </r>
       <r>   -3.5362    1.0000 </r>
       <r>   -3.2361    1.0000 </r>
       <r>   -3.0046    1.0000 </r>
       <r>   -2.4715    1.0000 </r>
       <r>   -2.4409    1.0000 </r>
       <r>   -2.0772    1.0000 </r>
       <r>   -2.0741    1.0000 </r>
       <r>   -1.2124    1.0000 </r>
       <r>   -0.8727    1.0000 </r>
       <r>   -0.5574    1.0000 </r>
       <r>   -0.3773    1.0000 </r>
       <r>    1.9354   -0.0000 </r>
       <r>    2.1855   -0.0000 </r>
       <r>    2.3864   -0.0000 </r>
       <r>    2.4179   -0.0000 </r>
       <r>    2.4598   -0.0000 </r>
       <r>    2.6358   -0.0000 </r>
       <r>    3.5300    0.0000 </r>
       <r>    3.5587    0.0000 </r>
       <r>    6.0669    0.0000 </r>
       <r>    6.2010    0.0000 </r>
       <r>    7.7842    0.0000 </r>
       <r>    8.2719    0.0000 </r>
      </set>
      <set comment="kpoint 19">
       <r>  -34.9782    1.0000 </r>
       <r>  -34.9777    1.0000 </r>
       <r>  -34.8590    1.0000 </r>
       <r>  -34.8584    1.0000 </r>
       <r>  -34.8135    1.0000 </r>
       <r>  -34.8133    1.0000 </r>
       <r>  -13.7209    1.0000 </r>
       <r>  -13.6641    1.0000 </r>
       <r>  -12.6026    1.0000 </r>
       <r>  -12.5132    1.0000 </r>
       <r>   -5.4103    1.0000 </r>
       <r>   -5.1166    1.0000 </r>
       <r>   -3.1246    1.0000 </r>
       <r>   -3.1140    1.0000 </r>
       <r>   -2.8027    1.0000 </r>
       <r>   -2.4843    1.0000 </r>
       <r>   -2.3607    1.0000 </r>
       <r>   -2.3590    1.0000 </r>
       <r>   -1.9803    1.0000 </r>
       <r>   -1.9718    1.0000 </r>
       <r>   -1.2182    1.0000 </r>
       <r>   -0.8757    1.0000 </r>
       <r>   -0.3241    1.0000 </r>
       <r>   -0.0174    1.0003 </r>
       <r>    2.2731   -0.0000 </r>
       <r>    2.4192   -0.0000 </r>
       <r>    2.4499   -0.0000 </r>
       <r>    2.5600   -0.0000 </r>
       <r>    2.6198   -0.0000 </r>
       <r>    2.6414   -0.0000 </r>
       <r>    3.1266    0.0000 </r>
       <r>    3.1399    0.0000 </r>
       <r>    5.6309    0.0000 </r>
       <r>    5.7688    0.0000 </r>
       <r>    7.2508    0.0000 </r>
       <r>    7.5878    0.0000 </r>
      </set>
      <set comment="kpoint 20">
       <r>  -34.9859    1.0000 </r>
       <r>  -34.9855    1.0000 </r>
       <r>  -34.8201    1.0000 </r>
       <r>  -34.8195    1.0000 </r>
       <r>  -34.8035    1.0000 </r>
       <r>  -34.8032    1.0000 </r>
       <r>  -13.8884    1.0000 </r>
       <r>  -13.8315    1.0000 </r>
       <r>  -12.6733    1.0000 </r>
       <r>  -12.5799    1.0000 </r>
       <r>   -5.5914    1.0000 </r>
       <r>   -5.2959    1.0000 </r>
       <r>   -2.8083    1.0000 </r>
       <r>   -2.8032    1.0000 </r>
       <r>   -2.5294    1.0000 </r>
       <r>   -2.5269    1.0000 </r>
       <r>   -2.4680    1.0000 </r>
       <r>   -2.0693    1.0000 </r>
       <r>   -1.6653    1.0000 </r>
       <r>   -1.6605    1.0000 </r>
       <r>   -1.3649    1.0000 </r>
       <r>   -1.0655    1.0000 </r>
       <r>   -0.2478    1.0000 </r>
       <r>    0.1501    1.0340 </r>
       <r>    2.5813   -0.0000 </r>
       <r>    2.6066   -0.0000 </r>
       <r>    2.6387   -0.0000 </r>
       <r>    2.7117   -0.0000 </r>
       <r>    2.7818   -0.0000 </r>
       <r>    2.8050   -0.0000 </r>
       <r>    2.8471   -0.0000 </r>
       <r>    2.8624   -0.0000 </r>
       <r>    5.3884    0.0000 </r>
       <r>    5.5279    0.0000 </r>
       <r>    6.7258    0.0000 </r>
       <r>    6.9280    0.0000 </r>
      </set>
      <set comment="kpoint 21">
       <r>  -34.9745    1.0000 </r>
       <r>  -34.9741    1.0000 </r>
       <r>  -34.8784    1.0000 </r>
       <r>  -34.8781    1.0000 </r>
       <r>  -34.8170    1.0000 </r>
       <r>  -34.8164    1.0000 </r>
       <r>  -13.6399    1.0000 </r>
       <r>  -13.5837    1.0000 </r>
       <r>  -12.5682    1.0000 </r>
       <r>  -12.4816    1.0000 </r>
       <r>   -5.3312    1.0000 </r>
       <r>   -5.0420    1.0000 </r>
       <r>   -3.2629    1.0000 </r>
       <r>   -3.2473    1.0000 </r>
       <r>   -2.9644    1.0000 </r>
       <r>   -2.6859    1.0000 </r>
       <r>   -2.2745    1.0000 </r>
       <r>   -2.2705    1.0000 </r>
       <r>   -2.0011    1.0000 </r>
       <r>   -1.9949    1.0000 </r>
       <r>   -1.2832    1.0000 </r>
       <r>   -0.9349    1.0000 </r>
       <r>   -0.3776    1.0000 </r>
       <r>   -0.1274    1.0000 </r>
       <r>    2.1711   -0.0000 </r>
       <r>    2.3605   -0.0000 </r>
       <r>    2.4908   -0.0000 </r>
       <r>    2.5522   -0.0000 </r>
       <r>    2.5787   -0.0000 </r>
       <r>    2.6238   -0.0000 </r>
       <r>    3.1913    0.0000 </r>
       <r>    3.2127    0.0000 </r>
       <r>    5.7436    0.0000 </r>
       <r>    5.8772    0.0000 </r>
       <r>    7.4105    0.0000 </r>
       <r>    7.8233    0.0000 </r>
      </set>
      <set comment="kpoint 22">
       <r>  -34.9645    1.0000 </r>
       <r>  -34.9640    1.0000 </r>
       <r>  -34.9264    1.0000 </r>
       <r>  -34.9261    1.0000 </r>
       <r>  -34.8322    1.0000 </r>
       <r>  -34.8316    1.0000 </r>
       <r>  -13.4085    1.0000 </r>
       <r>  -13.3529    1.0000 </r>
       <r>  -12.4706    1.0000 </r>
       <r>  -12.3897    1.0000 </r>
       <r>   -5.1307    1.0000 </r>
       <r>   -4.8586    1.0000 </r>
       <r>   -3.5736    1.0000 </r>
       <r>   -3.5393    1.0000 </r>
       <r>   -3.2357    1.0000 </r>
       <r>   -3.0056    1.0000 </r>
       <r>   -2.4727    1.0000 </r>
       <r>   -2.4390    1.0000 </r>
       <r>   -2.0782    1.0000 </r>
       <r>   -2.0731    1.0000 </r>
       <r>   -1.1997    1.0000 </r>
       <r>   -0.8817    1.0000 </r>
       <r>   -0.5546    1.0000 </r>
       <r>   -0.3906    1.0000 </r>
       <r>    1.9435   -0.0000 </r>
       <r>    2.1857   -0.0000 </r>
       <r>    2.3829   -0.0000 </r>
       <r>    2.4304   -0.0000 </r>
       <r>    2.4535   -0.0000 </r>
       <r>    2.6330   -0.0000 </r>
       <r>    3.5229    0.0000 </r>
       <r>    3.5648    0.0000 </r>
       <r>    6.0678    0.0000 </r>
       <r>    6.1999    0.0000 </r>
       <r>    7.7821    0.0000 </r>
       <r>    8.2581    0.0000 </r>
      </set>
      <set comment="kpoint 23">
       <r>  -34.9885    1.0000 </r>
       <r>  -34.9882    1.0000 </r>
       <r>  -34.9502    1.0000 </r>
       <r>  -34.9497    1.0000 </r>
       <r>  -34.8585    1.0000 </r>
       <r>  -34.8580    1.0000 </r>
       <r>  -13.0604    1.0000 </r>
       <r>  -13.0062    1.0000 </r>
       <r>  -12.3234    1.0000 </r>
       <r>  -12.2510    1.0000 </r>
       <r>   -4.9561    1.0000 </r>
       <r>   -4.7548    1.0000 </r>
       <r>   -3.8308    1.0000 </r>
       <r>   -3.7213    1.0000 </r>
       <r>   -3.5271    1.0000 </r>
       <r>   -3.4000    1.0000 </r>
       <r>   -3.1051    1.0000 </r>
       <r>   -2.9906    1.0000 </r>
       <r>   -1.9496    1.0000 </r>
       <r>   -1.9393    1.0000 </r>
       <r>   -1.1870    1.0000 </r>
       <r>   -0.9148    1.0000 </r>
       <r>   -0.7914    1.0000 </r>
       <r>   -0.6988    1.0000 </r>
       <r>    1.7470   -0.0000 </r>
       <r>    1.9906   -0.0000 </r>
       <r>    2.3108   -0.0000 </r>
       <r>    2.4078   -0.0000 </r>
       <r>    2.5061   -0.0000 </r>
       <r>    2.7135   -0.0000 </r>
       <r>    3.9102    0.0000 </r>
       <r>    3.9928    0.0000 </r>
       <r>    6.5866    0.0000 </r>
       <r>    6.7084    0.0000 </r>
       <r>    8.3002    0.0000 </r>
       <r>    8.5934    0.0000 </r>
      </set>
      <set comment="kpoint 24">
       <r>  -35.0513    1.0000 </r>
       <r>  -35.0510    1.0000 </r>
       <r>  -34.9350    1.0000 </r>
       <r>  -34.9346    1.0000 </r>
       <r>  -34.8888    1.0000 </r>
       <r>  -34.8883    1.0000 </r>
       <r>  -12.6553    1.0000 </r>
       <r>  -12.6036    1.0000 </r>
       <r>  -12.1523    1.0000 </r>
       <r>  -12.0898    1.0000 </r>
       <r>   -5.0295    1.0000 </r>
       <r>   -4.9232    1.0000 </r>
       <r>   -4.1066    1.0000 </r>
       <r>   -4.0471    1.0000 </r>
       <r>   -3.8314    1.0000 </r>
       <r>   -3.6296    1.0000 </r>
       <r>   -3.3190    1.0000 </r>
       <r>   -3.1585    1.0000 </r>
       <r>   -2.0803    1.0000 </r>
       <r>   -2.0567    1.0000 </r>
       <r>   -1.4070    1.0000 </r>
       <r>   -1.1443    1.0000 </r>
       <r>   -0.8452    1.0000 </r>
       <r>   -0.8044    1.0000 </r>
       <r>    1.7793   -0.0000 </r>
       <r>    2.0431   -0.0000 </r>
       <r>    2.3803   -0.0000 </r>
       <r>    2.4481   -0.0000 </r>
       <r>    2.7707   -0.0000 </r>
       <r>    2.9671   -0.0000 </r>
       <r>    4.1561    0.0000 </r>
       <r>    4.2847    0.0000 </r>
       <r>    7.2337    0.0000 </r>
       <r>    7.3374    0.0000 </r>
       <r>    8.0621    0.0000 </r>
       <r>    8.6082    0.0000 </r>
      </set>
      <set comment="kpoint 25">
       <r>  -35.1020    1.0000 </r>
       <r>  -35.1016    1.0000 </r>
       <r>  -34.9224    1.0000 </r>
       <r>  -34.9220    1.0000 </r>
       <r>  -34.9148    1.0000 </r>
       <r>  -34.9142    1.0000 </r>
       <r>  -12.2828    1.0000 </r>
       <r>  -12.2344    1.0000 </r>
       <r>  -11.9955    1.0000 </r>
       <r>  -11.9422    1.0000 </r>
       <r>   -5.2310    1.0000 </r>
       <r>   -5.1592    1.0000 </r>
       <r>   -4.6499    1.0000 </r>
       <r>   -4.5997    1.0000 </r>
       <r>   -3.8643    1.0000 </r>
       <r>   -3.6435    1.0000 </r>
       <r>   -3.2903    1.0000 </r>
       <r>   -3.1554    1.0000 </r>
       <r>   -2.2240    1.0000 </r>
       <r>   -2.1701    1.0000 </r>
       <r>   -1.7460    1.0000 </r>
       <r>   -1.4763    1.0000 </r>
       <r>   -0.6741    1.0000 </r>
       <r>   -0.6311    1.0000 </r>
       <r>    2.0043   -0.0000 </r>
       <r>    2.2167   -0.0000 </r>
       <r>    2.5008   -0.0000 </r>
       <r>    2.5532   -0.0000 </r>
       <r>    3.1249    0.0000 </r>
       <r>    3.2824    0.0000 </r>
       <r>    4.2120    0.0000 </r>
       <r>    4.4030    0.0000 </r>
       <r>    6.9791    0.0000 </r>
       <r>    7.5327    0.0000 </r>
       <r>    8.0503    0.0000 </r>
       <r>    8.5265    0.0000 </r>
      </set>
      <set comment="kpoint 26">
       <r>  -35.1302    1.0000 </r>
       <r>  -35.1297    1.0000 </r>
       <r>  -34.9297    1.0000 </r>
       <r>  -34.9292    1.0000 </r>
       <r>  -34.9152    1.0000 </r>
       <r>  -34.9148    1.0000 </r>
       <r>  -12.0540    1.0000 </r>
       <r>  -12.0077    1.0000 </r>
       <r>  -11.8986    1.0000 </r>
       <r>  -11.8515    1.0000 </r>
       <r>   -5.3644    1.0000 </r>
       <r>   -5.2999    1.0000 </r>
       <r>   -4.9582    1.0000 </r>
       <r>   -4.9082    1.0000 </r>
       <r>   -3.9986    1.0000 </r>
       <r>   -3.7932    1.0000 </r>
       <r>   -3.2036    1.0000 </r>
       <r>   -3.1012    1.0000 </r>
       <r>   -2.2375    1.0000 </r>
       <r>   -2.1545    1.0000 </r>
       <r>   -2.0040    1.0000 </r>
       <r>   -1.7169    1.0000 </r>
       <r>   -0.4530    1.0000 </r>
       <r>   -0.3826    1.0000 </r>
       <r>    2.0535   -0.0000 </r>
       <r>    2.1129   -0.0000 </r>
       <r>    2.7448   -0.0000 </r>
       <r>    2.8734   -0.0000 </r>
       <r>    3.3895    0.0000 </r>
       <r>    3.5064    0.0000 </r>
       <r>    4.1371    0.0000 </r>
       <r>    4.4025    0.0000 </r>
       <r>    6.2386    0.0000 </r>
       <r>    6.9624    0.0000 </r>
       <r>    8.6838    0.0000 </r>
       <r>    8.8466    0.0000 </r>
      </set>
      <set comment="kpoint 27">
       <r>  -35.1302    1.0000 </r>
       <r>  -35.1297    1.0000 </r>
       <r>  -34.9297    1.0000 </r>
       <r>  -34.9293    1.0000 </r>
       <r>  -34.9152    1.0000 </r>
       <r>  -34.9148    1.0000 </r>
       <r>  -12.0540    1.0000 </r>
       <r>  -12.0077    1.0000 </r>
       <r>  -11.8986    1.0000 </r>
       <r>  -11.8515    1.0000 </r>
       <r>   -5.3644    1.0000 </r>
       <r>   -5.2999    1.0000 </r>
       <r>   -4.9582    1.0000 </r>
       <r>   -4.9082    1.0000 </r>
       <r>   -3.9986    1.0000 </r>
       <r>   -3.7932    1.0000 </r>
       <r>   -3.2036    1.0000 </r>
       <r>   -3.1012    1.0000 </r>
       <r>   -2.2375    1.0000 </r>
       <r>   -2.1545    1.0000 </r>
       <r>   -2.0040    1.0000 </r>
       <r>   -1.7169    1.0000 </r>
       <r>   -0.4530    1.0000 </r>
       <r>   -0.3826    1.0000 </r>
       <r>    2.0535   -0.0000 </r>
       <r>    2.1129   -0.0000 </r>
       <r>    2.7448   -0.0000 </r>
       <r>    2.8734   -0.0000 </r>
       <r>    3.3896    0.0000 </r>
       <r>    3.5064    0.0000 </r>
       <r>    4.1371    0.0000 </r>
       <r>    4.4025    0.0000 </r>
       <r>    6.2386    0.0000 </r>
       <r>    6.9624    0.0000 </r>
       <r>    8.7164    0.0000 </r>
       <r>    8.9835    0.0000 </r>
      </set>
      <set comment="kpoint 28">
       <r>  -35.1021    1.0000 </r>
       <r>  -35.1015    1.0000 </r>
       <r>  -34.9225    1.0000 </r>
       <r>  -34.9220    1.0000 </r>
       <r>  -34.9147    1.0000 </r>
       <r>  -34.9143    1.0000 </r>
       <r>  -12.2828    1.0000 </r>
       <r>  -12.2344    1.0000 </r>
       <r>  -11.9955    1.0000 </r>
       <r>  -11.9422    1.0000 </r>
       <r>   -5.2310    1.0000 </r>
       <r>   -5.1592    1.0000 </r>
       <r>   -4.6500    1.0000 </r>
       <r>   -4.5997    1.0000 </r>
       <r>   -3.8643    1.0000 </r>
       <r>   -3.6434    1.0000 </r>
       <r>   -3.2903    1.0000 </r>
       <r>   -3.1554    1.0000 </r>
       <r>   -2.2240    1.0000 </r>
       <r>   -2.1701    1.0000 </r>
       <r>   -1.7460    1.0000 </r>
       <r>   -1.4763    1.0000 </r>
       <r>   -0.6741    1.0000 </r>
       <r>   -0.6310    1.0000 </r>
       <r>    2.0043   -0.0000 </r>
       <r>    2.2167   -0.0000 </r>
       <r>    2.5008   -0.0000 </r>
       <r>    2.5532   -0.0000 </r>
       <r>    3.1249    0.0000 </r>
       <r>    3.2824    0.0000 </r>
       <r>    4.2120    0.0000 </r>
       <r>    4.4030    0.0000 </r>
       <r>    6.9790    0.0000 </r>
       <r>    7.5330    0.0000 </r>
       <r>    8.0452    0.0000 </r>
       <r>    8.4977    0.0000 </r>
      </set>
      <set comment="kpoint 29">
       <r>  -35.0515    1.0000 </r>
       <r>  -35.0509    1.0000 </r>
       <r>  -34.9350    1.0000 </r>
       <r>  -34.9346    1.0000 </r>
       <r>  -34.8887    1.0000 </r>
       <r>  -34.8884    1.0000 </r>
       <r>  -12.6553    1.0000 </r>
       <r>  -12.6036    1.0000 </r>
       <r>  -12.1523    1.0000 </r>
       <r>  -12.0898    1.0000 </r>
       <r>   -5.0295    1.0000 </r>
       <r>   -4.9232    1.0000 </r>
       <r>   -4.1067    1.0000 </r>
       <r>   -4.0471    1.0000 </r>
       <r>   -3.8315    1.0000 </r>
       <r>   -3.6296    1.0000 </r>
       <r>   -3.3190    1.0000 </r>
       <r>   -3.1585    1.0000 </r>
       <r>   -2.0803    1.0000 </r>
       <r>   -2.0567    1.0000 </r>
       <r>   -1.4070    1.0000 </r>
       <r>   -1.1443    1.0000 </r>
       <r>   -0.8452    1.0000 </r>
       <r>   -0.8043    1.0000 </r>
       <r>    1.7793   -0.0000 </r>
       <r>    2.0431   -0.0000 </r>
       <r>    2.3802   -0.0000 </r>
       <r>    2.4481   -0.0000 </r>
       <r>    2.7707   -0.0000 </r>
       <r>    2.9671   -0.0000 </r>
       <r>    4.1561    0.0000 </r>
       <r>    4.2847    0.0000 </r>
       <r>    7.2338    0.0000 </r>
       <r>    7.3372    0.0000 </r>
       <r>    8.0618    0.0000 </r>
       <r>    8.5531    0.0000 </r>
      </set>
      <set comment="kpoint 30">
       <r>  -34.9887    1.0000 </r>
       <r>  -34.9881    1.0000 </r>
       <r>  -34.9502    1.0000 </r>
       <r>  -34.9497    1.0000 </r>
       <r>  -34.8584    1.0000 </r>
       <r>  -34.8581    1.0000 </r>
       <r>  -13.0604    1.0000 </r>
       <r>  -13.0062    1.0000 </r>
       <r>  -12.3234    1.0000 </r>
       <r>  -12.2510    1.0000 </r>
       <r>   -4.9561    1.0000 </r>
       <r>   -4.7548    1.0000 </r>
       <r>   -3.8308    1.0000 </r>
       <r>   -3.7213    1.0000 </r>
       <r>   -3.5271    1.0000 </r>
       <r>   -3.4000    1.0000 </r>
       <r>   -3.1051    1.0000 </r>
       <r>   -2.9906    1.0000 </r>
       <r>   -1.9496    1.0000 </r>
       <r>   -1.9393    1.0000 </r>
       <r>   -1.1870    1.0000 </r>
       <r>   -0.9147    1.0000 </r>
       <r>   -0.7914    1.0000 </r>
       <r>   -0.6988    1.0000 </r>
       <r>    1.7470   -0.0000 </r>
       <r>    1.9906   -0.0000 </r>
       <r>    2.3108   -0.0000 </r>
       <r>    2.4079   -0.0000 </r>
       <r>    2.5061   -0.0000 </r>
       <r>    2.7135   -0.0000 </r>
       <r>    3.9101    0.0000 </r>
       <r>    3.9928    0.0000 </r>
       <r>    6.5866    0.0000 </r>
       <r>    6.7084    0.0000 </r>
       <r>    8.3124    0.0000 </r>
       <r>    8.6128    0.0000 </r>
      </set>
      <set comment="kpoint 31">
       <r>  -34.9644    1.0000 </r>
       <r>  -34.9640    1.0000 </r>
       <r>  -34.9266    1.0000 </r>
       <r>  -34.9260    1.0000 </r>
       <r>  -34.8320    1.0000 </r>
       <r>  -34.8318    1.0000 </r>
       <r>  -13.4085    1.0000 </r>
       <r>  -13.3529    1.0000 </r>
       <r>  -12.4706    1.0000 </r>
       <r>  -12.3897    1.0000 </r>
       <r>   -5.1307    1.0000 </r>
       <r>   -4.8586    1.0000 </r>
       <r>   -3.5736    1.0000 </r>
       <r>   -3.5393    1.0000 </r>
       <r>   -3.2356    1.0000 </r>
       <r>   -3.0056    1.0000 </r>
       <r>   -2.4727    1.0000 </r>
       <r>   -2.4391    1.0000 </r>
       <r>   -2.0782    1.0000 </r>
       <r>   -2.0731    1.0000 </r>
       <r>   -1.1996    1.0000 </r>
       <r>   -0.8817    1.0000 </r>
       <r>   -0.5546    1.0000 </r>
       <r>   -0.3906    1.0000 </r>
       <r>    1.9435   -0.0000 </r>
       <r>    2.1857   -0.0000 </r>
       <r>    2.3828   -0.0000 </r>
       <r>    2.4305   -0.0000 </r>
       <r>    2.4534   -0.0000 </r>
       <r>    2.6330   -0.0000 </r>
       <r>    3.5229    0.0000 </r>
       <r>    3.5648    0.0000 </r>
       <r>    6.0678    0.0000 </r>
       <r>    6.1999    0.0000 </r>
       <r>    7.7815    0.0000 </r>
       <r>    8.2388    0.0000 </r>
      </set>
      <set comment="kpoint 32">
       <r>  -34.9745    1.0000 </r>
       <r>  -34.9741    1.0000 </r>
       <r>  -34.8785    1.0000 </r>
       <r>  -34.8780    1.0000 </r>
       <r>  -34.8169    1.0000 </r>
       <r>  -34.8166    1.0000 </r>
       <r>  -13.6399    1.0000 </r>
       <r>  -13.5837    1.0000 </r>
       <r>  -12.5682    1.0000 </r>
       <r>  -12.4816    1.0000 </r>
       <r>   -5.3312    1.0000 </r>
       <r>   -5.0420    1.0000 </r>
       <r>   -3.2629    1.0000 </r>
       <r>   -3.2473    1.0000 </r>
       <r>   -2.9644    1.0000 </r>
       <r>   -2.6859    1.0000 </r>
       <r>   -2.2745    1.0000 </r>
       <r>   -2.2705    1.0000 </r>
       <r>   -2.0011    1.0000 </r>
       <r>   -1.9949    1.0000 </r>
       <r>   -1.2832    1.0000 </r>
       <r>   -0.9349    1.0000 </r>
       <r>   -0.3776    1.0000 </r>
       <r>   -0.1274    1.0000 </r>
       <r>    2.1711   -0.0000 </r>
       <r>    2.3605   -0.0000 </r>
       <r>    2.4908   -0.0000 </r>
       <r>    2.5522   -0.0000 </r>
       <r>    2.5787   -0.0000 </r>
       <r>    2.6238   -0.0000 </r>
       <r>    3.1913    0.0000 </r>
       <r>    3.2127    0.0000 </r>
       <r>    5.7434    0.0000 </r>
       <r>    5.8765    0.0000 </r>
       <r>    7.4001    0.0000 </r>
       <r>    7.8307    0.0000 </r>
      </set>
      <set comment="kpoint 33">
       <r>  -34.9782    1.0000 </r>
       <r>  -34.9777    1.0000 </r>
       <r>  -34.8589    1.0000 </r>
       <r>  -34.8585    1.0000 </r>
       <r>  -34.8136    1.0000 </r>
       <r>  -34.8132    1.0000 </r>
       <r>  -13.7207    1.0000 </r>
       <r>  -13.6643    1.0000 </r>
       <r>  -12.6022    1.0000 </r>
       <r>  -12.5136    1.0000 </r>
       <r>   -5.4096    1.0000 </r>
       <r>   -5.1171    1.0000 </r>
       <r>   -3.1252    1.0000 </r>
       <r>   -3.1132    1.0000 </r>
       <r>   -2.8042    1.0000 </r>
       <r>   -2.4828    1.0000 </r>
       <r>   -2.3622    1.0000 </r>
       <r>   -2.3577    1.0000 </r>
       <r>   -1.9816    1.0000 </r>
       <r>   -1.9702    1.0000 </r>
       <r>   -1.2080    1.0000 </r>
       <r>   -0.8839    1.0000 </r>
       <r>   -0.3214    1.0000 </r>
       <r>   -0.0301    1.0001 </r>
       <r>    2.2911   -0.0000 </r>
       <r>    2.4205   -0.0000 </r>
       <r>    2.4552   -0.0000 </r>
       <r>    2.5480   -0.0000 </r>
       <r>    2.6098   -0.0000 </r>
       <r>    2.6465   -0.0000 </r>
       <r>    3.1162    0.0000 </r>
       <r>    3.1512    0.0000 </r>
       <r>    5.6323    0.0000 </r>
       <r>    5.7681    0.0000 </r>
       <r>    7.2468    0.0000 </r>
       <r>    7.5986    0.0000 </r>
      </set>
      <set comment="kpoint 34">
       <r>  -34.9602    1.0000 </r>
       <r>  -34.9597    1.0000 </r>
       <r>  -34.9581    1.0000 </r>
       <r>  -34.9579    1.0000 </r>
       <r>  -34.8359    1.0000 </r>
       <r>  -34.8353    1.0000 </r>
       <r>  -13.2646    1.0000 </r>
       <r>  -13.2104    1.0000 </r>
       <r>  -12.4103    1.0000 </r>
       <r>  -12.3344    1.0000 </r>
       <r>   -5.0667    1.0000 </r>
       <r>   -4.8261    1.0000 </r>
       <r>   -3.7332    1.0000 </r>
       <r>   -3.6717    1.0000 </r>
       <r>   -3.4920    1.0000 </r>
       <r>   -3.3056    1.0000 </r>
       <r>   -2.3968    1.0000 </r>
       <r>   -2.3893    1.0000 </r>
       <r>   -1.9065    1.0000 </r>
[...]
       <r>    -2.2193     1.6484    18.4175 </r>
       <r>    -2.0574     3.0340    18.9088 </r>
       <r>    -1.8954     4.1498    19.5809 </r>
       <r>    -1.7335     2.6114    20.0038 </r>
       <r>    -1.5715     3.2957    20.5375 </r>
       <r>    -1.4096     3.2534    21.0644 </r>
       <r>    -1.2476     1.7755    21.3520 </r>
       <r>    -1.0857     2.1861    21.7060 </r>
       <r>    -0.9237     1.5471    21.9566 </r>
       <r>    -0.7617     3.7516    22.5641 </r>
       <r>    -0.5998     2.9303    23.0387 </r>
       <r>    -0.4378     2.0971    23.3783 </r>
       <r>    -0.2759     2.2003    23.7346 </r>
       <r>    -0.1139     0.9761    23.8927 </r>
       <r>     0.0480     0.3992    23.9574 </r>
       <r>     0.2100     0.2213    23.9932 </r>
       <r>     0.3719     0.0438    24.0003 </r>
       <r>     0.5339    -0.0019    24.0000 </r>
       <r>     0.6958    -0.0000    24.0000 </r>
       <r>     0.8578    -0.0000    24.0000 </r>
       <r>     1.0197    -0.0000    24.0000 </r>
       <r>     1.1817    -0.0000    24.0000 </r>
       <r>     1.3436    -0.0000    24.0000 </r>
       <r>     1.5056    -0.0072    23.9988 </r>
       <r>     1.6675     0.1375    24.0211 </r>
       <r>     1.8295     1.2216    24.2189 </r>
       <r>     1.9914     2.5720    24.6355 </r>
       <r>     2.1534     5.1918    25.4763 </r>
       <r>     2.3153     3.7251    26.0796 </r>
       <r>     2.4773     4.7919    26.8556 </r>
       <r>     2.6392     4.9644    27.6596 </r>
       <r>     2.8012     3.4851    28.2240 </r>
       <r>     2.9631     2.9038    28.6943 </r>
       <r>     3.1251     2.6270    29.1197 </r>
       <r>     3.2870     2.5361    29.5304 </r>
       <r>     3.4490     1.6531    29.7982 </r>
       <r>     3.6109     2.1777    30.1508 </r>
       <r>     3.7729     0.9280    30.3011 </r>
       <r>     3.9348     1.8579    30.6020 </r>
       <r>     4.0968     2.1218    30.9456 </r>
       <r>     4.2587     3.0215    31.4350 </r>
       <r>     4.4207     1.5254    31.6820 </r>
       <r>     4.5826     1.0387    31.8502 </r>
       <r>     4.7446     0.7667    31.9744 </r>
       <r>     4.9065     0.1663    32.0013 </r>
       <r>     5.0685    -0.0086    31.9999 </r>
       <r>     5.2304     0.0069    32.0010 </r>
       <r>     5.3924     0.1605    32.0270 </r>
       <r>     5.5543     0.2875    32.0736 </r>
       <r>     5.7163     0.3600    32.1319 </r>
       <r>     5.8782     0.4992    32.2127 </r>
       <r>     6.0402     0.4908    32.2922 </r>
       <r>     6.2021     0.7439    32.4127 </r>
       <r>     6.3641     0.8171    32.5450 </r>
       <r>     6.5260     1.0374    32.7130 </r>
       <r>     6.6880     0.9915    32.8736 </r>
       <r>     6.8499     1.4955    33.1158 </r>
       <r>     7.0119     1.8110    33.4091 </r>
       <r>     7.1738     0.7905    33.5371 </r>
       <r>     7.3358     1.6919    33.8111 </r>
       <r>     7.4977     1.8218    34.1062 </r>
       <r>     7.6597     1.0424    34.2750 </r>
       <r>     7.8216     0.9311    34.4258 </r>
       <r>     7.9836     1.2051    34.6210 </r>
       <r>     8.1455     2.5054    35.0267 </r>
       <r>     8.3075     2.0704    35.3620 </r>
       <r>     8.4694     1.1093    35.5417 </r>
       <r>     8.6314     1.3490    35.7601 </r>
       <r>     8.7933     1.1696    35.9496 </r>
       <r>     8.9553     0.2680    35.9930 </r>
       <r>     9.1172     0.0460    36.0004 </r>
       <r>     9.2792    -0.0026    36.0000 </r>
       <r>     9.4411    -0.0000    36.0000 </r>
       <r>     9.6031    -0.0000    36.0000 </r>
       <r>     9.7650     0.0000    36.0000 </r>
       <r>     9.9270     0.0000    36.0000 </r>
       <r>    10.0889     0.0000    36.0000 </r>
       <r>    10.2509     0.0000    36.0000 </r>
       <r>    10.4128     0.0000    36.0000 </r>
       <r>    10.5748     0.0000    36.0000 </r>
       <r>    10.7367     0.0000    36.0000 </r>
       <r>    10.8987     0.0000    36.0000 </r>
       <r>    11.0606     0.0000    36.0000 </r>
       <r>    11.2226     0.0000    36.0000 </r>
      </set>
      <set comment="spin 2">
       <r>   -37.3625     0.0000     0.0000 </r>
       <r>   -37.2005     0.0000     0.0000 </r>
       <r>   -37.0386     0.0000     0.0000 </r>
       <r>   -36.8766     0.0000     0.0000 </r>
       <r>   -36.7147     0.0000     0.0000 </r>
       <r>   -36.5527     0.0000     0.0000 </r>
       <r>   -36.3908     0.0000     0.0000 </r>
       <r>   -36.2288     0.0000     0.0000 </r>
       <r>   -36.0669    -0.0000    -0.0000 </r>
       <r>   -35.9049    -0.0000    -0.0000 </r>
       <r>   -35.7430    -0.0000    -0.0000 </r>
       <r>   -35.5810    -0.0000    -0.0000 </r>
       <r>   -35.4191    -0.0009    -0.0002 </r>
       <r>   -35.2571    -0.1947    -0.0317 </r>
       <r>   -35.0952     4.3239     0.6686 </r>
       <r>   -34.9332    15.6105     3.1967 </r>
       <r>   -34.7713    17.3750     6.0106 </r>
       <r>   -34.6093    -0.0414     6.0039 </r>
       <r>   -34.4474    -0.0239     6.0000 </r>
       <r>   -34.2854    -0.0000     6.0000 </r>
       <r>   -34.1235    -0.0000     6.0000 </r>
       <r>   -33.9615     0.0000     6.0000 </r>
       <r>   -33.7996     0.0000     6.0000 </r>
       <r>   -33.6376     0.0000     6.0000 </r>
       <r>   -33.4757     0.0000     6.0000 </r>
       <r>   -33.3137     0.0000     6.0000 </r>
       <r>   -33.1518     0.0000     6.0000 </r>
       <r>   -32.9898     0.0000     6.0000 </r>
       <r>   -32.8279     0.0000     6.0000 </r>
       <r>   -32.6659     0.0000     6.0000 </r>
       <r>   -32.5040     0.0000     6.0000 </r>
       <r>   -32.3420     0.0000     6.0000 </r>
       <r>   -32.1801     0.0000     6.0000 </r>
       <r>   -32.0181     0.0000     6.0000 </r>
       <r>   -31.8562     0.0000     6.0000 </r>
       <r>   -31.6942     0.0000     6.0000 </r>
       <r>   -31.5323     0.0000     6.0000 </r>
       <r>   -31.3703     0.0000     6.0000 </r>
       <r>   -31.2084     0.0000     6.0000 </r>
       <r>   -31.0464     0.0000     6.0000 </r>
       <r>   -30.8845     0.0000     6.0000 </r>
       <r>   -30.7225     0.0000     6.0000 </r>
       <r>   -30.5606     0.0000     6.0000 </r>
       <r>   -30.3986     0.0000     6.0000 </r>
       <r>   -30.2367     0.0000     6.0000 </r>
       <r>   -30.0747     0.0000     6.0000 </r>
       <r>   -29.9128     0.0000     6.0000 </r>
       <r>   -29.7508     0.0000     6.0000 </r>
       <r>   -29.5889     0.0000     6.0000 </r>
       <r>   -29.4269     0.0000     6.0000 </r>
       <r>   -29.2650     0.0000     6.0000 </r>
       <r>   -29.1030     0.0000     6.0000 </r>
       <r>   -28.9411     0.0000     6.0000 </r>
       <r>   -28.7791     0.0000     6.0000 </r>
       <r>   -28.6172     0.0000     6.0000 </r>
       <r>   -28.4552     0.0000     6.0000 </r>
       <r>   -28.2933     0.0000     6.0000 </r>
       <r>   -28.1313     0.0000     6.0000 </r>
       <r>   -27.9694     0.0000     6.0000 </r>
       <r>   -27.8074     0.0000     6.0000 </r>
       <r>   -27.6455     0.0000     6.0000 </r>
       <r>   -27.4835     0.0000     6.0000 </r>
       <r>   -27.3216     0.0000     6.0000 </r>
       <r>   -27.1596     0.0000     6.0000 </r>
       <r>   -26.9977     0.0000     6.0000 </r>
       <r>   -26.8357     0.0000     6.0000 </r>
       <r>   -26.6738     0.0000     6.0000 </r>
       <r>   -26.5118     0.0000     6.0000 </r>
       <r>   -26.3499     0.0000     6.0000 </r>
       <r>   -26.1879     0.0000     6.0000 </r>
       <r>   -26.0260     0.0000     6.0000 </r>
       <r>   -25.8640     0.0000     6.0000 </r>
       <r>   -25.7021     0.0000     6.0000 </r>
       <r>   -25.5401     0.0000     6.0000 </r>
       <r>   -25.3782     0.0000     6.0000 </r>
       <r>   -25.2162     0.0000     6.0000 </r>
       <r>   -25.0543     0.0000     6.0000 </r>
       <r>   -24.8923     0.0000     6.0000 </r>
       <r>   -24.7304     0.0000     6.0000 </r>
       <r>   -24.5684     0.0000     6.0000 </r>
       <r>   -24.4065     0.0000     6.0000 </r>
       <r>   -24.2445     0.0000     6.0000 </r>
       <r>   -24.0826     0.0000     6.0000 </r>
       <r>   -23.9206     0.0000     6.0000 </r>
       <r>   -23.7587     0.0000     6.0000 </r>
       <r>   -23.5967     0.0000     6.0000 </r>
       <r>   -23.4348     0.0000     6.0000 </r>
       <r>   -23.2728     0.0000     6.0000 </r>
       <r>   -23.1109     0.0000     6.0000 </r>
       <r>   -22.9489     0.0000     6.0000 </r>
       <r>   -22.7870     0.0000     6.0000 </r>
       <r>   -22.6250     0.0000     6.0000 </r>
       <r>   -22.4631     0.0000     6.0000 </r>
       <r>   -22.3011     0.0000     6.0000 </r>
       <r>   -22.1392     0.0000     6.0000 </r>
       <r>   -21.9772     0.0000     6.0000 </r>
       <r>   -21.8153     0.0000     6.0000 </r>
       <r>   -21.6533     0.0000     6.0000 </r>
       <r>   -21.4914     0.0000     6.0000 </r>
       <r>   -21.3294     0.0000     6.0000 </r>
       <r>   -21.1675     0.0000     6.0000 </r>
       <r>   -21.0055     0.0000     6.0000 </r>
       <r>   -20.8436     0.0000     6.0000 </r>
       <r>   -20.6816     0.0000     6.0000 </r>
       <r>   -20.5197     0.0000     6.0000 </r>
       <r>   -20.3577     0.0000     6.0000 </r>
       <r>   -20.1958     0.0000     6.0000 </r>
       <r>   -20.0338     0.0000     6.0000 </r>
       <r>   -19.8719     0.0000     6.0000 </r>
       <r>   -19.7099     0.0000     6.0000 </r>
       <r>   -19.5480     0.0000     6.0000 </r>
       <r>   -19.3860     0.0000     6.0000 </r>
       <r>   -19.2241     0.0000     6.0000 </r>
       <r>   -19.0621     0.0000     6.0000 </r>
       <r>   -18.9002     0.0000     6.0000 </r>
       <r>   -18.7382     0.0000     6.0000 </r>
       <r>   -18.5763     0.0000     6.0000 </r>
       <r>   -18.4143     0.0000     6.0000 </r>
       <r>   -18.2524     0.0000     6.0000 </r>
       <r>   -18.0904     0.0000     6.0000 </r>
       <r>   -17.9285     0.0000     6.0000 </r>
       <r>   -17.7665     0.0000     6.0000 </r>
       <r>   -17.6046     0.0000     6.0000 </r>
       <r>   -17.4426     0.0000     6.0000 </r>
       <r>   -17.2807     0.0000     6.0000 </r>
       <r>   -17.1187     0.0000     6.0000 </r>
       <r>   -16.9568     0.0000     6.0000 </r>
       <r>   -16.7948     0.0000     6.0000 </r>
       <r>   -16.6329     0.0000     6.0000 </r>
       <r>   -16.4709     0.0000     6.0000 </r>
       <r>   -16.3090     0.0000     6.0000 </r>
       <r>   -16.1470     0.0000     6.0000 </r>
       <r>   -15.9851     0.0000     6.0000 </r>
       <r>   -15.8231     0.0000     6.0000 </r>
       <r>   -15.6612     0.0000     6.0000 </r>
       <r>   -15.4992     0.0000     6.0000 </r>
       <r>   -15.3373     0.0000     6.0000 </r>
       <r>   -15.1753     0.0000     6.0000 </r>
       <r>   -15.0134     0.0000     6.0000 </r>
       <r>   -14.8514    -0.0000     6.0000 </r>
       <r>   -14.6895    -0.0000     6.0000 </r>
       <r>   -14.5275    -0.0000     6.0000 </r>
       <r>   -14.3656    -0.0000     6.0000 </r>
       <r>   -14.2036    -0.0001     6.0000 </r>
       <r>   -14.0417    -0.0062     5.9990 </r>
       <r>   -13.8797     0.2225     6.0350 </r>
       <r>   -13.7178     0.4429     6.1067 </r>
       <r>   -13.5558     0.6649     6.2144 </r>
       <r>   -13.3939     0.4103     6.2809 </r>
       <r>   -13.2319     0.7855     6.4081 </r>
       <r>   -13.0700     0.2987     6.4564 </r>
       <r>   -12.9080     1.1199     6.6378 </r>
       <r>   -12.7461     0.4300     6.7074 </r>
       <r>   -12.5841     1.5798     6.9633 </r>
       <r>   -12.4222     2.3021     7.3361 </r>
       <r>   -12.2602     2.6900     7.7717 </r>
       <r>   -12.0983     3.9025     8.4038 </r>
       <r>   -11.9363     5.4598     9.2880 </r>
       <r>   -11.7744     4.1493     9.9600 </r>
       <r>   -11.6124     0.2637    10.0027 </r>
       <r>   -11.4505    -0.0165    10.0000 </r>
       <r>   -11.2885    -0.0000    10.0000 </r>
       <r>   -11.1266    -0.0000    10.0000 </r>
       <r>   -10.9646     0.0000    10.0000 </r>
       <r>   -10.8027     0.0000    10.0000 </r>
       <r>   -10.6407     0.0000    10.0000 </r>
       <r>   -10.4788     0.0000    10.0000 </r>
       <r>   -10.3168     0.0000    10.0000 </r>
       <r>   -10.1549     0.0000    10.0000 </r>
       <r>    -9.9929     0.0000    10.0000 </r>
       <r>    -9.8310     0.0000    10.0000 </r>
       <r>    -9.6690     0.0000    10.0000 </r>
       <r>    -9.5071     0.0000    10.0000 </r>
       <r>    -9.3451     0.0000    10.0000 </r>
       <r>    -9.1832     0.0000    10.0000 </r>
       <r>    -9.0212     0.0000    10.0000 </r>
       <r>    -8.8593     0.0000    10.0000 </r>
       <r>    -8.6973     0.0000    10.0000 </r>
       <r>    -8.5354     0.0000    10.0000 </r>
       <r>    -8.3734     0.0000    10.0000 </r>
       <r>    -8.2115     0.0000    10.0000 </r>
       <r>    -8.0495     0.0000    10.0000 </r>
       <r>    -7.8876     0.0000    10.0000 </r>
       <r>    -7.7256     0.0000    10.0000 </r>
       <r>    -7.5637     0.0000    10.0000 </r>
       <r>    -7.4017     0.0000    10.0000 </r>
       <r>    -7.2398     0.0000    10.0000 </r>
       <r>    -7.0778     0.0000    10.0000 </r>
       <r>    -6.9159     0.0000    10.0000 </r>
       <r>    -6.7539     0.0000    10.0000 </r>
       <r>    -6.5920    -0.0000    10.0000 </r>
       <r>    -6.4300    -0.0000    10.0000 </r>
       <r>    -6.2681    -0.0000    10.0000 </r>
       <r>    -6.1061    -0.0000    10.0000 </r>
       <r>    -5.9442    -0.0001    10.0000 </r>
       <r>    -5.7822    -0.0210     9.9966 </r>
       <r>    -5.6203     0.5358    10.0833 </r>
       <r>    -5.4583     1.2501    10.2858 </r>
       <r>    -5.2964     2.0855    10.6235 </r>
       <r>    -5.1344     2.8028    11.0774 </r>
       <r>    -4.9725     4.6866    11.8364 </r>
       <r>    -4.8105     2.9128    12.3082 </r>
       <r>    -4.6486     2.2634    12.6747 </r>
       <r>    -4.4866     1.6950    12.9492 </r>
       <r>    -4.3247     0.3768    13.0103 </r>
       <r>    -4.1627     0.7210    13.1270 </r>
       <r>    -4.0008     1.8621    13.4286 </r>
       <r>    -3.8388     3.6740    14.0236 </r>
       <r>    -3.6769     4.7286    14.7894 </r>
       <r>    -3.5149     3.0381    15.2814 </r>
       <r>    -3.3530     1.1238    15.4634 </r>
       <r>    -3.1910     3.1674    15.9764 </r>
       <r>    -3.0291     5.4734    16.8628 </r>
       <r>    -2.8671     3.2093    17.3825 </r>
       <r>    -2.7052     1.8640    17.6844 </r>
       <r>    -2.5432     0.9042    17.8309 </r>
       <r>    -2.3813     1.9738    18.1505 </r>
       <r>    -2.2193     1.6484    18.4175 </r>
       <r>    -2.0574     3.0341    18.9088 </r>
       <r>    -1.8954     4.1498    19.5809 </r>
       <r>    -1.7335     2.6116    20.0038 </r>
       <r>    -1.5715     3.2954    20.5375 </r>
       <r>    -1.4096     3.2536    21.0645 </r>
       <r>    -1.2476     1.7753    21.3520 </r>
       <r>    -1.0857     2.1863    21.7060 </r>
       <r>    -0.9237     1.5472    21.9566 </r>
       <r>    -0.7617     3.7513    22.5641 </r>
       <r>    -0.5998     2.9303    23.0387 </r>
       <r>    -0.4378     2.0970    23.3783 </r>
       <r>    -0.2759     2.2004    23.7347 </r>
       <r>    -0.1139     0.9760    23.8927 </r>
       <r>     0.0480     0.3993    23.9574 </r>
       <r>     0.2100     0.2213    23.9932 </r>
       <r>     0.3719     0.0438    24.0003 </r>
       <r>     0.5339    -0.0019    24.0000 </r>
       <r>     0.6958    -0.0000    24.0000 </r>
       <r>     0.8578    -0.0000    24.0000 </r>
       <r>     1.0197    -0.0000    24.0000 </r>
       <r>     1.1817    -0.0000    24.0000 </r>
       <r>     1.3436    -0.0000    24.0000 </r>
       <r>     1.5056    -0.0072    23.9988 </r>
       <r>     1.6675     0.1375    24.0211 </r>
       <r>     1.8295     1.2215    24.2189 </r>
       <r>     1.9914     2.5719    24.6355 </r>
       <r>     2.1534     5.1917    25.4762 </r>
       <r>     2.3153     3.7252    26.0795 </r>
       <r>     2.4773     4.7920    26.8556 </r>
       <r>     2.6392     4.9642    27.6595 </r>
       <r>     2.8012     3.4852    28.2240 </r>
       <r>     2.9631     2.9039    28.6943 </r>
       <r>     3.1251     2.6270    29.1197 </r>
       <r>     3.2870     2.5362    29.5304 </r>
       <r>     3.4490     1.6531    29.7981 </r>
       <r>     3.6109     2.1776    30.1508 </r>
       <r>     3.7729     0.9281    30.3011 </r>
       <r>     3.9348     1.8577    30.6020 </r>
       <r>     4.0968     2.1218    30.9456 </r>
       <r>     4.2587     3.0216    31.4350 </r>
       <r>     4.4207     1.5255    31.6820 </r>
       <r>     4.5826     1.0387    31.8502 </r>
       <r>     4.7446     0.7667    31.9744 </r>
       <r>     4.9065     0.1662    32.0013 </r>
       <r>     5.0685    -0.0084    32.0000 </r>
       <r>     5.2304     0.0035    32.0005 </r>
       <r>     5.3924     0.1449    32.0240 </r>
       <r>     5.5543     0.2959    32.0719 </r>
       <r>     5.7163     0.3496    32.1285 </r>
       <r>     5.8782     0.5123    32.2115 </r>
       <r>     6.0402     0.4663    32.2870 </r>
       <r>     6.2021     0.7520    32.4088 </r>
       <r>     6.3641     0.8215    32.5418 </r>
       <r>     6.5260     1.0396    32.7102 </r>
       <r>     6.6880     0.8890    32.8542 </r>
       <r>     6.8499     1.5881    33.1114 </r>
       <r>     7.0119     1.6096    33.3721 </r>
       <r>     7.1738     0.8713    33.5132 </r>
       <r>     7.3358     1.8375    33.8107 </r>
       <r>     7.4977     1.8209    34.1056 </r>
       <r>     7.6597     0.9845    34.2651 </r>
       <r>     7.8216     1.0620    34.4371 </r>
       <r>     7.9836     1.1666    34.6260 </r>
       <r>     8.1455     1.9983    34.9496 </r>
       <r>     8.3075     2.7527    35.3954 </r>
       <r>     8.4694     1.1859    35.5875 </r>
       <r>     8.6314     0.7862    35.7148 </r>
       <r>     8.7933     0.9155    35.8631 </r>
       <r>     8.9553     0.5028    35.9445 </r>
       <r>     9.1172     0.3577    36.0024 </r>
       <r>     9.2792    -0.0149    36.0000 </r>
       <r>     9.4411    -0.0001    36.0000 </r>
       <r>     9.6031    -0.0000    36.0000 </r>
       <r>     9.7650    -0.0000    36.0000 </r>
       <r>     9.9270     0.0000    36.0000 </r>
       <r>    10.0889     0.0000    36.0000 </r>
       <r>    10.2509     0.0000    36.0000 </r>
       <r>    10.4128     0.0000    36.0000 </r>
       <r>    10.5748     0.0000    36.0000 </r>
       <r>    10.7367     0.0000    36.0000 </r>
       <r>    10.8987     0.0000    36.0000 </r>
       <r>    11.0606     0.0000    36.0000 </r>
       <r>    11.2226     0.0000    36.0000 </r>
      </set>
     </set>
    </array>
   </total>
  </dos>
 </calculation>
 <structure name="finalpos" >
  <crystal>
   <varray name="basis" >
    <v>       3.19031700       0.00000000       0.00000000 </v>
    <v>      -1.59515800       2.76289700       0.00000000 </v>
    <v>       0.00000000       0.00000000      23.14049200 </v>
   </varray>
   <i name="volume">    203.97226633 </i>
   <varray name="rec_basis" >
    <v>       0.31344848       0.18096941       0.00000000 </v>
    <v>       0.00000000       0.36193894       0.00000000 </v>
    <v>       0.00000000       0.00000000       0.04321429 </v>
   </varray>
  </crystal>
  <varray name="positions" >
   <v>       0.66666700       0.33333300       0.06785900 </v>
   <v>       0.33333300       0.66666700       0.00000000 </v>
   <v>       0.33333300       0.66666700       0.13571500 </v>
   <v>       0.66666700       0.04761871       0.35482300 </v>
   <v>       0.33333300       0.38095271       0.28696500 </v>
   <v>       0.33333300       0.38095271       0.42267900 </v>
  </varray>
 </structure>
</modeling>
