   24   24    1    1
  0.4176334E+02  0.3540400E-09  0.1044544E-08  0.2750143E-08  0.5000000E-15
  1.000000000000000E-004
  CAR 
 unknown system                          
    108     54     68
 
  0.0000000E+00  0.0000000E+00  0.0000000E+00  0.9615385E-02
    1      -14.837233
    2      -13.720693
    3      -12.974297
    4      -12.805956
    5      -12.673724
    6      -12.535544
    7      -12.265169
    8      -11.620729
    9      -11.597317
   10      -11.165928
   11      -11.112418
   12      -10.445178
   13       -8.984954
   14       -8.209588
   15       -8.011031
   16       -7.075829
   17       -6.976562
   18       -6.914513
   19       -6.672691
   20       -6.386253
   21       -5.990432
   22       -5.254289
   23       -4.936204
   24       -4.778783
   25       -4.260284
   26       -3.952957
   27       -3.849539
   28       -3.821757
   29       -3.431594
   30       -3.291140
   31       -3.241482
   32       -3.014010
   33       -2.908326
   34       -2.632450
   35       -2.615260
   36       -2.582261
   37       -2.525080
   38       -2.231715
   39       -2.103319
   40       -2.036536
   41       -1.936542
   42       -1.901858
   43       -1.824374
   44       -1.801168
   45       -1.738193
   46       -1.609365
   47       -1.539945
   48       -1.404116
   49       -1.387785
   50       -1.225978
   51       -1.101851
   52       -0.716056
   53        0.417054
   54        0.563872
   55        0.660352
   56        0.871632
   57        1.030178
   58        1.146047
   59        1.354499
   60        1.545063
   61        1.645826
   62        1.804838
   63        1.947286
   64        1.993629
   65        2.210908
   66        2.249002
   67        2.327910
   68        2.508530
 
  0.7692308E-01 -0.1387779E-16  0.0000000E+00  0.1923077E-01
    1      -14.782526
    2      -13.659354
    3      -12.922122
    4      -12.751173
    5      -12.618414
    6      -12.477334
    7      -12.202874
    8      -11.572777
    9      -11.549845
   10      -11.117620
   11      -11.059408
   12      -10.416021
   13       -8.959548
   14       -8.247020
   15       -7.973860
   16       -7.068314
   17       -6.958563
   18       -6.878936
   19       -6.666983
   20       -6.402391
   21       -5.958792
   22       -5.276915
   23       -4.989872
   24       -4.872833
   25       -4.331219
   26       -4.197612
   27       -3.927060
   28       -3.835135
   29       -3.650713
   30       -3.474570
   31       -3.422563
   32       -3.317230
   33       -3.038105
   34       -2.936541
   35       -2.824214
   36       -2.653134
   37       -2.608507
   38       -2.377953
   39       -2.262711
   40       -2.208871
   41       -2.134349
   42       -2.094243
   43       -2.006284
   44       -1.910029
   45       -1.804914
   46       -1.702042
   47       -1.664695
   48       -1.484778
   49       -1.387936
   50       -1.231833
   51       -1.052761
   52       -0.750952
   53        0.406227
   54        0.458773
   55        0.746181
   56        0.976239
   57        1.344778
   58        1.449713
   59        1.594790
   60        1.808337
   61        1.966921
   62        2.059754
   63        2.108353
   64        2.225808
   65        2.261286
   66        2.431062
   67        2.504603
   68        2.594102
 
  0.1538462E+00 -0.2775558E-16  0.0000000E+00  0.1923077E-01
    1      -14.620733
    2      -13.476411
    3      -12.766303
    4      -12.588476
    5      -12.454442
    6      -12.306265
    7      -12.020277
    8      -11.435046
    9      -11.411483
   10      -10.979024
   11      -10.907215
   12      -10.336023
   13       -8.897588
   14       -8.344375
   15       -7.932209
   16       -7.104506
   17       -6.902145
   18       -6.814418
   19       -6.679483
   20       -6.522644
   21       -5.891205
   22       -5.619042
   23       -5.225683
   24       -5.028523
   25       -4.499099
   26       -4.388598
   27       -4.275964
   28       -4.228060
   29       -4.133605
   30       -3.921002
   31       -3.810071
   32       -3.700937
   33       -3.468707
   34       -3.296836
   35       -3.148631
   36       -3.108054
   37       -3.018411
   38       -2.900351
   39       -2.757985
   40       -2.566758
   41       -2.511095
   42       -2.327207
   43       -2.135748
   44       -1.983730
   45       -1.911162
   46       -1.833087
   47       -1.727237
   48       -1.536079
   49       -1.411506
   50       -1.198457
   51       -1.053694
   52       -0.831925
   53        0.160754
   54        0.275825
   55        0.863620
   56        1.093817
   57        1.543890
   58        1.639770
   59        1.863269
   60        2.092366
   61        2.269623
   62        2.378875
   63        2.502694
   64        2.525853
   65        2.748707
   66        2.819684
   67        2.889069
   68        2.925062
 
  0.2307692E+00 -0.4163336E-16  0.0000000E+00  0.1923077E-01
    1      -14.360372
    2      -13.175446
    3      -12.509894
    4      -12.324462
    5      -12.188945
    6      -12.035400
    7      -11.732294
    8      -11.230640
    9      -11.197857
   10      -10.776284
   11      -10.688576
   12      -10.220612
   13       -8.848889
   14       -8.537053
   15       -8.006411
   16       -7.324721
   17       -7.055799
   18       -6.871520
   19       -6.816401
   20       -6.611230
   21       -6.029923
   22       -5.904452
   23       -5.516374
   24       -5.465311
   25       -4.990596
   26       -4.864147
   27       -4.789536
   28       -4.682363
   29       -4.444348
   30       -4.330796
   31       -4.127718
   32       -3.979666
   33       -3.882439
   34       -3.645756
   35       -3.570893
   36       -3.334398
   37       -3.215573
   38       -3.154978
   39       -3.059525
   40       -2.759872
   41       -2.643547
   42       -2.594235
   43       -2.151867
   44       -2.075236
   45       -1.998858
   46       -1.936812
   47       -1.881757
   48       -1.666855
   49       -1.629454
   50       -1.355623
   51       -1.164174
   52       -0.877178
   53       -0.197861
   54       -0.033946
   55        0.893092
   56        1.160528
   57        1.355292
   58        1.717768
   59        1.863162
   60        1.894034
   61        2.129697
   62        2.239354
   63        2.463583
   64        2.524521
   65        2.711349
   66        2.767351
   67        2.810955
   68        2.932954
 
  0.3076923E+00 -0.5551115E-16  0.0000000E+00  0.1923077E-01
    1      -14.021167
    2      -12.763792
    3      -12.161323
    4      -11.979990
    5      -11.838963
    6      -11.699127
    7      -11.373870
    8      -11.011646
    9      -10.954224
   10      -10.590901
   11      -10.515878
   12      -10.036979
   13       -8.890794
   14       -8.832847
   15       -8.266143
   16       -7.735668
   17       -7.484317
   18       -7.180434
   19       -7.078951
   20       -6.718898
   21       -6.358907
   22       -6.315777
   23       -6.151246
   24       -5.886415
   25       -5.393396
   26       -5.261869
   27       -4.973991
   28       -4.879506
   29       -4.746170
   30       -4.476952
   31       -4.384703
   32       -4.217151
   33       -3.941215
   34       -3.726443
   35       -3.568914
   36       -3.479353
   37       -3.300032
   38       -3.249168
   39       -3.110060
   40       -2.903728
   41       -2.746988
   42       -2.606055
   43       -2.349862
   44       -2.253077
   45       -2.185031
   46       -2.065718
   47       -2.031787
   48       -1.907192
   49       -1.866954
   50       -1.577863
   51       -1.264804
   52       -0.895870
   53       -0.521933
   54       -0.322972
   55        0.713554
   56        1.009551
   57        1.266609
   58        1.443883
   59        1.625328
   60        1.791765
   61        1.882738
   62        2.084714
   63        2.210312
   64        2.348108
   65        2.512052
   66        2.599911
   67        2.654167
   68        2.752025
 
  0.3846154E+00 -0.8326673E-16  0.0000000E+00  0.1923077E-01
    1      -13.649757
    2      -12.255749
    3      -11.741846
    4      -11.660170
    5      -11.443332
    6      -11.365525
    7      -11.030834
    8      -10.823239
    9      -10.798054
   10      -10.631700
   11      -10.493208
   12       -9.747341
   13       -9.025767
   14       -9.007884
   15       -8.558111
   16       -8.128240
   17       -7.838539
   18       -7.635824
   19       -7.601597
   20       -7.124448
   21       -6.929102
   22       -6.847671
   23       -6.578530
   24       -6.324194
   25       -5.437439
   26       -5.345687
   27       -5.004611
   28       -4.806290
   29       -4.701161
   30       -4.411790
   31       -4.251146
   32       -4.203888
   33       -3.849763
   34       -3.825968
   35       -3.630074
   36       -3.554816
   37       -3.442327
   38       -3.334293
   39       -3.166670
   40       -2.986375
   41       -2.717287
   42       -2.660129
   43       -2.563394
   44       -2.473254
   45       -2.408388
   46       -2.299448
   47       -2.206519
   48       -2.127512
   49       -2.008801
   50       -1.628308
   51       -1.341494
   52       -0.978416
   53       -0.756065
   54       -0.427757
   55        0.466994
   56        0.767087
   57        1.224333
   58        1.308088
   59        1.496051
   60        1.598967
   61        1.701853
   62        1.920214
   63        2.083418
   64        2.136448
   65        2.240782
   66        2.329917
   67        2.548084
   68        2.637669
 
  0.4615385E+00 -0.8326673E-16  0.0000000E+00  0.1923077E-01
    1      -13.363821
    2      -11.684999
    3      -11.632312
    4      -11.318619
    5      -11.144549
    6      -11.017455
    7      -10.983108
    8      -10.901998
    9      -10.812832
   10      -10.645629
   11      -10.581816
   12       -9.591874
   13       -9.083952
   14       -8.863103
   15       -8.623689
   16       -8.382527
   17       -8.256979
   18       -8.020017
   19       -7.759070
   20       -7.471700
   21       -7.430558
   22       -7.347759
   23       -6.999715
   24       -6.308338
   25       -5.509989
   26       -5.121992
   27       -5.080858
   28       -4.679330
   29       -4.446523
   30       -4.244435
   31       -4.141893
   32       -4.026193
   33       -3.998931
   34       -3.780488
   35       -3.728821
   36       -3.585746
   37       -3.429259
   38       -3.367822
   39       -3.230071
   40       -3.167215
   41       -2.982381
   42       -2.880907
   43       -2.775178
   44       -2.553431
   45       -2.470054
   46       -2.364456
   47       -2.306648
   48       -2.180187
   49       -1.892443
   50       -1.693632
   51       -1.380452
   52       -1.062226
   53       -0.869165
   54       -0.457184
   55        0.353129
   56        0.574610
   57        1.182038
   58        1.307144
   59        1.379819
   60        1.527292
   61        1.615423
   62        1.732060
   63        1.905486
   64        2.004773
   65        2.201486
   66        2.284625
   67        2.345846
   68        2.556874
 
  0.0000000E+00  0.2500000E+00  0.0000000E+00  0.1923077E-01
    1      -14.835482
    2      -13.666158
    3      -13.147741
    4      -12.871756
    5      -12.675760
    6      -12.442558
    7      -12.050168
    8      -11.664111
    9      -11.639663
   10      -11.176704
   11      -11.100567
   12      -10.407187
   13       -9.043563
   14       -8.690104
   15       -7.579360
   16       -7.077815
   17       -6.983048
   18       -6.850386
   19       -6.766824
   20       -6.196270
   21       -5.914586
   22       -5.384178
   23       -4.840350
   24       -4.659598
   25       -4.216004
   26       -4.143473
   27       -3.854285
   28       -3.751134
   29       -3.538570
   30       -3.402701
   31       -3.309579
   32       -2.963413
   33       -2.883002
   34       -2.725601
   35       -2.583634
   36       -2.535860
   37       -2.433649
   38       -2.347196
   39       -2.220755
   40       -2.082187
   41       -2.058412
   42       -1.982341
   43       -1.848438
   44       -1.808466
   45       -1.611561
   46       -1.538239
   47       -1.488554
   48       -1.391261
   49       -1.324888
   50       -1.166897
   51       -1.033905
   52       -0.900576
   53        0.245495
   54        0.534170
   55        0.763416
   56        0.987420
   57        1.096282
   58        1.192370
   59        1.448692
   60        1.587875
   61        1.634456
   62        1.714180
   63        2.034031
   64        2.067797
   65        2.244965
   66        2.370460
   67        2.430882
   68        2.508008
 
  0.7692308E-01  0.2500000E+00  0.0000000E+00  0.1923077E-01
    1      -14.780432
    2      -13.589659
    3      -13.128338
    4      -12.827499
    5      -12.619147
    6      -12.368928
    7      -11.949451
    8      -11.622508
    9      -11.598249
   10      -11.132740
   11      -11.048671
   12      -10.372967
   13       -9.025853
   14       -8.748323
   15       -7.532623
   16       -7.087905
   17       -6.964654
   18       -6.857878
   19       -6.698285
   20       -6.172398
   21       -5.868424
   22       -5.402826
   23       -4.930232
   24       -4.827514
   25       -4.308671
   26       -4.154254
   27       -4.096092
   28       -3.813961
   29       -3.701239
   30       -3.573093
   31       -3.468766
   32       -3.199008
   33       -3.089267
   34       -2.909549
   35       -2.834148
   36       -2.674543
   37       -2.557923
   38       -2.472467
   39       -2.365140
   40       -2.257074
   41       -2.175877
   42       -2.105141
   43       -2.009424
   44       -1.952586
   45       -1.895213
   46       -1.704847
   47       -1.541844
   48       -1.420146
   49       -1.309728
   50       -1.195941
   51       -1.004060
   52       -0.896622
   53        0.235193
   54        0.469170
   55        0.823541
   56        1.147726
   57        1.403506
   58        1.514760
   59        1.620931
   60        1.774225
   61        1.851533
   62        2.062136
   63        2.181152
   64        2.340736
   65        2.361600
   66        2.478711
   67        2.530352
   68        2.800841
 
  0.1538462E+00  0.2500000E+00  0.0000000E+00  0.1923077E-01
    1      -14.618520
    2      -13.393562
    3      -12.991363
    4      -12.667878
    5      -12.453296
    6      -12.192946
    7      -11.750540
    8      -11.483846
    9      -11.461467
   10      -10.991833
   11      -10.904792
   12      -10.290379
   13       -8.959333
   14       -8.813499
   15       -7.501742
   16       -7.115501
   17       -6.980241
   18       -6.835751
   19       -6.668633
   20       -6.257861
   21       -5.824141
   22       -5.565391
   23       -5.390769
   24       -5.008131
   25       -4.564709
   26       -4.495690
   27       -4.393029
   28       -4.170577
   29       -4.098757
   30       -3.893123
   31       -3.777690
   32       -3.661542
   33       -3.386494
   34       -3.259611
   35       -3.143784
   36       -3.123224
   37       -2.946460
   38       -2.826646
   39       -2.777721
   40       -2.687889
   41       -2.532019
   42       -2.474767
   43       -2.168454
   44       -2.096257
   45       -2.006026
   46       -1.807876
   47       -1.666960
   48       -1.486468
   49       -1.338656
   50       -1.198847
   51       -1.024425
   52       -0.868939
   53        0.083709
   54        0.247424
   55        0.898918
   56        1.166771
   57        1.453659
   58        1.595690
   59        1.765363
   60        1.958586
   61        2.194654
   62        2.377304
   63        2.590245
   64        2.716146
   65        2.745777
   66        2.893671
   67        2.944244
   68        2.973940
 
  0.2307692E+00  0.2500000E+00  0.0000000E+00  0.1923077E-01
    1      -14.358322
    2      -13.082756
    3      -12.739328
    4      -12.399026
    5      -12.186192
    6      -11.929992
    7      -11.472927
    8      -11.265108
    9      -11.245020
   10      -10.775013
   11      -10.705368
   12      -10.174235
   13       -8.951071
   14       -8.880771
   15       -7.585691
   16       -7.345187
   17       -7.166490
   18       -6.878766
   19       -6.816904
   20       -6.437833
   21       -6.003580
   22       -5.937893
   23       -5.631615
   24       -5.389132
   25       -5.201186
   26       -4.852720
   27       -4.840277
   28       -4.729419
   29       -4.465000
   30       -4.229514
   31       -4.073580
   32       -3.884722
   33       -3.800777
   34       -3.633553
   35       -3.386868
   36       -3.317553
   37       -3.267566
   38       -3.085537
   39       -2.982280
   40       -2.770315
   41       -2.703246
   42       -2.678365
   43       -2.190061
   44       -2.170615
   45       -2.063362
   46       -1.957400
   47       -1.912898
   48       -1.672165
   49       -1.568662
   50       -1.353426
   51       -1.139461
   52       -0.891864
   53       -0.202537
   54       -0.063591
   55        0.846472
   56        1.074476
   57        1.200035
   58        1.361811
   59        1.519687
   60        1.894837
   61        2.121297
   62        2.347944
   63        2.417793
   64        2.556793
   65        2.671649
   66        2.864285
   67        2.899980
   68        3.092375
 
  0.3076923E+00  0.2500000E+00  0.0000000E+00  0.1923077E-01
    1      -14.019557
    2      -12.666803
    3      -12.379412
    4      -12.038307
    5      -11.835798
    6      -11.622930
    7      -11.158402
    8      -11.017031
    9      -10.987310
   10      -10.570760
   11      -10.545556
   12      -10.001503
   13       -9.148576
   14       -8.894086
   15       -7.894252
   16       -7.738186
   17       -7.548216
   18       -7.287704
   19       -7.147517
   20       -6.597155
   21       -6.382828
   22       -6.300167
   23       -6.105368
   24       -6.052663
   25       -5.555560
   26       -5.219480
   27       -5.114299
   28       -4.849562
   29       -4.598432
   30       -4.503743
   31       -4.186488
   32       -4.072959
   33       -3.986058
   34       -3.776962
   35       -3.515329
   36       -3.428952
   37       -3.182838
   38       -3.103466
   39       -3.054152
   40       -2.947629
   41       -2.672134
   42       -2.615358
   43       -2.507992
   44       -2.324839
   45       -2.156498
   46       -2.131390
   47       -2.042959
   48       -1.924505
   49       -1.898042
   50       -1.567721
   51       -1.310391
   52       -0.939006
   53       -0.507006
   54       -0.335950
   55        0.596870
   56        0.888358
   57        1.067165
   58        1.090833
   59        1.243739
   60        1.854602
   61        2.047663
   62        2.089947
   63        2.261426
   64        2.316728
   65        2.432987
   66        2.507564
   67        2.640382
   68        2.806141
 
  0.3846154E+00  0.2500000E+00  0.0000000E+00  0.1923077E-01
    1      -13.648945
    2      -12.164299
    3      -11.928367
    4      -11.671146
    5      -11.442547
    6      -11.364967
    7      -10.899877
    8      -10.819280
    9      -10.778757
   10      -10.643551
   11      -10.476950
   12       -9.749437
   13       -9.138962
   14       -9.034580
   15       -8.294381
   16       -8.068602
   17       -7.957436
   18       -7.894782
   19       -7.546483
   20       -7.035547
   21       -6.881716
   22       -6.830635
   23       -6.659684
   24       -6.405217
   25       -5.522747
   26       -5.346455
   27       -4.996959
   28       -4.944220
   29       -4.631109
   30       -4.292855
   31       -4.250107
   32       -4.038660
   33       -3.856838
   34       -3.704218
   35       -3.526967
   36       -3.501441
   37       -3.458662
   38       -3.292714
   39       -3.122947
   40       -3.018570
   41       -2.809028
   42       -2.644632
   43       -2.583489
   44       -2.478712
   45       -2.361642
   46       -2.314864
   47       -2.248315
   48       -2.135066
   49       -2.024251
   50       -1.666249
   51       -1.425789
   52       -1.038607
   53       -0.720009
   54       -0.461241
   55        0.433024
   56        0.689034
   57        1.035708
   58        1.107541
   59        1.208328
   60        1.634948
   61        1.827522
   62        1.907002
   63        2.004018
   64        2.097628
   65        2.228621
   66        2.420237
   67        2.452112
   68        2.557926
 
  0.4615385E+00  0.2500000E+00  0.0000000E+00  0.1923077E-01
    1      -13.363798
    2      -11.634893
    3      -11.609090
    4      -11.432131
    5      -11.154190
    6      -11.039801
    7      -11.002462
    8      -10.871308
    9      -10.759821
   10      -10.695506
   11      -10.512869
   12       -9.596473
   13       -9.088226
   14       -8.730159
   15       -8.578879
   16       -8.510046
   17       -8.406899
   18       -7.935713
   19       -7.706739
   20       -7.501573
   21       -7.436669
   22       -7.305892
   23       -7.092695
   24       -6.295530
   25       -5.490002
   26       -5.190865
   27       -5.057537
   28       -4.642335
   29       -4.414288
   30       -4.319025
   31       -4.129278
   32       -4.078349
   33       -3.931808
   34       -3.826771
   35       -3.682358
   36       -3.498311
   37       -3.434204
   38       -3.342517
   39       -3.183524
   40       -3.108498
   41       -2.967524
   42       -2.829333
   43       -2.791295
   44       -2.760829
   45       -2.428597
   46       -2.311521
   47       -2.269862
   48       -2.211581
   49       -1.890667
   50       -1.709814
   51       -1.442948
   52       -1.158049
   53       -0.851004
   54       -0.447721
   55        0.387679
   56        0.609730
   57        1.179608
   58        1.260091
   59        1.341334
   60        1.395106
   61        1.605522
   62        1.782184
   63        1.919525
   64        2.028100
   65        2.146076
   66        2.294469
   67        2.334188
   68        2.473355
 
 -0.4615385E+00  0.2500000E+00  0.0000000E+00  0.1923077E-01
    1      -13.364359
    2      -11.716919
    3      -11.628469
    4      -11.241670
    5      -11.132781
    6      -10.979925
    7      -10.957872
    8      -10.934163
    9      -10.877194
   10      -10.712988
   11      -10.557176
   12       -9.583047
   13       -9.067540
   14       -8.931828
   15       -8.617424
   16       -8.394369
   17       -8.121970
   18       -8.021759
   19       -7.791750
   20       -7.460320
   21       -7.420931
   22       -7.392838
   23       -7.063002
   24       -6.194172
   25       -5.572981
   26       -5.060771
   27       -4.909047
   28       -4.753224
   29       -4.537736
   30       -4.202619
   31       -4.178959
   32       -4.061948
   33       -4.023500
   34       -3.913690
   35       -3.822680
   36       -3.607165
   37       -3.535268
   38       -3.327411
   39       -3.131471
   40       -3.053325
   41       -3.001684
   42       -2.860963
   43       -2.705030
   44       -2.577888
   45       -2.466945
   46       -2.332808
   47       -2.276262
   48       -2.204375
   49       -1.875096
   50       -1.676814
   51       -1.406520
   52       -1.166932
   53       -0.817343
   54       -0.458181
   55        0.411607
   56        0.691859
   57        1.200650
   58        1.292400
   59        1.482227
   60        1.576957
   61        1.644002
   62        1.694393
   63        2.055608
   64        2.113460
   65        2.185186
   66        2.241877
   67        2.384785
   68        2.448648
 
 -0.3846154E+00  0.2500000E+00  0.0000000E+00  0.1923077E-01
    1      -13.650553
    2      -12.281886
    3      -11.656887
    4      -11.619025
    5      -11.437784
    6      -11.398257
    7      -11.113367
    8      -10.912459
    9      -10.800197
   10      -10.627250
   11      -10.379606
   12       -9.782390
   13       -9.034395
   14       -8.917728
   15       -8.673796
   16       -8.108845
   17       -7.864075
   18       -7.626816
   19       -7.507050
   20       -7.096328
   21       -6.974696
   22       -6.854651
   23       -6.659403
   24       -6.206847
   25       -5.459742
   26       -5.217041
   27       -5.030303
   28       -4.908540
   29       -4.586274
   30       -4.443222
   31       -4.268200
   32       -4.218551
   33       -3.968660
   34       -3.896068
   35       -3.709279
   36       -3.587191
   37       -3.416696
   38       -3.323567
   39       -3.229835
   40       -2.940039
   41       -2.779020
   42       -2.693750
   43       -2.565195
   44       -2.410211
   45       -2.306530
   46       -2.277946
   47       -2.135562
   48       -2.103000
   49       -1.984089
   50       -1.622473
   51       -1.326932
   52       -1.060520
   53       -0.729166
   54       -0.437315
   55        0.532730
   56        0.839061
   57        1.231226
   58        1.374634
   59        1.536484
   60        1.717253
   61        1.746401
   62        1.966343
   63        2.102736
   64        2.200126
   65        2.293264
   66        2.402779
   67        2.446591
   68        2.515838
 
 -0.3076923E+00  0.2500000E+00  0.0000000E+00  0.1923077E-01
    1      -14.021729
    2      -12.775923
    3      -12.119589
    4      -11.941083
    5      -11.835030
    6      -11.740201
    7      -11.421499
    8      -11.061303
    9      -10.946263
   10      -10.596645
   11      -10.432054
   12      -10.061198
   13       -8.903136
   14       -8.733140
   15       -8.369213
   16       -7.820722
   17       -7.362583
   18       -7.184605
   19       -7.052286
   20       -6.727755
   21       -6.372955
   22       -6.315235
   23       -6.160327
   24       -5.901092
   25       -5.335393
   26       -5.217196
   27       -5.068414
   28       -4.827402
   29       -4.722803
   30       -4.479012
   31       -4.401199
   32       -4.251641
   33       -4.019387
   34       -3.654256
   35       -3.634732
   36       -3.553383
   37       -3.272638
   38       -3.255671
   39       -3.088056
   40       -2.915673
   41       -2.748708
   42       -2.672873
   43       -2.375278
   44       -2.196914
   45       -2.086626
   46       -2.049284
   47       -2.013640
   48       -1.891252
   49       -1.849363
   50       -1.566557
   51       -1.210369
   52       -0.992310
   53       -0.536037
   54       -0.295030
   55        0.694151
   56        0.984773
   57        1.327246
   58        1.525349
   59        1.663918
   60        1.798949
   61        1.865167
   62        2.105828
   63        2.208949
   64        2.373593
   65        2.501172
   66        2.573148
   67        2.613148
   68        2.793956
 
 -0.2307692E+00  0.2500000E+00  0.0000000E+00  0.1923077E-01
    1      -14.360439
    2      -13.171271
    3      -12.524515
    4      -12.319643
    5      -12.188372
    6      -12.036672
    7      -11.715017
    8      -11.256780
    9      -11.202903
   10      -10.774851
   11      -10.662377
   12      -10.212271
   13       -8.857788
   14       -8.576590
   15       -7.965765
   16       -7.428696
   17       -6.936529
   18       -6.844619
   19       -6.819664
   20       -6.613666
   21       -6.066875
   22       -5.906860
   23       -5.518409
   24       -5.492977
   25       -5.009495
   26       -4.803031
   27       -4.762126
   28       -4.691444
   29       -4.489418
   30       -4.346761
   31       -4.129535
   32       -3.986378
   33       -3.885933
   34       -3.626279
   35       -3.548589
   36       -3.361874
   37       -3.175062
   38       -3.119555
   39       -3.051606
   40       -2.789585
   41       -2.679662
   42       -2.603626
   43       -2.190301
   44       -2.069978
   45       -1.998320
   46       -1.919931
   47       -1.871033
   48       -1.676365
   49       -1.598576
   50       -1.321824
   51       -1.095231
   52       -0.910467
   53       -0.224868
   54        0.002524
   55        0.754505
   56        1.144234
   57        1.305782
   58        1.668419
   59        1.834469
   60        1.894292
   61        2.089630
   62        2.237215
   63        2.514411
   64        2.555917
   65        2.713773
   66        2.763473
   67        2.834858
   68        2.981608
 
 -0.1538462E+00  0.2500000E+00  0.0000000E+00  0.1923077E-01
    1      -14.620152
    2      -13.455216
    3      -12.839878
    4      -12.612846
    5      -12.455778
    6      -12.270017
    7      -11.930178
    8      -11.459236
    9      -11.432327
   10      -10.977775
   11      -10.897145
   12      -10.314019
   13       -8.921556
   14       -8.554793
   15       -7.723431
   16       -7.121722
   17       -6.940671
   18       -6.808980
   19       -6.729493
   20       -6.350848
   21       -5.865903
   22       -5.698064
   23       -5.240398
   24       -5.003535
   25       -4.490166
   26       -4.435671
   27       -4.343166
   28       -4.197660
   29       -4.068360
   30       -3.938555
   31       -3.849822
   32       -3.660251
   33       -3.477248
   34       -3.278049
   35       -3.111394
   36       -3.066503
   37       -3.005028
   38       -2.913482
   39       -2.772722
   40       -2.675215
   41       -2.468918
   42       -2.352259
   43       -2.149949
   44       -2.029575
   45       -1.932071
   46       -1.823919
   47       -1.759495
   48       -1.508846
   49       -1.384368
   50       -1.135892
   51       -0.975913
   52       -0.863489
   53        0.106813
   54        0.299799
   55        0.787700
   56        1.071550
   57        1.483950
   58        1.589531
   59        1.730758
   60        2.040441
   61        2.301871
   62        2.459421
   63        2.516283
   64        2.621492
   65        2.790845
   66        2.894437
   67        2.946229
   68        2.975123
 
 -0.7692308E-01  0.2500000E+00  0.0000000E+00  0.1923077E-01
    1      -14.781312
    2      -13.621191
    3      -13.050315
    4      -12.799393
    5      -12.620663