       N       E                     dE             d eps       ncg     rms          rms(c)
DAV:   1     0.511648729769E+03    0.51165E+03   -0.28718E+04  7352   0.790E+02
DAV:   2    -0.541945019484E+02   -0.56584E+03   -0.55077E+03  9768   0.190E+02
DAV:   3    -0.112101395984E+03   -0.57907E+02   -0.57046E+02  8860   0.629E+01
DAV:   4    -0.114924651755E+03   -0.28233E+01   -0.28026E+01 11624   0.148E+01
DAV:   5    -0.114971682246E+03   -0.47030E-01   -0.46951E-01  9920   0.192E+00    0.122E+01
DAV:   6    -0.110704406826E+03    0.42673E+01   -0.11660E+01  8888   0.102E+01    0.632E+00
DAV:   7    -0.110827654759E+03   -0.12325E+00   -0.10780E+01  9072   0.813E+00    0.333E+00
DAV:   8    -0.110668461492E+03    0.15919E+00   -0.23354E+00  8936   0.425E+00    0.178E+00
DAV:   9    -0.110654673043E+03    0.13788E-01   -0.45530E-01  8840   0.199E+00    0.714E-01
DAV:  10    -0.110662408264E+03   -0.77352E-02   -0.93334E-02  8912   0.994E-01    0.242E-01
DAV:  11    -0.110650872446E+03    0.11536E-01   -0.17189E-02  9336   0.388E-01    0.112E-01
DAV:  12    -0.110643230778E+03    0.76417E-02   -0.28722E-03  9584   0.168E-01    0.526E-02
DAV:  13    -0.110639248594E+03    0.39822E-02   -0.72677E-04  9344   0.880E-02    0.288E-02
DAV:  14    -0.110637003891E+03    0.22447E-02   -0.22467E-04  9240   0.524E-02    0.168E-02
DAV:  15    -0.110635486328E+03    0.15176E-02   -0.11119E-04  9968   0.438E-02    0.862E-03
DAV:  16    -0.110635616397E+03   -0.13007E-03   -0.83151E-05  8720   0.270E-02    0.613E-03
DAV:  17    -0.110636059131E+03   -0.44273E-03   -0.75342E-05  8432   0.209E-02    0.329E-03
DAV:  18    -0.110636496295E+03   -0.43716E-03   -0.10231E-04  8000   0.184E-02    0.207E-03
DAV:  19    -0.110636581600E+03   -0.85306E-04   -0.43110E-05  7680   0.126E-02    0.130E-03
DAV:  20    -0.110636555742E+03    0.25858E-04   -0.22168E-05  6688   0.113E-02    0.855E-04
DAV:  21    -0.110636538618E+03    0.17124E-04   -0.13261E-05  6920   0.889E-03    0.575E-04
DAV:  22    -0.110636515654E+03    0.22964E-04   -0.71080E-06  6104   0.766E-03    0.333E-04
DAV:  23    -0.110636479597E+03    0.36057E-04   -0.59087E-06  6624   0.630E-03    0.217E-04
DAV:  24    -0.110636429187E+03    0.50409E-04   -0.81217E-06  6544   0.790E-03    0.997E-05
DAV:  25    -0.110636411257E+03    0.17930E-04   -0.28950E-06  6616   0.562E-03    0.604E-05
DAV:  26    -0.110636402657E+03    0.86007E-05   -0.22780E-06  6376   0.567E-03    0.345E-05
DAV:  27    -0.110636398974E+03    0.36823E-05   -0.12315E-06  5436   0.460E-03    0.160E-05
DAV:  28    -0.110636399012E+03   -0.37498E-07   -0.10103E-06  5356   0.396E-03
   1 F= -.11063640E+03 E0= -.11062232E+03  d E =-.281582E-01
