 vasp.5.3.5 31Mar14 (build Oct 29 2014 16:16:03) complex                        
  
 executed on          Linux-UFHPC date 2016.02.09  17:25:17
 running on    8 total cores
 distrk:  each k-point on    8 cores,    1 groups
 distr:  one band on NCORES_PER_BAND=   2 cores,    4 groups


--------------------------------------------------------------------------------------------------------


 INCAR:
 POTCAR:    PAW_PBE P 17Jan2003                   
 POTCAR:   PAW_PBE Si 05Jan2001                   

 ----------------------------------------------------------------------------- 
|                                                                             |
|  ADVICE TO THIS USER RUNNING 'VASP/VAMP'   (HEAR YOUR MASTER'S VOICE ...):  |
|                                                                             |
|      You have switched on vdW-DFT.                                          |
|      This routine was written and supplied by Jiri Klimes.                  |
|      We recommed that you carefully read and cite the following             |
|      publication                                                            |
|      J. Klimes, D.R. Bowler, A. Michelides                                  |
|        J. Phys.: Cond Matt. 22 022201 (2010)                                |
|      J. Klimes, D.R. Bowler, A. Michelides                                  |
|        Phys. Rev. B. 83, 195131 (2011)                                      |
|      and references therein.                                                |
|                                                                             |
 ----------------------------------------------------------------------------- 

 POTCAR:    PAW_PBE P 17Jan2003                   
   VRHFIN =P : s2p3                                                             
   LEXCH  = PE                                                                  
   EATOM  =   176.0430 eV,   12.9388 Ry                                         
                                                                                
   TITEL  = PAW_PBE P 17Jan2003                                                 
   LULTRA =        F    use ultrasoft PP ?                                      
   IUNSCR =        1    unscreen: 0-lin 1-nonlin 2-no                           
   RPACOR =    1.500    partial core radius                                     
   POMASS =   30.974; ZVAL   =    5.000    mass and valenz                      
   RCORE  =    1.900    outmost cutoff radius                                   
   RWIGS  =    2.330; RWIGS  =    1.233    wigner-seitz radius (au A)           
   ENMAX  =  270.000; ENMIN  =  191.280 eV                                      
   ICORE  =        2    local potential                                         
   LCOR   =        T    correct aug charges                                     
   LPAW   =        T    paw PP                                                  
   EAUG   =  342.924                                                            
   DEXC   =    -.002                                                            
   RMAX   =    2.887    core radius for proj-oper                               
   RAUG   =    1.300    factor for augmentation sphere                          
   RDEP   =    1.931    radius for radial grids                                 
   QCUT   =   -4.330; QGAM   =    8.659    optimization parameters              
                                                                                
   Description                                                                  
     l     E      TYP  RCUT    TYP  RCUT                                        
     0   .000     23  1.900                                                     
     0   .000     23  1.900                                                     
     1   .000     23  1.900                                                     
     1   .000     23  1.900                                                     
     2   .000     23  1.900                                                     
  local pseudopotential read in
  partial core-charges read in
  atomic valenz-charges read in
  non local Contribution for L=           0  read in
    real space projection operators read in
  non local Contribution for L=           0  read in
    real space projection operators read in
  non local Contribution for L=           1  read in
    real space projection operators read in
  non local Contribution for L=           1  read in
    real space projection operators read in
    PAW grid and wavefunctions read in
 
   number of l-projection  operators is LMAX  =           4
   number of lm-projection operators is LMMAX =           8
 
 POTCAR:   PAW_PBE Si 05Jan2001                   
   VRHFIN =Si: s2p2                                                             
   LEXCH  = PE                                                                  
   EATOM  =   103.0669 eV,    7.5752 Ry                                         
                                                                                
   TITEL  = PAW_PBE Si 05Jan2001                                                
   LULTRA =        F    use ultrasoft PP ?                                      
   IUNSCR =        1    unscreen: 0-lin 1-nonlin 2-no                           
   RPACOR =    1.500    partial core radius                                     
   POMASS =   28.085; ZVAL   =    4.000    mass and valenz                      
   RCORE  =    1.900    outmost cutoff radius                                   
   RWIGS  =    2.480; RWIGS  =    1.312    wigner-seitz radius (au A)           
   ENMAX  =  245.345; ENMIN  =  184.009 eV                                      
   ICORE  =        2    local potential                                         
   LCOR   =        T    correct aug charges                                     
   LPAW   =        T    paw PP                                                  
   EAUG   =  322.069                                                            
   DEXC   =    -.007                                                            
   RMAX   =    2.944    core radius for proj-oper                               
   RAUG   =    1.300    factor for augmentation sphere                          
   RDEP   =    1.993    radius for radial grids                                 
   QCUT   =   -4.246; QGAM   =    8.493    optimization parameters              
                                                                                
   Description                                                                  
     l     E      TYP  RCUT    TYP  RCUT                                        
     0   .000     23  1.900                                                     
     0   .000     23  1.900                                                     
     1   .000     23  1.900                                                     
     1   .000     23  1.900                                                     
     2   .000      7  1.900                                                     
  local pseudopotential read in
  partial core-charges read in
  atomic valenz-charges read in
  non local Contribution for L=           0  read in
    real space projection operators read in
  non local Contribution for L=           0  read in
    real space projection operators read in
  non local Contribution for L=           1  read in
    real space projection operators read in
  non local Contribution for L=           1  read in
    real space projection operators read in
    PAW grid and wavefunctions read in
 
   number of l-projection  operators is LMAX  =           4
   number of lm-projection operators is LMMAX =           8
 
 Optimization of the real space projectors (new method)

 maximal supplied QI-value         = 19.84
 optimisation between [QCUT,QGAM] = [  8.73, 17.66] = [ 21.34, 87.33] Ry 
 Optimized for a Real-space Cutoff    1.50 Angstroem

   l    n(q)    QCUT    max X(q) W(low)/X(q) W(high)/X(q)  e(spline) 
   0      8     8.731     6.651    0.16E-04    0.15E-04    0.77E-08
   0      8     8.731    90.285    0.16E-03    0.90E-04    0.16E-06
   1      7     8.731     4.328    0.47E-04    0.36E-04    0.45E-07
   1      7     8.731    54.583    0.13E-03    0.39E-03    0.20E-06
 Optimization of the real space projectors (new method)

 maximal supplied QI-value         = 19.84
 optimisation between [QCUT,QGAM] = [  8.73, 17.66] = [ 21.34, 87.33] Ry 
 Optimized for a Real-space Cutoff    1.46 Angstroem

   l    n(q)    QCUT    max X(q) W(low)/X(q) W(high)/X(q)  e(spline) 
   0      8     8.731     8.708    0.16E-04    0.11E-04    0.68E-08
   0      8     8.731   106.241    0.24E-03    0.77E-04    0.13E-06
   1      7     8.731     5.901    0.34E-04    0.38E-04    0.36E-07
   1      7     8.731    73.241    0.12E-03    0.39E-03    0.15E-06

 ----------------------------------------------------------------------------- 
|                                                                             |
|  ADVICE TO THIS USER RUNNING 'VASP/VAMP'   (HEAR YOUR MASTER'S VOICE ...):  |
|                                                                             |
|      You enforced a specific xc-type in the INCAR file,                     |
|      a different type was found on the POTCAR file                          |
|          I HOPE YOU KNOW, WHAT YOU ARE  DOING                               |
|                                                                             |
 ----------------------------------------------------------------------------- 

  PAW_PBE P 17Jan2003                   :
 energy of atom  1       EATOM= -176.0430
 kinetic energy error for atom=    0.0040 (will be added to EATOM!!)
 PAW_PBE Si 05Jan2001                   :
 energy of atom  2       EATOM= -103.0669
 kinetic energy error for atom=    0.0021 (will be added to EATOM!!)
 
 
 POSCAR: Si12                                    
  positions in direct lattice
  No initial velocities read in
 exchange correlation table for  LEXCH =       42
   RHO(1)=    0.500       N(1)  =     2000
   RHO(2)=  100.500       N(2)  =     4000
 


--------------------------------------------------------------------------------------------------------


 ion  position               nearest neighbor table
   1  0.114  0.228  0.233-  15 2.28  21 2.29  21 2.29
   2  0.214  0.928  0.515-  16 2.28  22 2.29  22 2.29
   3  0.458  0.916  0.209-  21 2.28  13 2.30  13 2.30
   4  0.558  0.616  0.491-  22 2.28  14 2.30  14 2.30
   5  0.311  0.622  0.084-  17 2.28  23 2.30  23 2.30
   6  0.311  0.622  0.366-  14 2.25  18 2.28
   7  0.999  0.998  0.086-  19 2.29  19 2.29  13 2.32
   8  0.999  0.998  0.368-  20 2.29  20 2.29
   9  0.655  0.310  0.060-  19 2.28  17 2.29  17 2.29
  10  0.655  0.310  0.342-  20 2.28  18 2.29  18 2.29  24 2.31
  11  0.770  0.539  0.207-  15 2.29  15 2.29  23 2.32
  12  0.870  0.239  0.489-  16 2.29  16 2.29  24 2.32
  13  0.940  0.879  0.158-   3 2.30   3 2.30   7 2.32  23 2.35
  14  0.040  0.579  0.440-   6 2.25   4 2.30   4 2.30  24 2.35  18 2.57
  15  0.205  0.410  0.186-   1 2.28  11 2.29  11 2.29  17 2.37
  16  0.305  0.110  0.468-   2 2.28  12 2.29  12 2.29  20 2.33
  17  0.202  0.404  0.100-   5 2.28   9 2.29   9 2.29  15 2.37
  18  0.202  0.404  0.382-  24 1.41   6 2.28  10 2.29  10 2.29  14 2.57  24 2.87
  19  0.564  0.128  0.108-   9 2.28   7 2.29   7 2.29  21 2.37
  20  0.564  0.128  0.390-  10 2.28   8 2.29   8 2.29  16 2.33  24 2.65
  21  0.567  0.134  0.194-   3 2.28   1 2.29   1 2.29  19 2.37
  22  0.667  0.834  0.476-   4 2.28   2 2.29   2 2.29
  23  0.829  0.658  0.136-   5 2.30   5 2.30  11 2.32  13 2.35
  24  0.929  0.358  0.418-  18 1.41  10 2.31  12 2.32  14 2.35  20 2.65  18 2.87
 

 ----------------------------------------------------------------------------- 
|                                                                             |
|           W    W    AA    RRRRR   N    N  II  N    N   GGGG   !!!           |
|           W    W   A  A   R    R  NN   N  II  NN   N  G    G  !!!           |
|           W    W  A    A  R    R  N N  N  II  N N  N  G       !!!           |
|           W WW W  AAAAAA  RRRRR   N  N N  II  N  N N  G  GGG   !            |
|           WW  WW  A    A  R   R   N   NN  II  N   NN  G    G                |
|           W    W  A    A  R    R  N    N  II  N    N   GGGG   !!!           |
|                                                                             |
|      The distance between some ions is very small                           |
|      please check the nearest neigbor list in the OUTCAR file               |
|          I HOPE YOU KNOW, WHAT YOU ARE  DOING                               |
|                                                                             |
 ----------------------------------------------------------------------------- 

  LATTYP: Found a base centered orthorhombic cell.
 ALAT       =     3.5404000000
 B/A-ratio  =     5.8153587165
 C/A-ratio  =     7.7678875268
  
  Lattice vectors:
  
 A1 = (   1.7702000000,  10.2943480000,   0.0000000000)
 A2 = (   1.7702000000, -10.2943480000,   0.0000000000)
 A3 = (   0.0000000000,   0.0000000000, -27.5014290000)


Analysis of symmetry for initial positions (statically):
=====================================================================
 Subroutine PRICEL returns:
 Original cell was already a primitive cell.
 

 Routine SETGRP: Setting up the symmetry group for a 
 base centered orthorhombic supercell.


 Subroutine GETGRP returns: Found  1 space group operations
 (whereof  1 operations were pure point group operations)
 out of a pool of  8 trial point group operations.


The static configuration has the point symmetry C_1 .


Analysis of symmetry for dynamics (positions and initial velocities):
=====================================================================
 Subroutine PRICEL returns:
 Original cell was already a primitive cell.
 

 Routine SETGRP: Setting up the symmetry group for a 
 base centered orthorhombic supercell.


 Subroutine GETGRP returns: Found  1 space group operations
 (whereof  1 operations were pure point group operations)
 out of a pool of  8 trial point group operations.


The dynamic configuration has the point symmetry C_1 .
 
 
 KPOINTS: pymatgen generated KPOINTS with grid den

Automatic generation of k-mesh.
Space group operators:
 irot       det(A)        alpha          n_x          n_y          n_z        tau_x        tau_y        tau_z
    1     1.000000     0.000000     1.000000     0.000000     0.000000     0.000000     0.000000     0.000000
 
 Subroutine IBZKPT returns following result:
 ===========================================
 
 Found     54 irreducible k-points:
 
 Following reciprocal coordinates:
            Coordinates               Weight
  0.000000  0.000000  0.000000      1.000000
  0.076923 -0.000000  0.000000      2.000000
  0.153846 -0.000000  0.000000      2.000000
  0.230769 -0.000000  0.000000      2.000000
  0.307692 -0.000000  0.000000      2.000000
  0.384615 -0.000000  0.000000      2.000000
  0.461538 -0.000000  0.000000      2.000000
  0.000000  0.250000  0.000000      2.000000
  0.076923  0.250000  0.000000      2.000000
  0.153846  0.250000  0.000000      2.000000
  0.230769  0.250000  0.000000      2.000000
  0.307692  0.250000  0.000000      2.000000
  0.384615  0.250000  0.000000      2.000000
  0.461538  0.250000  0.000000      2.000000
 -0.461538  0.250000  0.000000      2.000000
 -0.384615  0.250000  0.000000      2.000000
 -0.307692  0.250000  0.000000      2.000000
 -0.230769  0.250000  0.000000      2.000000
 -0.153846  0.250000  0.000000      2.000000
 -0.076923  0.250000  0.000000      2.000000
  0.000000  0.500000  0.000000      1.000000
  0.076923  0.500000  0.000000      2.000000
  0.153846  0.500000  0.000000      2.000000
  0.230769  0.500000  0.000000      2.000000
  0.307692  0.500000  0.000000      2.000000
  0.384615  0.500000  0.000000      2.000000
  0.461538  0.500000  0.000000      2.000000
  0.000000  0.000000  0.500000      1.000000
  0.076923 -0.000000  0.500000      2.000000
  0.153846 -0.000000  0.500000      2.000000
  0.230769 -0.000000  0.500000      2.000000
  0.307692 -0.000000  0.500000      2.000000
  0.384615 -0.000000  0.500000      2.000000
  0.461538 -0.000000  0.500000      2.000000
  0.000000  0.250000  0.500000      2.000000
  0.076923  0.250000  0.500000      2.000000
  0.153846  0.250000  0.500000      2.000000
  0.230769  0.250000  0.500000      2.000000
  0.307692  0.250000  0.500000      2.000000
  0.384615  0.250000  0.500000      2.000000
  0.461538  0.250000  0.500000      2.000000
 -0.461538  0.250000  0.500000      2.000000
 -0.384615  0.250000  0.500000      2.000000
 -0.307692  0.250000  0.500000      2.000000
 -0.230769  0.250000  0.500000      2.000000
 -0.153846  0.250000  0.500000      2.000000
 -0.076923  0.250000  0.500000      2.000000
  0.000000  0.500000  0.500000      1.000000
  0.076923  0.500000  0.500000      2.000000
  0.153846  0.500000  0.500000      2.000000
  0.230769  0.500000  0.500000      2.000000
  0.307692  0.500000  0.500000      2.000000
  0.384615  0.500000  0.500000      2.000000
  0.461538  0.500000  0.500000      2.000000
 
 Following cartesian coordinates:
            Coordinates               Weight
  0.000000  0.000000  0.000000      1.000000
  0.021727  0.003736  0.000000      2.000000
  0.043454  0.007472  0.000000      2.000000
  0.065182  0.011209  0.000000      2.000000
  0.086909  0.014945  0.000000      2.000000
  0.108636  0.018681  0.000000      2.000000
  0.130363  0.022417  0.000000      2.000000
  0.000000  0.024285  0.000000      2.000000
  0.021727  0.028021  0.000000      2.000000
  0.043454  0.031758  0.000000      2.000000
  0.065182  0.035494  0.000000      2.000000
  0.086909  0.039230  0.000000      2.000000
  0.108636  0.042966  0.000000      2.000000
  0.130363  0.046702  0.000000      2.000000
 -0.130363  0.001868  0.000000      2.000000
 -0.108636  0.005604  0.000000      2.000000
 -0.086909  0.009340  0.000000      2.000000
 -0.065182  0.013077  0.000000      2.000000
 -0.043454  0.016813  0.000000      2.000000
 -0.021727  0.020549  0.000000      2.000000
  0.000000  0.048570  0.000000      1.000000
  0.021727  0.052307  0.000000      2.000000
  0.043454  0.056043  0.000000      2.000000
  0.065182  0.059779  0.000000      2.000000
  0.086909  0.063515  0.000000      2.000000
  0.108636  0.067251  0.000000      2.000000
  0.130363  0.070987  0.000000      2.000000
  0.000000  0.000000  0.018181      1.000000
  0.021727  0.003736  0.018181      2.000000
  0.043454  0.007472  0.018181      2.000000
  0.065182  0.011209  0.018181      2.000000
  0.086909  0.014945  0.018181      2.000000
  0.108636  0.018681  0.018181      2.000000
  0.130363  0.022417  0.018181      2.000000
  0.000000  0.024285  0.018181      2.000000
  0.021727  0.028021  0.018181      2.000000
  0.043454  0.031758  0.018181      2.000000
  0.065182  0.035494  0.018181      2.000000
  0.086909  0.039230  0.018181      2.000000
  0.108636  0.042966  0.018181      2.000000
  0.130363  0.046702  0.018181      2.000000
 -0.130363  0.001868  0.018181      2.000000
 -0.108636  0.005604  0.018181      2.000000
 -0.086909  0.009340  0.018181      2.000000
 -0.065182  0.013077  0.018181      2.000000
 -0.043454  0.016813  0.018181      2.000000
 -0.021727  0.020549  0.018181      2.000000
  0.000000  0.048570  0.018181      1.000000
  0.021727  0.052307  0.018181      2.000000
  0.043454  0.056043  0.018181      2.000000
  0.065182  0.059779  0.018181      2.000000
  0.086909  0.063515  0.018181      2.000000
  0.108636  0.067251  0.018181      2.000000
  0.130363  0.070987  0.018181      2.000000
 


--------------------------------------------------------------------------------------------------------




 Dimension of arrays:
   k-points           NKPTS =     54   k-points in BZ     NKDIM =     54   number of bands    NBANDS=     68
   number of dos      NEDOS =    301   number of ions     NIONS =     24
   non local maximal  LDIM  =      4   non local SUM 2l+1 LMDIM =      8
   total plane-waves  NPLWV = 192000
   max r-space proj   IRMAX =   2772   max aug-charges    IRDMAX=   6603
   dimension x,y,z NGX =    20 NGY =   60 NGZ =  160
   dimension x,y,z NGXF=    40 NGYF=  120 NGZF=  320
   support grid    NGXF=    40 NGYF=  120 NGZF=  320
   ions per type =              12  12
 NGX,Y,Z   is equivalent  to a cutoff of   9.39,  9.55,  9.67 a.u.
 NGXF,Y,Z  is equivalent  to a cutoff of  18.78, 19.10, 19.34 a.u.


 I would recommend the setting:
   dimension x,y,z NGX =    20 NGY =   59 NGZ =  155
 SYSTEM =  unknown system                          
 POSCAR =  Si12                                    

 Startparameter for this run:
   NWRITE =      2    write-flag & timer
   PREC   = accura    normal or accurate (medium, high low for compatibility)
   ISTART =      0    job   : 0-new  1-cont  2-samecut
   ICHARG =      2    charge: 1-file 2-atom 10-const
   ISPIN  =      1    spin polarized calculation?
   LNONCOLLINEAR =      F non collinear calculations
   LSORBIT =      F    spin-orbit coupling
   INIWAV =      1    electr: 0-lowe 1-rand  2-diag
   LASPH  =      F    aspherical Exc in radial PAW
   METAGGA=      F    non-selfconsistent MetaGGA calc.

 Electronic Relaxation 1
   ENCUT  =  300.0 eV  22.05 Ry    4.70 a.u.   5.00 14.75 38.84*2*pi/ulx,y,z
   ENINI  =  300.0     initial cutoff
   ENAUG  =  342.9 eV  augmentation charge cutoff
   NELM   =     60;   NELMIN=  2; NELMDL= -5     # of ELM steps 
   EDIFF  = 0.1E-05   stopping-criterion for ELM
   LREAL  =      T    real-space projection
   NLSPLINE    = F    spline interpolate recip. space projectors
   LCOMPAT=      F    compatible to vasp.4.4
   GGA_COMPAT  = T    GGA compatible to vasp.4.4-vasp.4.6
   LMAXPAW     = -100 max onsite density
   LMAXMIX     =    2 max onsite mixed and CHGCAR
   VOSKOWN=      0    Vosko Wilk Nusair interpolation
   ROPT   =   -0.00025  -0.00025
 Ionic relaxation
   EDIFFG = 0.1E-04   stopping-criterion for IOM
   NSW    =      0    number of steps for IOM
   NBLOCK =      1;   KBLOCK =      1    inner block; outer block 
   IBRION =     -1    ionic relax: 0-MD 1-quasi-New 2-CG
   NFREE  =      1    steps in history (QN), initial steepest desc. (CG)
   ISIF   =      3    stress and relaxation
   IWAVPR =     10    prediction:  0-non 1-charg 2-wave 3-comb
   ISYM   =      2    0-nonsym 1-usesym 2-fastsym
   LCORR  =      T    Harris-Foulkes like correction to forces

   POTIM  = 0.5000    time-step for ionic-motion
   TEIN   =    0.0    initial temperature
   TEBEG  =    0.0;   TEEND  =   0.0 temperature during run
   SMASS  =  -3.00    Nose mass-parameter (am)
   estimated Nose-frequenzy (Omega)   =  0.10E-29 period in steps =****** mass=  -0.286E-27a.u.
   SCALEE = 1.0000    scale energy and forces
   NPACO  =    256;   APACO  = 16.0  distance and # of slots for P.C.
   PSTRESS=    0.0 pullay stress

  Mass of Ions in am
   POMASS =  30.97 28.09
  Ionic Valenz
   ZVAL   =   5.00  4.00
  Atomic Wigner-Seitz radii
   RWIGS  =  -1.00 -1.00
  virtual crystal weights 
   VCA    =   1.00  1.00
   NELECT =     108.0000    total number of electrons
   NUPDOWN=      -1.0000    fix difference up-down

 DOS related values:
   EMIN   =  10.00;   EMAX   =-10.00  energy-range for DOS
   EFERMI =   0.00
   ISMEAR =     0;   SIGMA  =   0.10  broadening in eV -4-tet -1-fermi 0-gaus

 Electronic relaxation 2 (details)
   IALGO  =     38    algorithm
   LDIAG  =      T    sub-space diagonalisation (order eigenvalues)
   LSUBROT=      F    optimize rotation matrix (better conditioning)
   TURBO    =      0    0=normal 1=particle mesh
   IRESTART =      0    0=no restart 2=restart with 2 vectors
   NREBOOT  =      0    no. of reboots
   NMIN     =      0    reboot dimension
   EREF     =   0.00    reference energy to select bands
   IMIX   =      4    mixing-type and parameters
     AMIX     =   0.40;   BMIX     =  1.00
     AMIX_MAG =   1.60;   BMIX_MAG =  1.00
     AMIN     =   0.10
     WC   =   100.;   INIMIX=   1;  MIXPRE=   1;  MAXMIX= -45

 Intra band minimization:
   WEIMIN = 0.0000     energy-eigenvalue tresh-hold
   EBREAK =  0.37E-08  absolut break condition
   DEPER  =   0.30     relativ break condition  

   TIME   =   0.40     timestep for ELM

  volume/ion in A,a.u.               =      41.76       281.83
  Fermi-wavevector in a.u.,A,eV,Ry     =   0.779018  1.472130  8.256946  0.606868
  Thomas-Fermi vector in A             =   1.882034
 
 Write flags
   LWAVE  =      F    write WAVECAR
   LCHARG =      F    write CHGCAR
   LVTOT  =      F    write LOCPOT, total local potential
   LVHAR  =      F    write LOCPOT, Hartree potential only
   LELF   =      F    write electronic localiz. function (ELF)
   LORBIT =      0    0 simple, 1 ext, 2 COOP (PROOUT)


 Dipole corrections
   LMONO  =      F    monopole corrections only (constant potential shift)
   LDIPOL =      F    correct potential (dipole corrections)
   IDIPOL =      0    1-x, 2-y, 3-z, 4-all directions 
   EPSILON=  1.0000000 bulk dielectric constant

 Exchange correlation treatment:
   GGA     =    BO    GGA type
   LEXCH   =    42    internal setting for exchange type
   VOSKOWN=      0    Vosko Wilk Nusair interpolation
   LHFCALC =     F    Hartree Fock is set to
   LHFONE  =     F    Hartree Fock one center treatment
   AEXX    =    0.0000 exact exchange contribution

 vdW DFT:
   LUSE_VDW   =     T    switch on vdW DFT
   Zab_VDW    =-.8491    correlation parameter
   PARAM1     =0.1833
   PARAM2     =0.2200
   PARAM3     =0.0000

 Linear response parameters
   LEPSILON=     F    determine dielectric tensor
   LRPA    =     F    only Hartree local field effects (RPA)
   LNABLA  =     F    use nabla operator in PAW spheres
   LVEL    =     F    velocity operator in full k-point grid
   LINTERFAST=   F  fast interpolation
   KINTER  =     0    interpolate to denser k-point grid
   CSHIFT  =0.1000    complex shift for real part using Kramers Kronig
   OMEGAMAX=  -1.0    maximum frequency
   DEG_THRESHOLD= 0.2000000E-02 threshold for treating states as degnerate
   RTIME   =    0.100 relaxation time in fs

 Orbital magnetization related:
   ORBITALMAG=     F  switch on orbital magnetization
   LCHIMAG   =     F  perturbation theory with respect to B field
   DQ        =  0.001000  dq finite difference perturbation B field



--------------------------------------------------------------------------------------------------------


 Static calculation
 charge density and potential will be updated during run
 non-spin polarized calculation
 Variant of blocked Davidson
 Davidson routine will perform the subspace rotation
 perform sub-space diagonalisation
    after iterative eigenvector-optimisation
 modified Broyden-mixing scheme, WC =      100.0
 initial mixing is a Kerker type mixing with AMIX =  0.4000 and BMIX =      1.0000
 Hartree-type preconditioning will be used
 using additional bands           14
 real space projection scheme for non local part
 use partial core corrections
 calculate Harris-corrections to forces 
   (improved forces if not selfconsistent)
 use gradient corrections 
 use of overlap-Matrix (Vanderbilt PP)
 Gauss-broadening in eV      SIGMA  =   0.10


--------------------------------------------------------------------------------------------------------


  energy-cutoff  :      300.00
  volume of cell :     1002.32
      direct lattice vectors                 reciprocal lattice vectors
     3.540400000  0.000000000  0.000000000     0.282453960  0.048570342  0.000000000
    -1.770200000 10.294348000  0.000000000     0.000000000  0.097140683  0.000000000
     0.000000000  0.000000000 27.501429000     0.000000000  0.000000000  0.036361747

  length of vectors
     3.540400000 10.445439617 27.501429000     0.286599577  0.097140683  0.036361747


 
 k-points in units of 2pi/SCALE and weight: pymatgen generated KPOINTS with grid den
   0.00000000  0.00000000  0.00000000       0.010
   0.02172723  0.00373618  0.00000000       0.019
   0.04345446  0.00747236  0.00000000       0.019
   0.06518168  0.01120854  0.00000000       0.019
   0.08690891  0.01494472  0.00000000       0.019
   0.10863614  0.01868090  0.00000000       0.019
   0.13036337  0.02241708  0.00000000       0.019
   0.00000000  0.02428517  0.00000000       0.019
   0.02172723  0.02802135  0.00000000       0.019
   0.04345446  0.03175753  0.00000000       0.019
   0.06518168  0.03549371  0.00000000       0.019
   0.08690891  0.03922989  0.00000000       0.019
   0.10863614  0.04296607  0.00000000       0.019
   0.13036337  0.04670225  0.00000000       0.019
  -0.13036337  0.00186809  0.00000000       0.019
  -0.10863614  0.00560427  0.00000000       0.019
  -0.08690891  0.00934045  0.00000000       0.019
  -0.06518168  0.01307663  0.00000000       0.019
  -0.04345446  0.01681281  0.00000000       0.019
  -0.02172723  0.02054899  0.00000000       0.019
   0.00000000  0.04857034  0.00000000       0.010
   0.02172723  0.05230652  0.00000000       0.019
   0.04345446  0.05604270  0.00000000       0.019
   0.06518168  0.05977888  0.00000000       0.019
   0.08690891  0.06351506  0.00000000       0.019
   0.10863614  0.06725124  0.00000000       0.019
   0.13036337  0.07098742  0.00000000       0.019
   0.00000000  0.00000000  0.01818087       0.010
   0.02172723  0.00373618  0.01818087       0.019
   0.04345446  0.00747236  0.01818087       0.019
   0.06518168  0.01120854  0.01818087       0.019
   0.08690891  0.01494472  0.01818087       0.019
   0.10863614  0.01868090  0.01818087       0.019
   0.13036337  0.02241708  0.01818087       0.019
   0.00000000  0.02428517  0.01818087       0.019
   0.02172723  0.02802135  0.01818087       0.019
   0.04345446  0.03175753  0.01818087       0.019
   0.06518168  0.03549371  0.01818087       0.019
   0.08690891  0.03922989  0.01818087       0.019
   0.10863614  0.04296607  0.01818087       0.019
   0.13036337  0.04670225  0.01818087       0.019
  -0.13036337  0.00186809  0.01818087       0.019
  -0.10863614  0.00560427  0.01818087       0.019
  -0.08690891  0.00934045  0.01818087       0.019
  -0.06518168  0.01307663  0.01818087       0.019
  -0.04345446  0.01681281  0.01818087       0.019
  -0.02172723  0.02054899  0.01818087       0.019
   0.00000000  0.04857034  0.01818087       0.010
   0.02172723  0.05230652  0.01818087       0.019
   0.04345446  0.05604270  0.01818087       0.019
   0.06518168  0.05977888  0.01818087       0.019
   0.08690891  0.06351506  0.01818087       0.019
   0.10863614  0.06725124  0.01818087       0.019
   0.13036337  0.07098742  0.01818087       0.019
 
 k-points in reciprocal lattice and weights: pymatgen generated KPOINTS with grid den
   0.00000000  0.00000000  0.00000000       0.010
   0.07692308 -0.00000000  0.00000000       0.019
   0.15384615 -0.00000000  0.00000000       0.019
   0.23076923 -0.00000000  0.00000000       0.019
   0.30769231 -0.00000000  0.00000000       0.019
   0.38461538 -0.00000000  0.00000000       0.019
   0.46153846 -0.00000000  0.00000000       0.019
   0.00000000  0.25000000  0.00000000       0.019
   0.07692308  0.25000000  0.00000000       0.019
   0.15384615  0.25000000  0.00000000       0.019
   0.23076923  0.25000000  0.00000000       0.019
   0.30769231  0.25000000  0.00000000       0.019
   0.38461538  0.25000000  0.00000000       0.019
   0.46153846  0.25000000  0.00000000       0.019
  -0.46153846  0.25000000  0.00000000       0.019
  -0.38461538  0.25000000  0.00000000       0.019
  -0.30769231  0.25000000  0.00000000       0.019
  -0.23076923  0.25000000  0.00000000       0.019
  -0.15384615  0.25000000  0.00000000       0.019
  -0.07692308  0.25000000  0.00000000       0.019
   0.00000000  0.50000000  0.00000000       0.010
   0.07692308  0.50000000  0.00000000       0.019
   0.15384615  0.50000000  0.00000000       0.019
   0.23076923  0.50000000  0.00000000       0.019
   0.30769231  0.50000000  0.00000000       0.019
   0.38461538  0.50000000  0.00000000       0.019
   0.46153846  0.50000000  0.00000000       0.019
   0.00000000  0.00000000  0.50000000       0.010
   0.07692308 -0.00000000  0.50000000       0.019
   0.15384615 -0.00000000  0.50000000       0.019
   0.23076923 -0.00000000  0.50000000       0.019
   0.30769231 -0.00000000  0.50000000       0.019
   0.38461538 -0.00000000  0.50000000       0.019
   0.46153846 -0.00000000  0.50000000       0.019
   0.00000000  0.25000000  0.50000000       0.019
   0.07692308  0.25000000  0.50000000       0.019
   0.15384615  0.25000000  0.50000000       0.019
   0.23076923  0.25000000  0.50000000       0.019
   0.30769231  0.25000000  0.50000000       0.019
   0.38461538  0.25000000  0.50000000       0.019
   0.46153846  0.25000000  0.50000000       0.019
  -0.46153846  0.25000000  0.50000000       0.019
  -0.38461538  0.25000000  0.50000000       0.019
  -0.30769231  0.25000000  0.50000000       0.019
  -0.23076923  0.25000000  0.50000000       0.019
  -0.15384615  0.25000000  0.50000000       0.019
  -0.07692308  0.25000000  0.50000000       0.019
   0.00000000  0.50000000  0.50000000       0.010
   0.07692308  0.50000000  0.50000000       0.019
   0.15384615  0.50000000  0.50000000       0.019
   0.23076923  0.50000000  0.50000000       0.019
   0.30769231  0.50000000  0.50000000       0.019
   0.38461538  0.50000000  0.50000000       0.019
   0.46153846  0.50000000  0.50000000       0.019
 
 position of ions in fractional coordinates (direct lattice) 
   0.11402300  0.22804500  0.23316207
   0.21402300  0.92804500  0.51499159
   0.45808900  0.91617900  0.20939482
   0.55808900  0.61617900  0.49122434
   0.31085400  0.62170900  0.08414979
   0.31085400  0.62170900  0.36597930
   0.99923000  0.99846000  0.08631254
   0.99923000  0.99846000  0.36814206
   0.65492700  0.30985400  0.06041748
   0.65492700  0.30985400  0.34224700
   0.76973800  0.53947500  0.20725292
   0.86973800  0.23947500  0.48908244
   0.93971600  0.87943300  0.15783749
   0.03971600  0.57943300  0.43966701
   0.20515200  0.41030300  0.18578822
   0.30515200  0.11030300  0.46761774
   0.20184900  0.40369900  0.09969156
   0.20184900  0.40369900  0.38152107
   0.56380500  0.12761000  0.10779021
   0.56380500  0.12761000  0.38961973
   0.56710600  0.13421200  0.19387616
   0.66710600  0.83421200  0.47570568
   0.82923400  0.65846800  0.13571444
   0.92923400  0.35846800  0.41754396
 
 position of ions in cartesian coordinates  (Angst):
   0.00000177  2.34757459  6.41229012
  -0.88509823  9.55361819 14.16300462
  -0.00000177  9.43146546  5.75865686
   0.88509823  6.34316106 13.50937136
  -0.00000177  6.40008880  2.31423934
  -0.00000177  6.40008880 10.06495384
   1.77020000 10.27849470  2.37371832
   1.77020000 10.27849470 10.12443282
   1.77020000  3.18974491  1.66156717
   1.77020000  3.18974491  9.41228167
   1.77020177  5.55354339  5.69975143
   2.65530177  2.46523899 13.45046593
   1.77019823  9.05318934  4.34075665
  -0.88510177  5.96488494 12.09147115
   0.00000177  4.22380187  5.10944151
   0.88510177  1.13549747 12.86015601
  -0.00000177  4.15581799  2.74166024
  -0.00000177  4.15581799 10.49237474
   1.77020000  1.31366175  2.96438477
   1.77020000  1.31366175 10.71509927
   1.77020000  1.38162503  5.33187152
   0.88510000  8.58766863 13.08258602
   1.77020000  6.77849874  3.73234107
   2.65530000  3.69019434 11.48305557
 


--------------------------------------------------------------------------------------------------------


 k-point  1 :   0.0000 0.0000 0.0000  plane waves:   11717
 k-point  2 :   0.0769-0.0000 0.0000  plane waves:   11762
 k-point  3 :   0.1538-0.0000 0.0000  plane waves:   11805
 k-point  4 :   0.2308-0.0000 0.0000  plane waves:   11824
 k-point  5 :   0.3077-0.0000 0.0000  plane waves:   11875
 k-point  6 :   0.3846-0.0000 0.0000  plane waves:   11864
 k-point  7 :   0.4615-0.0000 0.0000  plane waves:   11883
 k-point  8 :   0.0000 0.2500 0.0000  plane waves:   11683
 k-point  9 :   0.0769 0.2500 0.0000  plane waves:   11756
 k-point 10 :   0.1538 0.2500 0.0000  plane waves:   11807
 k-point 11 :   0.2308 0.2500 0.0000  plane waves:   11853
 k-point 12 :   0.3077 0.2500 0.0000  plane waves:   11866
 k-point 13 :   0.3846 0.2500 0.0000  plane waves:   11889
 k-point 14 :   0.4615 0.2500 0.0000  plane waves:   11885
 k-point 15 :  -0.4615 0.2500 0.0000  plane waves:   11886
 k-point 16 :  -0.3846 0.2500 0.0000  plane waves:   11867
 k-point 17 :  -0.3077 0.2500 0.0000  plane waves:   11849
 k-point 18 :  -0.2308 0.2500 0.0000  plane waves:   11827
 k-point 19 :  -0.1538 0.2500 0.0000  plane waves:   11801
 k-point 20 :  -0.0769 0.2500 0.0000  plane waves:   11757
 k-point 21 :   0.0000 0.5000 0.0000  plane waves:   11710
 k-point 22 :   0.0769 0.5000 0.0000  plane waves:   11762
 k-point 23 :   0.1538 0.5000 0.0000  plane waves:   11782
 k-point 24 :   0.2308 0.5000 0.0000  plane waves:   11841
 k-point 25 :   0.3077 0.5000 0.0000  plane waves:   11876
 k-point 26 :   0.3846 0.5000 0.0000  plane waves:   11889
 k-point 27 :   0.4615 0.5000 0.0000  plane waves:   11881
 k-point 28 :   0.0000 0.0000 0.5000  plane waves:   11698
 k-point 29 :   0.0769-0.0000 0.5000  plane waves:   11752
 k-point 30 :   0.1538-0.0000 0.5000  plane waves:   11800
 k-point 31 :   0.2308-0.0000 0.5000  plane waves:   11834
 k-point 32 :   0.3077-0.0000 0.5000  plane waves:   11850
 k-point 33 :   0.3846-0.0000 0.5000  plane waves:   11888
 k-point 34 :   0.4615-0.0000 0.5000  plane waves:   11896
 k-point 35 :   0.0000 0.2500 0.5000  plane waves:   11714
 k-point 36 :   0.0769 0.2500 0.5000  plane waves:   11754
 k-point 37 :   0.1538 0.2500 0.5000  plane waves:   11802
 k-point 38 :   0.2308 0.2500 0.5000  plane waves:   11840
 k-point 39 :   0.3077 0.2500 0.5000  plane waves:   11858
 k-point 40 :   0.3846 0.2500 0.5000  plane waves:   11896
 k-point 41 :   0.4615 0.2500 0.5000  plane waves:   11886
 k-point 42 :  -0.4615 0.2500 0.5000  plane waves:   11852
 k-point 43 :  -0.3846 0.2500 0.5000  plane waves:   11838
 k-point 44 :  -0.3077 0.2500 0.5000  plane waves:   11842
 k-point 45 :  -0.2308 0.2500 0.5000  plane waves:   11840
 k-point 46 :  -0.1538 0.2500 0.5000  plane waves:   11804
 k-point 47 :  -0.0769 0.2500 0.5000  plane waves:   11748
 k-point 48 :   0.0000 0.5000 0.5000  plane waves:   11724
 k-point 49 :   0.0769 0.5000 0.5000  plane waves:   11748
 k-point 50 :   0.1538 0.5000 0.5000  plane waves:   11814
 k-point 51 :   0.2308 0.5000 0.5000  plane waves:   11832
 k-point 52 :   0.3077 0.5000 0.5000  plane waves:   11868
 k-point 53 :   0.3846 0.5000 0.5000  plane waves:   11892
 k-point 54 :   0.4615 0.5000 0.5000  plane waves:   11878

 maximum and minimum number of plane-waves per node :      5964     5832

 maximum number of plane-waves:     11896
 maximum index in each direction: 
   IXMAX=    5   IYMAX=   14   IZMAX=   38
   IXMIN=   -5   IYMIN=  -15   IZMIN=  -39

 WARNING: aliasing errors must be expected set NGX to  22 to avoid them
 NGY is ok and might be reduce to  60
 NGZ is ok and might be reduce to 156
 aliasing errors are usually negligible using standard VASP settings
 and one can safely disregard these warnings

 real space projection operators:
  total allocation   :       3793.25 KBytes
  max/ min on nodes  :       1899.38       1893.88


 parallel 3D FFT for wavefunctions:
    minimum data exchange during FFTs selected (reduces bandwidth)
 parallel 3D FFT for charge:
    minimum data exchange during FFTs selected (reduces bandwidth)


 total amount of memory used by VASP on root node   146493. kBytes
========================================================================

   base      :      30000. kBytes
   nonlr-proj:       3452. kBytes
   fftplans  :       9347. kBytes
   grid      :      14649. kBytes
   one-center:         36. kBytes
   wavefun   :      89009. kBytes
 
     INWAV:  cpu time    0.00: real time    0.00
 Broyden mixing: mesh for mixing (old mesh)
   NGX =  9   NGY = 29   NGZ = 77
  (NGX  = 40   NGY  =120   NGZ  =320)
  gives a total of  20097 points

 initial charge density was supplied:
 charge density of overlapping atoms calculated
 number of electron     108.0000000 magnetization 
 keeping initial charge density in first step


--------------------------------------------------------------------------------------------------------


 Maximum index for non-local projection operator         1333
 Maximum index for augmentation-charges          822 (set IRDMAX)


--------------------------------------------------------------------------------------------------------


 First call to EWALD:  gamma=   0.177
 Maximum number of real-space cells 7x 3x 1
 Maximum number of reciprocal cells 1x 3x 7

 FEWALD executed in parallel
    FEWALD:  cpu time    0.00: real time    0.00


----------------------------------------- Iteration    1(   1)  ---------------------------------------


vdW kernel read from vdw_kernel.bindat
  0.0000  0.2424  0.5071  0.7962  1.1119  1.4567  1.8333  2.2446  2.6937  3.1842
  3.7199  4.3049  4.9438  5.6415  6.4036  7.2358  8.1446  9.1372 10.2212 11.4050
 12.6979 14.1099 15.6519 17.3360 19.1751 21.1837 23.3773 25.7729 28.3892 31.2465
 34.3669 37.7748 41.4965 45.5611 50.0000
 
    POTLOK:  cpu time   16.57: real time   16.58
    SETDIJ:  cpu time    0.01: real time    0.01
     EDDAV:  cpu time   78.30: real time   78.32
       DOS:  cpu time    0.01: real time    0.01
    --------------------------------------------
      LOOP:  cpu time   94.90: real time   94.93

 eigenvalue-minimisations  :  7352
 total energy-change (2. order) : 0.5116487E+03  (-0.2871773E+04)
 number of electron     108.0000000 magnetization 
 augmentation part      108.0000000 magnetization 

 Free energy of the ion-electron system (eV)
  ---------------------------------------------------
  alpha Z        PSCENC =        36.80884744
  Ewald energy   TEWEN  =     12013.77968243
  -Hartree energ DENC   =    -15036.07152996
  -exchange      EXHF   =         0.00000000
  -V(xc)+E(xc)   XCENC  =       -87.28207673
  PAW double counting   =      1056.43050070     -732.41190547
  entropy T*S    EENTRO =        -0.04438550
  eigenvalues    EBANDS =       -93.60166360
  atomic energy  EATOM  =      3354.04126044
  ---------------------------------------------------
  free energy    TOTEN  =       511.64872977 eV

  energy without entropy =      511.69311527  energy(sigma->0) =      511.67092252


--------------------------------------------------------------------------------------------------------




----------------------------------------- Iteration    1(   2)  ---------------------------------------


     EDDAV:  cpu time   96.38: real time   96.40
       DOS:  cpu time    0.01: real time    0.01
    --------------------------------------------
      LOOP:  cpu time   96.39: real time   96.41

 eigenvalue-minimisations  :  9768
 total energy-change (2. order) :-0.5658432E+03  (-0.5507697E+03)
 number of electron     108.0000000 magnetization 
 augmentation part      108.0000000 magnetization 

 Free energy of the ion-electron system (eV)
  ---------------------------------------------------
  alpha Z        PSCENC =        36.80884744
  Ewald energy   TEWEN  =     12013.77968243
  -Hartree energ DENC   =    -15036.07152996
  -exchange      EXHF   =         0.00000000
  -V(xc)+E(xc)   XCENC  =       -87.28207673
  PAW double counting   =      1056.43050070     -732.41190547
  entropy T*S    EENTRO =        -0.01875508
  eigenvalues    EBANDS =      -659.47052573
  atomic energy  EATOM  =      3354.04126044
  ---------------------------------------------------
  free energy    TOTEN  =       -54.19450195 eV

  energy without entropy =      -54.17574687  energy(sigma->0) =      -54.18512441


--------------------------------------------------------------------------------------------------------




----------------------------------------- Iteration    1(   3)  ---------------------------------------


     EDDAV:  cpu time   90.43: real time   90.45
       DOS:  cpu time    0.01: real time    0.01
    --------------------------------------------
      LOOP:  cpu time   90.44: real time   90.46

 eigenvalue-minimisations  :  8860
 total energy-change (2. order) :-0.5790689E+02  (-0.5704629E+02)
 number of electron     108.0000000 magnetization 
 augmentation part      108.0000000 magnetization 

 Free energy of the ion-electron system (eV)
  ---------------------------------------------------
  alpha Z        PSCENC =        36.80884744
  Ewald energy   TEWEN  =     12013.77968243
  -Hartree energ DENC   =    -15036.07152996
  -exchange      EXHF   =         0.00000000
  -V(xc)+E(xc)   XCENC  =       -87.28207673
  PAW double counting   =      1056.43050070     -732.41190547
  entropy T*S    EENTRO =        -0.01933529
  eigenvalues    EBANDS =      -717.37683956
  atomic energy  EATOM  =      3354.04126044
  ---------------------------------------------------
  free energy    TOTEN  =      -112.10139598 eV

  energy without entropy =     -112.08206070  energy(sigma->0) =     -112.09172834


--------------------------------------------------------------------------------------------------------




----------------------------------------- Iteration    1(   4)  ---------------------------------------


     EDDAV:  cpu time  113.89: real time  113.92
       DOS:  cpu time    0.01: real time    0.01
    --------------------------------------------
      LOOP:  cpu time  113.91: real time  113.93

 eigenvalue-minimisations  : 11624
 total energy-change (2. order) :-0.2823256E+01  (-0.2802618E+01)
 number of electron     108.0000000 magnetization 
 augmentation part      108.0000000 magnetization 

 Free energy of the ion-electron system (eV)
  ---------------------------------------------------
  alpha Z        PSCENC =        36.80884744
  Ewald energy   TEWEN  =     12013.77968243
  -Hartree energ DENC   =    -15036.07152996
  -exchange      EXHF   =         0.00000000
  -V(xc)+E(xc)   XCENC  =       -87.28207673
  PAW double counting   =      1056.43050070     -732.41190547
  entropy T*S    EENTRO =        -0.02556746
  eigenvalues    EBANDS =      -720.19386315
  atomic energy  EATOM  =      3354.04126044
  ---------------------------------------------------
  free energy    TOTEN  =      -114.92465175 eV

  energy without entropy =     -114.89908429  energy(sigma->0) =     -114.91186802


--------------------------------------------------------------------------------------------------------




----------------------------------------- Iteration    1(   5)  ---------------------------------------


     EDDAV:  cpu time   98.47: real time   98.50
       DOS:  cpu time    0.01: real time    0.01
    CHARGE:  cpu time    4.72: real time    4.72
    MIXING:  cpu time    0.01: real time    0.01
    --------------------------------------------
      LOOP:  cpu time  103.22: real time  103.24

 eigenvalue-minimisations  :  9920
 total energy-change (2. order) :-0.4703049E-01  (-0.4695073E-01)
 number of electron     107.9999994 magnetization 
 augmentation part       -9.7094653 magnetization 

 Broyden mixing:
  rms(total) = 0.12225E+01    rms(broyden)= 0.12222E+01
  rms(prec ) = 0.13210E+01
  weight for this iteration     100.00

 Free energy of the ion-electron system (eV)
  ---------------------------------------------------
  alpha Z        PSCENC =        36.80884744
  Ewald energy   TEWEN  =     12013.77968243
  -Hartree energ DENC   =    -15036.07152996
  -exchange      EXHF   =         0.00000000
  -V(xc)+E(xc)   XCENC  =       -87.28207673
  PAW double counting   =      1056.43050070     -732.41190547
  entropy T*S    EENTRO =        -0.02587302
  eigenvalues    EBANDS =      -720.24058808
  atomic energy  EATOM  =      3354.04126044
  ---------------------------------------------------
  free energy    TOTEN  =      -114.97168225 eV

  energy without entropy =     -114.94580922  energy(sigma->0) =     -114.95874573


--------------------------------------------------------------------------------------------------------




----------------------------------------- Iteration    1(   6)  ---------------------------------------


    POTLOK:  cpu time   15.04: real time   15.05
    SETDIJ:  cpu time    0.01: real time    0.01
     EDDAV:  cpu time   90.44: real time   90.46
       DOS:  cpu time    0.01: real time    0.01
    CHARGE:  cpu time    4.41: real time    4.41
    MIXING:  cpu time    0.01: real time    0.01
    --------------------------------------------
      LOOP:  cpu time  109.93: real time  109.95

 eigenvalue-minimisations  :  8888
 total energy-change (2. order) : 0.4267275E+01  (-0.1165968E+01)
 number of electron     107.9999995 magnetization 
 augmentation part       -9.5416793 magnetization 

 Broyden mixing:
  rms(total) = 0.63244E+00    rms(broyden)= 0.63240E+00
  rms(prec ) = 0.67881E+00
  weight for this iteration     100.00

 eigenvalues of (default mixing * dielectric matrix)
  average eigenvalue GAMMA=   1.5331
  1.5331

 Free energy of the ion-electron system (eV)
  ---------------------------------------------------
  alpha Z        PSCENC =        36.80884744
  Ewald energy   TEWEN  =     12013.77968243
  -Hartree energ DENC   =    -15089.51560362
  -exchange      EXHF   =         0.00000000
  -V(xc)+E(xc)   XCENC  =       -84.02099698
  PAW double counting   =      1126.27415425     -804.37589467
  entropy T*S    EENTRO =        -0.02053524
  eigenvalues    EBANDS =      -663.67532090
  atomic energy  EATOM  =      3354.04126044
  ---------------------------------------------------
  free energy    TOTEN  =      -110.70440683 eV

  energy without entropy =     -110.68387159  energy(sigma->0) =     -110.69413921


--------------------------------------------------------------------------------------------------------




----------------------------------------- Iteration    1(   7)  ---------------------------------------


    POTLOK:  cpu time   15.13: real time   15.13
    SETDIJ:  cpu time    0.01: real time    0.01
     EDDAV:  cpu time   91.79: real time   91.81
       DOS:  cpu time    0.01: real time    0.01
    CHARGE:  cpu time    4.52: real time    4.52
    MIXING:  cpu time    0.01: real time    0.01
    --------------------------------------------
      LOOP:  cpu time  111.48: real time  111.50

 eigenvalue-minimisations  :  9072
 total energy-change (2. order) :-0.1232479E+00  (-0.1077994E+01)
 number of electron     107.9999995 magnetization 
 augmentation part       -9.4468807 magnetization 

 Broyden mixing:
  rms(total) = 0.33269E+00    rms(broyden)= 0.33262E+00
  rms(prec ) = 0.38365E+00
  weight for this iteration     100.00

 eigenvalues of (default mixing * dielectric matrix)
  average eigenvalue GAMMA=   1.1957
  1.6920  0.6994

 Free energy of the ion-electron system (eV)
  ---------------------------------------------------
  alpha Z        PSCENC =        36.80884744
  Ewald energy   TEWEN  =     12013.77968243
  -Hartree energ DENC   =    -15099.27340369
  -exchange      EXHF   =         0.00000000
  -V(xc)+E(xc)   XCENC  =       -81.50466741
  PAW double counting   =      1170.70227375     -850.12767928
  entropy T*S    EENTRO =        -0.01329786
  eigenvalues    EBANDS =      -655.24067059
  atomic energy  EATOM  =      3354.04126044
  ---------------------------------------------------
  free energy    TOTEN  =      -110.82765476 eV

  energy without entropy =     -110.81435690  energy(sigma->0) =     -110.82100583


--------------------------------------------------------------------------------------------------------




----------------------------------------- Iteration    1(   8)  ---------------------------------------


    POTLOK:  cpu time   15.10: real time   15.11
    SETDIJ:  cpu time    0.01: real time    0.01
     EDDAV:  cpu time   90.20: real time   90.22
       DOS:  cpu time    0.01: real time    0.01
    CHARGE:  cpu time    4.78: real time    4.78
    MIXING:  cpu time    0.01: real time    0.01
    --------------------------------------------
      LOOP:  cpu time  110.12: real time  110.14

 eigenvalue-minimisations  :  8936
 total energy-change (2. order) : 0.1591933E+00  (-0.2335426E+00)
 number of electron     107.9999995 magnetization 
 augmentation part       -9.4333115 magnetization 

 Broyden mixing:
  rms(total) = 0.17804E+00    rms(broyden)= 0.17802E+00
  rms(prec ) = 0.18950E+00
  weight for this iteration     100.00

 eigenvalues of (default mixing * dielectric matrix)
  average eigenvalue GAMMA=   1.3208
  1.7218  1.6419  0.5988

 Free energy of the ion-electron system (eV)
  ---------------------------------------------------
  alpha Z        PSCENC =        36.80884744
  Ewald energy   TEWEN  =     12013.77968243
  -Hartree energ DENC   =    -15119.46735262
  -exchange      EXHF   =         0.00000000
  -V(xc)+E(xc)   XCENC  =       -80.42189541
  PAW double counting   =      1184.68830201     -864.50229440
  entropy T*S    EENTRO =        -0.02600349
  eigenvalues    EBANDS =      -635.56900790
  atomic energy  EATOM  =      3354.04126044
  ---------------------------------------------------
  free energy    TOTEN  =      -110.66846149 eV

  energy without entropy =     -110.64245800  energy(sigma->0) =     -110.65545975


--------------------------------------------------------------------------------------------------------




----------------------------------------- Iteration    1(   9)  ---------------------------------------


    POTLOK:  cpu time   15.19: real time   15.19
    SETDIJ:  cpu time    0.01: real time    0.01
     EDDAV:  cpu time   91.23: real time   91.25
       DOS:  cpu time    0.01: real time    0.01
    CHARGE:  cpu time    4.75: real time    4.75
    MIXING:  cpu time    0.01: real time    0.01
    --------------------------------------------
      LOOP:  cpu time  111.21: real time  111.23

 eigenvalue-minimisations  :  8840
 total energy-change (2. order) : 0.1378845E-01  (-0.4553048E-01)
 number of electron     107.9999995 magnetization 
 augmentation part       -9.4262573 magnetization 

 Broyden mixing:
  rms(total) = 0.71376E-01    rms(broyden)= 0.71372E-01
  rms(prec ) = 0.76793E-01
  weight for this iteration     100.00

 eigenvalues of (default mixing * dielectric matrix)
  average eigenvalue GAMMA=   1.3593
  2.4595  1.1934  1.1934  0.5908

 Free energy of the ion-electron system (eV)
  ---------------------------------------------------
  alpha Z        PSCENC =        36.80884744
  Ewald energy   TEWEN  =     12013.77968243
  -Hartree energ DENC   =    -15124.35245132
  -exchange      EXHF   =         0.00000000
  -V(xc)+E(xc)   XCENC  =       -79.76677326
  PAW double counting   =      1187.93677829     -867.86171407
  entropy T*S    EENTRO =        -0.02882959
  eigenvalues    EBANDS =      -631.21147341
  atomic energy  EATOM  =      3354.04126044
  ---------------------------------------------------
  free energy    TOTEN  =      -110.65467304 eV

  energy without entropy =     -110.62584346  energy(sigma->0) =     -110.64025825


--------------------------------------------------------------------------------------------------------




----------------------------------------- Iteration    1(  10)  ---------------------------------------


    POTLOK:  cpu time   15.23: real time   15.23
    SETDIJ:  cpu time    0.01: real time    0.01
     EDDAV:  cpu time   93.22: real time   93.24
       DOS:  cpu time    0.01: real time    0.01
    CHARGE:  cpu time    4.72: real time    4.72
    MIXING:  cpu time    0.01: real time    0.01
    --------------------------------------------
      LOOP:  cpu time  113.21: real time  113.23

 eigenvalue-minimisations  :  8912
 total energy-change (2. order) :-0.7735221E-02  (-0.9333396E-02)
 number of electron     107.9999995 magnetization 
 augmentation part       -9.4204059 magnetization 

 Broyden mixing:
  rms(total) = 0.24210E-01    rms(broyden)= 0.24206E-01
  rms(prec ) = 0.26654E-01
  weight for this iteration     100.00

 eigenvalues of (default mixing * dielectric matrix)
  average eigenvalue GAMMA=   1.3627
  2.5524  0.5892  1.2403  1.2403  1.1913

 Free energy of the ion-electron system (eV)
  ---------------------------------------------------
  alpha Z        PSCENC =        36.80884744
  Ewald energy   TEWEN  =     12013.77968243
  -Hartree energ DENC   =    -15129.33630517
  -exchange      EXHF   =         0.00000000
  -V(xc)+E(xc)   XCENC  =       -79.36253960
  PAW double counting   =      1190.10761675     -870.11601102
  entropy T*S    EENTRO =        -0.02776581
  eigenvalues    EBANDS =      -626.55719373
  atomic energy  EATOM  =      3354.04126044
  ---------------------------------------------------
  free energy    TOTEN  =      -110.66240826 eV

  energy without entropy =     -110.63464245  energy(sigma->0) =     -110.64852536


--------------------------------------------------------------------------------------------------------




----------------------------------------- Iteration    1(  11)  ---------------------------------------


    POTLOK:  cpu time   15.22: real time   15.22
    SETDIJ:  cpu time    0.01: real time    0.01
     EDDAV:  cpu time   95.77: real time   95.79
       DOS:  cpu time    0.01: real time    0.01
    CHARGE:  cpu time    4.61: real time    4.61
    MIXING:  cpu time    0.01: real time    0.01
    --------------------------------------------
      LOOP:  cpu time  115.63: real time  115.66

 eigenvalue-minimisations  :  9336
 total energy-change (2. order) : 0.1153582E-01  (-0.1718913E-02)
 number of electron     107.9999995 magnetization 
 augmentation part       -9.4247187 magnetization 

 Broyden mixing:
  rms(total) = 0.11154E-01    rms(broyden)= 0.11153E-01
  rms(prec ) = 0.12860E-01
  weight for this iteration     100.00

 eigenvalues of (default mixing * dielectric matrix)
  average eigenvalue GAMMA=   1.3681
  2.6248  1.7249  1.1678  1.1678  0.5913  0.9321

 Free energy of the ion-electron system (eV)
  ---------------------------------------------------
  alpha Z        PSCENC =        36.80884744
  Ewald energy   TEWEN  =     12013.77968243
  -Hartree energ DENC   =    -15130.68821540
  -exchange      EXHF   =         0.00000000
  -V(xc)+E(xc)   XCENC  =       -79.31870449
  PAW double counting   =      1188.28443108     -868.24679448
  entropy T*S    EENTRO =        -0.02821534
  eigenvalues    EBANDS =      -625.28316412
  atomic energy  EATOM  =      3354.04126044
  ---------------------------------------------------
  free energy    TOTEN  =      -110.65087245 eV

  energy without entropy =     -110.62265710  energy(sigma->0) =     -110.63676477


--------------------------------------------------------------------------------------------------------




----------------------------------------- Iteration    1(  12)  ---------------------------------------


    POTLOK:  cpu time   15.09: real time   15.09
    SETDIJ:  cpu time    0.01: real time    0.01
     EDDAV:  cpu time   97.32: real time   97.34
       DOS:  cpu time    0.01: real time    0.01
    CHARGE:  cpu time    4.72: real time    4.72
    MIXING:  cpu time    0.01: real time    0.01
    --------------------------------------------
      LOOP:  cpu time  117.16: real time  117.18

 eigenvalue-minimisations  :  9584
 total energy-change (2. order) : 0.7641669E-02  (-0.2872152E-03)
 number of electron     107.9999995 magnetization 
 augmentation part       -9.4257705 magnetization 

 Broyden mixing:
  rms(total) = 0.52600E-02    rms(broyden)= 0.52594E-02
  rms(prec ) = 0.67809E-02
  weight for this iteration     100.00

 eigenvalues of (default mixing * dielectric matrix)
  average eigenvalue GAMMA=   1.3399
  2.6685  1.9528  1.1920  1.1920  0.5917  0.8910  0.8910

 Free energy of the ion-electron system (eV)
  ---------------------------------------------------
  alpha Z        PSCENC =        36.80884744
  Ewald energy   TEWEN  =     12013.77968243
  -Hartree energ DENC   =    -15131.45677203
  -exchange      EXHF   =         0.00000000
  -V(xc)+E(xc)   XCENC  =       -79.30678911
  PAW double counting   =      1187.09780496     -867.02913079
  entropy T*S    EENTRO =        -0.02797777
  eigenvalues    EBANDS =      -624.55015635
  atomic energy  EATOM  =      3354.04126044
  ---------------------------------------------------
  free energy    TOTEN  =      -110.64323078 eV

  energy without entropy =     -110.61525301  energy(sigma->0) =     -110.62924189


--------------------------------------------------------------------------------------------------------




----------------------------------------- Iteration    1(  13)  ---------------------------------------


    POTLOK:  cpu time   15.24: real time   15.24
    SETDIJ:  cpu time    0.01: real time    0.01
     EDDAV:  cpu time   91.41: real time   91.43
       DOS:  cpu time    0.01: real time    0.01
    CHARGE:  cpu time    4.73: real time    4.73
    MIXING:  cpu time    0.01: real time    0.01
    --------------------------------------------
      LOOP:  cpu time  111.42: real time  111.44

 eigenvalue-minimisations  :  9344
 total energy-change (2. order) : 0.3982183E-02  (-0.7267728E-04)
 number of electron     107.9999995 magnetization 
 augmentation part       -9.4258350 magnetization 

 Broyden mixing:
  rms(total) = 0.28801E-02    rms(broyden)= 0.28799E-02
  rms(prec ) = 0.42217E-02
  weight for this iteration     100.00

 eigenvalues of (default mixing * dielectric matrix)
  average eigenvalue GAMMA=   1.3487
  2.6844  2.0751  1.4626  1.1780  1.1780  0.9140  0.5907  0.7064

 Free energy of the ion-electron system (eV)
  ---------------------------------------------------
  alpha Z        PSCENC =        36.80884744
  Ewald energy   TEWEN  =     12013.77968243
  -Hartree energ DENC   =    -15132.17791109
  -exchange      EXHF   =         0.00000000
  -V(xc)+E(xc)   XCENC  =       -79.30325113
  PAW double counting   =      1186.53883963     -866.45565736
  entropy T*S    EENTRO =        -0.02821102
  eigenvalues    EBANDS =      -623.84284795
  atomic energy  EATOM  =      3354.04126044
  ---------------------------------------------------
  free energy    TOTEN  =      -110.63924859 eV

  energy without entropy =     -110.61103757  energy(sigma->0) =     -110.62514308


--------------------------------------------------------------------------------------------------------




----------------------------------------- Iteration    1(  14)  ---------------------------------------


    POTLOK:  cpu time   15.25: real time   15.26
    SETDIJ:  cpu time    0.01: real time    0.01
     EDDAV:  cpu time   94.89: real time   94.91
       DOS:  cpu time    0.01: real time    0.01
    CHARGE:  cpu time    4.76: real time    4.76
    MIXING:  cpu time    0.02: real time    0.02
    --------------------------------------------
      LOOP:  cpu time  114.95: real time  114.98

 eigenvalue-minimisations  :  9240
 total energy-change (2. order) : 0.2244703E-02  (-0.2246706E-04)
 number of electron     107.9999995 magnetization 
 augmentation part       -9.4255246 magnetization 

 Broyden mixing:
  rms(total) = 0.16778E-02    rms(broyden)= 0.16777E-02
  rms(prec ) = 0.27256E-02
  weight for this iteration     100.00

 eigenvalues of (default mixing * dielectric matrix)
  average eigenvalue GAMMA=   1.4149
  2.8932  2.5227  1.6946  1.1645  1.1645  1.0177  1.0177  0.5897  0.6696

 Free energy of the ion-electron system (eV)
  ---------------------------------------------------
  alpha Z        PSCENC =        36.80884744
  Ewald energy   TEWEN  =     12013.77968243
  -Hartree energ DENC   =    -15133.03515431
  -exchange      EXHF   =         0.00000000
  -V(xc)+E(xc)   XCENC  =       -79.29990733
  PAW double counting   =      1186.25782093     -866.16784293
  entropy T*S    EENTRO =        -0.02812234
  eigenvalues    EBANDS =      -622.99358824
  atomic energy  EATOM  =      3354.04126044
  ---------------------------------------------------
  free energy    TOTEN  =      -110.63700389 eV

  energy without entropy =     -110.60888156  energy(sigma->0) =     -110.62294272


--------------------------------------------------------------------------------------------------------




----------------------------------------- Iteration    1(  15)  ---------------------------------------


    POTLOK:  cpu time   15.23: real time   15.23
    SETDIJ:  cpu time    0.01: real time    0.01
     EDDAV:  cpu time  101.75: real time  101.78
       DOS:  cpu time    0.01: real time    0.01
    CHARGE:  cpu time    4.57: real time    4.57
    MIXING:  cpu time    0.01: real time    0.01
    --------------------------------------------
      LOOP:  cpu time  121.59: real time  121.62

 eigenvalue-minimisations  :  9968
 total energy-change (2. order) : 0.1517563E-02  (-0.1111858E-04)
 number of electron     107.9999995 magnetization 
 augmentation part       -9.4253882 magnetization 

 Broyden mixing:
  rms(total) = 0.86203E-03    rms(broyden)= 0.86198E-03
  rms(prec ) = 0.15434E-02
  weight for this iteration     100.00

 eigenvalues of (default mixing * dielectric matrix)
  average eigenvalue GAMMA=   1.4547
  3.1573  2.6132  1.7445  1.4438  1.1738  1.1738  0.9895  0.9895  0.5896  0.6723

 Free energy of the ion-electron system (eV)
  ---------------------------------------------------
  alpha Z        PSCENC =        36.80884744
  Ewald energy   TEWEN  =     12013.77968243
  -Hartree energ DENC   =    -15133.98980038
  -exchange      EXHF   =         0.00000000
  -V(xc)+E(xc)   XCENC  =       -79.29537579
  PAW double counting   =      1186.04028796     -865.94518719
  entropy T*S    EENTRO =        -0.02816772
  eigenvalues    EBANDS =      -622.04703352
  atomic energy  EATOM  =      3354.04126044
  ---------------------------------------------------
  free energy    TOTEN  =      -110.63548633 eV

  energy without entropy =     -110.60731861  energy(sigma->0) =     -110.62140247


--------------------------------------------------------------------------------------------------------




----------------------------------------- Iteration    1(  16)  ---------------------------------------


    POTLOK:  cpu time   15.16: real time   15.16
    SETDIJ:  cpu time    0.01: real time    0.01
     EDDAV:  cpu time   90.27: real time   90.29
       DOS:  cpu time    0.01: real time    0.01
    CHARGE:  cpu time    4.82: real time    4.82
    MIXING:  cpu time    0.01: real time    0.01
    --------------------------------------------
      LOOP:  cpu time  110.29: real time  110.31

 eigenvalue-minimisations  :  8720
 total energy-change (2. order) :-0.1300687E-03  (-0.8315132E-05)
 number of electron     107.9999995 magnetization 
 augmentation part       -9.4252565 magnetization 

 Broyden mixing:
  rms(total) = 0.61331E-03    rms(broyden)= 0.61322E-03
  rms(prec ) = 0.10334E-02
  weight for this iteration     100.00

 eigenvalues of (default mixing * dielectric matrix)
  average eigenvalue GAMMA=   1.5218
  3.7792  2.6618  1.8768  1.8768  1.1779  1.1779  0.9943  0.9647  0.9647  0.5895
  0.6760

 Free energy of the ion-electron system (eV)
  ---------------------------------------------------
  alpha Z        PSCENC =        36.80884744
  Ewald energy   TEWEN  =     12013.77968243
  -Hartree energ DENC   =    -15134.61671199
  -exchange      EXHF   =         0.00000000
  -V(xc)+E(xc)   XCENC  =       -79.29181691
  PAW double counting   =      1186.04105697     -865.94612498
  entropy T*S    EENTRO =        -0.02815937
  eigenvalues    EBANDS =      -621.42365042
  atomic energy  EATOM  =      3354.04126044
  ---------------------------------------------------
  free energy    TOTEN  =      -110.63561640 eV

  energy without entropy =     -110.60745702  energy(sigma->0) =     -110.62153671


--------------------------------------------------------------------------------------------------------




----------------------------------------- Iteration    1(  17)  ---------------------------------------


    POTLOK:  cpu time   15.25: real time   15.25
    SETDIJ:  cpu time    0.01: real time    0.01
     EDDAV:  cpu time   88.08: real time   88.10
       DOS:  cpu time    0.01: real time    0.01
    CHARGE:  cpu time    4.82: real time    4.82
    MIXING:  cpu time    0.01: real time    0.01
    --------------------------------------------
      LOOP:  cpu time  108.18: real time  108.21

 eigenvalue-minimisations  :  8432
 total energy-change (2. order) :-0.4427341E-03  (-0.7534181E-05)
 number of electron     107.9999995 magnetization 
 augmentation part       -9.4252721 magnetization 

 Broyden mixing:
  rms(total) = 0.32934E-03    rms(broyden)= 0.32931E-03
  rms(prec ) = 0.59998E-03
  weight for this iteration     100.00

 eigenvalues of (default mixing * dielectric matrix)
  average eigenvalue GAMMA=   1.5995
  4.5337  2.7552  2.3969  1.4962  1.4962  1.1783  1.1783  0.9766  0.9766  0.9405
  0.5895  0.6753

 Free energy of the ion-electron system (eV)
  ---------------------------------------------------
  alpha Z        PSCENC =        36.80884744
  Ewald energy   TEWEN  =     12013.77968243
  -Hartree energ DENC   =    -15135.12292316
  -exchange      EXHF   =         0.00000000
  -V(xc)+E(xc)   XCENC  =       -79.28935059
  PAW double counting   =      1186.04683935     -865.95196124
  entropy T*S    EENTRO =        -0.02816607
  eigenvalues    EBANDS =      -620.92028772
  atomic energy  EATOM  =      3354.04126044
  ---------------------------------------------------
  free energy    TOTEN  =      -110.63605913 eV

  energy without entropy =     -110.60789306  energy(sigma->0) =     -110.62197609


--------------------------------------------------------------------------------------------------------




----------------------------------------- Iteration    1(  18)  ---------------------------------------


    POTLOK:  cpu time   15.20: real time   15.20
    SETDIJ:  cpu time    0.01: real time    0.01
     EDDAV:  cpu time   84.46: real time   84.47
       DOS:  cpu time    0.01: real time    0.01
    CHARGE:  cpu time    4.58: real time    4.58
    MIXING:  cpu time    0.02: real time    0.02
    --------------------------------------------
      LOOP:  cpu time  104.27: real time  104.29

 eigenvalue-minimisations  :  8000
 total energy-change (2. order) :-0.4371636E-03  (-0.1023142E-04)
 number of electron     107.9999995 magnetization 
 augmentation part       -9.4251967 magnetization 

 Broyden mixing:
  rms(total) = 0.20705E-03    rms(broyden)= 0.20703E-03
  rms(prec ) = 0.38268E-03
  weight for this iteration     100.00

 eigenvalues of (default mixing * dielectric matrix)
  average eigenvalue GAMMA=   1.6672
  5.4417  2.8589  2.4669  1.6424  1.6424  1.1868  1.1868  1.0097  1.0097  1.0470
  0.9164  0.5895  0.6756

 Free energy of the ion-electron system (eV)
  ---------------------------------------------------
  alpha Z        PSCENC =        36.80884744
  Ewald energy   TEWEN  =     12013.77968243
  -Hartree energ DENC   =    -15135.46030328
  -exchange      EXHF   =         0.00000000
  -V(xc)+E(xc)   XCENC  =       -79.28736169
  PAW double counting   =      1186.08946914     -865.99562857
  entropy T*S    EENTRO =        -0.02816099
  eigenvalues    EBANDS =      -620.58430122
  atomic energy  EATOM  =      3354.04126044
  ---------------------------------------------------
  free energy    TOTEN  =      -110.63649629 eV

  energy without entropy =     -110.60833530  energy(sigma->0) =     -110.62241580


--------------------------------------------------------------------------------------------------------




----------------------------------------- Iteration    1(  19)  ---------------------------------------


    POTLOK:  cpu time   15.13: real time   15.14
    SETDIJ:  cpu time    0.01: real time    0.01
     EDDAV:  cpu time   80.05: real time   80.07
       DOS:  cpu time    0.01: real time    0.01
    CHARGE:  cpu time    4.23: real time    4.23
    MIXING:  cpu time    0.01: real time    0.01
    --------------------------------------------
      LOOP:  cpu time   99.45: real time   99.47

 eigenvalue-minimisations  :  7680
 total energy-change (2. order) :-0.8530552E-04  (-0.4311000E-05)
 number of electron     107.9999995 magnetization 
 augmentation part       -9.4251704 magnetization 

 Broyden mixing:
  rms(total) = 0.13045E-03    rms(broyden)= 0.13044E-03
  rms(prec ) = 0.24005E-03
  weight for this iteration     100.00

 eigenvalues of (default mixing * dielectric matrix)
  average eigenvalue GAMMA=   1.7542
  6.0198  3.1533  2.6934  2.1767  1.4811  1.4811  1.1833  1.1833  0.9833  0.9833
  0.9885  0.9666  0.5895  0.6752

 Free energy of the ion-electron system (eV)
  ---------------------------------------------------
  alpha Z        PSCENC =        36.80884744
  Ewald energy   TEWEN  =     12013.77968243
  -Hartree energ DENC   =    -15135.65887770
  -exchange      EXHF   =         0.00000000
  -V(xc)+E(xc)   XCENC  =       -79.28658637
  PAW double counting   =      1186.09113537     -865.99726952
  entropy T*S    EENTRO =        -0.02816334
  eigenvalues    EBANDS =      -620.38661036
  atomic energy  EATOM  =      3354.04126044
  ---------------------------------------------------
  free energy    TOTEN  =      -110.63658160 eV

  energy without entropy =     -110.60841826  energy(sigma->0) =     -110.62249993


--------------------------------------------------------------------------------------------------------




----------------------------------------- Iteration    1(  20)  ---------------------------------------


    POTLOK:  cpu time   14.70: real time   14.70
    SETDIJ:  cpu time    0.01: real time    0.01
     EDDAV:  cpu time   62.21: real time   62.23
       DOS:  cpu time    0.01: real time    0.01
    CHARGE:  cpu time    4.21: real time    4.21
    MIXING:  cpu time    0.01: real time    0.01
    --------------------------------------------
      LOOP:  cpu time   81.16: real time   81.17

 eigenvalue-minimisations  :  6688
 total energy-change (2. order) : 0.2585842E-04  (-0.2216758E-05)
 number of electron     107.9999995 magnetization 
 augmentation part       -9.4251631 magnetization 

 Broyden mixing:
  rms(total) = 0.85513E-04    rms(broyden)= 0.85507E-04
  rms(prec ) = 0.14503E-03
  weight for this iteration     100.00

 eigenvalues of (default mixing * dielectric matrix)
  average eigenvalue GAMMA=   1.8183
  6.7104  3.5037  2.7291  2.3184  1.6517  1.6517  1.1875  1.1875  0.5895  0.6751
  1.0754  1.0754  0.9690  0.9690  0.9812

 Free energy of the ion-electron system (eV)
  ---------------------------------------------------
  alpha Z        PSCENC =        36.80884744
  Ewald energy   TEWEN  =     12013.77968243
  -Hartree energ DENC   =    -15135.78909733
  -exchange      EXHF   =         0.00000000
  -V(xc)+E(xc)   XCENC  =       -79.28611516
  PAW double counting   =      1186.08326514     -865.98914171
  entropy T*S    EENTRO =        -0.02815520
  eigenvalues    EBANDS =      -620.25710180
  atomic energy  EATOM  =      3354.04126044
  ---------------------------------------------------
  free energy    TOTEN  =      -110.63655574 eV

  energy without entropy =     -110.60840055  energy(sigma->0) =     -110.62247814


--------------------------------------------------------------------------------------------------------




----------------------------------------- Iteration    1(  21)  ---------------------------------------


    POTLOK:  cpu time   14.65: real time   14.66
    SETDIJ:  cpu time    0.01: real time    0.01
     EDDAV:  cpu time   63.23: real time   63.24
       DOS:  cpu time    0.01: real time    0.01
    CHARGE:  cpu time    4.19: real time    4.19
    MIXING:  cpu time    0.01: real time    0.02
    --------------------------------------------
      LOOP:  cpu time   82.11: real time   82.13

 eigenvalue-minimisations  :  6920
 total energy-change (2. order) : 0.1712367E-04  (-0.1326069E-05)
 number of electron     107.9999995 magnetization 
 augmentation part       -9.4251613 magnetization 

 Broyden mixing:
  rms(total) = 0.57544E-04    rms(broyden)= 0.57537E-04
  rms(prec ) = 0.93043E-04
  weight for this iteration     100.00

 eigenvalues of (default mixing * dielectric matrix)
  average eigenvalue GAMMA=   1.8554
  7.0571  3.7881  2.7797  2.6050  1.9078  1.4919  1.4919  1.1853  1.1853  0.5895
  0.6749  1.0193  1.0193  1.0421  0.9735  0.8755

 Free energy of the ion-electron system (eV)
  ---------------------------------------------------
  alpha Z        PSCENC =        36.80884744
  Ewald energy   TEWEN  =     12013.77968243
  -Hartree energ DENC   =    -15135.82935971
  -exchange      EXHF   =         0.00000000
  -V(xc)+E(xc)   XCENC  =       -79.28611960
  PAW double counting   =      1186.07826000     -865.98401527
  entropy T*S    EENTRO =        -0.02815918
  eigenvalues    EBANDS =      -620.21693518
  atomic energy  EATOM  =      3354.04126044
  ---------------------------------------------------
  free energy    TOTEN  =      -110.63653862 eV

  energy without entropy =     -110.60837943  energy(sigma->0) =     -110.62245903


--------------------------------------------------------------------------------------------------------




----------------------------------------- Iteration    1(  22)  ---------------------------------------


    POTLOK:  cpu time   15.06: real time   15.06
    SETDIJ:  cpu time    0.01: real time    0.01
     EDDAV:  cpu time   58.99: real time   59.01
       DOS:  cpu time    0.01: real time    0.01
    CHARGE:  cpu time    4.24: real time    4.24
    MIXING:  cpu time    0.02: real time    0.02
    --------------------------------------------
      LOOP:  cpu time   78.34: real time   78.35

 eigenvalue-minimisations  :  6104
 total energy-change (2. order) : 0.2296390E-04  (-0.7108001E-06)
 number of electron     107.9999995 magnetization 
 augmentation part       -9.4251597 magnetization 

 Broyden mixing:
  rms(total) = 0.33318E-04    rms(broyden)= 0.33315E-04
  rms(prec ) = 0.54185E-04
  weight for this iteration     100.00

 eigenvalues of (default mixing * dielectric matrix)
  average eigenvalue GAMMA=   1.9179
  7.2420  4.6889  2.9568  2.5620  1.9248  1.9248  1.1879  1.1879  1.3596  1.3596
  0.5895  0.6749  1.0354  1.0354  1.0415  0.9169  0.9169

 Free energy of the ion-electron system (eV)
  ---------------------------------------------------
  alpha Z        PSCENC =        36.80884744
  Ewald energy   TEWEN  =     12013.77968243
  -Hartree energ DENC   =    -15135.84950424
  -exchange      EXHF   =         0.00000000
  -V(xc)+E(xc)   XCENC  =       -79.28614544
  PAW double counting   =      1186.07561647     -865.98132515
  entropy T*S    EENTRO =        -0.02815770
  eigenvalues    EBANDS =      -620.19678991
  atomic energy  EATOM  =      3354.04126044
  ---------------------------------------------------
  free energy    TOTEN  =      -110.63651565 eV

  energy without entropy =     -110.60835796  energy(sigma->0) =     -110.62243681


--------------------------------------------------------------------------------------------------------




----------------------------------------- Iteration    1(  23)  ---------------------------------------


    POTLOK:  cpu time   15.21: real time   15.22
    SETDIJ:  cpu time    0.01: real time    0.01
     EDDAV:  cpu time   65.11: real time   65.13
       DOS:  cpu time    0.01: real time    0.01
    CHARGE:  cpu time    4.30: real time    4.30
    MIXING:  cpu time    0.01: real time    0.02
    --------------------------------------------
      LOOP:  cpu time   84.67: real time   84.69

 eigenvalue-minimisations  :  6624
 total energy-change (2. order) : 0.3605727E-04  (-0.5908720E-06)
 number of electron     107.9999995 magnetization 
 augmentation part       -9.4251586 magnetization 

 Broyden mixing:
[...]
     31      -4.0932      2.00000
     32      -3.9105      2.00000
     33      -3.8336      2.00000
     34      -3.5265      2.00000
     35      -3.4109      2.00000
     36      -3.3618      2.00000
     37      -3.2380      2.00000
     38      -3.0493      2.00000
     39      -2.9758      2.00000
     40      -2.7701      2.00000
     41      -2.7187      2.00000
     42      -2.7089      2.00000
     43      -2.2265      2.00000
     44      -2.1779      2.00000
     45      -2.0705      2.00000
     46      -1.9436      2.00000
     47      -1.9000      2.00000
     48      -1.6468      2.00000
     49      -1.5521      2.00000
     50      -1.2966      2.00000
     51      -1.0645      2.00000
     52      -0.9743      2.00000
     53      -0.2218      2.00000
     54      -0.0346      2.00000
     55       0.7340      0.00008
     56       1.0728      0.00000
     57       1.1442      0.00000
     58       1.3276      0.00000
     59       1.4788      0.00000
     60       1.8755      0.00000
     61       2.1065      0.00000
     62       2.3831      0.00000
     63       2.4329      0.00000
     64       2.5566      0.00000
     65       2.7308      0.00000
     66       2.8612      0.00000
     67       2.9938      0.00000
     68       3.0733      0.00000

 k-point    52 :       0.3077    0.5000    0.5000
  band No.  band energies     occupation 
      1     -14.0202      2.00000
      2     -12.6915      2.00000
      3     -12.3360      2.00000
      4     -12.0136      2.00000
      5     -11.8363      2.00000
      6     -11.6462      2.00000
      7     -11.1950      2.00000
      8     -11.0682      2.00000
      9     -10.9846      2.00000
     10     -10.5710      2.00000
     11     -10.4700      2.00000
     12     -10.0171      2.00000
     13      -9.1008      2.00000
     14      -8.9072      2.00000
     15      -7.9621      2.00000
     16      -7.8311      2.00000
     17      -7.4282      2.00000
     18      -7.2395      2.00000
     19      -7.1527      2.00000
     20      -6.5819      2.00000
     21      -6.3803      2.00000
     22      -6.3500      2.00000
     23      -6.1132      2.00000
     24      -6.0491      2.00000
     25      -5.5331      2.00000
     26      -5.1774      2.00000
     27      -5.0759      2.00000
     28      -4.8547      2.00000
     29      -4.6397      2.00000
     30      -4.4982      2.00000
     31      -4.2511      2.00000
     32      -4.1104      2.00000
     33      -4.0522      2.00000
     34      -3.7466      2.00000
     35      -3.4446      2.00000
     36      -3.3975      2.00000
     37      -3.2579      2.00000
     38      -3.1579      2.00000
     39      -3.0660      2.00000
     40      -2.8921      2.00000
     41      -2.7078      2.00000
     42      -2.6928      2.00000
     43      -2.4298      2.00000
     44      -2.3866      2.00000
     45      -2.1308      2.00000
     46      -2.0457      2.00000
     47      -2.0068      2.00000
     48      -1.9157      2.00000
     49      -1.8746      2.00000
     50      -1.5466      2.00000
     51      -1.2432      2.00000
     52      -1.0353      2.00000
     53      -0.4984      2.00000
     54      -0.3485      2.00000
     55       0.5961      0.04509
     56       0.8896      0.00000
     57       1.1014      0.00000
     58       1.1522      0.00000
     59       1.2823      0.00000
     60       1.8152      0.00000
     61       2.0205      0.00000
     62       2.1003      0.00000
     63       2.2715      0.00000
     64       2.3004      0.00000
     65       2.3909      0.00000
     66       2.5145      0.00000
     67       2.7118      0.00000
     68       2.8024      0.00000

 k-point    53 :       0.3846    0.5000    0.5000
  band No.  band energies     occupation 
      1     -13.6497      2.00000
      2     -12.2147      2.00000
      3     -11.8393      2.00000
      4     -11.6325      2.00000
      5     -11.4412      2.00000
      6     -11.3949      2.00000
      7     -10.9528      2.00000
      8     -10.9044      2.00000
      9     -10.7920      2.00000
     10     -10.6375      2.00000
     11     -10.3647      2.00000
     12      -9.7859      2.00000
     13      -9.0862      2.00000
     14      -9.0409      2.00000
     15      -8.4322      2.00000
     16      -8.0358      2.00000
     17      -7.9372      2.00000
     18      -7.7909      2.00000
     19      -7.5728      2.00000
     20      -6.9823      2.00000
     21      -6.8974      2.00000
     22      -6.8374      2.00000
     23      -6.7743      2.00000
     24      -6.2924      2.00000
     25      -5.4860      2.00000
     26      -5.3712      2.00000
     27      -4.9188      2.00000
     28      -4.8482      2.00000
     29      -4.6732      2.00000
     30      -4.3222      2.00000
     31      -4.2950      2.00000
     32      -4.2104      2.00000
     33      -3.9059      2.00000
     34      -3.8111      2.00000
     35      -3.7036      2.00000
     36      -3.3887      2.00000
     37      -3.3423      2.00000
     38      -3.3018      2.00000
     39      -3.1199      2.00000
     40      -3.0583      2.00000
     41      -2.7496      2.00000
     42      -2.7139      2.00000
     43      -2.5618      2.00000
     44      -2.4542      2.00000
     45      -2.3188      2.00000
     46      -2.2345      2.00000
     47      -2.2298      2.00000
     48      -2.1135      2.00000
     49      -2.0185      2.00000
     50      -1.6526      2.00000
     51      -1.4129      2.00000
     52      -1.1327      2.00000
     53      -0.7204      2.00000
     54      -0.4456      2.00000
     55       0.5081      0.44750
     56       0.7887      0.00000
     57       1.0960      0.00000
     58       1.1822      0.00000
     59       1.3461      0.00000
     60       1.6591      0.00000
     61       1.8008      0.00000
     62       1.9257      0.00000
     63       2.0140      0.00000
     64       2.1028      0.00000
     65       2.1638      0.00000
     66       2.3061      0.00000
     67       2.3894      0.00000
     68       2.5370      0.00000

 k-point    54 :       0.4615    0.5000    0.5000
  band No.  band energies     occupation 
      1     -13.3643      2.00000
      2     -11.6739      2.00000
      3     -11.6211      2.00000
      4     -11.3402      2.00000
      5     -11.1471      2.00000
      6     -11.0231      2.00000
      7     -10.9797      2.00000
      8     -10.8948      2.00000
      9     -10.7998      2.00000
     10     -10.7381      2.00000
     11     -10.5104      2.00000
     12      -9.5866      2.00000
     13      -9.0726      2.00000
     14      -8.8396      2.00000
     15      -8.6243      2.00000
     16      -8.4186      2.00000
     17      -8.2961      2.00000
     18      -7.9397      2.00000
     19      -7.7494      2.00000
     20      -7.4762      2.00000
     21      -7.4126      2.00000
     22      -7.3373      2.00000
     23      -7.1654      2.00000
     24      -6.1830      2.00000
     25      -5.5593      2.00000
     26      -5.1169      2.00000
     27      -4.9914      2.00000
     28      -4.6531      2.00000
     29      -4.4661      2.00000
     30      -4.2847      2.00000
     31      -4.1446      2.00000
     32      -4.1237      2.00000
     33      -3.9497      2.00000
     34      -3.9361      2.00000
     35      -3.7441      2.00000
     36      -3.6087      2.00000
     37      -3.4315      2.00000
     38      -3.2890      2.00000
     39      -3.2190      2.00000
     40      -3.1107      2.00000
     41      -2.9660      2.00000
     42      -2.8690      2.00000
     43      -2.7006      2.00000
     44      -2.5667      2.00000
     45      -2.4631      2.00000
     46      -2.3080      2.00000
     47      -2.2643      2.00000
     48      -2.1597      2.00000
     49      -1.8945      2.00000
     50      -1.6960      2.00000
     51      -1.5041      2.00000
     52      -1.2309      2.00000
     53      -0.8004      2.00000
     54      -0.4591      2.00000
     55       0.4470      1.08400
     56       0.7304      0.00010
     57       1.1658      0.00000
     58       1.2174      0.00000
     59       1.4200      0.00000
     60       1.5160      0.00000
     61       1.6911      0.00000
     62       1.8367      0.00000
     63       1.8891      0.00000
     64       1.9450      0.00000
     65       2.1276      0.00000
     66       2.1975      0.00000
     67       2.3343      0.00000
     68       2.4118      0.00000


--------------------------------------------------------------------------------------------------------


 soft charge-density along one line, spin component           1
         0         1         2         3         4         5         6         7         8         9
 total charge-density along one line
 
 pseudopotential strength for first ion, spin component:           1
 29.829   0.008  -0.001  -0.022  -0.001  -0.000  -0.001   0.000
  0.008   0.009   0.000  -0.000   0.000  -0.000   0.000  -0.000
 -0.001   0.000   6.558  -0.001  -0.000  -0.003   0.000   0.000
 -0.022  -0.000  -0.001   6.553  -0.000   0.000  -0.003   0.000
 -0.001   0.000  -0.000  -0.000   6.559   0.000   0.000  -0.003
 -0.000  -0.000  -0.003   0.000   0.000   0.015  -0.000  -0.000
 -0.001   0.000   0.000  -0.003   0.000  -0.000   0.015   0.000
  0.000  -0.000   0.000   0.000  -0.003  -0.000   0.000   0.015
 total augmentation occupancy for first ion, spin component:           1
  1.805  -0.382   0.005   0.248  -0.001  -0.000   0.110  -0.002
 -0.382   1.247   0.016   0.833  -0.003   0.004  -0.435  -0.000
  0.005   0.016   1.148   0.014   0.000  -0.504   0.011  -0.000
  0.248   0.833   0.014   1.299   0.001   0.011  -0.424  -0.002
 -0.001  -0.003   0.000   0.001   1.150  -0.000  -0.001  -0.530
 -0.000   0.004  -0.504   0.011  -0.000   0.292  -0.014   0.000
  0.110  -0.435   0.011  -0.424  -0.001  -0.014   0.229   0.001
 -0.002  -0.000  -0.000  -0.002  -0.530   0.000   0.001   0.328


------------------------ aborting loop because EDIFF is reached ----------------------------------------


    CHARGE:  cpu time    4.35: real time    4.35
    FORLOC:  cpu time    0.05: real time    0.05
    FORNL :  cpu time   21.60: real time   21.60
    STRESS:  cpu time   67.75: real time   67.76
    FORCOR:  cpu time   15.42: real time   15.42
    FORHAR:  cpu time    0.17: real time    0.17
    MIXING:  cpu time    0.02: real time    0.02
    OFIELD:  cpu time    0.00: real time    0.00

  FORCE on cell =-STRESS in cart. coord.  units (eV):
  Direction    XX          YY          ZZ          XY          YZ          ZX
  --------------------------------------------------------------------------------------
  Alpha Z    36.80885    36.80885    36.80885
  Ewald   14475.03253 13901.18356-16362.44379    44.92272    -1.38594   -64.03943
  Hartree 14969.89039 14573.87761-14407.90387     7.12513     9.84031    -0.83350
  E(xc)    -359.39700  -358.96630  -357.83491    -0.13029     0.37122     0.49263
  Local  -30996.46912-30047.30798 29189.46908   -38.63858   -18.79629    41.93831
  n-local  1176.04246  1168.50982  1172.10697     6.39599    -9.10699   -17.96709
  augment  -203.74393  -204.74782  -205.93727     0.58127    -0.49794    -0.65578
  Kinetic   938.54088   942.60990   978.91597    -1.60845     3.18849     5.84055
  Fock        0.00000     0.00000     0.00000     0.00000     0.00000     0.00000
  -------------------------------------------------------------------------------------
  Total      36.70507    11.96764    43.18103    18.64778   -16.38714   -35.22431
  in kB      58.67190    19.12989    69.02352    29.80789   -26.19433   -56.30496
  external pressure =       48.94 kB  Pullay stress =        0.00 kB


 VOLUME and BASIS-vectors are now :
 -----------------------------------------------------------------------------
  energy-cutoff  :      300.00
  volume of cell :     1002.32
      direct lattice vectors                 reciprocal lattice vectors
     3.540400000  0.000000000  0.000000000     0.282453960  0.048570342  0.000000000
    -1.770200000 10.294348000  0.000000000     0.000000000  0.097140683  0.000000000
     0.000000000  0.000000000 27.501429000     0.000000000  0.000000000  0.036361747

  length of vectors
     3.540400000 10.445439617 27.501429000     0.286599577  0.097140683  0.036361747


 FORCES acting on ions
    electron-ion (+dipol)            ewald-force                    non-local-force                 convergence-correction
 -----------------------------------------------------------------------------------------------
   0.780E-01 0.118E+02 0.315E+02   0.215E-01 -.115E+02 -.272E+02   -.200E-01 -.299E+00 -.437E+01   0.449E-07 0.290E-05 0.241E-05
   0.299E+00 0.127E+02 -.554E+03   -.210E-01 -.126E+02 0.557E+03   -.171E+00 0.355E-01 -.369E+01   0.178E-06 0.300E-05 0.467E-05
   -.487E-02 0.644E+02 0.460E+02   0.850E-04 -.661E+02 -.416E+02   0.509E-02 0.165E+01 -.424E+01   -.288E-07 -.718E-05 0.809E-06
   -.574E+00 0.176E+02 -.525E+03   0.110E+01 -.187E+02 0.529E+03   -.324E+00 0.105E+01 -.360E+01   0.434E-06 -.347E-05 -.354E-05
   -.378E-03 -.576E+02 0.526E+03   0.997E-04 0.592E+02 -.531E+03   0.478E-03 -.154E+01 0.428E+01   0.204E-07 -.249E-05 -.813E-05
   -.875E+01 -.115E+03 -.499E+02   0.947E+01 0.117E+03 0.482E+02   -.888E+00 -.195E+01 0.138E+01   0.684E-06 -.643E-05 -.633E-05
   0.664E-02 0.542E+02 0.526E+03   0.197E-04 -.561E+02 -.530E+03   -.197E-02 0.194E+01 0.416E+01   0.646E-08 0.290E-06 -.619E-05
   0.402E+00 0.111E+03 -.836E+02   -.707E+00 -.114E+03 0.804E+02   -.417E+00 0.313E+01 0.330E+01   0.960E-07 -.204E-05 -.712E-06
   0.391E-03 0.183E+01 0.573E+03   -.910E-04 -.204E+01 -.577E+03   0.130E-02 0.207E+00 0.479E+01   0.943E-08 0.587E-05 -.113E-04
   0.859E+01 0.108E+00 0.194E+02   -.850E+01 -.952E+00 -.207E+02   -.138E+00 0.582E+00 0.109E+01   -.293E-06 0.959E-05 0.186E-05
   -.846E-03 -.671E+02 0.602E+02   -.667E-02 0.690E+02 -.560E+02   0.559E-02 -.194E+01 -.408E+01   -.156E-08 0.418E-05 0.103E-05
   -.104E+01 -.345E+02 -.552E+03   0.898E+00 0.366E+02 0.556E+03   0.498E+00 -.160E+01 -.295E+01   -.587E-06 0.146E-05 -.308E-05
   0.452E-02 0.311E+02 0.208E+03   -.572E-04 -.332E+02 -.208E+03   -.139E-02 0.209E+01 0.293E+00   0.148E-07 -.373E-05 -.968E-06
   0.141E+02 -.435E+02 -.278E+03   -.126E+02 0.442E+02 0.276E+03   -.160E+01 0.611E-01 0.128E+01   -.120E-05 -.613E-05 -.449E-05
   0.855E-02 -.129E+02 0.140E+03   0.242E-02 0.132E+02 -.143E+03   -.756E-02 -.267E+00 0.254E+01   0.111E-07 0.385E-05 -.277E-05
   0.577E+01 0.237E+02 -.341E+03   -.469E+01 -.233E+02 0.338E+03   -.118E+01 -.313E+00 0.297E+01   0.470E-07 0.293E-05 0.542E-05
   -.757E-02 -.537E+01 0.346E+03   0.104E-03 0.580E+01 -.344E+03   0.353E-02 -.451E+00 -.252E+01   0.141E-08 0.186E-05 -.102E-04
   -.498E+02 -.536E+02 -.746E+02   0.582E+02 0.566E+02 0.707E+02   0.296E+02 0.185E+02 -.387E+02   0.100E-05 0.185E-05 -.157E-05
   0.423E-02 0.103E+02 0.335E+03   -.263E-04 -.105E+02 -.333E+03   0.256E-02 0.214E+00 -.238E+01   -.744E-08 0.382E-05 -.721E-05
   -.208E+01 0.537E+02 -.136E+03   0.147E+01 -.575E+02 0.136E+03   0.257E+00 0.117E+01 -.199E+01   0.171E-06 0.832E-05 0.291E-05
   -.925E-01 0.129E+02 0.127E+03   -.128E-02 -.135E+02 -.130E+03   0.807E-01 0.568E+00 0.267E+01   -.282E-07 -.596E-06 -.229E-05
   -.725E-01 0.867E+01 -.296E+03   -.507E-01 -.786E+01 0.295E+03   0.216E+00 -.444E+00 0.923E+00   0.879E-07 0.433E-05 0.360E-05
   0.335E-03 -.320E+02 0.254E+03   -.185E-03 0.342E+02 -.253E+03   0.154E-02 -.215E+01 -.337E+00   -.196E-07 -.199E-05 -.567E-05
   0.440E+02 0.581E+01 -.298E+03   -.446E+02 -.728E+01 0.307E+03   -.367E+02 -.188E+02 0.343E+02   -.120E-05 0.202E-05 0.615E-06
 -----------------------------------------------------------------------------------------------
   0.108E+02 -.143E+01 0.487E+01   -.142E-13 0.497E-13 -.227E-12   -.108E+02 0.143E+01 -.487E+01   -.566E-06 0.222E-04 -.511E-04
 
 
 POSITION                                       TOTAL-FORCE (eV/Angst)
 -----------------------------------------------------------------------------------
      0.00000      2.34757      6.41229         0.079230     -0.016577      0.008127
     -0.88510      9.55362     14.16300         0.107265      0.102261     -0.098517
     -0.00000      9.43147      5.75866         0.000031     -0.016943      0.113961
      0.88510      6.34316     13.50937         0.205676     -0.060850      0.438040
     -0.00000      6.40009      2.31424        -0.000071     -0.010615      0.012907
     -0.00000      6.40009     10.06495        -0.165184     -0.125632     -0.338632
      1.77020     10.27849      2.37372         0.004417      0.017376      0.004503
      1.77020     10.27849     10.12443        -0.722022      0.090547      0.088854
      1.77020      3.18974      1.66157         0.001329     -0.000805      0.003855
      1.77020      3.18974      9.41228        -0.050813     -0.262535     -0.220038
      1.77020      5.55354      5.69975        -0.002193      0.002154      0.108082
      2.65530      2.46524     13.45047         0.353149      0.522616      0.451317
      1.77020      9.05319      4.34076         0.002803      0.009948      0.015580
     -0.88510      5.96488     12.09147        -0.156734      0.685460     -0.302191
      0.00000      4.22380      5.10944         0.003140      0.058503     -0.000458
      0.88510      1.13550     12.86016        -0.102957      0.032479      0.677448
     -0.00000      4.15582      2.74166        -0.004201     -0.012577     -0.022542
     -0.00000      4.15582     10.49237        38.029341     21.562800    -42.590436
      1.77020      1.31366      2.96438         0.006493      0.014487     -0.045269
      1.77020      1.31366     10.71510        -0.353050     -2.579226     -1.439647
      1.77020      1.38163      5.33187        -0.013260     -0.095821      0.046835
      0.88510      8.58767     13.08259         0.092626      0.362074     -0.509595
      1.77020      6.77850      3.73234         0.001418      0.009736     -0.002274
      2.65530      3.69019     11.48306       -37.316433    -20.288858     43.600091
 -----------------------------------------------------------------------------------
    total drift:                                0.006489      0.000183      0.003765


--------------------------------------------------------------------------------------------------------



  FREE ENERGIE OF THE ION-ELECTRON SYSTEM (eV)
  ---------------------------------------------------
  free  energy   TOTEN  =      -110.63639901 eV

  energy  without entropy=     -110.60824078  energy(sigma->0) =     -110.62231990
 


--------------------------------------------------------------------------------------------------------


    POTLOK:  cpu time   15.20: real time   15.20


--------------------------------------------------------------------------------------------------------


     LOOP+:  cpu time 2902.25: real time 2902.90
    4ORBIT:  cpu time    0.00: real time    0.00

 total amount of memory used by VASP on root node   146493. kBytes
========================================================================

   base      :      30000. kBytes
   nonlr-proj:       3452. kBytes
   fftplans  :       9347. kBytes
   grid      :      14649. kBytes
   one-center:         36. kBytes
   wavefun   :      89009. kBytes
 
  
  
 General timing and accounting informations for this job:
 ========================================================
  
                  Total CPU time used (sec):     2919.886
                            User time (sec):     2872.467
                          System time (sec):       47.419
                         Elapsed time (sec):     2921.442
  
                   Maximum memory used (kb):      335044.
                   Average memory used (kb):           0.
  
                          Minor page faults:      8238997
                          Major page faults:            8
                 Voluntary context switches:         1611
