<?xml version="1.0" encoding="ISO-8859-1"?>
<modeling>
 <generator>
  <i name="program" type="string">vasp </i>
  <i name="version" type="string">5.3.5  </i>
  <i name="subversion" type="string">31Mar14 (build Oct 29 2014 16:16:03) complex                          parallel </i>
  <i name="platform" type="string">Linux-UFHPC </i>
  <i name="date" type="string">2016 02 09 </i>
  <i name="time" type="string">17:46:03 </i>
 </generator>
 <incar>
  <i type="string" name="PREC">accurate</i>
  <i type="int" name="IBRION">     2</i>
  <i name="EDIFF">      0.00000100</i>
  <i type="int" name="NSW">     0</i>
  <i type="int" name="ISIF">     3</i>
  <i name="ENCUT">    300.00000000</i>
  <i type="string" name="LREAL"> Auto</i>
  <i type="int" name="ISMEAR">     0</i>
  <i name="SIGMA">      0.10000000</i>
  <i type="logical" name="LWAVE"> F  </i>
  <i type="logical" name="LCHARG"> F  </i>
  <i type="logical" name="LAECHG"> F  </i>
  <i type="string" name="GGA"> Bo</i>
  <i name="PARAM1">      0.18333333</i>
  <i name="PARAM2">      0.22000000</i>
  <i type="logical" name="LUSE_VDW"> T  </i>
  <i name="AGGAC">      0.00000000</i>
 </incar>
 <kpoints>
  <generation param="Gamma">
   <v type="int" name="divisions">      13        4        2 </v>
   <v name="usershift">      0.00000000       0.00000000       0.00000000 </v>
   <v name="genvec1">      0.07692308      -0.00000000       0.00000000 </v>
   <v name="genvec2">      0.00000000       0.25000000       0.00000000 </v>
   <v name="genvec3">      0.00000000       0.00000000       0.50000000 </v>
   <v name="shift">      0.00000000       0.00000000       0.00000000 </v>
  </generation>
  <varray name="kpointlist" >
   <v>       0.00000000       0.00000000       0.00000000 </v>
   <v>       0.07692308      -0.00000000       0.00000000 </v>
   <v>       0.15384615      -0.00000000       0.00000000 </v>
   <v>       0.23076923      -0.00000000       0.00000000 </v>
   <v>       0.30769231      -0.00000000       0.00000000 </v>
   <v>       0.38461538      -0.00000000       0.00000000 </v>
   <v>       0.46153846      -0.00000000       0.00000000 </v>
   <v>       0.00000000       0.25000000       0.00000000 </v>
   <v>       0.07692308       0.25000000       0.00000000 </v>
   <v>       0.15384615       0.25000000       0.00000000 </v>
   <v>       0.23076923       0.25000000       0.00000000 </v>
   <v>       0.30769231       0.25000000       0.00000000 </v>
   <v>       0.38461538       0.25000000       0.00000000 </v>
   <v>       0.46153846       0.25000000       0.00000000 </v>
   <v>      -0.46153846       0.25000000       0.00000000 </v>
   <v>      -0.38461538       0.25000000       0.00000000 </v>
   <v>      -0.30769231       0.25000000       0.00000000 </v>
   <v>      -0.23076923       0.25000000       0.00000000 </v>
   <v>      -0.15384615       0.25000000       0.00000000 </v>
   <v>      -0.07692308       0.25000000       0.00000000 </v>
   <v>       0.00000000       0.50000000       0.00000000 </v>
   <v>       0.07692308       0.50000000       0.00000000 </v>
   <v>       0.15384615       0.50000000       0.00000000 </v>
   <v>       0.23076923       0.50000000       0.00000000 </v>
   <v>       0.30769231       0.50000000       0.00000000 </v>
   <v>       0.38461538       0.50000000       0.00000000 </v>
   <v>       0.46153846       0.50000000       0.00000000 </v>
   <v>       0.00000000       0.00000000       0.50000000 </v>
   <v>       0.07692308      -0.00000000       0.50000000 </v>
   <v>       0.15384615      -0.00000000       0.50000000 </v>
   <v>       0.23076923      -0.00000000       0.50000000 </v>
   <v>       0.30769231      -0.00000000       0.50000000 </v>
   <v>       0.38461538      -0.00000000       0.50000000 </v>
   <v>       0.46153846      -0.00000000       0.50000000 </v>
   <v>       0.00000000       0.25000000       0.50000000 </v>
   <v>       0.07692308       0.25000000       0.50000000 </v>
   <v>       0.15384615       0.25000000       0.50000000 </v>
   <v>       0.23076923       0.25000000       0.50000000 </v>
   <v>       0.30769231       0.25000000       0.50000000 </v>
   <v>       0.38461538       0.25000000       0.50000000 </v>
   <v>       0.46153846       0.25000000       0.50000000 </v>
   <v>      -0.46153846       0.25000000       0.50000000 </v>
   <v>      -0.38461538       0.25000000       0.50000000 </v>
   <v>      -0.30769231       0.25000000       0.50000000 </v>
   <v>      -0.23076923       0.25000000       0.50000000 </v>
   <v>      -0.15384615       0.25000000       0.50000000 </v>
   <v>      -0.07692308       0.25000000       0.50000000 </v>
   <v>       0.00000000       0.50000000       0.50000000 </v>
   <v>       0.07692308       0.50000000       0.50000000 </v>
   <v>       0.15384615       0.50000000       0.50000000 </v>
   <v>       0.23076923       0.50000000       0.50000000 </v>
   <v>       0.30769231       0.50000000       0.50000000 </v>
   <v>       0.38461538       0.50000000       0.50000000 </v>
   <v>       0.46153846       0.50000000       0.50000000 </v>
  </varray>
  <varray name="weights" >
   <v>       0.00961538 </v>
   <v>       0.01923077 </v>
   <v>       0.01923077 </v>
   <v>       0.01923077 </v>
   <v>       0.01923077 </v>
   <v>       0.01923077 </v>
   <v>       0.01923077 </v>
   <v>       0.01923077 </v>
   <v>       0.01923077 </v>
   <v>       0.01923077 </v>
   <v>       0.01923077 </v>
   <v>       0.01923077 </v>
   <v>       0.01923077 </v>
   <v>       0.01923077 </v>
   <v>       0.01923077 </v>
   <v>       0.01923077 </v>
   <v>       0.01923077 </v>
   <v>       0.01923077 </v>
   <v>       0.01923077 </v>
   <v>       0.01923077 </v>
   <v>       0.00961538 </v>
   <v>       0.01923077 </v>
   <v>       0.01923077 </v>
   <v>       0.01923077 </v>
   <v>       0.01923077 </v>
   <v>       0.01923077 </v>
   <v>       0.01923077 </v>
   <v>       0.00961538 </v>
   <v>       0.01923077 </v>
   <v>       0.01923077 </v>
   <v>       0.01923077 </v>
   <v>       0.01923077 </v>
   <v>       0.01923077 </v>
   <v>       0.01923077 </v>
   <v>       0.01923077 </v>
   <v>       0.01923077 </v>
   <v>       0.01923077 </v>
   <v>       0.01923077 </v>
   <v>       0.01923077 </v>
   <v>       0.01923077 </v>
   <v>       0.01923077 </v>
   <v>       0.01923077 </v>
   <v>       0.01923077 </v>
   <v>       0.01923077 </v>
   <v>       0.01923077 </v>
   <v>       0.01923077 </v>
   <v>       0.01923077 </v>
   <v>       0.00961538 </v>
   <v>       0.01923077 </v>
   <v>       0.01923077 </v>
   <v>       0.01923077 </v>
   <v>       0.01923077 </v>
   <v>       0.01923077 </v>
   <v>       0.01923077 </v>
  </varray>
 </kpoints>
 <parameters>
  <separator name="general" >
   <i type="string" name="SYSTEM">unknown system</i>
   <i type="logical" name="LCOMPAT"> F  </i>
  </separator>
  <separator name="electronic" >
   <i type="string" name="PREC">accura</i>
   <i name="ENMAX">    300.00000000</i>
   <i name="ENAUG">    342.92400000</i>
   <i name="EDIFF">      0.00000100</i>
   <i type="int" name="IALGO">    38</i>
   <i type="int" name="IWAVPR">    10</i>
   <i type="int" name="NBANDS">    68</i>
   <i name="NELECT">    108.00000000</i>
   <i type="int" name="TURBO">     0</i>
   <i type="int" name="IRESTART">     0</i>
   <i type="int" name="NREBOOT">     0</i>
   <i type="int" name="NMIN">     0</i>
   <i name="EREF">      0.00000000</i>
   <separator name="electronic smearing" >
    <i type="int" name="ISMEAR">     0</i>
    <i name="SIGMA">      0.10000000</i>
    <i name="KSPACING">      0.50000000</i>
    <i type="logical" name="KGAMMA"> T  </i>
   </separator>
   <separator name="electronic projectors" >
    <i type="logical" name="LREAL"> T  </i>
    <v name="ROPT">     -0.00025000     -0.00025000</v>
    <i type="int" name="LMAXPAW">  -100</i>
    <i type="int" name="LMAXMIX">     2</i>
    <i type="logical" name="NLSPLINE"> F  </i>
   </separator>
   <separator name="electronic startup" >
    <i type="int" name="ISTART">     0</i>
    <i type="int" name="ICHARG">     2</i>
    <i type="int" name="INIWAV">     1</i>
   </separator>
   <separator name="electronic spin" >
    <i type="int" name="ISPIN">     1</i>
    <i type="logical" name="LNONCOLLINEAR"> F  </i>
    <v name="MAGMOM">      1.00000000      1.00000000      1.00000000      1.00000000      1.00000000      1.00000000      1.00000000      1.00000000      1.00000000      1.00000000      1.00000000      1.00000000      1.00000000      1.00000000      1.00000000      1.00000000      1.00000000      1.00000000      1.00000000      1.00000000
      1.00000000      1.00000000      1.00000000      1.00000000</v>
    <i name="NUPDOWN">     -1.00000000</i>
    <i type="logical" name="LSORBIT"> F  </i>
    <v name="SAXIS">      0.00000000      0.00000000      1.00000000</v>
    <i type="logical" name="LSPIRAL"> F  </i>
    <v name="QSPIRAL">      0.00000000      0.00000000      0.00000000</v>
    <i type="logical" name="LZEROZ"> F  </i>
   </separator>
   <separator name="electronic exchange-correlation" >
    <i type="logical" name="LASPH"> F  </i>
    <i type="logical" name="LMETAGGA"> F  </i>
   </separator>
   <separator name="electronic convergence" >
    <i type="int" name="NELM">    60</i>
    <i type="int" name="NELMDL">    -5</i>
    <i type="int" name="NELMIN">     2</i>
    <i name="ENINI">    300.00000000</i>
    <separator name="electronic convergence detail" >
     <i type="logical" name="LDIAG"> T  </i>
     <i type="logical" name="LSUBROT"> F  </i>
     <i name="WEIMIN">      0.00000000</i>
     <i name="EBREAK">      0.00000000</i>
     <i name="DEPER">      0.30000000</i>
     <i type="int" name="NRMM">     4</i>
     <i name="TIME">      0.40000000</i>
    </separator>
   </separator>
   <separator name="electronic mixer" >
    <i name="AMIX">      0.40000000</i>
    <i name="BMIX">      1.00000000</i>
    <i name="AMIN">      0.10000000</i>
    <i name="AMIX_MAG">      1.60000000</i>
    <i name="BMIX_MAG">      1.00000000</i>
    <separator name="electronic mixer details" >
     <i type="int" name="IMIX">     4</i>
     <i type="int" name="MAXMIX">   -45</i>
     <i name="WC">    100.00000000</i>
     <i type="int" name="INIMIX">     1</i>
     <i type="int" name="MIXPRE">     1</i>
     <i type="int" name="MREMOVE">     5</i>
    </separator>
   </separator>
   <separator name="electronic dipolcorrection" >
    <i type="logical" name="LDIPOL"> F  </i>
    <i type="logical" name="LMONO"> F  </i>
    <i type="int" name="IDIPOL">     0</i>
    <i name="EPSILON">      1.00000000</i>
    <v name="DIPOL">   -100.00000000   -100.00000000   -100.00000000</v>
    <i name="EFIELD">      0.00000000</i>
   </separator>
  </separator>
  <separator name="grids" >
   <i type="int" name="NGX">    20</i>
   <i type="int" name="NGY">    60</i>
   <i type="int" name="NGZ">   160</i>
   <i type="int" name="NGXF">    40</i>
   <i type="int" name="NGYF">   120</i>
   <i type="int" name="NGZF">   320</i>
   <i type="logical" name="ADDGRID"> F  </i>
  </separator>
  <separator name="ionic" >
   <i type="int" name="NSW">     0</i>
   <i type="int" name="IBRION">    -1</i>
   <i type="int" name="ISIF">     3</i>
   <i name="PSTRESS">      0.00000000</i>
   <i name="EDIFFG">      0.00001000</i>
   <i type="int" name="NFREE">     1</i>
   <i name="POTIM">      0.50000000</i>
   <i name="SMASS">     -3.00000000</i>
   <i name="SCALEE">      1.00000000</i>
  </separator>
  <separator name="ionic md" >
   <i name="TEBEG">      0.00010000</i>
   <i name="TEEND">      0.00010000</i>
   <i type="int" name="NBLOCK">     1</i>
   <i type="int" name="KBLOCK">     1</i>
   <i type="int" name="NPACO">   256</i>
   <i name="APACO">     16.00000000</i>
  </separator>
  <separator name="symmetry" >
   <i type="int" name="ISYM">     2</i>
   <i name="SYMPREC">      0.00001000</i>
  </separator>
  <separator name="dos" >
   <i type="logical" name="LORBIT"> F  </i>
   <v name="RWIGS">     -1.00000000     -1.00000000</v>
   <i type="int" name="NEDOS">   301</i>
   <i name="EMIN">     10.00000000</i>
   <i name="EMAX">    -10.00000000</i>
   <i name="EFERMI">      0.00000000</i>
  </separator>
  <separator name="writing" >
   <i type="int" name="NWRITE">     2</i>
   <i type="logical" name="LWAVE"> F  </i>
   <i type="logical" name="LCHARG"> F  </i>
   <i type="logical" name="LPARD"> F  </i>
   <i type="logical" name="LVTOT"> F  </i>
   <i type="logical" name="LVHAR"> F  </i>
   <i type="logical" name="LELF"> F  </i>
   <i type="logical" name="LOPTICS"> F  </i>
   <v name="STM">      0.00000000      0.00000000      0.00000000      0.00000000      0.00000000      0.00000000      0.00000000</v>
  </separator>
  <separator name="performance" >
   <i type="int" name="NPAR">     4</i>
   <i type="int" name="NSIM">     4</i>
   <i type="int" name="NBLK">    -1</i>
   <i type="logical" name="LPLANE"> T  </i>
   <i type="logical" name="LSCALAPACK"> T  </i>
   <i type="logical" name="LSCAAWARE"> F  </i>
   <i type="logical" name="LSCALU"> F  </i>
   <i type="logical" name="LASYNC"> F  </i>
   <i type="logical" name="LORBITALREAL"> F  </i>
  </separator>
  <separator name="miscellaneous" >
   <i type="int" name="IDIOT">     3</i>
   <i type="logical" name="LMUSIC"> F  </i>
   <v name="POMASS">     30.97400000     28.08500000</v>
   <v name="DARWINR">      0.00000000      0.00000000</v>
   <v name="DARWINV">      1.00000000      1.00000000</v>
   <i type="logical" name="LCORR"> T  </i>
  </separator>
  <i type="logical" name="GGA_COMPAT"> T  </i>
  <i type="logical" name="LBERRY"> F  </i>
  <i type="int" name="ICORELEVEL">     0</i>
  <i type="logical" name="LDAU"> F  </i>
  <i type="int" name="I_CONSTRAINED_M">     0</i>
  <separator name="electronic exchange-correlation" >
   <i type="string" name="GGA">BO</i>
   <i type="int" name="VOSKOWN">     0</i>
   <i type="logical" name="LHFCALC"> F  </i>
   <i type="string" name="PRECFOCK"></i>
   <i type="logical" name="LSYMGRAD"> F  </i>
   <i type="logical" name="LHFONE"> F  </i>
   <i type="logical" name="LRHFCALC"> F  </i>
   <i type="logical" name="LTHOMAS"> F  </i>
   <i type="logical" name="LMODELHF"> F  </i>
   <i name="ENCUT4O">     -1.00000000</i>
   <i type="int" name="EXXOEP">     0</i>
   <i type="int" name="FOURORBIT">     0</i>
   <i name="AEXX">      0.00000000</i>
   <i name="HFALPHA">      0.00000000</i>
   <i name="MCALPHA">      0.00000000</i>
   <i name="ALDAX">      1.00000000</i>
   <i name="AGGAX">      1.00000000</i>
   <i name="ALDAC">      1.00000000</i>
   <i name="AGGAC">      0.00000000</i>
   <i type="int" name="NKREDX">     1</i>
   <i type="int" name="NKREDY">     1</i>
   <i type="int" name="NKREDZ">     1</i>
   <i type="logical" name="SHIFTRED"> F  </i>
   <i type="logical" name="ODDONLY"> F  </i>
   <i type="logical" name="EVENONLY"> F  </i>
   <i type="int" name="LMAXFOCK">     0</i>
   <i type="int" name="NMAXFOCKAE">     0</i>
   <i type="logical" name="LFOCKAEDFT"> F  </i>
   <i name="HFSCREEN">      0.00000000</i>
   <i name="HFSCREENC">      0.00000000</i>
   <i type="int" name="NBANDSGWLOW">     0</i>
  </separator>
  <separator name="vdW DFT" >
   <i type="logical" name="LUSE_VDW"> T  </i>
   <i name="Zab_VDW">     -0.84910000</i>
   <i name="PARAM1">      0.18333333</i>
   <i name="PARAM2">      0.22000000</i>
   <i name="PARAM3">      0.00000000</i>
  </separator>
  <separator name="model GW" >
   <i type="int" name="MODEL_GW">     0</i>
   <i name="MODEL_EPS0">     25.05800243</i>
   <i name="MODEL_ALPHA">      1.00000000</i>
  </separator>
  <separator name="linear response parameters" >
   <i type="logical" name="LEPSILON"> F  </i>
   <i type="logical" name="LRPA"> F  </i>
   <i type="logical" name="LNABLA"> F  </i>
   <i type="logical" name="LVEL"> F  </i>
   <i type="int" name="KINTER">     0</i>
   <i name="CSHIFT">      0.10000000</i>
   <i name="OMEGAMAX">     -1.00000000</i>
   <i name="DEG_THRESHOLD">      0.00200000</i>
  </separator>
  <separator name="orbital magnetization" >
   <i type="logical" name="NUCIND"> F  </i>
   <v name="MAGPOS">      0.00000000      0.00000000      0.00000000</v>
   <i type="logical" name="LNICSALL"> T  </i>
   <i type="logical" name="ORBITALMAG"> F  </i>
   <i type="logical" name="LMAGBLOCH"> F  </i>
   <i type="logical" name="LCHIMAG"> F  </i>
   <i type="logical" name="LGAUGE"> T  </i>
   <i type="int" name="MAGATOM">     0</i>
   <v name="MAGDIPOL">      0.00000000      0.00000000      0.00000000</v>
   <v name="AVECCONST">      0.00000000      0.00000000      0.00000000</v>
  </separator>
  <separator name="response functions" >
   <i type="logical" name="LADDER"> F  </i>
   <i type="logical" name="LFXC"> F  </i>
   <i type="logical" name="LHARTREE"> T  </i>
   <i type="int" name="IBSE">     0</i>
   <i type="logical" name="LTCTE"> F  </i>
   <i type="logical" name="LTETE"> F  </i>
   <i type="logical" name="LTRIPLET"> F  </i>
   <i type="logical" name="LFXCEPS"> F  </i>
   <i type="logical" name="LFXHEG"> F  </i>
   <i type="logical" name="L2ORDER"> F  </i>
   <i type="logical" name="LUSEW"> F  </i>
   <i name="ENCUTGW">     -2.00000000</i>
   <i name="ENCUTGWSOFT">     -2.00000000</i>
   <i name="ENCUTLF">     -1.00000000</i>
   <i type="int" name="LMAXMP2">    -1</i>
   <i name="SCISSOR">      0.00000000</i>
   <i type="int" name="NOMEGA">     0</i>
   <i type="int" name="NOMEGAR">     0</i>
   <i type="int" name="NBANDSGW">    -1</i>
   <i type="int" name="NBANDSO">    -1</i>
   <i type="int" name="NBANDSV">    -1</i>
   <i type="int" name="NELM">     1</i>
   <i type="int" name="DIM">     3</i>
   <i type="int" name="ANTIRES">     0</i>
   <i name="OMEGAMAX">    -30.00000000</i>
   <i name="OMEGAMIN">    -30.00000000</i>
   <i name="OMEGATL">   -200.00000000</i>
   <i type="int" name="OMEGAGRID">     0</i>
   <i name="CSHIFT">     -0.10000000</i>
   <i type="logical" name="SELFENERGY"> F  </i>
   <i type="logical" name="LSPECTRAL"> F  </i>
   <i type="logical" name="ODDONLYGW"> F  </i>
   <i type="logical" name="EVENONLYGW"> F  </i>
   <i type="int" name="NKREDLFX">     1</i>
   <i type="int" name="NKREDLFY">     1</i>
   <i type="int" name="NKREDLFZ">     1</i>
   <i type="int" name="MAXMEM">  1800</i>
   <i type="int" name="TELESCOPE">     0</i>
   <i type="int" name="TAUPAR">     1</i>
  </separator>
  <separator name="External order field" >
   <i name="OFIELD_KAPPA">      0.00000000</i>
   <v name="OFIELD_K">      0.00000000      0.00000000      0.00000000</v>
   <i name="OFIELD_Q6_NEAR">      0.00000000</i>
   <i name="OFIELD_Q6_FAR">      0.00000000</i>
   <i name="OFIELD_A">      0.00000000</i>
  </separator>
 </parameters>
 <atominfo>
  <atoms>      24 </atoms>
  <types>       2 </types>
  <array name="atoms" >
   <dimension dim="1">ion</dimension>
   <field type="string">element</field>
   <field type="int">atomtype</field>
   <set>
    <rc><c>P </c><c>   1</c></rc>
    <rc><c>P </c><c>   1</c></rc>
    <rc><c>P </c><c>   1</c></rc>
    <rc><c>P </c><c>   1</c></rc>
    <rc><c>P </c><c>   1</c></rc>
    <rc><c>P </c><c>   1</c></rc>
    <rc><c>P </c><c>   1</c></rc>
    <rc><c>P </c><c>   1</c></rc>
    <rc><c>P </c><c>   1</c></rc>
    <rc><c>P </c><c>   1</c></rc>
    <rc><c>P </c><c>   1</c></rc>
    <rc><c>P </c><c>   1</c></rc>
    <rc><c>Si</c><c>   2</c></rc>
    <rc><c>Si</c><c>   2</c></rc>
    <rc><c>Si</c><c>   2</c></rc>
    <rc><c>Si</c><c>   2</c></rc>
    <rc><c>Si</c><c>   2</c></rc>
    <rc><c>Si</c><c>   2</c></rc>
    <rc><c>Si</c><c>   2</c></rc>
    <rc><c>Si</c><c>   2</c></rc>
    <rc><c>Si</c><c>   2</c></rc>
    <rc><c>Si</c><c>   2</c></rc>
    <rc><c>Si</c><c>   2</c></rc>
    <rc><c>Si</c><c>   2</c></rc>
   </set>
  </array>
  <array name="atomtypes" >
   <dimension dim="1">type</dimension>
   <field type="int">atomspertype</field>
   <field type="string">element</field>
   <field>mass</field>
   <field>valence</field>
   <field type="string">pseudopotential</field>
   <set>
    <rc><c>  12</c><c>P </c><c>     30.97400000</c><c>      5.00000000</c><c>  PAW_PBE P 17Jan2003                   </c></rc>
    <rc><c>  12</c><c>Si</c><c>     28.08500000</c><c>      4.00000000</c><c> PAW_PBE Si 05Jan2001                   </c></rc>
   </set>
  </array>
 </atominfo>
 <structure name="initialpos" >
  <crystal>
   <varray name="basis" >
    <v>       3.54040000       0.00000000       0.00000000 </v>
    <v>      -1.77020000      10.29434800       0.00000000 </v>
    <v>       0.00000000       0.00000000      27.50142900 </v>
   </varray>
   <i name="volume">   1002.32009712 </i>
   <varray name="rec_basis" >
    <v>       0.28245396       0.04857034       0.00000000 </v>
    <v>       0.00000000       0.09714068       0.00000000 </v>
    <v>       0.00000000       0.00000000       0.03636175 </v>
   </varray>
  </crystal>
  <varray name="positions" >
   <v>       0.11402300       0.22804500       0.23316207 </v>
   <v>       0.41402300       0.82804500       0.51499159 </v>
   <v>       0.45808900       0.91617900       0.20939482 </v>
   <v>       0.75808900       0.51617900       0.49122434 </v>
   <v>       0.31085400       0.62170900       0.08414979 </v>
   <v>       0.31085400       0.62170900       0.36597930 </v>
   <v>       0.99923000       0.99846000       0.08631254 </v>
   <v>       0.99923000       0.99846000       0.36814206 </v>
   <v>       0.65492700       0.30985400       0.06041748 </v>
   <v>       0.65492700       0.30985400       0.34224700 </v>
   <v>       0.76973800       0.53947500       0.20725292 </v>
   <v>       0.06973800       0.13947500       0.48908244 </v>
   <v>       0.93971600       0.87943300       0.15783749 </v>
   <v>       0.23971600       0.47943300       0.43966701 </v>
   <v>       0.20515200       0.41030300       0.18578822 </v>
   <v>       0.50515200       0.01030300       0.46761774 </v>
   <v>       0.20184900       0.40369900       0.09969156 </v>
   <v>       0.20184900       0.40369900       0.38152107 </v>
   <v>       0.56380500       0.12761000       0.10779021 </v>
   <v>       0.56380500       0.12761000       0.38961973 </v>
   <v>       0.56710600       0.13421200       0.19387616 </v>
   <v>       0.86710600       0.73421200       0.47570568 </v>
   <v>       0.82923400       0.65846800       0.13571444 </v>
   <v>       0.12923400       0.25846800       0.41754396 </v>
  </varray>
 </structure>
 <calculation>
  <scstep>
   <time name="dav">   75.03   75.05</time>
   <time name="total">   90.45   90.52</time>
   <energy>
    <i name="alphaZ">     36.80884744 </i>
    <i name="ewald">  12027.42213322 </i>
    <i name="hartreedc"> -15057.49117897 </i>
    <i name="XCdc">    -86.95561971 </i>
    <i name="pawpsdc">   1056.43050070 </i>
    <i name="pawaedc">   -732.41190547 </i>
    <i name="eentropy">     -0.04270125 </i>
    <i name="bandstr">    -96.56264365 </i>
    <i name="atom">   3354.04126044 </i>
    <i name="e_fr_energy">    501.23869276 </i>
    <i name="e_wo_entrp">    501.28139401 </i>
    <i name="e_0_energy">    501.26004338 </i>
   </energy>
  </scstep>
  <scstep>
   <time name="dav">   92.84   92.87</time>
   <time name="total">   92.86   92.89</time>
   <energy>
    <i name="e_fr_energy">    -61.62098775 </i>
    <i name="e_wo_entrp">    -61.59281700 </i>
    <i name="e_0_energy">    -61.60690237 </i>
   </energy>
  </scstep>
  <scstep>
   <time name="dav">   84.28   84.30</time>
   <time name="total">   84.32   84.34</time>
   <energy>
    <i name="e_fr_energy">   -118.08542711 </i>
    <i name="e_wo_entrp">   -118.06694657 </i>
    <i name="e_0_energy">   -118.07618684 </i>
   </energy>
  </scstep>
  <scstep>
   <time name="dav">   99.12   99.15</time>
   <time name="total">   99.13   99.16</time>
   <energy>
    <i name="e_fr_energy">   -120.67711958 </i>
    <i name="e_wo_entrp">   -120.65736107 </i>
    <i name="e_0_energy">   -120.66724032 </i>
   </energy>
  </scstep>
  <scstep>
   <time name="dav">   92.47   92.50</time>
   <time name="total">   97.29   97.32</time>
   <energy>
    <i name="e_fr_energy">   -120.74430175 </i>
    <i name="e_wo_entrp">   -120.72439318 </i>
    <i name="e_0_energy">   -120.73434747 </i>
   </energy>
  </scstep>
  <scstep>
   <time name="dav">   84.34   84.37</time>
   <time name="total">  102.88  102.91</time>
   <energy>
    <i name="e_fr_energy">   -117.71809564 </i>
    <i name="e_wo_entrp">   -117.67764772 </i>
    <i name="e_0_energy">   -117.69787168 </i>
   </energy>
  </scstep>
  <scstep>
   <time name="dav">   82.59   82.61</time>
   <time name="total">  101.06  101.09</time>
   <energy>
    <i name="e_fr_energy">   -117.59630239 </i>
    <i name="e_wo_entrp">   -117.57561502 </i>
    <i name="e_0_energy">   -117.58595870 </i>
   </energy>
  </scstep>
  <scstep>
   <time name="dav">   81.37   81.40</time>
   <time name="total">   99.84   99.87</time>
   <energy>
    <i name="e_fr_energy">   -117.34552017 </i>
    <i name="e_wo_entrp">   -117.30712072 </i>
    <i name="e_0_energy">   -117.32632045 </i>
   </energy>
  </scstep>
  <scstep>
   <time name="dav">   81.84   81.86</time>
   <time name="total">  100.09  100.13</time>
   <energy>
    <i name="e_fr_energy">   -117.36953790 </i>
    <i name="e_wo_entrp">   -117.32971684 </i>
    <i name="e_0_energy">   -117.34962737 </i>
   </energy>
  </scstep>
  <scstep>
   <time name="dav">   77.64   77.66</time>
   <time name="total">   94.13   94.16</time>
   <energy>
    <i name="e_fr_energy">   -117.34298714 </i>
    <i name="e_wo_entrp">   -117.30339357 </i>
    <i name="e_0_energy">   -117.32319035 </i>
   </energy>
  </scstep>
  <scstep>
   <time name="dav">   75.06   75.08</time>
   <time name="total">   91.56   91.58</time>
   <energy>
    <i name="e_fr_energy">   -117.32781205 </i>
    <i name="e_wo_entrp">   -117.28949733 </i>
    <i name="e_0_energy">   -117.30865469 </i>
   </energy>
  </scstep>
  <scstep>
   <time name="dav">   82.19   82.21</time>
   <time name="total">   99.52   99.55</time>
   <energy>
    <i name="e_fr_energy">   -117.32388321 </i>
    <i name="e_wo_entrp">   -117.28474831 </i>
    <i name="e_0_energy">   -117.30431576 </i>
   </energy>
  </scstep>
  <scstep>
   <time name="dav">   79.98   80.00</time>
   <time name="total">   97.16   97.19</time>
   <energy>
    <i name="e_fr_energy">   -117.32001724 </i>
    <i name="e_wo_entrp">   -117.28079521 </i>
    <i name="e_0_energy">   -117.30040623 </i>
   </energy>
  </scstep>
  <scstep>
   <time name="dav">   79.76   79.79</time>
   <time name="total">   96.57   96.60</time>
   <energy>
    <i name="e_fr_energy">   -117.31582754 </i>
    <i name="e_wo_entrp">   -117.27681845 </i>
    <i name="e_0_energy">   -117.29632300 </i>
   </energy>
  </scstep>
  <scstep>
   <time name="dav">   87.18   87.20</time>
   <time name="total">  104.19  104.23</time>
   <energy>
    <i name="e_fr_energy">   -117.31433385 </i>
    <i name="e_wo_entrp">   -117.27522617 </i>
    <i name="e_0_energy">   -117.29478001 </i>
   </energy>
  </scstep>
  <scstep>
   <time name="dav">   83.22   83.25</time>
   <time name="total">   99.94   99.97</time>
   <energy>
    <i name="e_fr_energy">   -117.31354656 </i>
    <i name="e_wo_entrp">   -117.27441927 </i>
    <i name="e_0_energy">   -117.29398291 </i>
   </energy>
  </scstep>
  <scstep>
   <time name="dav">   70.55   70.57</time>
   <time name="total">   87.85   87.88</time>
   <energy>
    <i name="e_fr_energy">   -117.31366425 </i>
    <i name="e_wo_entrp">   -117.27453957 </i>
    <i name="e_0_energy">   -117.29410191 </i>
   </energy>
  </scstep>
  <scstep>
   <time name="dav">   75.21   75.23</time>
   <time name="total">   93.81   93.84</time>
   <energy>
    <i name="e_fr_energy">   -117.31411441 </i>
    <i name="e_wo_entrp">   -117.27500501 </i>
    <i name="e_0_energy">   -117.29455971 </i>
   </energy>
  </scstep>
  <scstep>
   <time name="dav">   71.05   71.07</time>
   <time name="total">   89.77   89.80</time>
   <energy>
    <i name="e_fr_energy">   -117.31436175 </i>
    <i name="e_wo_entrp">   -117.27524353 </i>
    <i name="e_0_energy">   -117.29480264 </i>
   </energy>
  </scstep>
  <scstep>
   <time name="dav">   68.82   68.84</time>
   <time name="total">   87.58   87.61</time>
   <energy>
    <i name="e_fr_energy">   -117.31445093 </i>
    <i name="e_wo_entrp">   -117.27533324 </i>
    <i name="e_0_energy">   -117.29489209 </i>
   </energy>
  </scstep>
  <scstep>
   <time name="dav">   65.12   65.14</time>
   <time name="total">   83.82   83.85</time>
   <energy>
    <i name="e_fr_energy">   -117.31448579 </i>
    <i name="e_wo_entrp">   -117.27536707 </i>
    <i name="e_0_energy">   -117.29492643 </i>
   </energy>
  </scstep>
  <scstep>
   <time name="dav">   66.17   66.19</time>
   <time name="total">   84.73   84.76</time>
   <energy>
    <i name="e_fr_energy">   -117.31444591 </i>
    <i name="e_wo_entrp">   -117.27533117 </i>
    <i name="e_0_energy">   -117.29488854 </i>
   </energy>
  </scstep>
  <scstep>
   <time name="dav">   59.68   59.70</time>
   <time name="total">   77.66   77.68</time>
   <energy>
    <i name="e_fr_energy">   -117.31441760 </i>
    <i name="e_wo_entrp">   -117.27530124 </i>
    <i name="e_0_energy">   -117.29485942 </i>
   </energy>
  </scstep>
  <scstep>
   <time name="dav">   56.29   56.31</time>
   <time name="total">   74.41   74.44</time>
   <energy>
    <i name="e_fr_energy">   -117.31435770 </i>
    <i name="e_wo_entrp">   -117.27524081 </i>
    <i name="e_0_energy">   -117.29479925 </i>
   </energy>
  </scstep>
  <scstep>
   <time name="dav">   63.44   63.46</time>
   <time name="total">   81.38   81.40</time>
   <energy>
    <i name="e_fr_energy">   -117.31433956 </i>
    <i name="e_wo_entrp">   -117.27522282 </i>
    <i name="e_0_energy">   -117.29478119 </i>
   </energy>
  </scstep>
  <scstep>
   <time name="dav">   66.07   66.09</time>
   <time name="total">   84.65   84.68</time>
   <energy>
    <i name="e_fr_energy">   -117.31432588 </i>
    <i name="e_wo_entrp">   -117.27520923 </i>
    <i name="e_0_energy">   -117.29476755 </i>
   </energy>
  </scstep>
  <scstep>
   <time name="dav">   69.10   69.12</time>
   <time name="total">   87.75   87.78</time>
   <energy>
    <i name="e_fr_energy">   -117.31432747 </i>
    <i name="e_wo_entrp">   -117.27521076 </i>
    <i name="e_0_energy">   -117.29476911 </i>
   </energy>
  </scstep>
  <scstep>
   <time name="dav">   62.45   62.47</time>
   <time name="total">   81.31   81.33</time>
   <energy>
    <i name="e_fr_energy">   -117.31433124 </i>
    <i name="e_wo_entrp">   -117.27521460 </i>
    <i name="e_0_energy">   -117.29477292 </i>
   </energy>
  </scstep>
  <scstep>
   <time name="dav">   56.67   56.68</time>
   <time name="total">   71.10   71.13</time>
   <energy>
    <i name="alphaZ">     36.80884744 </i>
    <i name="ewald">  12027.42213322 </i>
    <i name="hartreedc"> -15158.01119636 </i>
    <i name="XCdc">    -79.48268901 </i>
    <i name="pawpsdc">   1169.31046101 </i>
    <i name="pawaedc">   -848.68225556 </i>
    <i name="eentropy">     -0.03911670 </i>
    <i name="bandstr">   -618.68177495 </i>
    <i name="atom">   3354.04126044 </i>
    <i name="e_fr_energy">   -117.31433045 </i>
    <i name="e_wo_entrp">   -117.27521375 </i>
    <i name="e_0_energy">   -117.29477210 </i>
   </energy>
  </scstep>
  <structure>
   <crystal>
    <varray name="basis" >
     <v>       3.54040000       0.00000000       0.00000000 </v>
     <v>      -1.77020000      10.29434800       0.00000000 </v>
     <v>       0.00000000       0.00000000      27.50142900 </v>
    </varray>
    <i name="volume">   1002.32009712 </i>
    <varray name="rec_basis" >
     <v>       0.28245396       0.04857034       0.00000000 </v>
     <v>       0.00000000       0.09714068       0.00000000 </v>
     <v>       0.00000000       0.00000000       0.03636175 </v>
    </varray>
   </crystal>
   <varray name="positions" >
    <v>       0.11402300       0.22804500       0.23316207 </v>
    <v>       0.41402300       0.82804500       0.51499159 </v>
    <v>       0.45808900       0.91617900       0.20939482 </v>
    <v>       0.75808900       0.51617900       0.49122434 </v>
    <v>       0.31085400       0.62170900       0.08414979 </v>
    <v>       0.31085400       0.62170900       0.36597930 </v>
    <v>       0.99923000       0.99846000       0.08631254 </v>
    <v>       0.99923000       0.99846000       0.36814206 </v>
    <v>       0.65492700       0.30985400       0.06041748 </v>
    <v>       0.65492700       0.30985400       0.34224700 </v>
    <v>       0.76973800       0.53947500       0.20725292 </v>
    <v>       0.06973800       0.13947500       0.48908244 </v>
    <v>       0.93971600       0.87943300       0.15783749 </v>
    <v>       0.23971600       0.47943300       0.43966701 </v>
    <v>       0.20515200       0.41030300       0.18578822 </v>
    <v>       0.50515200       0.01030300       0.46761774 </v>
    <v>       0.20184900       0.40369900       0.09969156 </v>
    <v>       0.20184900       0.40369900       0.38152107 </v>
    <v>       0.56380500       0.12761000       0.10779021 </v>
    <v>       0.56380500       0.12761000       0.38961973 </v>
    <v>       0.56710600       0.13421200       0.19387616 </v>
    <v>       0.86710600       0.73421200       0.47570568 </v>
    <v>       0.82923400       0.65846800       0.13571444 </v>
    <v>       0.12923400       0.25846800       0.41754396 </v>
   </varray>
  </structure>
  <varray name="forces" >
   <v>      -0.00000000      -0.00139175       0.07516728 </v>
   <v>      -0.00000000      -0.24860001      -0.40723183 </v>
   <v>      -0.00000000      -0.00953456       0.08392085 </v>
   <v>      -0.00000000      -0.31983419       0.38207759 </v>
   <v>      -0.00000000      -0.00355361       0.00264428 </v>
   <v>       0.00000000      -0.73839011       1.39424924 </v>
   <v>      -0.00000000       0.00170495       0.00055518 </v>
   <v>      -0.00000000      -0.32108794      -0.19107628 </v>
   <v>      -0.00000000      -0.00393860       0.02069396 </v>
   <v>       0.00000000       0.62898220      -1.90792347 </v>
   <v>      -0.00000000       0.00545400       0.09459024 </v>
   <v>      -0.00000000       0.41930789       1.69622916 </v>
   <v>      -0.00000000      -0.00190852       0.00578489 </v>
   <v>      -0.00000000       9.21628940      13.98175532 </v>
   <v>      -0.00000000       0.03383757       0.06764979 </v>
   <v>      -0.00000000       0.34693763       0.30592548 </v>
   <v>      -0.00000000       0.00321713      -0.02651937 </v>
   <v>       0.00000000       5.50974419     -22.91131174 </v>
   <v>      -0.00000000      -0.00875044      -0.03451417 </v>
   <v>       0.00000000      -1.65373023      -1.65652309 </v>
   <v>      -0.00000000      -0.05789457       0.03704501 </v>
   <v>      -0.00000000       0.19531346      -0.28383009 </v>
   <v>      -0.00000000       0.00591758      -0.00547659 </v>
   <v>      -0.00000000     -12.99809147       9.27611837 </v>
  </varray>
  <varray name="stress" >
   <v>       1.93266963       0.00000000       0.00000000 </v>
   <v>       0.00000000      40.87385707       3.43178576 </v>
   <v>       0.00000000       3.43178577      55.74095662 </v>
  </varray>
  <energy>
   <i name="e_fr_energy">   -117.31433045 </i>
   <i name="e_wo_entrp">   -117.29477210 </i>
   <i name="e_0_energy">     -0.03911670 </i>
  </energy>
  <time name="totalsc"> 2779.24 2780.16</time>
  <eigenvalues>
   <array>
    <dimension dim="1">band</dimension>
    <dimension dim="2">kpoint</dimension>
    <dimension dim="3">spin</dimension>
    <field>eigene</field>
    <field>occ</field>
    <set>
     <set comment="spin 1">
      <set comment="kpoint 1">
       <r>  -14.8712    1.0000 </r>
       <r>  -13.5783    1.0000 </r>
       <r>  -12.9702    1.0000 </r>
       <r>  -12.8827    1.0000 </r>
       <r>  -12.8357    1.0000 </r>
       <r>  -12.5231    1.0000 </r>
       <r>  -12.1253    1.0000 </r>
       <r>  -11.6395    1.0000 </r>
       <r>  -11.4699    1.0000 </r>
       <r>  -11.2262    1.0000 </r>
       <r>  -11.0279    1.0000 </r>
       <r>  -10.5510    1.0000 </r>
       <r>   -9.6218    1.0000 </r>
       <r>   -8.0751    1.0000 </r>
       <r>   -7.9430    1.0000 </r>
       <r>   -7.8645    1.0000 </r>
       <r>   -6.8715    1.0000 </r>
       <r>   -6.5358    1.0000 </r>
       <r>   -6.5176    1.0000 </r>
       <r>   -5.9761    1.0000 </r>
       <r>   -5.8565    1.0000 </r>
       <r>   -5.3727    1.0000 </r>
       <r>   -5.0090    1.0000 </r>
       <r>   -4.8190    1.0000 </r>
       <r>   -4.6332    1.0000 </r>
       <r>   -4.2637    1.0000 </r>
       <r>   -3.7984    1.0000 </r>
       <r>   -3.7046    1.0000 </r>
       <r>   -3.2486    1.0000 </r>
       <r>   -3.0954    1.0000 </r>
       <r>   -3.0506    1.0000 </r>
       <r>   -3.0279    1.0000 </r>
       <r>   -2.9372    1.0000 </r>
       <r>   -2.8782    1.0000 </r>
       <r>   -2.5181    1.0000 </r>
       <r>   -2.4472    1.0000 </r>
       <r>   -2.4330    1.0000 </r>
       <r>   -2.2425    1.0000 </r>
       <r>   -2.1119    1.0000 </r>
       <r>   -2.0794    1.0000 </r>
       <r>   -1.9923    1.0000 </r>
       <r>   -1.9009    1.0000 </r>
       <r>   -1.7647    1.0000 </r>
       <r>   -1.6814    1.0000 </r>
       <r>   -1.6254    1.0000 </r>
       <r>   -1.4699    1.0000 </r>
       <r>   -1.4496    1.0000 </r>
       <r>   -1.2871    1.0000 </r>
       <r>   -1.1706    1.0000 </r>
       <r>   -1.1087    1.0000 </r>
       <r>   -0.8800    1.0000 </r>
       <r>   -0.3298    1.0000 </r>
       <r>   -0.1420    0.9904 </r>
       <r>    0.3527    0.0000 </r>
       <r>    0.3805    0.0000 </r>
       <r>    0.6320    0.0000 </r>
       <r>    0.8613    0.0000 </r>
       <r>    0.9885    0.0000 </r>
       <r>    1.1623    0.0000 </r>
       <r>    1.2827    0.0000 </r>
       <r>    1.6094    0.0000 </r>
       <r>    1.7893    0.0000 </r>
       <r>    1.9360    0.0000 </r>
       <r>    2.0693    0.0000 </r>
       <r>    2.1100    0.0000 </r>
       <r>    2.3003    0.0000 </r>
       <r>    2.3844    0.0000 </r>
       <r>    2.4010    0.0000 </r>
      </set>
      <set comment="kpoint 2">
       <r>  -14.8160    1.0000 </r>
       <r>  -13.5170    1.0000 </r>
       <r>  -12.9290    1.0000 </r>
       <r>  -12.8079    1.0000 </r>
       <r>  -12.7833    1.0000 </r>
       <r>  -12.4675    1.0000 </r>
       <r>  -12.0630    1.0000 </r>
       <r>  -11.5963    1.0000 </r>
       <r>  -11.4209    1.0000 </r>
       <r>  -11.1769    1.0000 </r>
       <r>  -10.9795    1.0000 </r>
       <r>  -10.5177    1.0000 </r>
       <r>   -9.6174    1.0000 </r>
       <r>   -8.1092    1.0000 </r>
       <r>   -7.8993    1.0000 </r>
       <r>   -7.8247    1.0000 </r>
       <r>   -6.8390    1.0000 </r>
       <r>   -6.5695    1.0000 </r>
       <r>   -6.5225    1.0000 </r>
       <r>   -5.9674    1.0000 </r>
       <r>   -5.8247    1.0000 </r>
       <r>   -5.4393    1.0000 </r>
       <r>   -4.9738    1.0000 </r>
       <r>   -4.8128    1.0000 </r>
       <r>   -4.7371    1.0000 </r>
       <r>   -4.4803    1.0000 </r>
       <r>   -3.8173    1.0000 </r>
       <r>   -3.7182    1.0000 </r>
       <r>   -3.5436    1.0000 </r>
       <r>   -3.4315    1.0000 </r>
       <r>   -3.3044    1.0000 </r>
       <r>   -3.2258    1.0000 </r>
       <r>   -3.1224    1.0000 </r>
       <r>   -2.9884    1.0000 </r>
       <r>   -2.7988    1.0000 </r>
       <r>   -2.6336    1.0000 </r>
       <r>   -2.5213    1.0000 </r>
       <r>   -2.4906    1.0000 </r>
       <r>   -2.3103    1.0000 </r>
       <r>   -2.2414    1.0000 </r>
       <r>   -2.0912    1.0000 </r>
       <r>   -1.9994    1.0000 </r>
       <r>   -1.9496    1.0000 </r>
       <r>   -1.8684    1.0000 </r>
       <r>   -1.7774    1.0000 </r>
       <r>   -1.6967    1.0000 </r>
       <r>   -1.5490    1.0000 </r>
       <r>   -1.3720    1.0000 </r>
       <r>   -1.2122    1.0000 </r>
       <r>   -1.0159    1.0000 </r>
       <r>   -0.7622    1.0000 </r>
       <r>   -0.1098    0.9705 </r>
       <r>   -0.0520    0.8578 </r>
       <r>    0.3653    0.0000 </r>
       <r>    0.4347    0.0000 </r>
       <r>    0.6552    0.0000 </r>
       <r>    0.8152    0.0000 </r>
       <r>    0.9938    0.0000 </r>
       <r>    1.5438    0.0000 </r>
       <r>    1.7271    0.0000 </r>
       <r>    1.9785    0.0000 </r>
       <r>    2.0341    0.0000 </r>
       <r>    2.1125    0.0000 </r>
       <r>    2.2143    0.0000 </r>
       <r>    2.2497    0.0000 </r>
       <r>    2.2711    0.0000 </r>
       <r>    2.5750    0.0000 </r>
       <r>    2.7311    0.0000 </r>
      </set>
      <set comment="kpoint 3">
       <r>  -14.6524    1.0000 </r>
       <r>  -13.3340    1.0000 </r>
       <r>  -12.7896    1.0000 </r>
       <r>  -12.6287    1.0000 </r>
       <r>  -12.6011    1.0000 </r>
       <r>  -12.3029    1.0000 </r>
       <r>  -11.8805    1.0000 </r>
       <r>  -11.4708    1.0000 </r>
       <r>  -11.2787    1.0000 </r>
       <r>  -11.0410    1.0000 </r>
       <r>  -10.8406    1.0000 </r>
       <r>  -10.4217    1.0000 </r>
       <r>   -9.6162    1.0000 </r>
       <r>   -8.2046    1.0000 </r>
       <r>   -7.7987    1.0000 </r>
       <r>   -7.7436    1.0000 </r>
       <r>   -6.8079    1.0000 </r>
       <r>   -6.7427    1.0000 </r>
       <r>   -6.5361    1.0000 </r>
       <r>   -6.0407    1.0000 </r>
       <r>   -5.7727    1.0000 </r>
       <r>   -5.7389    1.0000 </r>
       <r>   -5.0851    1.0000 </r>
       <r>   -4.9081    1.0000 </r>
       <r>   -4.8493    1.0000 </r>
       <r>   -4.5602    1.0000 </r>
       <r>   -4.2434    1.0000 </r>
       <r>   -4.1261    1.0000 </r>
       <r>   -4.1184    1.0000 </r>
       <r>   -4.0129    1.0000 </r>
       <r>   -3.8019    1.0000 </r>
       <r>   -3.6980    1.0000 </r>
       <r>   -3.4709    1.0000 </r>
       <r>   -3.2512    1.0000 </r>
       <r>   -3.1557    1.0000 </r>
       <r>   -3.0118    1.0000 </r>
       <r>   -2.9921    1.0000 </r>
       <r>   -2.8532    1.0000 </r>
       <r>   -2.7269    1.0000 </r>
       <r>   -2.6473    1.0000 </r>
       <r>   -2.4138    1.0000 </r>
       <r>   -2.3789    1.0000 </r>
       <r>   -2.1852    1.0000 </r>
       <r>   -2.0214    1.0000 </r>
       <r>   -1.8931    1.0000 </r>
       <r>   -1.7977    1.0000 </r>
       <r>   -1.6884    1.0000 </r>
       <r>   -1.3655    1.0000 </r>
       <r>   -1.2601    1.0000 </r>
       <r>   -1.0217    1.0000 </r>
       <r>   -0.7980    1.0000 </r>
       <r>   -0.1885    0.9987 </r>
       <r>    0.0526    0.3411 </r>
       <r>    0.2989    0.0000 </r>
       <r>    0.4019    0.0000 </r>
       <r>    0.5963    0.0000 </r>
       <r>    1.0016    0.0000 </r>
       <r>    1.2337    0.0000 </r>
       <r>    1.6281    0.0000 </r>
       <r>    1.9395    0.0000 </r>
       <r>    2.2188    0.0000 </r>
       <r>    2.3898    0.0000 </r>
       <r>    2.5008    0.0000 </r>
       <r>    2.5927    0.0000 </r>
       <r>    2.6427    0.0000 </r>
       <r>    2.8416    0.0000 </r>
       <r>    2.9384    0.0000 </r>
       <r>    3.0236    0.0000 </r>
      </set>
      <set comment="kpoint 4">
       <r>  -14.3885    1.0000 </r>
       <r>  -13.0330    1.0000 </r>
       <r>  -12.5445    1.0000 </r>
       <r>  -12.3720    1.0000 </r>
       <r>  -12.2876    1.0000 </r>
       <r>  -12.0363    1.0000 </r>
       <r>  -11.5928    1.0000 </r>
       <r>  -11.2821    1.0000 </r>
       <r>  -11.0615    1.0000 </r>
       <r>  -10.8689    1.0000 </r>
       <r>  -10.6374    1.0000 </r>
       <r>  -10.2699    1.0000 </r>
       <r>   -9.6447    1.0000 </r>
       <r>   -8.3964    1.0000 </r>
       <r>   -7.8641    1.0000 </r>
       <r>   -7.5715    1.0000 </r>
       <r>   -7.2843    1.0000 </r>
       <r>   -6.7295    1.0000 </r>
       <r>   -6.6707    1.0000 </r>
       <r>   -6.4855    1.0000 </r>
       <r>   -6.0777    1.0000 </r>
       <r>   -5.7718    1.0000 </r>
       <r>   -5.4613    1.0000 </r>
       <r>   -5.3736    1.0000 </r>
       <r>   -4.8495    1.0000 </r>
       <r>   -4.7930    1.0000 </r>
       <r>   -4.6678    1.0000 </r>
       <r>   -4.5922    1.0000 </r>
       <r>   -4.5412    1.0000 </r>
       <r>   -4.4912    1.0000 </r>
       <r>   -4.2320    1.0000 </r>
       <r>   -4.0857    1.0000 </r>
       <r>   -3.8360    1.0000 </r>
       <r>   -3.6762    1.0000 </r>
       <r>   -3.5731    1.0000 </r>
       <r>   -3.4992    1.0000 </r>
       <r>   -3.2583    1.0000 </r>
       <r>   -3.0325    1.0000 </r>
       <r>   -2.9789    1.0000 </r>
       <r>   -2.7720    1.0000 </r>
       <r>   -2.6199    1.0000 </r>
       <r>   -2.5374    1.0000 </r>
       <r>   -2.4659    1.0000 </r>
       <r>   -2.0098    1.0000 </r>
       <r>   -1.9274    1.0000 </r>
       <r>   -1.8569    1.0000 </r>
       <r>   -1.7661    1.0000 </r>
       <r>   -1.5098    1.0000 </r>
       <r>   -1.4241    1.0000 </r>
       <r>   -1.1493    1.0000 </r>
       <r>   -0.9454    1.0000 </r>
       <r>   -0.4840    1.0000 </r>
       <r>   -0.2100    0.9995 </r>
       <r>    0.0193    0.5248 </r>
       <r>    0.2337    0.0015 </r>
       <r>    0.6799    0.0000 </r>
       <r>    0.9044    0.0000 </r>
       <r>    1.4494    0.0000 </r>
       <r>    1.6206    0.0000 </r>
       <r>    1.8526    0.0000 </r>
       <r>    2.0132    0.0000 </r>
       <r>    2.2232    0.0000 </r>
       <r>    2.3485    0.0000 </r>
       <r>    2.6132    0.0000 </r>
       <r>    2.7481    0.0000 </r>
       <r>    2.8474    0.0000 </r>
       <r>    2.9130    0.0000 </r>
       <r>    2.9813    0.0000 </r>
      </set>
      <set comment="kpoint 5">
       <r>  -14.0430    1.0000 </r>
       <r>  -12.6213    1.0000 </r>
       <r>  -12.2040    1.0000 </r>
       <r>  -12.0236    1.0000 </r>
       <r>  -11.8915    1.0000 </r>
       <r>  -11.6849    1.0000 </r>
       <r>  -11.2360    1.0000 </r>
       <r>  -11.0992    1.0000 </r>
       <r>  -10.8167    1.0000 </r>
       <r>  -10.7699    1.0000 </r>
       <r>  -10.4517    1.0000 </r>
       <r>  -10.0528    1.0000 </r>
       <r>   -9.6914    1.0000 </r>
       <r>   -8.6915    1.0000 </r>
       <r>   -8.1249    1.0000 </r>
       <r>   -7.9888    1.0000 </r>
       <r>   -7.3610    1.0000 </r>
       <r>   -7.0455    1.0000 </r>
       <r>   -7.0199    1.0000 </r>
       <r>   -6.9336    1.0000 </r>
       <r>   -6.5523    1.0000 </r>
       <r>   -6.1960    1.0000 </r>
       <r>   -6.0038    1.0000 </r>
       <r>   -5.8653    1.0000 </r>
       <r>   -5.2454    1.0000 </r>
       <r>   -5.1074    1.0000 </r>
       <r>   -4.8414    1.0000 </r>
       <r>   -4.7386    1.0000 </r>
       <r>   -4.6410    1.0000 </r>
       <r>   -4.5016    1.0000 </r>
       <r>   -4.3508    1.0000 </r>
       <r>   -4.2519    1.0000 </r>
       <r>   -4.1258    1.0000 </r>
       <r>   -3.9456    1.0000 </r>
       <r>   -3.8475    1.0000 </r>
       <r>   -3.4636    1.0000 </r>
       <r>   -3.4165    1.0000 </r>
       <r>   -3.1200    1.0000 </r>
       <r>   -3.0042    1.0000 </r>
       <r>   -2.8531    1.0000 </r>
       <r>   -2.8092    1.0000 </r>
       <r>   -2.6993    1.0000 </r>
       <r>   -2.5867    1.0000 </r>
       <r>   -2.1004    1.0000 </r>
       <r>   -2.0511    1.0000 </r>
       <r>   -1.9360    1.0000 </r>
       <r>   -1.9066    1.0000 </r>
       <r>   -1.7520    1.0000 </r>
       <r>   -1.5461    1.0000 </r>
       <r>   -1.3740    1.0000 </r>
       <r>   -1.0017    1.0000 </r>
       <r>   -0.8906    1.0000 </r>
       <r>   -0.3780    1.0000 </r>
       <r>   -0.2131    0.9996 </r>
       <r>    0.0109    0.5717 </r>
       <r>    0.4798    0.0000 </r>
       <r>    0.8133    0.0000 </r>
       <r>    1.4126    0.0000 </r>
       <r>    1.5715    0.0000 </r>
       <r>    1.6273    0.0000 </r>
       <r>    1.7854    0.0000 </r>
       <r>    1.9693    0.0000 </r>
       <r>    2.1892    0.0000 </r>
       <r>    2.3240    0.0000 </r>
       <r>    2.5569    0.0000 </r>
       <r>    2.6559    0.0000 </r>
       <r>    2.7039    0.0000 </r>
       <r>    2.8179    0.0000 </r>
      </set>
      <set comment="kpoint 6">
       <r>  -13.6608    1.0000 </r>
       <r>  -12.1133    1.0000 </r>
       <r>  -11.8104    1.0000 </r>
       <r>  -11.6043    1.0000 </r>
       <r>  -11.4907    1.0000 </r>
       <r>  -11.2881    1.0000 </r>
       <r>  -11.1047    1.0000 </r>
       <r>  -10.8887    1.0000 </r>
       <r>  -10.7459    1.0000 </r>
       <r>  -10.6610    1.0000 </r>
       <r>  -10.4921    1.0000 </r>
       <r>   -9.7901    1.0000 </r>
       <r>   -9.6922    1.0000 </r>
       <r>   -8.8676    1.0000 </r>
       <r>   -8.4991    1.0000 </r>
       <r>   -8.4153    1.0000 </r>
       <r>   -7.8561    1.0000 </r>
       <r>   -7.4957    1.0000 </r>
       <r>   -7.4546    1.0000 </r>
       <r>   -7.2708    1.0000 </r>
       <r>   -6.8095    1.0000 </r>
       <r>   -6.7905    1.0000 </r>
       <r>   -6.7011    1.0000 </r>
       <r>   -5.9887    1.0000 </r>
       <r>   -5.6969    1.0000 </r>
       <r>   -5.2461    1.0000 </r>
       <r>   -4.7702    1.0000 </r>
       <r>   -4.6463    1.0000 </r>
       <r>   -4.5568    1.0000 </r>
       <r>   -4.3997    1.0000 </r>
       <r>   -4.3102    1.0000 </r>
       <r>   -4.2633    1.0000 </r>
       <r>   -4.1243    1.0000 </r>
       <r>   -4.0905    1.0000 </r>
       <r>   -3.6898    1.0000 </r>
       <r>   -3.6186    1.0000 </r>
       <r>   -3.3661    1.0000 </r>
       <r>   -3.3045    1.0000 </r>
       <r>   -3.1887    1.0000 </r>
       <r>   -3.0330    1.0000 </r>
       <r>   -2.8410    1.0000 </r>
       <r>   -2.7319    1.0000 </r>
       <r>   -2.5256    1.0000 </r>
       <r>   -2.3347    1.0000 </r>
       <r>   -2.2304    1.0000 </r>
       <r>   -2.1084    1.0000 </r>
       <r>   -2.0575    1.0000 </r>
       <r>   -1.8822    1.0000 </r>
       <r>   -1.6180    1.0000 </r>
       <r>   -1.4781    1.0000 </r>
       <r>   -1.3183    1.0000 </r>
       <r>   -1.1383    1.0000 </r>
       <r>   -0.5356    1.0000 </r>
       <r>   -0.2707    1.0000 </r>
       <r>   -0.1564    0.9946 </r>
       <r>    0.2228    0.0024 </r>
       <r>    0.8010    0.0000 </r>
       <r>    1.3177    0.0000 </r>
       <r>    1.3934    0.0000 </r>
       <r>    1.5356    0.0000 </r>
       <r>    1.6994    0.0000 </r>
       <r>    1.7380    0.0000 </r>
       <r>    2.0358    0.0000 </r>
       <r>    2.2125    0.0000 </r>
       <r>    2.2832    0.0000 </r>
       <r>    2.3683    0.0000 </r>
       <r>    2.6292    0.0000 </r>
       <r>    2.6776    0.0000 </r>
      </set>
      <set comment="kpoint 7">
       <r>  -13.3611    1.0000 </r>
       <r>  -11.6360    1.0000 </r>
       <r>  -11.5377    1.0000 </r>
       <r>  -11.2128    1.0000 </r>
       <r>  -11.1817    1.0000 </r>
       <r>  -10.9982    1.0000 </r>
       <r>  -10.9883    1.0000 </r>
       <r>  -10.8786    1.0000 </r>
       <r>  -10.8729    1.0000 </r>
       <r>  -10.7658    1.0000 </r>
       <r>  -10.6715    1.0000 </r>
       <r>   -9.7229    1.0000 </r>
       <r>   -9.5286    1.0000 </r>
       <r>   -8.8370    1.0000 </r>
       <r>   -8.7232    1.0000 </r>
       <r>   -8.4796    1.0000 </r>
       <r>   -8.1312    1.0000 </r>
       <r>   -8.1128    1.0000 </r>
       <r>   -7.7108    1.0000 </r>
       <r>   -7.6105    1.0000 </r>
       <r>   -7.3250    1.0000 </r>
       <r>   -7.2133    1.0000 </r>
       <r>   -6.8203    1.0000 </r>
       <r>   -5.9403    1.0000 </r>
       <r>   -5.7896    1.0000 </r>
       <r>   -5.2569    1.0000 </r>
       <r>   -4.9471    1.0000 </r>
       <r>   -4.5631    1.0000 </r>
       <r>   -4.5363    1.0000 </r>
       <r>   -4.3034    1.0000 </r>
       <r>   -4.1074    1.0000 </r>
       <r>   -4.0394    1.0000 </r>
       <r>   -3.9889    1.0000 </r>
       <r>   -3.9717    1.0000 </r>
       <r>   -3.8611    1.0000 </r>
       <r>   -3.6238    1.0000 </r>
       <r>   -3.5772    1.0000 </r>
       <r>   -3.2945    1.0000 </r>
       <r>   -3.2267    1.0000 </r>
       <r>   -3.0663    1.0000 </r>
       <r>   -3.0149    1.0000 </r>
       <r>   -2.7703    1.0000 </r>
       <r>   -2.7261    1.0000 </r>
       <r>   -2.3980    1.0000 </r>
       <r>   -2.2622    1.0000 </r>
       <r>   -2.2276    1.0000 </r>
       <r>   -2.1401    1.0000 </r>
       <r>   -1.7901    1.0000 </r>
       <r>   -1.6742    1.0000 </r>
       <r>   -1.5921    1.0000 </r>
       <r>   -1.5640    1.0000 </r>
       <r>   -1.3535    1.0000 </r>
       <r>   -0.5367    1.0000 </r>
       <r>   -0.3193    1.0000 </r>
       <r>   -0.2008    0.9992 </r>
       <r>    0.0073    0.5915 </r>
       <r>    0.8128    0.0000 </r>
       <r>    1.2198    0.0000 </r>
       <r>    1.3445    0.0000 </r>
       <r>    1.5177    0.0000 </r>
       <r>    1.6291    0.0000 </r>
       <r>    1.7142    0.0000 </r>
       <r>    1.8521    0.0000 </r>
       <r>    2.0504    0.0000 </r>
       <r>    2.1484    0.0000 </r>
       <r>    2.3671    0.0000 </r>
       <r>    2.4704    0.0000 </r>
       <r>    2.5317    0.0000 </r>
      </set>
      <set comment="kpoint 8">
       <r>  -14.8680    1.0000 </r>
       <r>  -13.5232    1.0000 </r>
       <r>  -13.1481    1.0000 </r>
       <r>  -13.0098    1.0000 </r>
       <r>  -12.6143    1.0000 </r>
       <r>  -12.5190    1.0000 </r>
       <r>  -11.9169    1.0000 </r>
       <r>  -11.8638    1.0000 </r>
       <r>  -11.5148    1.0000 </r>
       <r>  -11.0610    1.0000 </r>
       <r>  -11.0331    1.0000 </r>
       <r>  -10.5187    1.0000 </r>
       <r>   -9.7220    1.0000 </r>
       <r>   -8.5518    1.0000 </r>
       <r>   -7.8915    1.0000 </r>
       <r>   -7.4206    1.0000 </r>
       <r>   -6.7166    1.0000 </r>
       <r>   -6.7079    1.0000 </r>
       <r>   -6.6279    1.0000 </r>
       <r>   -5.8571    1.0000 </r>
       <r>   -5.7784    1.0000 </r>
       <r>   -5.3998    1.0000 </r>
       <r>   -4.9482    1.0000 </r>
       <r>   -4.6917    1.0000 </r>
       <r>   -4.4183    1.0000 </r>
       <r>   -4.2665    1.0000 </r>
       <r>   -4.0609    1.0000 </r>
       <r>   -3.7063    1.0000 </r>
       <r>   -3.4181    1.0000 </r>
       <r>   -3.2260    1.0000 </r>
       <r>   -3.1660    1.0000 </r>
       <r>   -3.0475    1.0000 </r>
       <r>   -2.8751    1.0000 </r>
       <r>   -2.7447    1.0000 </r>
       <r>   -2.5353    1.0000 </r>
       <r>   -2.4552    1.0000 </r>
       <r>   -2.4271    1.0000 </r>
       <r>   -2.3600    1.0000 </r>
       <r>   -2.2178    1.0000 </r>
       <r>   -2.0120    1.0000 </r>
       <r>   -1.9283    1.0000 </r>
       <r>   -1.9226    1.0000 </r>
       <r>   -1.8912    1.0000 </r>
       <r>   -1.6663    1.0000 </r>
       <r>   -1.5565    1.0000 </r>
       <r>   -1.4430    1.0000 </r>
       <r>   -1.3999    1.0000 </r>
       <r>   -1.2313    1.0000 </r>
       <r>   -1.2169    1.0000 </r>
       <r>   -1.0907    1.0000 </r>
       <r>   -0.9383    1.0000 </r>
       <r>   -0.4755    1.0000 </r>
       <r>   -0.1235    0.9813 </r>
       <r>    0.1767    0.0153 </r>
       <r>    0.5872    0.0000 </r>
       <r>    0.6081    0.0000 </r>
       <r>    1.0282    0.0000 </r>
       <r>    1.0817    0.0000 </r>
       <r>    1.1961    0.0000 </r>
       <r>    1.3515    0.0000 </r>
       <r>    1.6454    0.0000 </r>
       <r>    1.7805    0.0000 </r>
       <r>    1.8007    0.0000 </r>
       <r>    2.1207    0.0000 </r>
       <r>    2.2108    0.0000 </r>
       <r>    2.2940    0.0000 </r>
       <r>    2.3673    0.0000 </r>
       <r>    2.5303    0.0000 </r>
      </set>
      <set comment="kpoint 9">
       <r>  -14.8122    1.0000 </r>
       <r>  -13.4465    1.0000 </r>
       <r>  -13.1119    1.0000 </r>
       <r>  -12.9906    1.0000 </r>
       <r>  -12.5112    1.0000 </r>
       <r>  -12.4571    1.0000 </r>
       <r>  -11.8768    1.0000 </r>
       <r>  -11.8057    1.0000 </r>
       <r>  -11.4736    1.0000 </r>
       <r>  -10.9992    1.0000 </r>
       <r>  -10.9750    1.0000 </r>
       <r>  -10.4805    1.0000 </r>
       <r>   -9.7356    1.0000 </r>
       <r>   -8.6104    1.0000 </r>
       <r>   -7.8315    1.0000 </r>
       <r>   -7.3716    1.0000 </r>
       <r>   -6.7563    1.0000 </r>
       <r>   -6.7152    1.0000 </r>
       <r>   -6.5644    1.0000 </r>
       <r>   -5.8722    1.0000 </r>
       <r>   -5.7353    1.0000 </r>
       <r>   -5.4552    1.0000 </r>
       <r>   -4.9320    1.0000 </r>
       <r>   -4.7346    1.0000 </r>
       <r>   -4.5989    1.0000 </r>
       <r>   -4.3470    1.0000 </r>
       <r>   -4.1071    1.0000 </r>
       <r>   -3.7215    1.0000 </r>
       <r>   -3.6317    1.0000 </r>
       <r>   -3.4328    1.0000 </r>
       <r>   -3.3429    1.0000 </r>
       <r>   -3.2739    1.0000 </r>
       <r>   -3.0652    1.0000 </r>
       <r>   -3.0407    1.0000 </r>
       <r>   -2.7912    1.0000 </r>
       <r>   -2.7514    1.0000 </r>
       <r>   -2.5812    1.0000 </r>
       <r>   -2.5030    1.0000 </r>
       <r>   -2.3338    1.0000 </r>
       <r>   -2.2177    1.0000 </r>
       <r>   -2.2020    1.0000 </r>
       <r>   -2.0575    1.0000 </r>
       <r>   -1.9067    1.0000 </r>
       <r>   -1.8619    1.0000 </r>
       <r>   -1.7794    1.0000 </r>
       <r>   -1.6705    1.0000 </r>
       <r>   -1.4474    1.0000 </r>
       <r>   -1.3661    1.0000 </r>
       <r>   -1.1267    1.0000 </r>
       <r>   -0.9914    1.0000 </r>
       <r>   -0.9050    1.0000 </r>
       <r>   -0.2558    1.0000 </r>
       <r>   -0.0132    0.6990 </r>
       <r>    0.2579    0.0005 </r>
       <r>    0.4024    0.0000 </r>
       <r>    0.7431    0.0000 </r>
       <r>    0.8858    0.0000 </r>
       <r>    1.2552    0.0000 </r>
       <r>    1.5713    0.0000 </r>
       <r>    1.7430    0.0000 </r>
       <r>    1.9134    0.0000 </r>
       <r>    2.0220    0.0000 </r>
       <r>    2.1189    0.0000 </r>
       <r>    2.2014    0.0000 </r>
       <r>    2.2658    0.0000 </r>
       <r>    2.4961    0.0000 </r>
       <r>    2.6139    0.0000 </r>
       <r>    2.7428    0.0000 </r>
      </set>
      <set comment="kpoint 10">
       <r>  -14.6483    1.0000 </r>
       <r>  -13.2501    1.0000 </r>
       <r>  -12.9574    1.0000 </r>
       <r>  -12.8539    1.0000 </r>
       <r>  -12.3150    1.0000 </r>
       <r>  -12.2704    1.0000 </r>
       <r>  -11.7777    1.0000 </r>
       <r>  -11.6099    1.0000 </r>
       <r>  -11.3343    1.0000 </r>
       <r>  -10.8574    1.0000 </r>
       <r>  -10.8279    1.0000 </r>
       <r>  -10.3884    1.0000 </r>
       <r>   -9.7351    1.0000 </r>
       <r>   -8.6764    1.0000 </r>
       <r>   -7.6842    1.0000 </r>
       <r>   -7.3420    1.0000 </r>
       <r>   -6.8691    1.0000 </r>
       <r>   -6.6939    1.0000 </r>
       <r>   -6.5350    1.0000 </r>
       <r>   -6.2299    1.0000 </r>
       <r>   -5.6908    1.0000 </r>
       <r>   -5.5930    1.0000 </r>
       <r>   -5.0741    1.0000 </r>
       <r>   -4.8752    1.0000 </r>
       <r>   -4.7968    1.0000 </r>
       <r>   -4.4273    1.0000 </r>
       <r>   -4.3873    1.0000 </r>
       <r>   -4.2862    1.0000 </r>
       <r>   -4.0732    1.0000 </r>
       <r>   -3.9933    1.0000 </r>
       <r>   -3.7535    1.0000 </r>
       <r>   -3.6424    1.0000 </r>
       <r>   -3.4733    1.0000 </r>
       <r>   -3.3068    1.0000 </r>
       <r>   -3.1489    1.0000 </r>
       <r>   -3.0046    1.0000 </r>
       <r>   -2.9635    1.0000 </r>
       <r>   -2.8329    1.0000 </r>
       <r>   -2.8041    1.0000 </r>
       <r>   -2.6526    1.0000 </r>
       <r>   -2.5830    1.0000 </r>
       <r>   -2.3875    1.0000 </r>
       <r>   -2.3130    1.0000 </r>
       <r>   -2.0165    1.0000 </r>
       <r>   -1.9252    1.0000 </r>
       <r>   -1.8005    1.0000 </r>
       <r>   -1.5305    1.0000 </r>
       <r>   -1.3680    1.0000 </r>
       <r>   -1.1753    1.0000 </r>
       <r>   -0.9818    1.0000 </r>
       <r>   -0.9162    1.0000 </r>
       <r>   -0.1940    0.9990 </r>
       <r>   -0.0626    0.8889 </r>
       <r>    0.1923    0.0085 </r>
       <r>    0.2660    0.0003 </r>
       <r>    0.7293    0.0000 </r>
       <r>    1.0707    0.0000 </r>
       <r>    1.3893    0.0000 </r>
       <r>    1.6527    0.0000 </r>
       <r>    1.7969    0.0000 </r>
       <r>    2.0775    0.0000 </r>
       <r>    2.3182    0.0000 </r>
       <r>    2.5273    0.0000 </r>
       <r>    2.7124    0.0000 </r>
       <r>    2.8147    0.0000 </r>
       <r>    2.9446    0.0000 </r>
       <r>    3.0018    0.0000 </r>
       <r>    3.0655    0.0000 </r>
      </set>
      <set comment="kpoint 11">
       <r>  -14.3846    1.0000 </r>
       <r>  -12.9389    1.0000 </r>
       <r>  -12.6895    1.0000 </r>
       <r>  -12.6023    1.0000 </r>
       <r>  -12.0399    1.0000 </r>
       <r>  -11.9658    1.0000 </r>
       <r>  -11.5956    1.0000 </r>
       <r>  -11.3334    1.0000 </r>
       <r>  -11.1126    1.0000 </r>
       <r>  -10.6816    1.0000 </r>
       <r>  -10.6309    1.0000 </r>
       <r>  -10.2479    1.0000 </r>
       <r>   -9.7382    1.0000 </r>
       <r>   -8.8081    1.0000 </r>
       <r>   -7.4858    1.0000 </r>
       <r>   -7.4171    1.0000 </r>
       <r>   -7.2212    1.0000 </r>
       <r>   -6.8785    1.0000 </r>
       <r>   -6.7338    1.0000 </r>
       <r>   -6.6789    1.0000 </r>
       <r>   -5.8587    1.0000 </r>
       <r>   -5.8317    1.0000 </r>
       <r>   -5.4958    1.0000 </r>
       <r>   -5.2449    1.0000 </r>
       <r>   -5.0649    1.0000 </r>
       <r>   -4.7553    1.0000 </r>
       <r>   -4.7017    1.0000 </r>
       <r>   -4.6115    1.0000 </r>
       <r>   -4.5619    1.0000 </r>
       <r>   -4.4802    1.0000 </r>
       <r>   -4.0730    1.0000 </r>
       <r>   -3.9785    1.0000 </r>
       <r>   -3.7971    1.0000 </r>
       <r>   -3.7432    1.0000 </r>
       <r>   -3.5266    1.0000 </r>
       <r>   -3.2732    1.0000 </r>
       <r>   -3.2383    1.0000 </r>
       <r>   -3.1286    1.0000 </r>
       <r>   -2.8632    1.0000 </r>
       <r>   -2.7763    1.0000 </r>
       <r>   -2.7066    1.0000 </r>
       <r>   -2.6075    1.0000 </r>
       <r>   -2.5590    1.0000 </r>
       <r>   -2.0409    1.0000 </r>
       <r>   -2.0035    1.0000 </r>
       <r>   -1.8939    1.0000 </r>
       <r>   -1.8092    1.0000 </r>
       <r>   -1.4436    1.0000 </r>
       <r>   -1.4026    1.0000 </r>
       <r>   -1.1135    1.0000 </r>
       <r>   -0.9564    1.0000 </r>
       <r>   -0.4468    1.0000 </r>
       <r>   -0.3326    1.0000 </r>
       <r>   -0.0463    0.8387 </r>
       <r>    0.1153    0.0975 </r>
       <r>    0.7568    0.0000 </r>
       <r>    0.9004    0.0000 </r>
       <r>    1.3697    0.0000 </r>
       <r>    1.4908    0.0000 </r>
       <r>    1.6030    0.0000 </r>
       <r>    1.7646    0.0000 </r>
       <r>    2.1811    0.0000 </r>
       <r>    2.5146    0.0000 </r>
       <r>    2.6055    0.0000 </r>
       <r>    2.6900    0.0000 </r>
       <r>    2.8548    0.0000 </r>
       <r>    3.0184    0.0000 </r>
       <r>    3.1666    0.0000 </r>
      </set>
      <set comment="kpoint 12">
       <r>  -14.0398    1.0000 </r>
       <r>  -12.5226    1.0000 </r>
       <r>  -12.3197    1.0000 </r>
       <r>  -12.2429    1.0000 </r>
       <r>  -11.6883    1.0000 </r>
       <r>  -11.5987    1.0000 </r>
       <r>  -11.3609    1.0000 </r>
       <r>  -11.0198    1.0000 </r>
       <r>  -10.8489    1.0000 </r>
       <r>  -10.6757    1.0000 </r>
       <r>  -10.4282    1.0000 </r>
       <r>  -10.0295    1.0000 </r>
       <r>   -9.7311    1.0000 </r>
       <r>   -9.0077    1.0000 </r>
       <r>   -7.8426    1.0000 </r>
       <r>   -7.7429    1.0000 </r>
       <r>   -7.5345    1.0000 </r>
       <r>   -7.1523    1.0000 </r>
       <r>   -7.1353    1.0000 </r>
       <r>   -7.0001    1.0000 </r>
       <r>   -6.3680    1.0000 </r>
       <r>   -6.2262    1.0000 </r>
       <r>   -5.9587    1.0000 </r>
       <r>   -5.9039    1.0000 </r>
       <r>   -5.4155    1.0000 </r>
       <r>   -5.2457    1.0000 </r>
       <r>   -4.9765    1.0000 </r>
       <r>   -4.6942    1.0000 </r>
       <r>   -4.4750    1.0000 </r>
       <r>   -4.4188    1.0000 </r>
       <r>   -4.3593    1.0000 </r>
       <r>   -4.1613    1.0000 </r>
       <r>   -4.0454    1.0000 </r>
       <r>   -3.8126    1.0000 </r>
       <r>   -3.6311    1.0000 </r>
       <r>   -3.5099    1.0000 </r>
       <r>   -3.3710    1.0000 </r>
       <r>   -3.0461    1.0000 </r>
       <r>   -2.9899    1.0000 </r>
       <r>   -2.9126    1.0000 </r>
       <r>   -2.8165    1.0000 </r>
       <r>   -2.6228    1.0000 </r>
       <r>   -2.5294    1.0000 </r>
       <r>   -2.3609    1.0000 </r>
       <r>   -2.1254    1.0000 </r>
       <r>   -2.0030    1.0000 </r>
       <r>   -1.9225    1.0000 </r>
       <r>   -1.7813    1.0000 </r>
       <r>   -1.5637    1.0000 </r>
       <r>   -1.3761    1.0000 </r>
       <r>   -0.9538    1.0000 </r>
       <r>   -0.8119    1.0000 </r>
       <r>   -0.4514    1.0000 </r>
       <r>   -0.1890    0.9987 </r>
       <r>   -0.0589    0.8786 </r>
       <r>    0.3614    0.0000 </r>
       <r>    0.7816    0.0000 </r>
       <r>    1.1903    0.0000 </r>
       <r>    1.2151    0.0000 </r>
       <r>    1.2941    0.0000 </r>
       <r>    1.7235    0.0000 </r>
       <r>    2.1116    0.0000 </r>
       <r>    2.2360    0.0000 </r>
       <r>    2.3872    0.0000 </r>
       <r>    2.4243    0.0000 </r>
       <r>    2.5911    0.0000 </r>
       <r>    2.7102    0.0000 </r>
       <r>    2.9125    0.0000 </r>
      </set>
      <set comment="kpoint 13">
       <r>  -13.6588    1.0000 </r>
       <r>  -12.0200    1.0000 </r>
       <r>  -11.8820    1.0000 </r>
       <r>  -11.7926    1.0000 </r>
       <r>  -11.3784    1.0000 </r>
       <r>  -11.2822    1.0000 </r>
       <r>  -11.0943    1.0000 </r>
       <r>  -10.8112    1.0000 </r>
       <r>  -10.7608    1.0000 </r>
       <r>  -10.6377    1.0000 </r>
       <r>  -10.5046    1.0000 </r>
       <r>   -9.7762    1.0000 </r>
       <r>   -9.6997    1.0000 </r>
       <r>   -8.9982    1.0000 </r>
       <r>   -8.4365    1.0000 </r>
       <r>   -8.1511    1.0000 </r>
       <r>   -7.9809    1.0000 </r>
       <r>   -7.8149    1.0000 </r>
       <r>   -7.3984    1.0000 </r>
       <r>   -7.1613    1.0000 </r>
       <r>   -6.7968    1.0000 </r>
       <r>   -6.7347    1.0000 </r>
       <r>   -6.6914    1.0000 </r>
       <r>   -6.0367    1.0000 </r>
       <r>   -5.8384    1.0000 </r>
       <r>   -5.3778    1.0000 </r>
       <r>   -4.8286    1.0000 </r>
       <r>   -4.6387    1.0000 </r>
       <r>   -4.5268    1.0000 </r>
       <r>   -4.3960    1.0000 </r>
       <r>   -4.2338    1.0000 </r>
       <r>   -4.1486    1.0000 </r>
       <r>   -4.0479    1.0000 </r>
       <r>   -3.8935    1.0000 </r>
       <r>   -3.5548    1.0000 </r>
       <r>   -3.4394    1.0000 </r>
       <r>   -3.3875    1.0000 </r>
       <r>   -3.3170    1.0000 </r>
       <r>   -3.1647    1.0000 </r>
       <r>   -3.1176    1.0000 </r>
       <r>   -2.9618    1.0000 </r>
       <r>   -2.6757    1.0000 </r>
       <r>   -2.5742    1.0000 </r>
       <r>   -2.3797    1.0000 </r>
       <r>   -2.2429    1.0000 </r>
       <r>   -2.1296    1.0000 </r>
       <r>   -2.0963    1.0000 </r>
       <r>   -1.8957    1.0000 </r>
       <r>   -1.7060    1.0000 </r>
       <r>   -1.5276    1.0000 </r>
       <r>   -1.2124    1.0000 </r>
       <r>   -1.1408    1.0000 </r>
       <r>   -0.4356    1.0000 </r>
       <r>   -0.3263    1.0000 </r>
       <r>   -0.2275    0.9998 </r>
       <r>    0.1058    0.1227 </r>
       <r>    0.7549    0.0000 </r>
       <r>    1.0632    0.0000 </r>
       <r>    1.1709    0.0000 </r>
       <r>    1.2955    0.0000 </r>
       <r>    1.7087    0.0000 </r>
       <r>    1.7920    0.0000 </r>
       <r>    2.0018    0.0000 </r>
       <r>    2.0928    0.0000 </r>
       <r>    2.1866    0.0000 </r>
       <r>    2.5600    0.0000 </r>
       <r>    2.6025    0.0000 </r>
       <r>    2.6802    0.0000 </r>
      </set>
      <set comment="kpoint 14">
       <r>  -13.3604    1.0000 </r>
       <r>  -11.6365    1.0000 </r>
       <r>  -11.4686    1.0000 </r>
       <r>  -11.2973    1.0000 </r>
       <r>  -11.2572    1.0000 </r>
       <r>  -11.0019    1.0000 </r>
       <r>  -10.9260    1.0000 </r>
       <r>  -10.8986    1.0000 </r>
       <r>  -10.8869    1.0000 </r>
       <r>  -10.7356    1.0000 </r>
       <r>  -10.6178    1.0000 </r>
       <r>   -9.7398    1.0000 </r>
       <r>   -9.5245    1.0000 </r>
       <r>   -8.8485    1.0000 </r>
       <r>   -8.5907    1.0000 </r>
       <r>   -8.4366    1.0000 </r>
       <r>   -8.3677    1.0000 </r>
       <r>   -8.1247    1.0000 </r>
       <r>   -7.6816    1.0000 </r>
       <r>   -7.5566    1.0000 </r>
       <r>   -7.3547    1.0000 </r>
       <r>   -7.1726    1.0000 </r>
       <r>   -6.8196    1.0000 </r>
       <r>   -5.9568    1.0000 </r>
       <r>   -5.8909    1.0000 </r>
       <r>   -5.1523    1.0000 </r>
       <r>   -5.0519    1.0000 </r>
       <r>   -4.5718    1.0000 </r>
       <r>   -4.5006    1.0000 </r>
       <r>   -4.2624    1.0000 </r>
       <r>   -4.1739    1.0000 </r>
       <r>   -4.0201    1.0000 </r>
       <r>   -3.9603    1.0000 </r>
       <r>   -3.9475    1.0000 </r>
       <r>   -3.6966    1.0000 </r>
       <r>   -3.6636    1.0000 </r>
       <r>   -3.5377    1.0000 </r>
       <r>   -3.2989    1.0000 </r>
       <r>   -3.1988    1.0000 </r>
       <r>   -3.0743    1.0000 </r>
       <r>   -3.0153    1.0000 </r>
       <r>   -2.7435    1.0000 </r>
       <r>   -2.6770    1.0000 </r>
       <r>   -2.6338    1.0000 </r>
       <r>   -2.2213    1.0000 </r>
       <r>   -2.1583    1.0000 </r>
       <r>   -2.1465    1.0000 </r>
       <r>   -1.8031    1.0000 </r>
       <r>   -1.7509    1.0000 </r>
       <r>   -1.6098    1.0000 </r>
       <r>   -1.5225    1.0000 </r>
       <r>   -1.3623    1.0000 </r>
       <r>   -0.4972    1.0000 </r>
       <r>   -0.3487    1.0000 </r>
       <r>   -0.1897    0.9987 </r>
       <r>   -0.0472    0.8421 </r>
       <r>    0.7838    0.0000 </r>
       <r>    1.1528    0.0000 </r>
       <r>    1.3881    0.0000 </r>
       <r>    1.4722    0.0000 </r>
       <r>    1.5312    0.0000 </r>
       <r>    1.6621    0.0000 </r>
       <r>    1.8071    0.0000 </r>
       <r>    2.0440    0.0000 </r>
       <r>    2.0992    0.0000 </r>
       <r>    2.4098    0.0000 </r>
       <r>    2.4564    0.0000 </r>
       <r>    2.6379    0.0000 </r>
      </set>
      <set comment="kpoint 15">
       <r>  -13.3615    1.0000 </r>
       <r>  -11.6360    1.0000 </r>
       <r>  -11.5703    1.0000 </r>
       <r>  -11.1472    1.0000 </r>
       <r>  -11.1054    1.0000 </r>
       <r>  -11.0743    1.0000 </r>
       <r>  -10.9757    1.0000 </r>
       <r>  -10.8722    1.0000 </r>
       <r>  -10.8423    1.0000 </r>
       <r>  -10.7956    1.0000 </r>
       <r>  -10.7379    1.0000 </r>
       <r>   -9.7099    1.0000 </r>
       <r>   -9.5318    1.0000 </r>
       <r>   -8.8288    1.0000 </r>
       <r>   -8.7906    1.0000 </r>
       <r>   -8.4735    1.0000 </r>
       <r>   -8.1318    1.0000 </r>
       <r>   -7.9810    1.0000 </r>
       <r>   -7.7305    1.0000 </r>
       <r>   -7.6438    1.0000 </r>
       <r>   -7.3171    1.0000 </r>
       <r>   -7.2549    1.0000 </r>
       <r>   -6.8265    1.0000 </r>
       <r>   -5.8820    1.0000 </r>
       <r>   -5.7349    1.0000 </r>
       <r>   -5.3473    1.0000 </r>
       <r>   -4.7655    1.0000 </r>
       <r>   -4.6129    1.0000 </r>
       <r>   -4.5763    1.0000 </r>
       <r>   -4.3953    1.0000 </r>
       <r>   -4.0629    1.0000 </r>
       <r>   -4.0435    1.0000 </r>
       <r>   -4.0328    1.0000 </r>
       <r>   -3.9757    1.0000 </r>
       <r>   -3.9208    1.0000 </r>
       <r>   -3.6893    1.0000 </r>
       <r>   -3.5339    1.0000 </r>
       <r>   -3.4024    1.0000 </r>
       <r>   -3.2791    1.0000 </r>
       <r>   -2.9519    1.0000 </r>
       <r>   -2.8538    1.0000 </r>
       <r>   -2.8038    1.0000 </r>
       <r>   -2.7172    1.0000 </r>
       <r>   -2.4221    1.0000 </r>
       <r>   -2.3352    1.0000 </r>
       <r>   -2.2091    1.0000 </r>
       <r>   -2.1623    1.0000 </r>
       <r>   -1.7798    1.0000 </r>
       <r>   -1.6092    1.0000 </r>
       <r>   -1.5526    1.0000 </r>
       <r>   -1.5160    1.0000 </r>
       <r>   -1.4512    1.0000 </r>
       <r>   -0.5677    1.0000 </r>
       <r>   -0.3044    1.0000 </r>
       <r>   -0.1675    0.9966 </r>
       <r>    0.0448    0.3827 </r>
       <r>    0.7994    0.0000 </r>
       <r>    1.3194    0.0000 </r>
       <r>    1.3635    0.0000 </r>
       <r>    1.5694    0.0000 </r>
       <r>    1.6697    0.0000 </r>
       <r>    1.7451    0.0000 </r>
       <r>    1.8049    0.0000 </r>
       <r>    2.2035    0.0000 </r>
       <r>    2.2197    0.0000 </r>
       <r>    2.3256    0.0000 </r>
       <r>    2.4854    0.0000 </r>
       <r>    2.5391    0.0000 </r>
      </set>
      <set comment="kpoint 16">
       <r>  -13.6617    1.0000 </r>
       <r>  -12.1396    1.0000 </r>
       <r>  -11.7573    1.0000 </r>
       <r>  -11.5611    1.0000 </r>
       <r>  -11.5191    1.0000 </r>
       <r>  -11.2866    1.0000 </r>
       <r>  -11.1077    1.0000 </r>
       <r>  -10.9694    1.0000 </r>
       <r>  -10.7216    1.0000 </r>
       <r>  -10.6635    1.0000 </r>
       <r>  -10.4877    1.0000 </r>
       <r>   -9.7930    1.0000 </r>
       <r>   -9.6922    1.0000 </r>
       <r>   -8.7787    1.0000 </r>
       <r>   -8.5347    1.0000 </r>
       <r>   -8.5165    1.0000 </r>
       <r>   -7.7955    1.0000 </r>
       <r>   -7.4787    1.0000 </r>
       <r>   -7.3691    1.0000 </r>
       <r>   -7.3264    1.0000 </r>
       <r>   -6.8422    1.0000 </r>
       <r>   -6.8079    1.0000 </r>
       <r>   -6.7062    1.0000 </r>
       <r>   -5.9711    1.0000 </r>
       <r>   -5.6263    1.0000 </r>
       <r>   -5.0918    1.0000 </r>
       <r>   -4.8952    1.0000 </r>
       <r>   -4.7704    1.0000 </r>
       <r>   -4.4451    1.0000 </r>
       <r>   -4.3770    1.0000 </r>
       <r>   -4.3438    1.0000 </r>
       <r>   -4.2955    1.0000 </r>
       <r>   -4.1313    1.0000 </r>
       <r>   -4.1167    1.0000 </r>
       <r>   -3.7575    1.0000 </r>
       <r>   -3.6635    1.0000 </r>
       <r>   -3.4427    1.0000 </r>
       <r>   -3.3189    1.0000 </r>
       <r>   -3.1971    1.0000 </r>
       <r>   -2.9828    1.0000 </r>
       <r>   -2.8591    1.0000 </r>
       <r>   -2.7399    1.0000 </r>
       <r>   -2.5413    1.0000 </r>
       <r>   -2.2976    1.0000 </r>
       <r>   -2.2348    1.0000 </r>
       <r>   -2.0996    1.0000 </r>
       <r>   -1.9788    1.0000 </r>
       <r>   -1.8602    1.0000 </r>
       <r>   -1.5568    1.0000 </r>
       <r>   -1.4638    1.0000 </r>
       <r>   -1.3621    1.0000 </r>
       <r>   -1.1528    1.0000 </r>
       <r>   -0.5684    1.0000 </r>
       <r>   -0.2441    0.9999 </r>
       <r>   -0.1312    0.9858 </r>
       <r>    0.2617    0.0004 </r>
       <r>    0.8045    0.0000 </r>
       <r>    1.3599    0.0000 </r>
       <r>    1.4253    0.0000 </r>
       <r>    1.6119    0.0000 </r>
       <r>    1.7726    0.0000 </r>
       <r>    1.8962    0.0000 </r>
       <r>    2.1054    0.0000 </r>
       <r>    2.2338    0.0000 </r>
       <r>    2.3829    0.0000 </r>
       <r>    2.4975    0.0000 </r>
       <r>    2.5054    0.0000 </r>
       <r>    2.6072    0.0000 </r>
      </set>
      <set comment="kpoint 17">
       <r>  -14.0435    1.0000 </r>
       <r>  -12.6336    1.0000 </r>
       <r>  -12.1646    1.0000 </r>
       <r>  -11.9823    1.0000 </r>
       <r>  -11.9483    1.0000 </r>
       <r>  -11.6846    1.0000 </r>
       <r>  -11.2819    1.0000 </r>
       <r>  -11.0561    1.0000 </r>
       <r>  -10.8094    1.0000 </r>
       <r>  -10.7957    1.0000 </r>
       <r>  -10.4578    1.0000 </r>
       <r>  -10.0568    1.0000 </r>
       <r>   -9.6846    1.0000 </r>
       <r>   -8.5928    1.0000 </r>
       <r>   -8.2266    1.0000 </r>
       <r>   -8.0090    1.0000 </r>
       <r>   -7.3378    1.0000 </r>
       <r>   -7.0437    1.0000 </r>
       <r>   -6.9975    1.0000 </r>
       <r>   -6.9036    1.0000 </r>
       <r>   -6.5916    1.0000 </r>
       <r>   -6.1884    1.0000 </r>
       <r>   -6.0128    1.0000 </r>
       <r>   -5.8622    1.0000 </r>
       <r>   -5.1846    1.0000 </r>
       <r>   -5.0763    1.0000 </r>
       <r>   -4.9288    1.0000 </r>
       <r>   -4.6880    1.0000 </r>
       <r>   -4.6504    1.0000 </r>
       <r>   -4.4971    1.0000 </r>
       <r>   -4.3522    1.0000 </r>
       <r>   -4.2740    1.0000 </r>
       <r>   -4.1175    1.0000 </r>
       <r>   -3.9665    1.0000 </r>
       <r>   -3.8963    1.0000 </r>
       <r>   -3.4943    1.0000 </r>
       <r>   -3.4429    1.0000 </r>
       <r>   -3.1192    1.0000 </r>
       <r>   -3.0009    1.0000 </r>
       <r>   -2.8566    1.0000 </r>
       <r>   -2.8160    1.0000 </r>
       <r>   -2.6983    1.0000 </r>
       <r>   -2.5682    1.0000 </r>
       <r>   -2.0611    1.0000 </r>
       <r>   -2.0420    1.0000 </r>
       <r>   -1.9254    1.0000 </r>
       <r>   -1.8979    1.0000 </r>
       <r>   -1.7464    1.0000 </r>
       <r>   -1.5431    1.0000 </r>
       <r>   -1.3754    1.0000 </r>
       <r>   -1.0170    1.0000 </r>
       <r>   -0.8983    1.0000 </r>
       <r>   -0.3673    1.0000 </r>
       <r>   -0.2210    0.9997 </r>
       <r>    0.0356    0.4332 </r>
       <r>    0.4983    0.0000 </r>
       <r>    0.8143    0.0000 </r>
       <r>    1.3951    0.0000 </r>
       <r>    1.6058    0.0000 </r>
       <r>    1.7069    0.0000 </r>
       <r>    1.9041    0.0000 </r>
       <r>    1.9613    0.0000 </r>
       <r>    2.2205    0.0000 </r>
       <r>    2.3428    0.0000 </r>
       <r>    2.5757    0.0000 </r>
       <r>    2.6433    0.0000 </r>
       <r>    2.7185    0.0000 </r>
       <r>    2.7591    0.0000 </r>
      </set>
      <set comment="kpoint 18">
       <r>  -14.3883    1.0000 </r>
       <r>  -13.0288    1.0000 </r>
       <r>  -12.5594    1.0000 </r>
       <r>  -12.3866    1.0000 </r>
       <r>  -12.2661    1.0000 </r>
       <r>  -12.0363    1.0000 </r>
       <r>  -11.5755    1.0000 </r>
       <r>  -11.3016    1.0000 </r>
       <r>  -11.0652    1.0000 </r>
       <r>  -10.8537    1.0000 </r>
       <r>  -10.6359    1.0000 </r>
       <r>  -10.2684    1.0000 </r>
       <r>   -9.6501    1.0000 </r>
       <r>   -8.4366    1.0000 </r>
       <r>   -7.8230    1.0000 </r>
       <r>   -7.5649    1.0000 </r>
       <r>   -7.2838    1.0000 </r>
       <r>   -6.7282    1.0000 </r>
       <r>   -6.6743    1.0000 </r>
       <r>   -6.5134    1.0000 </r>
       <r>   -6.0559    1.0000 </r>
       <r>   -5.7738    1.0000 </r>
       <r>   -5.4620    1.0000 </r>
       <r>   -5.3690    1.0000 </r>
       <r>   -4.8697    1.0000 </r>
       <r>   -4.7978    1.0000 </r>
       <r>   -4.6614    1.0000 </r>
       <r>   -4.5875    1.0000 </r>
       <r>   -4.5418    1.0000 </r>
       <r>   -4.4900    1.0000 </r>
       <r>   -4.2283    1.0000 </r>
       <r>   -4.0773    1.0000 </r>
       <r>   -3.8315    1.0000 </r>
       <r>   -3.6854    1.0000 </r>
       <r>   -3.5659    1.0000 </r>
       <r>   -3.4814    1.0000 </r>
       <r>   -3.2579    1.0000 </r>
       <r>   -3.0316    1.0000 </r>
       <r>   -2.9719    1.0000 </r>
       <r>   -2.7738    1.0000 </r>
       <r>   -2.6382    1.0000 </r>
       <r>   -2.5469    1.0000 </r>
       <r>   -2.4702    1.0000 </r>
       <r>   -2.0079    1.0000 </r>
       <r>   -1.9193    1.0000 </r>
       <r>   -1.8574    1.0000 </r>
       <r>   -1.7784    1.0000 </r>
       <r>   -1.5046    1.0000 </r>
       <r>   -1.4223    1.0000 </r>
       <r>   -1.1465    1.0000 </r>
       <r>   -0.9463    1.0000 </r>
[...]
       <r>    2.6842    0.0000 </r>
      </set>
      <set comment="kpoint 54">
       <r>  -13.3609    1.0000 </r>
       <r>  -11.6361    1.0000 </r>
       <r>  -11.5265    1.0000 </r>
       <r>  -11.2241    1.0000 </r>
       <r>  -11.2037    1.0000 </r>
       <r>  -10.9937    1.0000 </r>
       <r>  -10.9804    1.0000 </r>
       <r>  -10.8840    1.0000 </r>
       <r>  -10.8744    1.0000 </r>
       <r>  -10.7586    1.0000 </r>
       <r>  -10.6582    1.0000 </r>
       <r>   -9.7266    1.0000 </r>
       <r>   -9.5277    1.0000 </r>
       <r>   -8.8395    1.0000 </r>
       <r>   -8.7004    1.0000 </r>
       <r>   -8.4801    1.0000 </r>
       <r>   -8.1580    1.0000 </r>
       <r>   -8.1253    1.0000 </r>
       <r>   -7.7048    1.0000 </r>
       <r>   -7.6002    1.0000 </r>
       <r>   -7.3297    1.0000 </r>
       <r>   -7.2032    1.0000 </r>
       <r>   -6.8194    1.0000 </r>
       <r>   -5.9505    1.0000 </r>
       <r>   -5.8070    1.0000 </r>
       <r>   -5.2339    1.0000 </r>
       <r>   -4.9769    1.0000 </r>
       <r>   -4.5621    1.0000 </r>
       <r>   -4.5126    1.0000 </r>
       <r>   -4.3125    1.0000 </r>
       <r>   -4.1274    1.0000 </r>
       <r>   -4.0354    1.0000 </r>
       <r>   -3.9839    1.0000 </r>
       <r>   -3.9701    1.0000 </r>
       <r>   -3.8004    1.0000 </r>
       <r>   -3.6132    1.0000 </r>
       <r>   -3.5855    1.0000 </r>
       <r>   -3.2932    1.0000 </r>
       <r>   -3.2147    1.0000 </r>
       <r>   -3.0884    1.0000 </r>
       <r>   -3.0310    1.0000 </r>
       <r>   -2.7630    1.0000 </r>
       <r>   -2.7291    1.0000 </r>
       <r>   -2.4149    1.0000 </r>
       <r>   -2.2524    1.0000 </r>
       <r>   -2.2154    1.0000 </r>
       <r>   -2.1402    1.0000 </r>
       <r>   -1.7913    1.0000 </r>
       <r>   -1.6986    1.0000 </r>
       <r>   -1.5903    1.0000 </r>
       <r>   -1.5645    1.0000 </r>
       <r>   -1.3464    1.0000 </r>
       <r>   -0.5280    1.0000 </r>
       <r>   -0.3249    1.0000 </r>
       <r>   -0.2038    0.9994 </r>
       <r>   -0.0036    0.6502 </r>
       <r>    0.8113    0.0000 </r>
       <r>    1.1992    0.0000 </r>
       <r>    1.3218    0.0000 </r>
       <r>    1.5218    0.0000 </r>
       <r>    1.6312    0.0000 </r>
       <r>    1.7171    0.0000 </r>
       <r>    1.8643    0.0000 </r>
       <r>    2.0231    0.0000 </r>
       <r>    2.1284    0.0000 </r>
       <r>    2.3389    0.0000 </r>
       <r>    2.4509    0.0000 </r>
       <r>    2.5456    0.0000 </r>
      </set>
     </set>
    </set>
   </array>
  </eigenvalues>
  <separator name="orbital magnetization" >
   <v name="MAGDIPOLOUT">      0.00000000      0.00000000      0.00000000</v>
  </separator>
  <dos>
   <i name="efermi">      0.02368720 </i>
   <total>
    <array>
     <dimension dim="1">gridpoints</dimension>
     <dimension dim="2">spin</dimension>
     <field>energy</field>
     <field>total</field>
     <field>integrated</field>
     <set>
      <set comment="spin 1">
       <r>   -15.8712     0.0000     0.0000 </r>
       <r>   -15.8044     0.0000     0.0000 </r>
       <r>   -15.7376     0.0000     0.0000 </r>
       <r>   -15.6708     0.0000     0.0000 </r>
       <r>   -15.6040     0.0000     0.0000 </r>
       <r>   -15.5372     0.0000     0.0000 </r>
       <r>   -15.4704     0.0000     0.0000 </r>
       <r>   -15.4036     0.0000     0.0000 </r>
       <r>   -15.3368     0.0000     0.0000 </r>
       <r>   -15.2700     0.0000     0.0000 </r>
       <r>   -15.2033     0.0000     0.0000 </r>
       <r>   -15.1365     0.0002     0.0000 </r>
       <r>   -15.0697     0.0055     0.0004 </r>
       <r>   -15.0029     0.0762     0.0055 </r>
       <r>   -14.9361     0.4932     0.0384 </r>
       <r>   -14.8693     1.5443     0.1416 </r>
       <r>   -14.8025     2.4196     0.3032 </r>
       <r>   -14.7357     2.1830     0.4490 </r>
       <r>   -14.6689     1.8972     0.5757 </r>
       <r>   -14.6021     1.7420     0.6920 </r>
       <r>   -14.5353     0.9928     0.7584 </r>
       <r>   -14.4685     0.7049     0.8054 </r>
       <r>   -14.4017     1.3657     0.8967 </r>
       <r>   -14.3350     1.6240     1.0051 </r>
       <r>   -14.2682     0.8603     1.0626 </r>
       <r>   -14.2014     0.2492     1.0792 </r>
       <r>   -14.1346     0.3996     1.1059 </r>
       <r>   -14.0678     1.2052     1.1864 </r>
       <r>   -14.0010     1.6650     1.2976 </r>
       <r>   -13.9342     1.0061     1.3648 </r>
       <r>   -13.8674     0.2724     1.3830 </r>
       <r>   -13.8006     0.1315     1.3918 </r>
       <r>   -13.7338     0.5900     1.4312 </r>
       <r>   -13.6670     1.5390     1.5340 </r>
       <r>   -13.6002     2.0443     1.6706 </r>
       <r>   -13.5334     2.0281     1.8060 </r>
       <r>   -13.4667     2.3467     1.9628 </r>
       <r>   -13.3999     3.0560     2.1669 </r>
       <r>   -13.3331     3.6117     2.4081 </r>
       <r>   -13.2663     3.2435     2.6247 </r>
       <r>   -13.1995     2.8208     2.8132 </r>
       <r>   -13.1327     2.9975     3.0134 </r>
       <r>   -13.0659     3.4133     3.2414 </r>
       <r>   -12.9991     4.2505     3.5253 </r>
       <r>   -12.9323     4.9955     3.8589 </r>
       <r>   -12.8655     4.6485     4.1694 </r>
       <r>   -12.7987     3.6604     4.4139 </r>
       <r>   -12.7319     3.1770     4.6261 </r>
       <r>   -12.6651     3.9806     4.8920 </r>
       <r>   -12.5984     5.6031     5.2662 </r>
       <r>   -12.5316     6.4217     5.6951 </r>
       <r>   -12.4648     5.8032     6.0827 </r>
       <r>   -12.3980     4.6168     6.3911 </r>
       <r>   -12.3312     4.7918     6.7112 </r>
       <r>   -12.2644     5.8376     7.1011 </r>
       <r>   -12.1976     5.6354     7.4775 </r>
       <r>   -12.1308     5.1250     7.8198 </r>
       <r>   -12.0640     5.4231     8.1820 </r>
       <r>   -11.9972     5.8684     8.5740 </r>
       <r>   -11.9304     6.1107     8.9821 </r>
       <r>   -11.8636     6.3170     9.4040 </r>
       <r>   -11.7968     6.1388     9.8141 </r>
       <r>   -11.7300     6.2999    10.2349 </r>
       <r>   -11.6633     7.8244    10.7575 </r>
       <r>   -11.5965     9.6636    11.4029 </r>
       <r>   -11.5297     9.7228    12.0523 </r>
       <r>   -11.4629     8.0753    12.5917 </r>
       <r>   -11.3961     6.6206    13.0339 </r>
       <r>   -11.3293     7.3277    13.5233 </r>
       <r>   -11.2625     8.7743    14.1094 </r>
       <r>   -11.1957     8.3157    14.6648 </r>
       <r>   -11.1289     8.3110    15.2199 </r>
       <r>   -11.0621    10.5149    15.9222 </r>
       <r>   -10.9953    12.1075    16.7309 </r>
       <r>   -10.9285    12.1136    17.5400 </r>
       <r>   -10.8617    12.7454    18.3913 </r>
       <r>   -10.7950    13.0776    19.2648 </r>
       <r>   -10.7282    11.5211    20.0343 </r>
       <r>   -10.6614     9.7562    20.6860 </r>
       <r>   -10.5946     7.8590    21.2109 </r>
       <r>   -10.5278     6.4621    21.6425 </r>
       <r>   -10.4610     6.7407    22.0927 </r>
       <r>   -10.3942     5.9975    22.4933 </r>
       <r>   -10.3274     3.7881    22.7463 </r>
       <r>   -10.2606     2.4286    22.9086 </r>
       <r>   -10.1938     1.7432    23.0250 </r>
       <r>   -10.1270     1.1825    23.1040 </r>
       <r>   -10.0602     1.4556    23.2012 </r>
       <r>    -9.9934     1.6457    23.3111 </r>
       <r>    -9.9267     1.1341    23.3869 </r>
       <r>    -9.8599     1.7367    23.5029 </r>
       <r>    -9.7931     4.9789    23.8354 </r>
       <r>    -9.7263     9.1364    24.4457 </r>
       <r>    -9.6595     9.8832    25.1058 </r>
       <r>    -9.5927     6.8181    25.5612 </r>
       <r>    -9.5259     3.7983    25.8149 </r>
       <r>    -9.4591     1.9594    25.9458 </r>
       <r>    -9.3923     0.6829    25.9914 </r>
       <r>    -9.3255     0.1195    25.9994 </r>
       <r>    -9.2587     0.0098    26.0000 </r>
       <r>    -9.1919     0.0096    26.0006 </r>
       <r>    -9.1251     0.1054    26.0077 </r>
       <r>    -9.0584     0.5507    26.0445 </r>
       <r>    -8.9916     1.4409    26.1407 </r>
       <r>    -8.9248     2.3883    26.3002 </r>
       <r>    -8.8580     3.6451    26.5437 </r>
       <r>    -8.7912     4.9458    26.8740 </r>
       <r>    -8.7244     4.8234    27.1962 </r>
       <r>    -8.6576     3.7930    27.4496 </r>
       <r>    -8.5908     3.5022    27.6835 </r>
       <r>    -8.5240     4.4976    27.9839 </r>
       <r>    -8.4572     5.7194    28.3659 </r>
       <r>    -8.3904     5.2296    28.7152 </r>
       <r>    -8.3236     3.2354    28.9313 </r>
       <r>    -8.2568     2.1449    29.0746 </r>
       <r>    -8.1900     2.9693    29.2729 </r>
       <r>    -8.1233     4.4083    29.5673 </r>
       <r>    -8.0565     4.3919    29.8607 </r>
       <r>    -7.9897     3.7703    30.1125 </r>
       <r>    -7.9229     4.5512    30.4165 </r>
       <r>    -7.8561     6.4808    30.8494 </r>
       <r>    -7.7893     7.6438    31.3599 </r>
       <r>    -7.7225     7.0838    31.8331 </r>
       <r>    -7.6557     6.1030    32.2407 </r>
       <r>    -7.5889     5.5716    32.6128 </r>
       <r>    -7.5221     5.7352    32.9959 </r>
       <r>    -7.4553     6.4628    33.4276 </r>
       <r>    -7.3885     7.4330    33.9240 </r>
       <r>    -7.3217     8.2440    34.4747 </r>
       <r>    -7.2550     7.9868    35.0081 </r>
       <r>    -7.1882     6.7138    35.4565 </r>
       <r>    -7.1214     5.2530    35.8074 </r>
       <r>    -7.0546     4.2209    36.0893 </r>
       <r>    -6.9878     4.0792    36.3618 </r>
       <r>    -6.9210     5.1335    36.7047 </r>
       <r>    -6.8542     8.1619    37.2498 </r>
       <r>    -6.7874    11.7804    38.0367 </r>
       <r>    -6.7206    13.4766    38.9368 </r>
       <r>    -6.6538    11.9722    39.7365 </r>
       <r>    -6.5870     8.5310    40.3063 </r>
       <r>    -6.5202     6.0673    40.7115 </r>
       <r>    -6.4534     4.2204    40.9934 </r>
       <r>    -6.3867     2.7849    41.1794 </r>
       <r>    -6.3199     2.3669    41.3375 </r>
       <r>    -6.2531     2.6927    41.5173 </r>
       <r>    -6.1863     3.0378    41.7203 </r>
       <r>    -6.1195     3.0626    41.9248 </r>
       <r>    -6.0527     4.1149    42.1997 </r>
       <r>    -5.9859     6.4811    42.6325 </r>
       <r>    -5.9191     8.6666    43.2114 </r>
       <r>    -5.8523    10.1159    43.8871 </r>
       <r>    -5.7855    10.3860    44.5808 </r>
       <r>    -5.7187     8.7542    45.1655 </r>
       <r>    -5.6519     6.1029    45.5731 </r>
       <r>    -5.5851     4.2422    45.8565 </r>
       <r>    -5.5184     4.0045    46.1239 </r>
       <r>    -5.4516     5.1767    46.4697 </r>
       <r>    -5.3848     6.0240    46.8721 </r>
       <r>    -5.3180     5.4937    47.2390 </r>
       <r>    -5.2512     5.0260    47.5747 </r>
       <r>    -5.1844     4.9948    47.9083 </r>
       <r>    -5.1176     5.2604    48.2597 </r>
       <r>    -5.0508     6.3478    48.6836 </r>
       <r>    -4.9840     7.3123    49.1721 </r>
       <r>    -4.9172     8.3858    49.7322 </r>
       <r>    -4.8504     9.5677    50.3712 </r>
       <r>    -4.7836    10.5692    51.0772 </r>
       <r>    -4.7168    11.5282    51.8471 </r>
       <r>    -4.6500    12.4538    52.6790 </r>
       <r>    -4.5833    13.6279    53.5892 </r>
       <r>    -4.5165    14.3695    54.5490 </r>
       <r>    -4.4497    13.6866    55.4631 </r>
       <r>    -4.3829    12.6385    56.3073 </r>
       <r>    -4.3161    12.2202    57.1235 </r>
       <r>    -4.2493    11.9067    57.9188 </r>
       <r>    -4.1825    11.7022    58.7004 </r>
       <r>    -4.1157    13.5631    59.6063 </r>
       <r>    -4.0489    15.9918    60.6745 </r>
       <r>    -3.9821    15.2538    61.6933 </r>
       <r>    -3.9153    11.7105    62.4755 </r>
       <r>    -3.8485     9.1037    63.0835 </r>
       <r>    -3.7817     9.7260    63.7331 </r>
       <r>    -3.7150    11.8963    64.5277 </r>
       <r>    -3.6482    13.1394    65.4053 </r>
       <r>    -3.5814    12.7475    66.2568 </r>
       <r>    -3.5146    12.2708    67.0764 </r>
       <r>    -3.4478    12.2076    67.8918 </r>
       <r>    -3.3810    12.1008    68.7000 </r>
       <r>    -3.3142    12.8869    69.5607 </r>
       <r>    -3.2474    14.6630    70.5401 </r>
       <r>    -3.1806    14.8904    71.5347 </r>
       <r>    -3.1138    14.6074    72.5103 </r>
       <r>    -3.0470    15.9586    73.5763 </r>
       <r>    -2.9802    16.6777    74.6902 </r>
       <r>    -2.9134    14.9734    75.6903 </r>
       <r>    -2.8467    14.5346    76.6611 </r>
       <r>    -2.7799    16.4060    77.7569 </r>
       <r>    -2.7131    16.9397    78.8884 </r>
       <r>    -2.6463    15.9599    79.9544 </r>
       <r>    -2.5795    15.7163    81.0041 </r>
       <r>    -2.5127    14.8171    81.9938 </r>
       <r>    -2.4459    12.6886    82.8413 </r>
       <r>    -2.3791    11.4987    83.6093 </r>
       <r>    -2.3123    11.3705    84.3687 </r>
       <r>    -2.2455    12.4241    85.1986 </r>
       <r>    -2.1787    13.9363    86.1294 </r>
       <r>    -2.1119    14.6547    87.1082 </r>
       <r>    -2.0451    15.3553    88.1339 </r>
       <r>    -1.9784    16.1979    89.2158 </r>
       <r>    -1.9116    17.0971    90.3577 </r>
       <r>    -1.8448    17.4016    91.5200 </r>
       <r>    -1.7780    16.1286    92.5973 </r>
       <r>    -1.7112    13.6263    93.5074 </r>
       <r>    -1.6444    11.4370    94.2713 </r>
       <r>    -1.5776    11.3361    95.0285 </r>
       <r>    -1.5108    12.6737    95.8750 </r>
       <r>    -1.4440    13.6951    96.7897 </r>
       <r>    -1.3772    13.8783    97.7167 </r>
       <r>    -1.3104    11.7241    98.4998 </r>
       <r>    -1.2436     8.6594    99.0782 </r>
       <r>    -1.1768     7.9960    99.6122 </r>
       <r>    -1.1100     8.3809   100.1720 </r>
       <r>    -1.0433     8.3580   100.7303 </r>
       <r>    -0.9765     9.3652   101.3558 </r>
       <r>    -0.9097     9.6601   102.0010 </r>
       <r>    -0.8429     7.2562   102.4857 </r>
       <r>    -0.7761     4.1401   102.7622 </r>
       <r>    -0.7093     1.8860   102.8882 </r>
       <r>    -0.6425     1.0976   102.9615 </r>
       <r>    -0.5757     2.3081   103.1157 </r>
       <r>    -0.5089     4.7416   103.4324 </r>
       <r>    -0.4421     6.2565   103.8503 </r>
       <r>    -0.3753     6.5182   104.2856 </r>
       <r>    -0.3085     7.5115   104.7873 </r>
       <r>    -0.2417     9.6677   105.4331 </r>
       <r>    -0.1750    11.1411   106.1772 </r>
       <r>    -0.1082    10.1230   106.8533 </r>
       <r>    -0.0414     8.9509   107.4512 </r>
       <r>     0.0254     8.4193   108.0135 </r>
       <r>     0.0922     6.8302   108.4697 </r>
       <r>     0.1590     5.7776   108.8556 </r>
       <r>     0.2258     6.2978   109.2763 </r>
       <r>     0.2926     6.4622   109.7079 </r>
       <r>     0.3594     5.9110   110.1027 </r>
       <r>     0.4262     5.1729   110.4482 </r>
       <r>     0.4930     3.7298   110.6973 </r>
       <r>     0.5598     2.8415   110.8871 </r>
       <r>     0.6266     3.5612   111.1250 </r>
       <r>     0.6933     5.5142   111.4933 </r>
       <r>     0.7601     8.3040   112.0480 </r>
       <r>     0.8269     9.5735   112.6874 </r>
       <r>     0.8937     7.6631   113.1992 </r>
       <r>     0.9605     5.3243   113.5549 </r>
       <r>     1.0273     4.6151   113.8631 </r>
       <r>     1.0941     4.9468   114.1935 </r>
       <r>     1.1609     5.8507   114.5843 </r>
       <r>     1.2277     7.3515   115.0753 </r>
       <r>     1.2945     8.7139   115.6573 </r>
       <r>     1.3613     9.6688   116.3032 </r>
       <r>     1.4281     9.7782   116.9563 </r>
       <r>     1.4949     9.2547   117.5744 </r>
       <r>     1.5616     9.9362   118.2381 </r>
       <r>     1.6284    12.0402   119.0423 </r>
       <r>     1.6952    13.5229   119.9455 </r>
       <r>     1.7620    13.5963   120.8536 </r>
       <r>     1.8288    12.0357   121.6575 </r>
       <r>     1.8956     9.2304   122.2740 </r>
       <r>     1.9624     8.2188   122.8230 </r>
       <r>     2.0292    10.0527   123.4944 </r>
       <r>     2.0960    12.5081   124.3299 </r>
       <r>     2.1628    14.4035   125.2919 </r>
       <r>     2.2296    15.4408   126.3233 </r>
       <r>     2.2964    14.4642   127.2894 </r>
       <r>     2.3632    12.8526   128.1478 </r>
       <r>     2.4300    12.1063   128.9564 </r>
       <r>     2.4967    12.4522   129.7882 </r>
       <r>     2.5635    13.7103   130.7039 </r>
       <r>     2.6303    14.4961   131.6721 </r>
       <r>     2.6971    14.0989   132.6138 </r>
       <r>     2.7639    12.1000   133.4220 </r>
       <r>     2.8307     9.1892   134.0358 </r>
       <r>     2.8975     7.4971   134.5365 </r>
       <r>     2.9643     7.1450   135.0138 </r>
       <r>     3.0311     6.3439   135.4375 </r>
       <r>     3.0979     4.3968   135.7312 </r>
       <r>     3.1647     2.4326   135.8936 </r>
       <r>     3.2315     1.1460   135.9702 </r>
       <r>     3.2983     0.3759   135.9953 </r>
       <r>     3.3650     0.0650   135.9996 </r>
       <r>     3.4318     0.0052   136.0000 </r>
       <r>     3.4986     0.0002   136.0000 </r>
       <r>     3.5654     0.0000   136.0000 </r>
       <r>     3.6322     0.0000   136.0000 </r>
       <r>     3.6990     0.0000   136.0000 </r>
       <r>     3.7658     0.0000   136.0000 </r>
       <r>     3.8326     0.0000   136.0000 </r>
       <r>     3.8994     0.0000   136.0000 </r>
       <r>     3.9662     0.0000   136.0000 </r>
       <r>     4.0330     0.0000   136.0000 </r>
       <r>     4.0998     0.0000   136.0000 </r>
       <r>     4.1666     0.0000   136.0000 </r>
      </set>
     </set>
    </array>
   </total>
  </dos>
 </calculation>
 <structure name="finalpos" >
  <crystal>
   <varray name="basis" >
    <v>       3.54040000       0.00000000       0.00000000 </v>
    <v>      -1.77020000      10.29434800       0.00000000 </v>
    <v>       0.00000000       0.00000000      27.50142900 </v>
   </varray>
   <i name="volume">   1002.32009712 </i>
   <varray name="rec_basis" >
    <v>       0.28245396       0.04857034       0.00000000 </v>
    <v>       0.00000000       0.09714068       0.00000000 </v>
    <v>       0.00000000       0.00000000       0.03636175 </v>
   </varray>
  </crystal>
  <varray name="positions" >
   <v>       0.11402300       0.22804500       0.23316207 </v>
   <v>       0.41402300       0.82804500       0.51499159 </v>
   <v>       0.45808900       0.91617900       0.20939482 </v>
   <v>       0.75808900       0.51617900       0.49122434 </v>
   <v>       0.31085400       0.62170900       0.08414979 </v>
   <v>       0.31085400       0.62170900       0.36597930 </v>
   <v>       0.99923000       0.99846000       0.08631254 </v>
   <v>       0.99923000       0.99846000       0.36814206 </v>
   <v>       0.65492700       0.30985400       0.06041748 </v>
   <v>       0.65492700       0.30985400       0.34224700 </v>
   <v>       0.76973800       0.53947500       0.20725292 </v>
   <v>       0.06973800       0.13947500       0.48908244 </v>
   <v>       0.93971600       0.87943300       0.15783749 </v>
   <v>       0.23971600       0.47943300       0.43966701 </v>
   <v>       0.20515200       0.41030300       0.18578822 </v>
   <v>       0.50515200       0.01030300       0.46761774 </v>
   <v>       0.20184900       0.40369900       0.09969156 </v>
   <v>       0.20184900       0.40369900       0.38152107 </v>
   <v>       0.56380500       0.12761000       0.10779021 </v>
   <v>       0.56380500       0.12761000       0.38961973 </v>
   <v>       0.56710600       0.13421200       0.19387616 </v>
   <v>       0.86710600       0.73421200       0.47570568 </v>
   <v>       0.82923400       0.65846800       0.13571444 </v>
   <v>       0.12923400       0.25846800       0.41754396 </v>
  </varray>
 </structure>
</modeling>
