<?xml version="1.0" encoding="ISO-8859-1"?>
<modeling>
 <generator>
  <i name="program" type="string">vasp </i>
  <i name="version" type="string">5.3.5  </i>
  <i name="subversion" type="string">31Mar14 (build Oct 29 2014 16:16:03) complex                          parallel </i>
  <i name="platform" type="string">Linux-UFHPC </i>
  <i name="date" type="string">2016 02 09 </i>
  <i name="time" type="string">18:17:47 </i>
 </generator>
 <incar>
  <i type="string" name="PREC">accurate</i>
  <i type="int" name="IBRION">     2</i>
  <i name="EDIFF">      0.00000100</i>
  <i type="int" name="NSW">     0</i>
  <i type="int" name="ISIF">     3</i>
  <i name="ENCUT">    300.00000000</i>
  <i type="string" name="LREAL"> Auto</i>
  <i type="int" name="ISMEAR">     0</i>
  <i name="SIGMA">      0.10000000</i>
  <i type="logical" name="LWAVE"> F  </i>
  <i type="logical" name="LCHARG"> F  </i>
  <i type="logical" name="LAECHG"> F  </i>
  <i type="string" name="GGA"> Bo</i>
  <i name="PARAM1">      0.18333333</i>
  <i name="PARAM2">      0.22000000</i>
  <i type="logical" name="LUSE_VDW"> T  </i>
  <i name="AGGAC">      0.00000000</i>
 </incar>
 <kpoints>
  <generation param="Gamma">
   <v type="int" name="divisions">      13        4        2 </v>
   <v name="usershift">      0.00000000       0.00000000       0.00000000 </v>
   <v name="genvec1">      0.07692308      -0.00000000       0.00000000 </v>
   <v name="genvec2">      0.00000000       0.25000000       0.00000000 </v>
   <v name="genvec3">      0.00000000       0.00000000       0.50000000 </v>
   <v name="shift">      0.00000000       0.00000000       0.00000000 </v>
  </generation>
  <varray name="kpointlist" >
   <v>       0.00000000       0.00000000       0.00000000 </v>
   <v>       0.07692308      -0.00000000       0.00000000 </v>
   <v>       0.15384615      -0.00000000       0.00000000 </v>
   <v>       0.23076923      -0.00000000       0.00000000 </v>
   <v>       0.30769231      -0.00000000       0.00000000 </v>
   <v>       0.38461538      -0.00000000       0.00000000 </v>
   <v>       0.46153846      -0.00000000       0.00000000 </v>
   <v>       0.00000000       0.25000000       0.00000000 </v>
   <v>       0.07692308       0.25000000       0.00000000 </v>
   <v>       0.15384615       0.25000000       0.00000000 </v>
   <v>       0.23076923       0.25000000       0.00000000 </v>
   <v>       0.30769231       0.25000000       0.00000000 </v>
   <v>       0.38461538       0.25000000       0.00000000 </v>
   <v>       0.46153846       0.25000000       0.00000000 </v>
   <v>      -0.46153846       0.25000000       0.00000000 </v>
   <v>      -0.38461538       0.25000000       0.00000000 </v>
   <v>      -0.30769231       0.25000000       0.00000000 </v>
   <v>      -0.23076923       0.25000000       0.00000000 </v>
   <v>      -0.15384615       0.25000000       0.00000000 </v>
   <v>      -0.07692308       0.25000000       0.00000000 </v>
   <v>       0.00000000       0.50000000       0.00000000 </v>
   <v>       0.07692308       0.50000000       0.00000000 </v>
   <v>       0.15384615       0.50000000       0.00000000 </v>
   <v>       0.23076923       0.50000000       0.00000000 </v>
   <v>       0.30769231       0.50000000       0.00000000 </v>
   <v>       0.38461538       0.50000000       0.00000000 </v>
   <v>       0.46153846       0.50000000       0.00000000 </v>
   <v>       0.00000000       0.00000000       0.50000000 </v>
   <v>       0.07692308      -0.00000000       0.50000000 </v>
   <v>       0.15384615      -0.00000000       0.50000000 </v>
   <v>       0.23076923      -0.00000000       0.50000000 </v>
   <v>       0.30769231      -0.00000000       0.50000000 </v>
   <v>       0.38461538      -0.00000000       0.50000000 </v>
   <v>       0.46153846      -0.00000000       0.50000000 </v>
   <v>       0.00000000       0.25000000       0.50000000 </v>
   <v>       0.07692308       0.25000000       0.50000000 </v>
   <v>       0.15384615       0.25000000       0.50000000 </v>
   <v>       0.23076923       0.25000000       0.50000000 </v>
   <v>       0.30769231       0.25000000       0.50000000 </v>
   <v>       0.38461538       0.25000000       0.50000000 </v>
   <v>       0.46153846       0.25000000       0.50000000 </v>
   <v>      -0.46153846       0.25000000       0.50000000 </v>
   <v>      -0.38461538       0.25000000       0.50000000 </v>
   <v>      -0.30769231       0.25000000       0.50000000 </v>
   <v>      -0.23076923       0.25000000       0.50000000 </v>
   <v>      -0.15384615       0.25000000       0.50000000 </v>
   <v>      -0.07692308       0.25000000       0.50000000 </v>
   <v>       0.00000000       0.50000000       0.50000000 </v>
   <v>       0.07692308       0.50000000       0.50000000 </v>
   <v>       0.15384615       0.50000000       0.50000000 </v>
   <v>       0.23076923       0.50000000       0.50000000 </v>
   <v>       0.30769231       0.50000000       0.50000000 </v>
   <v>       0.38461538       0.50000000       0.50000000 </v>
   <v>       0.46153846       0.50000000       0.50000000 </v>
  </varray>
  <varray name="weights" >
   <v>       0.00961538 </v>
   <v>       0.01923077 </v>
   <v>       0.01923077 </v>
   <v>       0.01923077 </v>
   <v>       0.01923077 </v>
   <v>       0.01923077 </v>
   <v>       0.01923077 </v>
   <v>       0.01923077 </v>
   <v>       0.01923077 </v>
   <v>       0.01923077 </v>
   <v>       0.01923077 </v>
   <v>       0.01923077 </v>
   <v>       0.01923077 </v>
   <v>       0.01923077 </v>
   <v>       0.01923077 </v>
   <v>       0.01923077 </v>
   <v>       0.01923077 </v>
   <v>       0.01923077 </v>
   <v>       0.01923077 </v>
   <v>       0.01923077 </v>
   <v>       0.00961538 </v>
   <v>       0.01923077 </v>
   <v>       0.01923077 </v>
   <v>       0.01923077 </v>
   <v>       0.01923077 </v>
   <v>       0.01923077 </v>
   <v>       0.01923077 </v>
   <v>       0.00961538 </v>
   <v>       0.01923077 </v>
   <v>       0.01923077 </v>
   <v>       0.01923077 </v>
   <v>       0.01923077 </v>
   <v>       0.01923077 </v>
   <v>       0.01923077 </v>
   <v>       0.01923077 </v>
   <v>       0.01923077 </v>
   <v>       0.01923077 </v>
   <v>       0.01923077 </v>
   <v>       0.01923077 </v>
   <v>       0.01923077 </v>
   <v>       0.01923077 </v>
   <v>       0.01923077 </v>
   <v>       0.01923077 </v>
   <v>       0.01923077 </v>
   <v>       0.01923077 </v>
   <v>       0.01923077 </v>
   <v>       0.01923077 </v>
   <v>       0.00961538 </v>
   <v>       0.01923077 </v>
   <v>       0.01923077 </v>
   <v>       0.01923077 </v>
   <v>       0.01923077 </v>
   <v>       0.01923077 </v>
   <v>       0.01923077 </v>
  </varray>
 </kpoints>
 <parameters>
  <separator name="general" >
   <i type="string" name="SYSTEM">unknown system</i>
   <i type="logical" name="LCOMPAT"> F  </i>
  </separator>
  <separator name="electronic" >
   <i type="string" name="PREC">accura</i>
   <i name="ENMAX">    300.00000000</i>
   <i name="ENAUG">    342.92400000</i>
   <i name="EDIFF">      0.00000100</i>
   <i type="int" name="IALGO">    38</i>
   <i type="int" name="IWAVPR">    10</i>
   <i type="int" name="NBANDS">    68</i>
   <i name="NELECT">    108.00000000</i>
   <i type="int" name="TURBO">     0</i>
   <i type="int" name="IRESTART">     0</i>
   <i type="int" name="NREBOOT">     0</i>
   <i type="int" name="NMIN">     0</i>
   <i name="EREF">      0.00000000</i>
   <separator name="electronic smearing" >
    <i type="int" name="ISMEAR">     0</i>
    <i name="SIGMA">      0.10000000</i>
    <i name="KSPACING">      0.50000000</i>
    <i type="logical" name="KGAMMA"> T  </i>
   </separator>
   <separator name="electronic projectors" >
    <i type="logical" name="LREAL"> T  </i>
    <v name="ROPT">     -0.00025000     -0.00025000</v>
    <i type="int" name="LMAXPAW">  -100</i>
    <i type="int" name="LMAXMIX">     2</i>
    <i type="logical" name="NLSPLINE"> F  </i>
   </separator>
   <separator name="electronic startup" >
    <i type="int" name="ISTART">     0</i>
    <i type="int" name="ICHARG">     2</i>
    <i type="int" name="INIWAV">     1</i>
   </separator>
   <separator name="electronic spin" >
    <i type="int" name="ISPIN">     1</i>
    <i type="logical" name="LNONCOLLINEAR"> F  </i>
    <v name="MAGMOM">      1.00000000      1.00000000      1.00000000      1.00000000      1.00000000      1.00000000      1.00000000      1.00000000      1.00000000      1.00000000      1.00000000      1.00000000      1.00000000      1.00000000      1.00000000      1.00000000      1.00000000      1.00000000      1.00000000      1.00000000
      1.00000000      1.00000000      1.00000000      1.00000000</v>
    <i name="NUPDOWN">     -1.00000000</i>
    <i type="logical" name="LSORBIT"> F  </i>
    <v name="SAXIS">      0.00000000      0.00000000      1.00000000</v>
    <i type="logical" name="LSPIRAL"> F  </i>
    <v name="QSPIRAL">      0.00000000      0.00000000      0.00000000</v>
    <i type="logical" name="LZEROZ"> F  </i>
   </separator>
   <separator name="electronic exchange-correlation" >
    <i type="logical" name="LASPH"> F  </i>
    <i type="logical" name="LMETAGGA"> F  </i>
   </separator>
   <separator name="electronic convergence" >
    <i type="int" name="NELM">    60</i>
    <i type="int" name="NELMDL">    -5</i>
    <i type="int" name="NELMIN">     2</i>
    <i name="ENINI">    300.00000000</i>
    <separator name="electronic convergence detail" >
     <i type="logical" name="LDIAG"> T  </i>
     <i type="logical" name="LSUBROT"> F  </i>
     <i name="WEIMIN">      0.00000000</i>
     <i name="EBREAK">      0.00000000</i>
     <i name="DEPER">      0.30000000</i>
     <i type="int" name="NRMM">     4</i>
     <i name="TIME">      0.40000000</i>
    </separator>
   </separator>
   <separator name="electronic mixer" >
    <i name="AMIX">      0.40000000</i>
    <i name="BMIX">      1.00000000</i>
    <i name="AMIN">      0.10000000</i>
    <i name="AMIX_MAG">      1.60000000</i>
    <i name="BMIX_MAG">      1.00000000</i>
    <separator name="electronic mixer details" >
     <i type="int" name="IMIX">     4</i>
     <i type="int" name="MAXMIX">   -45</i>
     <i name="WC">    100.00000000</i>
     <i type="int" name="INIMIX">     1</i>
     <i type="int" name="MIXPRE">     1</i>
     <i type="int" name="MREMOVE">     5</i>
    </separator>
   </separator>
   <separator name="electronic dipolcorrection" >
    <i type="logical" name="LDIPOL"> F  </i>
    <i type="logical" name="LMONO"> F  </i>
    <i type="int" name="IDIPOL">     0</i>
    <i name="EPSILON">      1.00000000</i>
    <v name="DIPOL">   -100.00000000   -100.00000000   -100.00000000</v>
    <i name="EFIELD">      0.00000000</i>
   </separator>
  </separator>
  <separator name="grids" >
   <i type="int" name="NGX">    20</i>
   <i type="int" name="NGY">    60</i>
   <i type="int" name="NGZ">   160</i>
   <i type="int" name="NGXF">    40</i>
   <i type="int" name="NGYF">   120</i>
   <i type="int" name="NGZF">   320</i>
   <i type="logical" name="ADDGRID"> F  </i>
  </separator>
  <separator name="ionic" >
   <i type="int" name="NSW">     0</i>
   <i type="int" name="IBRION">    -1</i>
   <i type="int" name="ISIF">     3</i>
   <i name="PSTRESS">      0.00000000</i>
   <i name="EDIFFG">      0.00001000</i>
   <i type="int" name="NFREE">     1</i>
   <i name="POTIM">      0.50000000</i>
   <i name="SMASS">     -3.00000000</i>
   <i name="SCALEE">      1.00000000</i>
  </separator>
  <separator name="ionic md" >
   <i name="TEBEG">      0.00010000</i>
   <i name="TEEND">      0.00010000</i>
   <i type="int" name="NBLOCK">     1</i>
   <i type="int" name="KBLOCK">     1</i>
   <i type="int" name="NPACO">   256</i>
   <i name="APACO">     16.00000000</i>
  </separator>
  <separator name="symmetry" >
   <i type="int" name="ISYM">     2</i>
   <i name="SYMPREC">      0.00001000</i>
  </separator>
  <separator name="dos" >
   <i type="logical" name="LORBIT"> F  </i>
   <v name="RWIGS">     -1.00000000     -1.00000000</v>
   <i type="int" name="NEDOS">   301</i>
   <i name="EMIN">     10.00000000</i>
   <i name="EMAX">    -10.00000000</i>
   <i name="EFERMI">      0.00000000</i>
  </separator>
  <separator name="writing" >
   <i type="int" name="NWRITE">     2</i>
   <i type="logical" name="LWAVE"> F  </i>
   <i type="logical" name="LCHARG"> F  </i>
   <i type="logical" name="LPARD"> F  </i>
   <i type="logical" name="LVTOT"> F  </i>
   <i type="logical" name="LVHAR"> F  </i>
   <i type="logical" name="LELF"> F  </i>
   <i type="logical" name="LOPTICS"> F  </i>
   <v name="STM">      0.00000000      0.00000000      0.00000000      0.00000000      0.00000000      0.00000000      0.00000000</v>
  </separator>
  <separator name="performance" >
   <i type="int" name="NPAR">     4</i>
   <i type="int" name="NSIM">     4</i>
   <i type="int" name="NBLK">    -1</i>
   <i type="logical" name="LPLANE"> T  </i>
   <i type="logical" name="LSCALAPACK"> T  </i>
   <i type="logical" name="LSCAAWARE"> F  </i>
   <i type="logical" name="LSCALU"> F  </i>
   <i type="logical" name="LASYNC"> F  </i>
   <i type="logical" name="LORBITALREAL"> F  </i>
  </separator>
  <separator name="miscellaneous" >
   <i type="int" name="IDIOT">     3</i>
   <i type="logical" name="LMUSIC"> F  </i>
   <v name="POMASS">     30.97400000     28.08500000</v>
   <v name="DARWINR">      0.00000000      0.00000000</v>
   <v name="DARWINV">      1.00000000      1.00000000</v>
   <i type="logical" name="LCORR"> T  </i>
  </separator>
  <i type="logical" name="GGA_COMPAT"> T  </i>
  <i type="logical" name="LBERRY"> F  </i>
  <i type="int" name="ICORELEVEL">     0</i>
  <i type="logical" name="LDAU"> F  </i>
  <i type="int" name="I_CONSTRAINED_M">     0</i>
  <separator name="electronic exchange-correlation" >
   <i type="string" name="GGA">BO</i>
   <i type="int" name="VOSKOWN">     0</i>
   <i type="logical" name="LHFCALC"> F  </i>
   <i type="string" name="PRECFOCK"></i>
   <i type="logical" name="LSYMGRAD"> F  </i>
   <i type="logical" name="LHFONE"> F  </i>
   <i type="logical" name="LRHFCALC"> F  </i>
   <i type="logical" name="LTHOMAS"> F  </i>
   <i type="logical" name="LMODELHF"> F  </i>
   <i name="ENCUT4O">     -1.00000000</i>
   <i type="int" name="EXXOEP">     0</i>
   <i type="int" name="FOURORBIT">     0</i>
   <i name="AEXX">      0.00000000</i>
   <i name="HFALPHA">      0.00000000</i>
   <i name="MCALPHA">      0.00000000</i>
   <i name="ALDAX">      1.00000000</i>
   <i name="AGGAX">      1.00000000</i>
   <i name="ALDAC">      1.00000000</i>
   <i name="AGGAC">      0.00000000</i>
   <i type="int" name="NKREDX">     1</i>
   <i type="int" name="NKREDY">     1</i>
   <i type="int" name="NKREDZ">     1</i>
   <i type="logical" name="SHIFTRED"> F  </i>
   <i type="logical" name="ODDONLY"> F  </i>
   <i type="logical" name="EVENONLY"> F  </i>
   <i type="int" name="LMAXFOCK">     0</i>
   <i type="int" name="NMAXFOCKAE">     0</i>
   <i type="logical" name="LFOCKAEDFT"> F  </i>
   <i name="HFSCREEN">      0.00000000</i>
   <i name="HFSCREENC">      0.00000000</i>
   <i type="int" name="NBANDSGWLOW">     0</i>
  </separator>
  <separator name="vdW DFT" >
   <i type="logical" name="LUSE_VDW"> T  </i>
   <i name="Zab_VDW">     -0.84910000</i>
   <i name="PARAM1">      0.18333333</i>
   <i name="PARAM2">      0.22000000</i>
   <i name="PARAM3">      0.00000000</i>
  </separator>
  <separator name="model GW" >
   <i type="int" name="MODEL_GW">     0</i>
   <i name="MODEL_EPS0">     25.05800243</i>
   <i name="MODEL_ALPHA">      1.00000000</i>
  </separator>
  <separator name="linear response parameters" >
   <i type="logical" name="LEPSILON"> F  </i>
   <i type="logical" name="LRPA"> F  </i>
   <i type="logical" name="LNABLA"> F  </i>
   <i type="logical" name="LVEL"> F  </i>
   <i type="int" name="KINTER">     0</i>
   <i name="CSHIFT">      0.10000000</i>
   <i name="OMEGAMAX">     -1.00000000</i>
   <i name="DEG_THRESHOLD">      0.00200000</i>
  </separator>
  <separator name="orbital magnetization" >
   <i type="logical" name="NUCIND"> F  </i>
   <v name="MAGPOS">      0.00000000      0.00000000      0.00000000</v>
   <i type="logical" name="LNICSALL"> T  </i>
   <i type="logical" name="ORBITALMAG"> F  </i>
   <i type="logical" name="LMAGBLOCH"> F  </i>
   <i type="logical" name="LCHIMAG"> F  </i>
   <i type="logical" name="LGAUGE"> T  </i>
   <i type="int" name="MAGATOM">     0</i>
   <v name="MAGDIPOL">      0.00000000      0.00000000      0.00000000</v>
   <v name="AVECCONST">      0.00000000      0.00000000      0.00000000</v>
  </separator>
  <separator name="response functions" >
   <i type="logical" name="LADDER"> F  </i>
   <i type="logical" name="LFXC"> F  </i>
   <i type="logical" name="LHARTREE"> T  </i>
   <i type="int" name="IBSE">     0</i>
   <i type="logical" name="LTCTE"> F  </i>
   <i type="logical" name="LTETE"> F  </i>
   <i type="logical" name="LTRIPLET"> F  </i>
   <i type="logical" name="LFXCEPS"> F  </i>
   <i type="logical" name="LFXHEG"> F  </i>
   <i type="logical" name="L2ORDER"> F  </i>
   <i type="logical" name="LUSEW"> F  </i>
   <i name="ENCUTGW">     -2.00000000</i>
   <i name="ENCUTGWSOFT">     -2.00000000</i>
   <i name="ENCUTLF">     -1.00000000</i>
   <i type="int" name="LMAXMP2">    -1</i>
   <i name="SCISSOR">      0.00000000</i>
   <i type="int" name="NOMEGA">     0</i>
   <i type="int" name="NOMEGAR">     0</i>
   <i type="int" name="NBANDSGW">    -1</i>
   <i type="int" name="NBANDSO">    -1</i>
   <i type="int" name="NBANDSV">    -1</i>
   <i type="int" name="NELM">     1</i>
   <i type="int" name="DIM">     3</i>
   <i type="int" name="ANTIRES">     0</i>
   <i name="OMEGAMAX">    -30.00000000</i>
   <i name="OMEGAMIN">    -30.00000000</i>
   <i name="OMEGATL">   -200.00000000</i>
   <i type="int" name="OMEGAGRID">     0</i>
   <i name="CSHIFT">     -0.10000000</i>
   <i type="logical" name="SELFENERGY"> F  </i>
   <i type="logical" name="LSPECTRAL"> F  </i>
   <i type="logical" name="ODDONLYGW"> F  </i>
   <i type="logical" name="EVENONLYGW"> F  </i>
   <i type="int" name="NKREDLFX">     1</i>
   <i type="int" name="NKREDLFY">     1</i>
   <i type="int" name="NKREDLFZ">     1</i>
   <i type="int" name="MAXMEM">  1800</i>
   <i type="int" name="TELESCOPE">     0</i>
   <i type="int" name="TAUPAR">     1</i>
  </separator>
  <separator name="External order field" >
   <i name="OFIELD_KAPPA">      0.00000000</i>
   <v name="OFIELD_K">      0.00000000      0.00000000      0.00000000</v>
   <i name="OFIELD_Q6_NEAR">      0.00000000</i>
   <i name="OFIELD_Q6_FAR">      0.00000000</i>
   <i name="OFIELD_A">      0.00000000</i>
  </separator>
 </parameters>
 <atominfo>
  <atoms>      24 </atoms>
  <types>       2 </types>
  <array name="atoms" >
   <dimension dim="1">ion</dimension>
   <field type="string">element</field>
   <field type="int">atomtype</field>
   <set>
    <rc><c>P </c><c>   1</c></rc>
    <rc><c>P </c><c>   1</c></rc>
    <rc><c>P </c><c>   1</c></rc>
    <rc><c>P </c><c>   1</c></rc>
    <rc><c>P </c><c>   1</c></rc>
    <rc><c>P </c><c>   1</c></rc>
    <rc><c>P </c><c>   1</c></rc>
    <rc><c>P </c><c>   1</c></rc>
    <rc><c>P </c><c>   1</c></rc>
    <rc><c>P </c><c>   1</c></rc>
    <rc><c>P </c><c>   1</c></rc>
    <rc><c>P </c><c>   1</c></rc>
    <rc><c>Si</c><c>   2</c></rc>
    <rc><c>Si</c><c>   2</c></rc>
    <rc><c>Si</c><c>   2</c></rc>
    <rc><c>Si</c><c>   2</c></rc>
    <rc><c>Si</c><c>   2</c></rc>
    <rc><c>Si</c><c>   2</c></rc>
    <rc><c>Si</c><c>   2</c></rc>
    <rc><c>Si</c><c>   2</c></rc>
    <rc><c>Si</c><c>   2</c></rc>
    <rc><c>Si</c><c>   2</c></rc>
    <rc><c>Si</c><c>   2</c></rc>
    <rc><c>Si</c><c>   2</c></rc>
   </set>
  </array>
  <array name="atomtypes" >
   <dimension dim="1">type</dimension>
   <field type="int">atomspertype</field>
   <field type="string">element</field>
   <field>mass</field>
   <field>valence</field>
   <field type="string">pseudopotential</field>
   <set>
    <rc><c>  12</c><c>P </c><c>     30.97400000</c><c>      5.00000000</c><c>  PAW_PBE P 17Jan2003                   </c></rc>
    <rc><c>  12</c><c>Si</c><c>     28.08500000</c><c>      4.00000000</c><c> PAW_PBE Si 05Jan2001                   </c></rc>
   </set>
  </array>
 </atominfo>
 <structure name="initialpos" >
  <crystal>
   <varray name="basis" >
    <v>       3.54040000       0.00000000       0.00000000 </v>
    <v>      -1.77020000      10.29434800       0.00000000 </v>
    <v>       0.00000000       0.00000000      27.50142900 </v>
   </varray>
   <i name="volume">   1002.32009712 </i>
   <varray name="rec_basis" >
    <v>       0.28245396       0.04857034       0.00000000 </v>
    <v>       0.00000000       0.09714068       0.00000000 </v>
    <v>       0.00000000       0.00000000       0.03636175 </v>
   </varray>
  </crystal>
  <varray name="positions" >
   <v>       0.11402300       0.22804500       0.23316207 </v>
   <v>       0.71402300       0.52804500       0.51499159 </v>
   <v>       0.45808900       0.91617900       0.20939482 </v>
   <v>       0.05808900       0.21617900       0.49122434 </v>
   <v>       0.31085400       0.62170900       0.08414979 </v>
   <v>       0.31085400       0.62170900       0.36597930 </v>
   <v>       0.99923000       0.99846000       0.08631254 </v>
   <v>       0.99923000       0.99846000       0.36814206 </v>
   <v>       0.65492700       0.30985400       0.06041748 </v>
   <v>       0.65492700       0.30985400       0.34224700 </v>
   <v>       0.76973800       0.53947500       0.20725292 </v>
   <v>       0.36973800       0.83947500       0.48908244 </v>
   <v>       0.93971600       0.87943300       0.15783749 </v>
   <v>       0.53971600       0.17943300       0.43966701 </v>
   <v>       0.20515200       0.41030300       0.18578822 </v>
   <v>       0.80515200       0.71030300       0.46761774 </v>
   <v>       0.20184900       0.40369900       0.09969156 </v>
   <v>       0.20184900       0.40369900       0.38152107 </v>
   <v>       0.56380500       0.12761000       0.10779021 </v>
   <v>       0.56380500       0.12761000       0.38961973 </v>
   <v>       0.56710600       0.13421200       0.19387616 </v>
   <v>       0.16710600       0.43421200       0.47570568 </v>
   <v>       0.82923400       0.65846800       0.13571444 </v>
   <v>       0.42923400       0.95846800       0.41754396 </v>
  </varray>
 </structure>
 <calculation>
  <scstep>
   <time name="dav">   73.44   73.68</time>
   <time name="total">   89.75   90.04</time>
   <energy>
    <i name="alphaZ">     36.80884744 </i>
    <i name="ewald">  11988.55126983 </i>
    <i name="hartreedc"> -15011.82754556 </i>
    <i name="XCdc">    -87.39515025 </i>
    <i name="pawpsdc">   1056.43050070 </i>
    <i name="pawaedc">   -732.41190547 </i>
    <i name="eentropy">     -0.04723800 </i>
    <i name="bandstr">    -95.67404738 </i>
    <i name="atom">   3354.04126044 </i>
    <i name="e_fr_energy">    508.47599176 </i>
    <i name="e_wo_entrp">    508.52322976 </i>
    <i name="e_0_energy">    508.49961076 </i>
   </energy>
  </scstep>
  <scstep>
   <time name="dav">   87.90   88.17</time>
   <time name="total">   87.91   88.18</time>
   <energy>
    <i name="e_fr_energy">    -56.64633972 </i>
    <i name="e_wo_entrp">    -56.63086911 </i>
    <i name="e_0_energy">    -56.63860442 </i>
   </energy>
  </scstep>
  <scstep>
   <time name="dav">   84.40   84.67</time>
   <time name="total">   84.41   84.68</time>
   <energy>
    <i name="e_fr_energy">   -114.56159737 </i>
    <i name="e_wo_entrp">   -114.53570780 </i>
    <i name="e_0_energy">   -114.54865259 </i>
   </energy>
  </scstep>
  <scstep>
   <time name="dav">  112.09  112.56</time>
   <time name="total">  112.11  112.57</time>
   <energy>
    <i name="e_fr_energy">   -117.35023333 </i>
    <i name="e_wo_entrp">   -117.31852207 </i>
    <i name="e_0_energy">   -117.33437770 </i>
   </energy>
  </scstep>
  <scstep>
   <time name="dav">   88.94   89.28</time>
   <time name="total">   93.23   93.58</time>
   <energy>
    <i name="e_fr_energy">   -117.40828163 </i>
    <i name="e_wo_entrp">   -117.37641260 </i>
    <i name="e_0_energy">   -117.39234712 </i>
   </energy>
  </scstep>
  <scstep>
   <time name="dav">   84.62   84.94</time>
   <time name="total">  104.11  104.48</time>
   <energy>
    <i name="e_fr_energy">   -112.62820268 </i>
    <i name="e_wo_entrp">   -112.59748136 </i>
    <i name="e_0_energy">   -112.61284202 </i>
   </energy>
  </scstep>
  <scstep>
   <time name="dav">   80.74   80.88</time>
   <time name="total">  100.85  101.09</time>
   <energy>
    <i name="e_fr_energy">   -112.49256440 </i>
    <i name="e_wo_entrp">   -112.46192286 </i>
    <i name="e_0_energy">   -112.47724363 </i>
   </energy>
  </scstep>
  <scstep>
   <time name="dav">   97.90   98.18</time>
   <time name="total">  119.70  120.04</time>
   <energy>
    <i name="e_fr_energy">   -112.28777941 </i>
    <i name="e_wo_entrp">   -112.25798196 </i>
    <i name="e_0_energy">   -112.27288068 </i>
   </energy>
  </scstep>
  <scstep>
   <time name="dav">   81.78   81.97</time>
   <time name="total">  101.95  102.15</time>
   <energy>
    <i name="e_fr_energy">   -112.25785857 </i>
    <i name="e_wo_entrp">   -112.22169677 </i>
    <i name="e_0_energy">   -112.23977767 </i>
   </energy>
  </scstep>
  <scstep>
   <time name="dav">   76.08   76.30</time>
   <time name="total">   96.10   96.38</time>
   <energy>
    <i name="e_fr_energy">   -112.26908165 </i>
    <i name="e_wo_entrp">   -112.23184340 </i>
    <i name="e_0_energy">   -112.25046252 </i>
   </energy>
  </scstep>
  <scstep>
   <time name="dav">   87.32   87.62</time>
   <time name="total">  107.44  107.88</time>
   <energy>
    <i name="e_fr_energy">   -112.25872969 </i>
    <i name="e_wo_entrp">   -112.22423097 </i>
    <i name="e_0_energy">   -112.24148033 </i>
   </energy>
  </scstep>
  <scstep>
   <time name="dav">   83.07   83.30</time>
   <time name="total">  103.47  103.72</time>
   <energy>
    <i name="e_fr_energy">   -112.25146929 </i>
    <i name="e_wo_entrp">   -112.21610129 </i>
    <i name="e_0_energy">   -112.23378529 </i>
   </energy>
  </scstep>
  <scstep>
   <time name="dav">  105.69  106.21</time>
   <time name="total">  126.47  127.05</time>
   <energy>
    <i name="e_fr_energy">   -112.24551976 </i>
    <i name="e_wo_entrp">   -112.21025877 </i>
    <i name="e_0_energy">   -112.22788927 </i>
   </energy>
  </scstep>
  <scstep>
   <time name="dav">   88.41   89.03</time>
   <time name="total">  108.64  109.44</time>
   <energy>
    <i name="e_fr_energy">   -112.24304345 </i>
    <i name="e_wo_entrp">   -112.20777059 </i>
    <i name="e_0_energy">   -112.22540702 </i>
   </energy>
  </scstep>
  <scstep>
   <time name="dav">   94.18   94.50</time>
   <time name="total">  114.02  114.39</time>
   <energy>
    <i name="e_fr_energy">   -112.24161053 </i>
    <i name="e_wo_entrp">   -112.20638089 </i>
    <i name="e_0_energy">   -112.22399571 </i>
   </energy>
  </scstep>
  <scstep>
   <time name="dav">   84.94   85.27</time>
   <time name="total">  105.63  106.00</time>
   <energy>
    <i name="e_fr_energy">   -112.24120906 </i>
    <i name="e_wo_entrp">   -112.20597555 </i>
    <i name="e_0_energy">   -112.22359231 </i>
   </energy>
  </scstep>
  <scstep>
   <time name="dav">   79.30   79.60</time>
   <time name="total">   99.74  100.16</time>
   <energy>
    <i name="e_fr_energy">   -112.24172764 </i>
    <i name="e_wo_entrp">   -112.20648518 </i>
    <i name="e_0_energy">   -112.22410641 </i>
   </energy>
  </scstep>
  <scstep>
   <time name="dav">   82.48   82.82</time>
   <time name="total">  104.33  104.86</time>
   <energy>
    <i name="e_fr_energy">   -112.24202923 </i>
    <i name="e_wo_entrp">   -112.20679740 </i>
    <i name="e_0_energy">   -112.22441331 </i>
   </energy>
  </scstep>
  <scstep>
   <time name="dav">   68.24   68.66</time>
   <time name="total">   89.30   89.79</time>
   <energy>
    <i name="e_fr_energy">   -112.24214230 </i>
    <i name="e_wo_entrp">   -112.20689758 </i>
    <i name="e_0_energy">   -112.22451994 </i>
   </energy>
  </scstep>
  <scstep>
   <time name="dav">   60.11   60.34</time>
   <time name="total">   79.52   79.83</time>
   <energy>
    <i name="e_fr_energy">   -112.24217147 </i>
    <i name="e_wo_entrp">   -112.20693529 </i>
    <i name="e_0_energy">   -112.22455338 </i>
   </energy>
  </scstep>
  <scstep>
   <time name="dav">   65.53   65.79</time>
   <time name="total">   85.12   85.45</time>
   <energy>
    <i name="e_fr_energy">   -112.24217373 </i>
    <i name="e_wo_entrp">   -112.20693557 </i>
    <i name="e_0_energy">   -112.22455465 </i>
   </energy>
  </scstep>
  <scstep>
   <time name="dav">   62.82   63.04</time>
   <time name="total">   82.65   83.02</time>
   <energy>
    <i name="e_fr_energy">   -112.24216402 </i>
    <i name="e_wo_entrp">   -112.20692498 </i>
    <i name="e_0_energy">   -112.22454450 </i>
   </energy>
  </scstep>
  <scstep>
   <time name="dav">   68.85   69.10</time>
   <time name="total">   88.88   89.18</time>
   <energy>
    <i name="e_fr_energy">   -112.24208897 </i>
    <i name="e_wo_entrp">   -112.20685211 </i>
    <i name="e_0_energy">   -112.22447054 </i>
   </energy>
  </scstep>
  <scstep>
   <time name="dav">   68.91   69.07</time>
   <time name="total">   88.92   89.19</time>
   <energy>
    <i name="e_fr_energy">   -112.24207439 </i>
    <i name="e_wo_entrp">   -112.20683620 </i>
    <i name="e_0_energy">   -112.22445530 </i>
   </energy>
  </scstep>
  <scstep>
   <time name="dav">   61.03   61.20</time>
   <time name="total">   80.98   81.23</time>
   <energy>
    <i name="e_fr_energy">   -112.24205296 </i>
    <i name="e_wo_entrp">   -112.20681514 </i>
    <i name="e_0_energy">   -112.22443405 </i>
   </energy>
  </scstep>
  <scstep>
   <time name="dav">   61.58   61.76</time>
   <time name="total">   81.31   81.56</time>
   <energy>
    <i name="e_fr_energy">   -112.24205170 </i>
    <i name="e_wo_entrp">   -112.20681363 </i>
    <i name="e_0_energy">   -112.22443267 </i>
   </energy>
  </scstep>
  <scstep>
   <time name="dav">   54.86   55.10</time>
   <time name="total">   74.70   75.00</time>
   <energy>
    <i name="e_fr_energy">   -112.24204992 </i>
    <i name="e_wo_entrp">   -112.20681174 </i>
    <i name="e_0_energy">   -112.22443083 </i>
   </energy>
  </scstep>
  <scstep>
   <time name="dav">   63.22   63.41</time>
   <time name="total">   78.78   79.04</time>
   <energy>
    <i name="alphaZ">     36.80884744 </i>
    <i name="ewald">  11988.55126983 </i>
    <i name="hartreedc"> -15115.15954541 </i>
    <i name="XCdc">    -79.38332332 </i>
    <i name="pawpsdc">   1186.35098775 </i>
    <i name="pawaedc">   -866.27034020 </i>
    <i name="eentropy">     -0.03523821 </i>
    <i name="bandstr">   -617.14596795 </i>
    <i name="atom">   3354.04126044 </i>
    <i name="e_fr_energy">   -112.24204962 </i>
    <i name="e_wo_entrp">   -112.20681141 </i>
    <i name="e_0_energy">   -112.22443051 </i>
   </energy>
  </scstep>
  <structure>
   <crystal>
    <varray name="basis" >
     <v>       3.54040000       0.00000000       0.00000000 </v>
     <v>      -1.77020000      10.29434800       0.00000000 </v>
     <v>       0.00000000       0.00000000      27.50142900 </v>
    </varray>
    <i name="volume">   1002.32009712 </i>
    <varray name="rec_basis" >
     <v>       0.28245396       0.04857034       0.00000000 </v>
     <v>       0.00000000       0.09714068       0.00000000 </v>
     <v>       0.00000000       0.00000000       0.03636175 </v>
    </varray>
   </crystal>
   <varray name="positions" >
    <v>       0.11402300       0.22804500       0.23316207 </v>
    <v>       0.71402300       0.52804500       0.51499159 </v>
    <v>       0.45808900       0.91617900       0.20939482 </v>
    <v>       0.05808900       0.21617900       0.49122434 </v>
    <v>       0.31085400       0.62170900       0.08414979 </v>
    <v>       0.31085400       0.62170900       0.36597930 </v>
    <v>       0.99923000       0.99846000       0.08631254 </v>
    <v>       0.99923000       0.99846000       0.36814206 </v>
    <v>       0.65492700       0.30985400       0.06041748 </v>
    <v>       0.65492700       0.30985400       0.34224700 </v>
    <v>       0.76973800       0.53947500       0.20725292 </v>
    <v>       0.36973800       0.83947500       0.48908244 </v>
    <v>       0.93971600       0.87943300       0.15783749 </v>
    <v>       0.53971600       0.17943300       0.43966701 </v>
    <v>       0.20515200       0.41030300       0.18578822 </v>
    <v>       0.80515200       0.71030300       0.46761774 </v>
    <v>       0.20184900       0.40369900       0.09969156 </v>
    <v>       0.20184900       0.40369900       0.38152107 </v>
    <v>       0.56380500       0.12761000       0.10779021 </v>
    <v>       0.56380500       0.12761000       0.38961973 </v>
    <v>       0.56710600       0.13421200       0.19387616 </v>
    <v>       0.16710600       0.43421200       0.47570568 </v>
    <v>       0.82923400       0.65846800       0.13571444 </v>
    <v>       0.42923400       0.95846800       0.41754396 </v>
   </varray>
  </structure>
  <varray name="forces" >
   <v>      -0.00188864      -0.03687767       0.04697701 </v>
   <v>       0.03799909      -0.01721240      -0.22043912 </v>
   <v>      -0.00033492      -0.01254661       0.07322001 </v>
   <v>       0.04277413      -0.52241880       0.81054854 </v>
   <v>      -0.00085619      -0.00350929      -0.00041552 </v>
   <v>       0.31592222      -0.06161430       0.56234368 </v>
   <v>       0.00072255      -0.00307324      -0.00016973 </v>
   <v>      -0.92572940      -1.10048533      -2.01079628 </v>
   <v>       0.00133680      -0.00116445       0.01080714 </v>
   <v>       0.32227005       0.83694685      -1.40522009 </v>
   <v>       0.00046373       0.01100062       0.09595142 </v>
   <v>      -0.09625085       0.06332237       0.10685233 </v>
   <v>       0.00269009      -0.00511707       0.01096740 </v>
   <v>      -5.50939043      15.54748650      44.05426956 </v>
   <v>      -0.00262419       0.04042892       0.08882272 </v>
   <v>      -0.20163725      -0.29385369      -1.06776488 </v>
   <v>      -0.00002279      -0.00346988      -0.02292337 </v>
   <v>      -0.23492280       1.76636279       0.40957479 </v>
   <v>      -0.00245768      -0.00756457      -0.01488257 </v>
   <v>       6.02469013      -7.00712322     -45.46279300 </v>
   <v>       0.00101982      -0.03227633      -0.00321246 </v>
   <v>       0.20449626      -0.47662123      -1.10890680 </v>
   <v>       0.00182742      -0.00849403       0.00147832 </v>
   <v>       0.01990286      -8.67212594       5.04571093 </v>
  </varray>
  <varray name="stress" >
   <v>       2.89409311      -2.49480708     -12.10401777 </v>
   <v>      -2.49480689      41.59944146      17.93707322 </v>
   <v>     -12.10401779      17.93707330      98.21904069 </v>
  </varray>
  <energy>
   <i name="e_fr_energy">   -112.24204962 </i>
   <i name="e_wo_entrp">   -112.22443051 </i>
   <i name="e_0_energy">     -0.03523821 </i>
  </energy>
  <time name="totalsc"> 2803.65 2813.98</time>
  <eigenvalues>
   <array>
    <dimension dim="1">band</dimension>
    <dimension dim="2">kpoint</dimension>
    <dimension dim="3">spin</dimension>
    <field>eigene</field>
    <field>occ</field>
    <set>
     <set comment="spin 1">
      <set comment="kpoint 1">
       <r>  -15.2638    1.0000 </r>
       <r>  -13.4192    1.0000 </r>
       <r>  -13.0725    1.0000 </r>
       <r>  -12.6806    1.0000 </r>
       <r>  -12.6551    1.0000 </r>
       <r>  -12.3641    1.0000 </r>
       <r>  -12.0567    1.0000 </r>
       <r>  -11.9512    1.0000 </r>
       <r>  -11.6245    1.0000 </r>
       <r>  -11.3092    1.0000 </r>
       <r>  -10.8699    1.0000 </r>
       <r>   -9.9514    1.0000 </r>
       <r>   -9.2096    1.0000 </r>
       <r>   -7.9149    1.0000 </r>
       <r>   -7.7428    1.0000 </r>
       <r>   -7.7039    1.0000 </r>
       <r>   -7.0157    1.0000 </r>
       <r>   -6.7062    1.0000 </r>
       <r>   -6.3694    1.0000 </r>
       <r>   -6.2966    1.0000 </r>
       <r>   -5.7032    1.0000 </r>
       <r>   -5.4230    1.0000 </r>
       <r>   -5.2031    1.0000 </r>
       <r>   -5.0756    1.0000 </r>
       <r>   -4.6113    1.0000 </r>
       <r>   -4.1429    1.0000 </r>
       <r>   -3.7282    1.0000 </r>
       <r>   -3.5777    1.0000 </r>
       <r>   -3.3818    1.0000 </r>
       <r>   -3.0640    1.0000 </r>
       <r>   -2.9870    1.0000 </r>
       <r>   -2.9342    1.0000 </r>
       <r>   -2.9031    1.0000 </r>
       <r>   -2.7224    1.0000 </r>
       <r>   -2.5260    1.0000 </r>
       <r>   -2.4176    1.0000 </r>
       <r>   -2.3141    1.0000 </r>
       <r>   -2.2744    1.0000 </r>
       <r>   -2.1461    1.0000 </r>
       <r>   -2.0481    1.0000 </r>
       <r>   -1.9143    1.0000 </r>
       <r>   -1.8676    1.0000 </r>
       <r>   -1.7489    1.0000 </r>
       <r>   -1.6442    1.0000 </r>
       <r>   -1.6281    1.0000 </r>
       <r>   -1.6074    1.0000 </r>
       <r>   -1.5186    1.0000 </r>
       <r>   -1.4257    1.0000 </r>
       <r>   -1.3099    1.0000 </r>
       <r>   -1.1443    1.0000 </r>
       <r>   -0.9866    1.0000 </r>
       <r>   -0.8794    1.0000 </r>
       <r>   -0.6289    1.0000 </r>
       <r>   -0.0803    0.9961 </r>
       <r>    0.8115    0.0000 </r>
       <r>    0.9260    0.0000 </r>
       <r>    1.2683    0.0000 </r>
       <r>    1.3104    0.0000 </r>
       <r>    1.3779    0.0000 </r>
       <r>    1.4445    0.0000 </r>
       <r>    1.6733    0.0000 </r>
       <r>    1.8599    0.0000 </r>
       <r>    2.0010    0.0000 </r>
       <r>    2.0885    0.0000 </r>
       <r>    2.1402    0.0000 </r>
       <r>    2.2708    0.0000 </r>
       <r>    2.5506    0.0000 </r>
       <r>    2.6321    0.0000 </r>
      </set>
      <set comment="kpoint 2">
       <r>  -15.2051    1.0000 </r>
       <r>  -13.3578    1.0000 </r>
       <r>  -13.0164    1.0000 </r>
       <r>  -12.6282    1.0000 </r>
       <r>  -12.5964    1.0000 </r>
       <r>  -12.3085    1.0000 </r>
       <r>  -12.0017    1.0000 </r>
       <r>  -11.8902    1.0000 </r>
       <r>  -11.5744    1.0000 </r>
       <r>  -11.2603    1.0000 </r>
       <r>  -10.8215    1.0000 </r>
       <r>   -9.9296    1.0000 </r>
       <r>   -9.2252    1.0000 </r>
       <r>   -7.9510    1.0000 </r>
       <r>   -7.7243    1.0000 </r>
       <r>   -7.6685    1.0000 </r>
       <r>   -6.9937    1.0000 </r>
       <r>   -6.6754    1.0000 </r>
       <r>   -6.3637    1.0000 </r>
       <r>   -6.3039    1.0000 </r>
       <r>   -5.6931    1.0000 </r>
       <r>   -5.6659    1.0000 </r>
       <r>   -5.3781    1.0000 </r>
       <r>   -4.9507    1.0000 </r>
       <r>   -4.6127    1.0000 </r>
       <r>   -4.0974    1.0000 </r>
       <r>   -3.7547    1.0000 </r>
       <r>   -3.6241    1.0000 </r>
       <r>   -3.5081    1.0000 </r>
       <r>   -3.3546    1.0000 </r>
       <r>   -3.2841    1.0000 </r>
       <r>   -3.1419    1.0000 </r>
       <r>   -3.0617    1.0000 </r>
       <r>   -3.0367    1.0000 </r>
       <r>   -2.7156    1.0000 </r>
       <r>   -2.6287    1.0000 </r>
       <r>   -2.5410    1.0000 </r>
       <r>   -2.3747    1.0000 </r>
       <r>   -2.3466    1.0000 </r>
       <r>   -2.2439    1.0000 </r>
       <r>   -2.0843    1.0000 </r>
       <r>   -2.0160    1.0000 </r>
       <r>   -1.8990    1.0000 </r>
       <r>   -1.8429    1.0000 </r>
       <r>   -1.7625    1.0000 </r>
       <r>   -1.7164    1.0000 </r>
       <r>   -1.5781    1.0000 </r>
       <r>   -1.5093    1.0000 </r>
       <r>   -1.3714    1.0000 </r>
       <r>   -1.0525    1.0000 </r>
       <r>   -0.8766    1.0000 </r>
       <r>   -0.7892    1.0000 </r>
       <r>   -0.4384    1.0000 </r>
       <r>   -0.0433    0.9837 </r>
       <r>    0.7679    0.0000 </r>
       <r>    0.9077    0.0000 </r>
       <r>    1.1679    0.0000 </r>
       <r>    1.6307    0.0000 </r>
       <r>    1.7163    0.0000 </r>
       <r>    1.8863    0.0000 </r>
       <r>    2.0113    0.0000 </r>
       <r>    2.1873    0.0000 </r>
       <r>    2.2548    0.0000 </r>
       <r>    2.3398    0.0000 </r>
       <r>    2.4015    0.0000 </r>
       <r>    2.4207    0.0000 </r>
       <r>    2.6402    0.0000 </r>
       <r>    2.7349    0.0000 </r>
      </set>
      <set comment="kpoint 3">
       <r>  -15.0305    1.0000 </r>
       <r>  -13.1748    1.0000 </r>
       <r>  -12.8496    1.0000 </r>
       <r>  -12.4721    1.0000 </r>
       <r>  -12.4224    1.0000 </r>
       <r>  -12.1438    1.0000 </r>
       <r>  -11.8405    1.0000 </r>
       <r>  -11.7105    1.0000 </r>
       <r>  -11.4286    1.0000 </r>
       <r>  -11.1183    1.0000 </r>
       <r>  -10.6826    1.0000 </r>
       <r>   -9.8880    1.0000 </r>
       <r>   -9.3013    1.0000 </r>
       <r>   -8.0467    1.0000 </r>
       <r>   -7.7109    1.0000 </r>
       <r>   -7.6277    1.0000 </r>
       <r>   -6.9633    1.0000 </r>
       <r>   -6.6214    1.0000 </r>
       <r>   -6.5107    1.0000 </r>
       <r>   -6.3758    1.0000 </r>
       <r>   -6.1132    1.0000 </r>
       <r>   -5.5934    1.0000 </r>
       <r>   -5.3433    1.0000 </r>
       <r>   -5.0294    1.0000 </r>
       <r>   -4.7396    1.0000 </r>
       <r>   -4.2366    1.0000 </r>
       <r>   -4.0890    1.0000 </r>
       <r>   -4.0605    1.0000 </r>
       <r>   -3.9647    1.0000 </r>
       <r>   -3.8856    1.0000 </r>
       <r>   -3.8376    1.0000 </r>
       <r>   -3.5829    1.0000 </r>
       <r>   -3.4353    1.0000 </r>
       <r>   -3.2808    1.0000 </r>
       <r>   -3.1524    1.0000 </r>
       <r>   -3.0690    1.0000 </r>
       <r>   -2.9250    1.0000 </r>
       <r>   -2.8453    1.0000 </r>
       <r>   -2.7074    1.0000 </r>
       <r>   -2.6349    1.0000 </r>
       <r>   -2.3584    1.0000 </r>
       <r>   -2.2583    1.0000 </r>
       <r>   -2.1065    1.0000 </r>
       <r>   -2.0297    1.0000 </r>
       <r>   -1.9079    1.0000 </r>
       <r>   -1.7919    1.0000 </r>
       <r>   -1.6492    1.0000 </r>
       <r>   -1.5872    1.0000 </r>
       <r>   -1.4855    1.0000 </r>
       <r>   -1.0934    1.0000 </r>
       <r>   -0.8600    1.0000 </r>
       <r>   -0.6925    1.0000 </r>
       <r>   -0.0558    0.9896 </r>
       <r>    0.2221    0.0530 </r>
       <r>    0.3429    0.0004 </r>
       <r>    0.8143    0.0000 </r>
       <r>    1.2129    0.0000 </r>
       <r>    1.9439    0.0000 </r>
       <r>    2.0752    0.0000 </r>
       <r>    2.1075    0.0000 </r>
       <r>    2.3513    0.0000 </r>
       <r>    2.3772    0.0000 </r>
       <r>    2.5265    0.0000 </r>
       <r>    2.5772    0.0000 </r>
       <r>    2.7612    0.0000 </r>
       <r>    2.8117    0.0000 </r>
       <r>    2.9860    0.0000 </r>
       <r>    3.2625    0.0000 </r>
      </set>
      <set comment="kpoint 4">
       <r>  -14.7456    1.0000 </r>
       <r>  -12.8738    1.0000 </r>
       <r>  -12.5766    1.0000 </r>
       <r>  -12.2156    1.0000 </r>
       <r>  -12.1427    1.0000 </r>
       <r>  -11.8772    1.0000 </r>
       <r>  -11.5858    1.0000 </r>
       <r>  -11.4257    1.0000 </r>
       <r>  -11.2055    1.0000 </r>
       <r>  -10.9015    1.0000 </r>
       <r>  -10.4794    1.0000 </r>
       <r>   -9.9660    1.0000 </r>
       <r>   -9.4432    1.0000 </r>
       <r>   -8.2378    1.0000 </r>
       <r>   -7.8339    1.0000 </r>
       <r>   -7.7024    1.0000 </r>
       <r>   -7.0768    1.0000 </r>
       <r>   -6.7890    1.0000 </r>
       <r>   -6.5693    1.0000 </r>
       <r>   -6.5097    1.0000 </r>
       <r>   -6.2692    1.0000 </r>
       <r>   -5.6154    1.0000 </r>
       <r>   -5.5587    1.0000 </r>
       <r>   -5.3821    1.0000 </r>
       <r>   -5.2175    1.0000 </r>
       <r>   -4.7621    1.0000 </r>
       <r>   -4.6827    1.0000 </r>
       <r>   -4.4843    1.0000 </r>
       <r>   -4.3945    1.0000 </r>
       <r>   -4.3463    1.0000 </r>
       <r>   -4.1219    1.0000 </r>
       <r>   -4.0452    1.0000 </r>
       <r>   -3.8155    1.0000 </r>
       <r>   -3.6488    1.0000 </r>
       <r>   -3.4501    1.0000 </r>
       <r>   -3.3449    1.0000 </r>
       <r>   -3.1163    1.0000 </r>
       <r>   -2.8931    1.0000 </r>
       <r>   -2.8747    1.0000 </r>
       <r>   -2.7090    1.0000 </r>
       <r>   -2.5253    1.0000 </r>
       <r>   -2.4727    1.0000 </r>
       <r>   -2.3551    1.0000 </r>
       <r>   -2.3044    1.0000 </r>
       <r>   -2.0654    1.0000 </r>
       <r>   -1.7905    1.0000 </r>
       <r>   -1.7012    1.0000 </r>
       <r>   -1.6763    1.0000 </r>
       <r>   -1.5740    1.0000 </r>
       <r>   -1.3417    1.0000 </r>
       <r>   -1.0004    1.0000 </r>
       <r>   -0.7419    1.0000 </r>
       <r>   -0.2697    1.0000 </r>
       <r>   -0.0471    0.9858 </r>
       <r>    0.2790    0.0077 </r>
       <r>    0.9305    0.0000 </r>
       <r>    1.3583    0.0000 </r>
       <r>    1.7021    0.0000 </r>
       <r>    1.9852    0.0000 </r>
       <r>    2.1119    0.0000 </r>
       <r>    2.2483    0.0000 </r>
       <r>    2.3614    0.0000 </r>
       <r>    2.3950    0.0000 </r>
       <r>    2.5411    0.0000 </r>
       <r>    2.6213    0.0000 </r>
       <r>    2.7981    0.0000 </r>
       <r>    2.8354    0.0000 </r>
       <r>    3.0217    0.0000 </r>
      </set>
      <set comment="kpoint 5">
       <r>  -14.3639    1.0000 </r>
       <r>  -12.4620    1.0000 </r>
       <r>  -12.2086    1.0000 </r>
       <r>  -11.8672    1.0000 </r>
       <r>  -11.7810    1.0000 </r>
       <r>  -11.5256    1.0000 </r>
       <r>  -11.2770    1.0000 </r>
       <r>  -11.0713    1.0000 </r>
       <r>  -10.9563    1.0000 </r>
       <r>  -10.6572    1.0000 </r>
       <r>  -10.3861    1.0000 </r>
       <r>  -10.2927    1.0000 </r>
       <r>   -9.4908    1.0000 </r>
       <r>   -8.5325    1.0000 </r>
       <r>   -8.1131    1.0000 </r>
       <r>   -7.9633    1.0000 </r>
       <r>   -7.3671    1.0000 </r>
       <r>   -6.8846    1.0000 </r>
       <r>   -6.8577    1.0000 </r>
       <r>   -6.7771    1.0000 </r>
       <r>   -6.6177    1.0000 </r>
       <r>   -6.0727    1.0000 </r>
       <r>   -6.0383    1.0000 </r>
       <r>   -5.8416    1.0000 </r>
       <r>   -5.6918    1.0000 </r>
       <r>   -5.0912    1.0000 </r>
       <r>   -4.8934    1.0000 </r>
       <r>   -4.6747    1.0000 </r>
       <r>   -4.5850    1.0000 </r>
       <r>   -4.5146    1.0000 </r>
       <r>   -4.2135    1.0000 </r>
       <r>   -4.1440    1.0000 </r>
       <r>   -4.0930    1.0000 </r>
       <r>   -3.8131    1.0000 </r>
       <r>   -3.4737    1.0000 </r>
       <r>   -3.3183    1.0000 </r>
       <r>   -3.2513    1.0000 </r>
       <r>   -2.9820    1.0000 </r>
       <r>   -2.9190    1.0000 </r>
       <r>   -2.9123    1.0000 </r>
       <r>   -2.7623    1.0000 </r>
       <r>   -2.5994    1.0000 </r>
       <r>   -2.5002    1.0000 </r>
       <r>   -2.3688    1.0000 </r>
       <r>   -2.2603    1.0000 </r>
       <r>   -1.9410    1.0000 </r>
       <r>   -1.7799    1.0000 </r>
       <r>   -1.7535    1.0000 </r>
       <r>   -1.6251    1.0000 </r>
       <r>   -1.5719    1.0000 </r>
       <r>   -1.2478    1.0000 </r>
       <r>   -1.1425    1.0000 </r>
       <r>   -0.3986    1.0000 </r>
       <r>   -0.1409    0.9998 </r>
       <r>    0.2228    0.0520 </r>
       <r>    0.6092    0.0000 </r>
       <r>    1.1262    0.0000 </r>
       <r>    1.4393    0.0000 </r>
       <r>    1.7277    0.0000 </r>
       <r>    1.8506    0.0000 </r>
       <r>    2.0235    0.0000 </r>
       <r>    2.1369    0.0000 </r>
       <r>    2.2274    0.0000 </r>
       <r>    2.3519    0.0000 </r>
       <r>    2.4890    0.0000 </r>
       <r>    2.6387    0.0000 </r>
       <r>    2.8216    0.0000 </r>
       <r>    2.9393    0.0000 </r>
      </set>
      <set comment="kpoint 6">
       <r>  -13.9221    1.0000 </r>
       <r>  -11.9537    1.0000 </r>
       <r>  -11.7774    1.0000 </r>
       <r>  -11.4491    1.0000 </r>
       <r>  -11.4441    1.0000 </r>
       <r>  -11.1872    1.0000 </r>
       <r>  -11.1252    1.0000 </r>
       <r>  -10.8346    1.0000 </r>
       <r>  -10.7303    1.0000 </r>
       <r>  -10.6140    1.0000 </r>
       <r>  -10.5025    1.0000 </r>
       <r>  -10.3322    1.0000 </r>
       <r>   -9.5510    1.0000 </r>
       <r>   -8.7089    1.0000 </r>
       <r>   -8.4212    1.0000 </r>
       <r>   -8.2557    1.0000 </r>
       <r>   -7.8021    1.0000 </r>
       <r>   -7.3379    1.0000 </r>
       <r>   -7.2953    1.0000 </r>
       <r>   -7.2252    1.0000 </r>
       <r>   -7.0151    1.0000 </r>
       <r>   -6.6378    1.0000 </r>
       <r>   -6.5386    1.0000 </r>
       <r>   -6.2518    1.0000 </r>
       <r>   -5.6720    1.0000 </r>
       <r>   -5.0924    1.0000 </r>
       <r>   -4.7527    1.0000 </r>
       <r>   -4.5400    1.0000 </r>
       <r>   -4.4297    1.0000 </r>
       <r>   -4.4019    1.0000 </r>
       <r>   -4.2359    1.0000 </r>
       <r>   -4.1121    1.0000 </r>
       <r>   -3.9626    1.0000 </r>
       <r>   -3.9351    1.0000 </r>
       <r>   -3.7469    1.0000 </r>
       <r>   -3.5357    1.0000 </r>
       <r>   -3.3076    1.0000 </r>
       <r>   -3.1608    1.0000 </r>
       <r>   -3.1198    1.0000 </r>
       <r>   -3.0156    1.0000 </r>
       <r>   -2.8856    1.0000 </r>
       <r>   -2.6679    1.0000 </r>
       <r>   -2.5536    1.0000 </r>
       <r>   -2.3898    1.0000 </r>
       <r>   -2.2922    1.0000 </r>
       <r>   -2.1614    1.0000 </r>
       <r>   -1.9957    1.0000 </r>
       <r>   -1.9024    1.0000 </r>
       <r>   -1.7291    1.0000 </r>
       <r>   -1.6337    1.0000 </r>
       <r>   -1.4727    1.0000 </r>
       <r>   -1.2962    1.0000 </r>
       <r>   -0.4613    1.0000 </r>
       <r>   -0.2433    1.0000 </r>
       <r>    0.1760    0.1672 </r>
       <r>    0.3358    0.0006 </r>
       <r>    0.8447    0.0000 </r>
       <r>    1.2872    0.0000 </r>
       <r>    1.4987    0.0000 </r>
       <r>    1.7320    0.0000 </r>
       <r>    1.8076    0.0000 </r>
       <r>    1.8554    0.0000 </r>
       <r>    2.0320    0.0000 </r>
       <r>    2.1894    0.0000 </r>
       <r>    2.2915    0.0000 </r>
       <r>    2.3952    0.0000 </r>
       <r>    2.4826    0.0000 </r>
       <r>    2.7368    0.0000 </r>
      </set>
      <set comment="kpoint 7">
       <r>  -13.5435    1.0000 </r>
       <r>  -11.7727    1.0000 </r>
       <r>  -11.3801    1.0000 </r>
       <r>  -11.2742    1.0000 </r>
       <r>  -11.0262    1.0000 </r>
       <r>  -11.0145    1.0000 </r>
       <r>  -10.8932    1.0000 </r>
       <r>  -10.8257    1.0000 </r>
       <r>  -10.7194    1.0000 </r>
       <r>  -10.6099    1.0000 </r>
       <r>  -10.5092    1.0000 </r>
       <r>  -10.4266    1.0000 </r>
       <r>   -9.6666    1.0000 </r>
       <r>   -8.6393    1.0000 </r>
       <r>   -8.5649    1.0000 </r>
       <r>   -8.3188    1.0000 </r>
       <r>   -8.0166    1.0000 </r>
       <r>   -7.9576    1.0000 </r>
       <r>   -7.7081    1.0000 </r>
       <r>   -7.4487    1.0000 </r>
       <r>   -7.3019    1.0000 </r>
       <r>   -7.1625    1.0000 </r>
       <r>   -7.0567    1.0000 </r>
       <r>   -6.0868    1.0000 </r>
       <r>   -5.4263    1.0000 </r>
       <r>   -4.9094    1.0000 </r>
       <r>   -4.7960    1.0000 </r>
       <r>   -4.4129    1.0000 </r>
       <r>   -4.3685    1.0000 </r>
       <r>   -4.2452    1.0000 </r>
       <r>   -4.1565    1.0000 </r>
       <r>   -4.0427    1.0000 </r>
       <r>   -3.9495    1.0000 </r>
       <r>   -3.8306    1.0000 </r>
       <r>   -3.7148    1.0000 </r>
       <r>   -3.6575    1.0000 </r>
       <r>   -3.5692    1.0000 </r>
       <r>   -3.4420    1.0000 </r>
       <r>   -3.1492    1.0000 </r>
       <r>   -3.1218    1.0000 </r>
       <r>   -2.9169    1.0000 </r>
       <r>   -2.8743    1.0000 </r>
       <r>   -2.7241    1.0000 </r>
       <r>   -2.5649    1.0000 </r>
       <r>   -2.2556    1.0000 </r>
       <r>   -2.2103    1.0000 </r>
       <r>   -2.0745    1.0000 </r>
       <r>   -1.9858    1.0000 </r>
       <r>   -1.8100    1.0000 </r>
       <r>   -1.5974    1.0000 </r>
       <r>   -1.4046    1.0000 </r>
       <r>   -1.3391    1.0000 </r>
       <r>   -0.5837    1.0000 </r>
       <r>   -0.3187    1.0000 </r>
       <r>    0.1168    0.4492 </r>
       <r>    0.1959    0.1064 </r>
       <r>    0.6213    0.0000 </r>
       <r>    1.2864    0.0000 </r>
       <r>    1.4899    0.0000 </r>
       <r>    1.6046    0.0000 </r>
       <r>    1.6969    0.0000 </r>
       <r>    1.7935    0.0000 </r>
       <r>    1.9152    0.0000 </r>
       <r>    1.9754    0.0000 </r>
       <r>    2.1388    0.0000 </r>
       <r>    2.2448    0.0000 </r>
       <r>    2.3612    0.0000 </r>
       <r>    2.5182    0.0000 </r>
      </set>
      <set comment="kpoint 8">
       <r>  -15.2623    1.0000 </r>
       <r>  -13.3639    1.0000 </r>
       <r>  -13.1351    1.0000 </r>
       <r>  -12.8531    1.0000 </r>
       <r>  -12.5402    1.0000 </r>
       <r>  -12.3633    1.0000 </r>
       <r>  -12.0979    1.0000 </r>
       <r>  -11.7500    1.0000 </r>
       <r>  -11.6247    1.0000 </r>
       <r>  -11.3544    1.0000 </r>
       <r>  -10.8784    1.0000 </r>
       <r>   -9.9006    1.0000 </r>
       <r>   -9.2841    1.0000 </r>
       <r>   -8.3951    1.0000 </r>
       <r>   -7.7712    1.0000 </r>
       <r>   -7.2739    1.0000 </r>
       <r>   -6.9896    1.0000 </r>
       <r>   -6.5486    1.0000 </r>
       <r>   -6.4855    1.0000 </r>
       <r>   -6.2801    1.0000 </r>
       <r>   -5.6264    1.0000 </r>
       <r>   -5.3500    1.0000 </r>
       <r>   -5.2033    1.0000 </r>
       <r>   -5.0605    1.0000 </r>
       <r>   -4.5145    1.0000 </r>
       <r>   -3.9957    1.0000 </r>
       <r>   -3.9119    1.0000 </r>
       <r>   -3.6369    1.0000 </r>
       <r>   -3.3924    1.0000 </r>
       <r>   -3.2273    1.0000 </r>
       <r>   -3.0067    1.0000 </r>
       <r>   -2.9776    1.0000 </r>
       <r>   -2.9348    1.0000 </r>
       <r>   -2.5882    1.0000 </r>
       <r>   -2.5824    1.0000 </r>
       <r>   -2.4574    1.0000 </r>
       <r>   -2.2761    1.0000 </r>
       <r>   -2.2639    1.0000 </r>
       <r>   -2.1932    1.0000 </r>
       <r>   -2.0810    1.0000 </r>
       <r>   -2.0416    1.0000 </r>
       <r>   -1.9223    1.0000 </r>
       <r>   -1.8491    1.0000 </r>
       <r>   -1.8021    1.0000 </r>
       <r>   -1.7597    1.0000 </r>
       <r>   -1.5192    1.0000 </r>
       <r>   -1.5039    1.0000 </r>
       <r>   -1.3234    1.0000 </r>
       <r>   -1.2411    1.0000 </r>
       <r>   -1.0788    1.0000 </r>
       <r>   -0.9694    1.0000 </r>
       <r>   -0.8479    1.0000 </r>
       <r>   -0.5684    1.0000 </r>
       <r>   -0.0072    0.9480 </r>
       <r>    0.8585    0.0000 </r>
       <r>    0.8862    0.0000 </r>
       <r>    1.2709    0.0000 </r>
       <r>    1.3197    0.0000 </r>
       <r>    1.3998    0.0000 </r>
       <r>    1.4916    0.0000 </r>
       <r>    1.7286    0.0000 </r>
       <r>    1.8833    0.0000 </r>
       <r>    1.9357    0.0000 </r>
       <r>    2.0804    0.0000 </r>
       <r>    2.3334    0.0000 </r>
       <r>    2.3920    0.0000 </r>
       <r>    2.6328    0.0000 </r>
       <r>    2.6904    0.0000 </r>
      </set>
      <set comment="kpoint 9">
       <r>  -15.2033    1.0000 </r>
       <r>  -13.2870    1.0000 </r>
       <r>  -13.0892    1.0000 </r>
       <r>  -12.8340    1.0000 </r>
       <r>  -12.4569    1.0000 </r>
       <r>  -12.3063    1.0000 </r>
       <r>  -12.0591    1.0000 </r>
       <r>  -11.6513    1.0000 </r>
       <r>  -11.5716    1.0000 </r>
       <r>  -11.3130    1.0000 </r>
       <r>  -10.8340    1.0000 </r>
       <r>   -9.8675    1.0000 </r>
       <r>   -9.3192    1.0000 </r>
       <r>   -8.4535    1.0000 </r>
       <r>   -7.7393    1.0000 </r>
       <r>   -7.2253    1.0000 </r>
       <r>   -6.9805    1.0000 </r>
       <r>   -6.5568    1.0000 </r>
       <r>   -6.4185    1.0000 </r>
       <r>   -6.3013    1.0000 </r>
       <r>   -5.6900    1.0000 </r>
       <r>   -5.5747    1.0000 </r>
       <r>   -5.2095    1.0000 </r>
       <r>   -4.9906    1.0000 </r>
       <r>   -4.5608    1.0000 </r>
       <r>   -4.0110    1.0000 </r>
       <r>   -3.9386    1.0000 </r>
       <r>   -3.6938    1.0000 </r>
       <r>   -3.5171    1.0000 </r>
       <r>   -3.3800    1.0000 </r>
       <r>   -3.2765    1.0000 </r>
       <r>   -3.2574    1.0000 </r>
       <r>   -3.0529    1.0000 </r>
       <r>   -2.9108    1.0000 </r>
       <r>   -2.8004    1.0000 </r>
       <r>   -2.5870    1.0000 </r>
       <r>   -2.5738    1.0000 </r>
       <r>   -2.4646    1.0000 </r>
       <r>   -2.3669    1.0000 </r>
       <r>   -2.2419    1.0000 </r>
       <r>   -2.1992    1.0000 </r>
       <r>   -2.0724    1.0000 </r>
       <r>   -1.9790    1.0000 </r>
       <r>   -1.9178    1.0000 </r>
       <r>   -1.8394    1.0000 </r>
       <r>   -1.7191    1.0000 </r>
       <r>   -1.6239    1.0000 </r>
       <r>   -1.4205    1.0000 </r>
       <r>   -1.2316    1.0000 </r>
       <r>   -0.9715    1.0000 </r>
       <r>   -0.8751    1.0000 </r>
       <r>   -0.7838    1.0000 </r>
       <r>   -0.4747    1.0000 </r>
       <r>    0.0331    0.8546 </r>
       <r>    0.7470    0.0000 </r>
       <r>    0.9328    0.0000 </r>
       <r>    1.2385    0.0000 </r>
       <r>    1.6564    0.0000 </r>
       <r>    1.7388    0.0000 </r>
       <r>    1.8975    0.0000 </r>
       <r>    2.0161    0.0000 </r>
       <r>    2.0812    0.0000 </r>
       <r>    2.3304    0.0000 </r>
       <r>    2.3862    0.0000 </r>
       <r>    2.4732    0.0000 </r>
       <r>    2.6384    0.0000 </r>
       <r>    2.7230    0.0000 </r>
       <r>    2.7847    0.0000 </r>
      </set>
      <set comment="kpoint 10">
       <r>  -15.0285    1.0000 </r>
       <r>  -13.0905    1.0000 </r>
       <r>  -12.9269    1.0000 </r>
       <r>  -12.6974    1.0000 </r>
       <r>  -12.2656    1.0000 </r>
       <r>  -12.1400    1.0000 </r>
       <r>  -11.9168    1.0000 </r>
       <r>  -11.4564    1.0000 </r>
       <r>  -11.4164    1.0000 </r>
       <r>  -11.1735    1.0000 </r>
       <r>  -10.6926    1.0000 </r>
       <r>   -9.8187    1.0000 </r>
       <r>   -9.4095    1.0000 </r>
       <r>   -8.5190    1.0000 </r>
       <r>   -7.6532    1.0000 </r>
       <r>   -7.1916    1.0000 </r>
       <r>   -7.0567    1.0000 </r>
       <r>   -6.5865    1.0000 </r>
       <r>   -6.5343    1.0000 </r>
       <r>   -6.3731    1.0000 </r>
       <r>   -5.9955    1.0000 </r>
       <r>   -5.5291    1.0000 </r>
       <r>   -5.2270    1.0000 </r>
       <r>   -5.0435    1.0000 </r>
       <r>   -4.7194    1.0000 </r>
       <r>   -4.3625    1.0000 </r>
       <r>   -4.2564    1.0000 </r>
       <r>   -4.1743    1.0000 </r>
       <r>   -3.9971    1.0000 </r>
       <r>   -3.8619    1.0000 </r>
       <r>   -3.7327    1.0000 </r>
       <r>   -3.5334    1.0000 </r>
       <r>   -3.3756    1.0000 </r>
       <r>   -3.2557    1.0000 </r>
       <r>   -3.1154    1.0000 </r>
       <r>   -2.9922    1.0000 </r>
       <r>   -2.8436    1.0000 </r>
       <r>   -2.8148    1.0000 </r>
       <r>   -2.7238    1.0000 </r>
       <r>   -2.5996    1.0000 </r>
       <r>   -2.4795    1.0000 </r>
       <r>   -2.4509    1.0000 </r>
       <r>   -2.2113    1.0000 </r>
       <r>   -2.1042    1.0000 </r>
       <r>   -1.9534    1.0000 </r>
       <r>   -1.8146    1.0000 </r>
       <r>   -1.7497    1.0000 </r>
       <r>   -1.5278    1.0000 </r>
       <r>   -1.3587    1.0000 </r>
       <r>   -1.0266    1.0000 </r>
       <r>   -0.8439    1.0000 </r>
       <r>   -0.7917    1.0000 </r>
       <r>   -0.0382    0.9805 </r>
       <r>    0.1913    0.1187 </r>
       <r>    0.3794    0.0001 </r>
       <r>    0.8375    0.0000 </r>
       <r>    1.2602    0.0000 </r>
       <r>    1.7537    0.0000 </r>
       <r>    1.8673    0.0000 </r>
       <r>    2.1505    0.0000 </r>
       <r>    2.2460    0.0000 </r>
       <r>    2.4700    0.0000 </r>
       <r>    2.5089    0.0000 </r>
       <r>    2.6784    0.0000 </r>
       <r>    2.8782    0.0000 </r>
       <r>    2.9676    0.0000 </r>
       <r>    3.0576    0.0000 </r>
       <r>    3.2997    0.0000 </r>
      </set>
      <set comment="kpoint 11">
       <r>  -14.7436    1.0000 </r>
       <r>  -12.7792    1.0000 </r>
       <r>  -12.6528    1.0000 </r>
       <r>  -12.4459    1.0000 </r>
       <r>  -11.9773    1.0000 </r>
       <r>  -11.8727    1.0000 </r>
       <r>  -11.6825    1.0000 </r>
       <r>  -11.1930    1.0000 </r>
       <r>  -11.1646    1.0000 </r>
       <r>  -10.9516    1.0000 </r>
       <r>  -10.4751    1.0000 </r>
       <r>   -9.9380    1.0000 </r>
       <r>   -9.5107    1.0000 </r>
       <r>   -8.6500    1.0000 </r>
       <r>   -7.6572    1.0000 </r>
       <r>   -7.3795    1.0000 </r>
       <r>   -7.2693    1.0000 </r>
       <r>   -6.7449    1.0000 </r>
       <r>   -6.5733    1.0000 </r>
       <r>   -6.5210    1.0000 </r>
       <r>   -6.1358    1.0000 </r>
       <r>   -5.7006    1.0000 </r>
       <r>   -5.5525    1.0000 </r>
       <r>   -5.4482    1.0000 </r>
       <r>   -5.0878    1.0000 </r>
       <r>   -4.9079    1.0000 </r>
       <r>   -4.6843    1.0000 </r>
       <r>   -4.5463    1.0000 </r>
       <r>   -4.4392    1.0000 </r>
       <r>   -4.3304    1.0000 </r>
       <r>   -4.2161    1.0000 </r>
       <r>   -3.9108    1.0000 </r>
       <r>   -3.7377    1.0000 </r>
       <r>   -3.6091    1.0000 </r>
       <r>   -3.3021    1.0000 </r>
       <r>   -3.0936    1.0000 </r>
       <r>   -3.0383    1.0000 </r>
       <r>   -2.9724    1.0000 </r>
       <r>   -2.9110    1.0000 </r>
       <r>   -2.6957    1.0000 </r>
       <r>   -2.6105    1.0000 </r>
       <r>   -2.5066    1.0000 </r>
       <r>   -2.4098    1.0000 </r>
       <r>   -2.2705    1.0000 </r>
       <r>   -2.1144    1.0000 </r>
       <r>   -1.8652    1.0000 </r>
       <r>   -1.7792    1.0000 </r>
       <r>   -1.6740    1.0000 </r>
       <r>   -1.6435    1.0000 </r>
       <r>   -1.2718    1.0000 </r>
       <r>   -0.9841    1.0000 </r>
       <r>   -0.8416    1.0000 </r>
       <r>   -0.2469    1.0000 </r>
       <r>   -0.0268    0.9715 </r>
       <r>    0.2477    0.0239 </r>
       <r>    0.9856    0.0000 </r>
       <r>    1.1068    0.0000 </r>
       <r>    1.5355    0.0000 </r>
       <r>    1.6793    0.0000 </r>
       <r>    1.7721    0.0000 </r>
       <r>    2.1238    0.0000 </r>
       <r>    2.2847    0.0000 </r>
       <r>    2.3292    0.0000 </r>
       <r>    2.7212    0.0000 </r>
       <r>    2.8270    0.0000 </r>
       <r>    2.8450    0.0000 </r>
       <r>    2.9041    0.0000 </r>
       <r>    3.1621    0.0000 </r>
      </set>
      <set comment="kpoint 12">
       <r>  -14.3621    1.0000 </r>
       <r>  -12.3627    1.0000 </r>
       <r>  -12.2777    1.0000 </r>
       <r>  -12.0868    1.0000 </r>
       <r>  -11.6215    1.0000 </r>
       <r>  -11.5236    1.0000 </r>
       <r>  -11.3878    1.0000 </r>
       <r>  -10.8990    1.0000 </r>
       <r>  -10.8572    1.0000 </r>
       <r>  -10.6877    1.0000 </r>
       <r>  -10.4258    1.0000 </r>
       <r>  -10.2690    1.0000 </r>
       <r>   -9.4993    1.0000 </r>
       <r>   -8.8491    1.0000 </r>
       <r>   -8.0368    1.0000 </r>
       <r>   -7.5880    1.0000 </r>
       <r>   -7.5180    1.0000 </r>
       <r>   -6.9916    1.0000 </r>
       <r>   -6.8610    1.0000 </r>
       <r>   -6.8179    1.0000 </r>
       <r>   -6.4617    1.0000 </r>
       <r>   -6.1710    1.0000 </r>
       <r>   -6.0684    1.0000 </r>
       <r>   -5.7966    1.0000 </r>
       <r>   -5.7911    1.0000 </r>
       <r>   -5.2590    1.0000 </r>
       <r>   -4.8215    1.0000 </r>
       <r>   -4.7814    1.0000 </r>
       <r>   -4.5737    1.0000 </r>
       <r>   -4.3050    1.0000 </r>
       <r>   -4.2173    1.0000 </r>
       <r>   -4.1623    1.0000 </r>
       <r>   -3.8949    1.0000 </r>
       <r>   -3.8441    1.0000 </r>
       <r>   -3.4972    1.0000 </r>
       <r>   -3.2206    1.0000 </r>
       <r>   -3.0677    1.0000 </r>
       <r>   -2.9199    1.0000 </r>
       <r>   -2.8744    1.0000 </r>
       <r>   -2.7881    1.0000 </r>
       <r>   -2.7512    1.0000 </r>
       <r>   -2.6236    1.0000 </r>
       <r>   -2.4637    1.0000 </r>
       <r>   -2.3746    1.0000 </r>
       <r>   -2.3211    1.0000 </r>
       <r>   -2.1788    1.0000 </r>
       <r>   -1.8421    1.0000 </r>
       <r>   -1.7620    1.0000 </r>
       <r>   -1.6551    1.0000 </r>
       <r>   -1.5945    1.0000 </r>
       <r>   -1.2413    1.0000 </r>
       <r>   -1.0667    1.0000 </r>
       <r>   -0.5728    1.0000 </r>
       <r>   -0.1546    0.9999 </r>
       <r>    0.1369    0.3403 </r>
       <r>    0.6677    0.0000 </r>
       <r>    0.9156    0.0000 </r>
       <r>    1.3009    0.0000 </r>
       <r>    1.3712    0.0000 </r>
       <r>    1.4415    0.0000 </r>
       <r>    1.7881    0.0000 </r>
       <r>    2.1141    0.0000 </r>
       <r>    2.2927    0.0000 </r>
       <r>    2.4269    0.0000 </r>
       <r>    2.5860    0.0000 </r>
       <r>    2.7369    0.0000 </r>
       <r>    2.7698    0.0000 </r>
       <r>    2.9781    0.0000 </r>
      </set>
      <set comment="kpoint 13">
       <r>  -13.9208    1.0000 </r>
       <r>  -11.8600    1.0000 </r>
       <r>  -11.8296    1.0000 </r>
       <r>  -11.6366    1.0000 </r>
       <r>  -11.3899    1.0000 </r>
       <r>  -11.1485    1.0000 </r>
       <r>  -11.1126    1.0000 </r>
       <r>  -10.8975    1.0000 </r>
       <r>  -10.6187    1.0000 </r>
       <r>  -10.5835    1.0000 </r>
       <r>  -10.4756    1.0000 </r>
       <r>  -10.3451    1.0000 </r>
       <r>   -9.5524    1.0000 </r>
       <r>   -8.8392    1.0000 </r>
       <r>   -8.4292    1.0000 </r>
       <r>   -7.9911    1.0000 </r>
       <r>   -7.8362    1.0000 </r>
       <r>   -7.6573    1.0000 </r>
       <r>   -7.2414    1.0000 </r>
       <r>   -7.1910    1.0000 </r>
       <r>   -6.9589    1.0000 </r>
       <r>   -6.5735    1.0000 </r>
       <r>   -6.5371    1.0000 </r>
       <r>   -6.2724    1.0000 </r>
       <r>   -5.8046    1.0000 </r>
       <r>   -5.2226    1.0000 </r>
       <r>   -4.7061    1.0000 </r>
       <r>   -4.6618    1.0000 </r>
       <r>   -4.5064    1.0000 </r>
       <r>   -4.3194    1.0000 </r>
       <r>   -4.2488    1.0000 </r>
       <r>   -4.0008    1.0000 </r>
       <r>   -3.9207    1.0000 </r>
       <r>   -3.7402    1.0000 </r>
       <r>   -3.6182    1.0000 </r>
       <r>   -3.2586    1.0000 </r>
       <r>   -3.2200    1.0000 </r>
       <r>   -3.1604    1.0000 </r>
       <r>   -3.1072    1.0000 </r>
       <r>   -2.9971    1.0000 </r>
       <r>   -2.9194    1.0000 </r>
       <r>   -2.7940    1.0000 </r>
       <r>   -2.5785    1.0000 </r>
       <r>   -2.4905    1.0000 </r>
       <r>   -2.3153    1.0000 </r>
       <r>   -2.1796    1.0000 </r>
       <r>   -2.0318    1.0000 </r>
       <r>   -1.9435    1.0000 </r>
       <r>   -1.7377    1.0000 </r>
       <r>   -1.5123    1.0000 </r>
       <r>   -1.4430    1.0000 </r>
       <r>   -1.3466    1.0000 </r>
       <r>   -0.6302    1.0000 </r>
       <r>   -0.3297    1.0000 </r>
       <r>    0.1039    0.5220 </r>
       <r>    0.3785    0.0001 </r>
       <r>    0.7509    0.0000 </r>
       <r>    1.1673    0.0000 </r>
       <r>    1.3178    0.0000 </r>
       <r>    1.4373    0.0000 </r>
       <r>    1.5503    0.0000 </r>
       <r>    1.8892    0.0000 </r>
       <r>    1.9484    0.0000 </r>
       <r>    2.1380    0.0000 </r>
       <r>    2.2970    0.0000 </r>
       <r>    2.4090    0.0000 </r>
       <r>    2.7190    0.0000 </r>
       <r>    2.7734    0.0000 </r>
      </set>
      <set comment="kpoint 14">
       <r>  -13.5430    1.0000 </r>
       <r>  -11.7710    1.0000 </r>
       <r>  -11.3128    1.0000 </r>
       <r>  -11.3073    1.0000 </r>
       <r>  -11.1418    1.0000 </r>
       <r>  -10.9693    1.0000 </r>
       <r>  -10.9003    1.0000 </r>
       <r>  -10.8379    1.0000 </r>
       <r>  -10.7404    1.0000 </r>
       <r>  -10.5802    1.0000 </r>
       <r>  -10.4548    1.0000 </r>
       <r>  -10.4215    1.0000 </r>
       <r>   -9.6712    1.0000 </r>
       <r>   -8.6571    1.0000 </r>
       <r>   -8.4321    1.0000 </r>
       <r>   -8.2777    1.0000 </r>
       <r>   -8.2076    1.0000 </r>
       <r>   -8.0053    1.0000 </r>
       <r>   -7.6991    1.0000 </r>
       <r>   -7.3947    1.0000 </r>
       <r>   -7.3004    1.0000 </r>
       <r>   -7.1903    1.0000 </r>
       <r>   -7.0169    1.0000 </r>
       <r>   -6.0781    1.0000 </r>
       <r>   -5.5213    1.0000 </r>
       <r>   -4.8990    1.0000 </r>
       <r>   -4.8714    1.0000 </r>
       <r>   -4.3919    1.0000 </r>
       <r>   -4.3516    1.0000 </r>
       <r>   -4.3080    1.0000 </r>
       <r>   -4.0812    1.0000 </r>
       <r>   -4.0328    1.0000 </r>
       <r>   -3.9589    1.0000 </r>
       <r>   -3.8127    1.0000 </r>
       <r>   -3.6489    1.0000 </r>
       <r>   -3.5421    1.0000 </r>
       <r>   -3.4820    1.0000 </r>
       <r>   -3.3654    1.0000 </r>
       <r>   -3.1857    1.0000 </r>
       <r>   -3.1384    1.0000 </r>
       <r>   -2.9968    1.0000 </r>
       <r>   -2.8624    1.0000 </r>
       <r>   -2.6373    1.0000 </r>
       <r>   -2.5215    1.0000 </r>
       <r>   -2.4792    1.0000 </r>
       <r>   -2.2483    1.0000 </r>
       <r>   -2.0485    1.0000 </r>
       <r>   -1.9964    1.0000 </r>
       <r>   -1.7627    1.0000 </r>
       <r>   -1.5819    1.0000 </r>
       <r>   -1.4339    1.0000 </r>
       <r>   -1.3326    1.0000 </r>
       <r>   -0.6265    1.0000 </r>
       <r>   -0.3890    1.0000 </r>
       <r>    0.1007    0.5395 </r>
       <r>    0.2586    0.0165 </r>
       <r>    0.5765    0.0000 </r>
       <r>    1.2408    0.0000 </r>
       <r>    1.4675    0.0000 </r>
       <r>    1.5664    0.0000 </r>
       <r>    1.6482    0.0000 </r>
       <r>    1.6930    0.0000 </r>
       <r>    1.7744    0.0000 </r>
       <r>    1.8818    0.0000 </r>
       <r>    2.0796    0.0000 </r>
       <r>    2.2977    0.0000 </r>
       <r>    2.5105    0.0000 </r>
       <r>    2.5754    0.0000 </r>
      </set>
      <set comment="kpoint 15">
       <r>  -13.5439    1.0000 </r>
       <r>  -11.7710    1.0000 </r>
       <r>  -11.4137    1.0000 </r>
       <r>  -11.2490    1.0000 </r>
       <r>  -11.0400    1.0000 </r>
       <r>  -10.9501    1.0000 </r>
       <r>  -10.8996    1.0000 </r>
       <r>  -10.8124    1.0000 </r>
       <r>  -10.6839    1.0000 </r>
       <r>  -10.6373    1.0000 </r>
       <r>  -10.5772    1.0000 </r>
       <r>  -10.4310    1.0000 </r>
       <r>   -9.6622    1.0000 </r>
       <r>   -8.6373    1.0000 </r>
       <r>   -8.6090    1.0000 </r>
       <r>   -8.3127    1.0000 </r>
       <r>   -8.0251    1.0000 </r>
       <r>   -7.8227    1.0000 </r>
       <r>   -7.7187    1.0000 </r>
       <r>   -7.4815    1.0000 </r>
       <r>   -7.3140    1.0000 </r>
       <r>   -7.1578    1.0000 </r>
       <r>   -7.0955    1.0000 </r>
       <r>   -6.1049    1.0000 </r>
       <r>   -5.3541    1.0000 </r>
       <r>   -4.8948    1.0000 </r>
       <r>   -4.6246    1.0000 </r>
       <r>   -4.4688    1.0000 </r>
       <r>   -4.4296    1.0000 </r>
       <r>   -4.2550    1.0000 </r>
       <r>   -4.2140    1.0000 </r>
       <r>   -4.1200    1.0000 </r>
       <r>   -3.9085    1.0000 </r>
       <r>   -3.8693    1.0000 </r>
       <r>   -3.7638    1.0000 </r>
       <r>   -3.6781    1.0000 </r>
       <r>   -3.5511    1.0000 </r>
       <r>   -3.4975    1.0000 </r>
       <r>   -3.2341    1.0000 </r>
       <r>   -2.9937    1.0000 </r>
       <r>   -2.8863    1.0000 </r>
       <r>   -2.8402    1.0000 </r>
       <r>   -2.6846    1.0000 </r>
       <r>   -2.5559    1.0000 </r>
       <r>   -2.2943    1.0000 </r>
       <r>   -2.2597    1.0000 </r>
       <r>   -2.0476    1.0000 </r>
       <r>   -2.0004    1.0000 </r>
       <r>   -1.8430    1.0000 </r>
       <r>   -1.5889    1.0000 </r>
       <r>   -1.3905    1.0000 </r>
       <r>   -1.3460    1.0000 </r>
       <r>   -0.5637    1.0000 </r>
       <r>   -0.2691    1.0000 </r>
       <r>    0.1106    0.4839 </r>
       <r>    0.2511    0.0213 </r>
       <r>    0.6253    0.0000 </r>
       <r>    1.2525    0.0000 </r>
       <r>    1.4794    0.0000 </r>
       <r>    1.6608    0.0000 </r>
       <r>    1.7890    0.0000 </r>
       <r>    1.7985    0.0000 </r>
       <r>    1.9155    0.0000 </r>
       <r>    1.9650    0.0000 </r>
       <r>    2.1377    0.0000 </r>
       <r>    2.3674    0.0000 </r>
       <r>    2.4264    0.0000 </r>
       <r>    2.5092    0.0000 </r>
      </set>
      <set comment="kpoint 16">
       <r>  -13.9227    1.0000 </r>
       <r>  -11.9802    1.0000 </r>
       <r>  -11.7395    1.0000 </r>
       <r>  -11.4893    1.0000 </r>
       <r>  -11.3634    1.0000 </r>
       <r>  -11.1889    1.0000 </r>
       <r>  -11.1250    1.0000 </r>
       <r>  -10.8566    1.0000 </r>
       <r>  -10.8030    1.0000 </r>
       <r>  -10.5922    1.0000 </r>
       <r>  -10.5056    1.0000 </r>
       <r>  -10.3276    1.0000 </r>
       <r>   -9.5471    1.0000 </r>
       <r>   -8.6205    1.0000 </r>
       <r>   -8.4213    1.0000 </r>
       <r>   -8.3678    1.0000 </r>
       <r>   -7.7845    1.0000 </r>
       <r>   -7.3190    1.0000 </r>
       <r>   -7.2393    1.0000 </r>
       <r>   -7.2084    1.0000 </r>
       <r>   -7.0520    1.0000 </r>
       <r>   -6.6870    1.0000 </r>
       <r>   -6.5429    1.0000 </r>
       <r>   -6.2507    1.0000 </r>
       <r>   -5.5794    1.0000 </r>
       <r>   -4.9462    1.0000 </r>
       <r>   -4.7946    1.0000 </r>
       <r>   -4.7053    1.0000 </r>
       <r>   -4.4679    1.0000 </r>
       <r>   -4.3017    1.0000 </r>
       <r>   -4.2656    1.0000 </r>
       <r>   -4.1463    1.0000 </r>
       <r>   -3.9812    1.0000 </r>
       <r>   -3.9193    1.0000 </r>
       <r>   -3.6793    1.0000 </r>
       <r>   -3.5933    1.0000 </r>
       <r>   -3.3427    1.0000 </r>
       <r>   -3.2834    1.0000 </r>
       <r>   -3.1250    1.0000 </r>
       <r>   -3.0350    1.0000 </r>
       <r>   -2.9346    1.0000 </r>
       <r>   -2.6153    1.0000 </r>
       <r>   -2.5220    1.0000 </r>
       <r>   -2.3869    1.0000 </r>
       <r>   -2.3387    1.0000 </r>
       <r>   -2.1221    1.0000 </r>
       <r>   -1.9851    1.0000 </r>
       <r>   -1.8222    1.0000 </r>
       <r>   -1.7098    1.0000 </r>
       <r>   -1.6926    1.0000 </r>
       <r>   -1.4742    1.0000 </r>
       <r>   -1.2805    1.0000 </r>
       <r>   -0.4058    1.0000 </r>
       <r>   -0.2344    1.0000 </r>
       <r>    0.1276    0.3895 </r>
       <r>    0.3997    0.0000 </r>
       <r>    0.9261    0.0000 </r>
       <r>    1.2457    0.0000 </r>
       <r>    1.4968    0.0000 </r>
       <r>    1.8262    0.0000 </r>
       <r>    1.9440    0.0000 </r>
       <r>    1.9910    0.0000 </r>
       <r>    2.0961    0.0000 </r>
       <r>    2.2006    0.0000 </r>
       <r>    2.3018    0.0000 </r>
       <r>    2.4111    0.0000 </r>
       <r>    2.5538    0.0000 </r>
       <r>    2.7227    0.0000 </r>
      </set>
      <set comment="kpoint 17">
       <r>  -14.3642    1.0000 </r>
       <r>  -12.4743    1.0000 </r>
       <r>  -12.1914    1.0000 </r>
       <r>  -11.8264    1.0000 </r>
       <r>  -11.8056    1.0000 </r>
       <r>  -11.5249    1.0000 </r>
       <r>  -11.2631    1.0000 </r>
       <r>  -11.1157    1.0000 </r>
       <r>  -10.9805    1.0000 </r>
       <r>  -10.6489    1.0000 </r>
       <r>  -10.3695    1.0000 </r>
       <r>  -10.2988    1.0000 </r>
       <r>   -9.4805    1.0000 </r>
       <r>   -8.4338    1.0000 </r>
       <r>   -8.1418    1.0000 </r>
       <r>   -8.0656    1.0000 </r>
       <r>   -7.3284    1.0000 </r>
       <r>   -6.8967    1.0000 </r>
       <r>   -6.8745    1.0000 </r>
       <r>   -6.7476    1.0000 </r>
       <r>   -6.6332    1.0000 </r>
       <r>   -6.0637    1.0000 </r>
       <r>   -6.0318    1.0000 </r>
       <r>   -5.8504    1.0000 </r>
       <r>   -5.6458    1.0000 </r>
       <r>   -5.0343    1.0000 </r>
       <r>   -4.9308    1.0000 </r>
       <r>   -4.7613    1.0000 </r>
       <r>   -4.5574    1.0000 </r>
       <r>   -4.4971    1.0000 </r>
       <r>   -4.2239    1.0000 </r>
       <r>   -4.1600    1.0000 </r>
       <r>   -4.1145    1.0000 </r>
       <r>   -3.7443    1.0000 </r>
       <r>   -3.4480    1.0000 </r>
       <r>   -3.3796    1.0000 </r>
       <r>   -3.3163    1.0000 </r>
       <r>   -2.9849    1.0000 </r>
       <r>   -2.9497    1.0000 </r>
       <r>   -2.8840    1.0000 </r>
       <r>   -2.7572    1.0000 </r>
       <r>   -2.5897    1.0000 </r>
       <r>   -2.5147    1.0000 </r>
       <r>   -2.3772    1.0000 </r>
       <r>   -2.2393    1.0000 </r>
       <r>   -1.9029    1.0000 </r>
       <r>   -1.7703    1.0000 </r>
       <r>   -1.7455    1.0000 </r>
       <r>   -1.6387    1.0000 </r>
       <r>   -1.5718    1.0000 </r>
       <r>   -1.2571    1.0000 </r>
       <r>   -1.1555    1.0000 </r>
       <r>   -0.3611    1.0000 </r>
       <r>   -0.1830    1.0000 </r>
       <r>    0.1972    0.1030 </r>
       <r>    0.6273    0.0000 </r>
       <r>    1.2131    0.0000 </r>
       <r>    1.4707    0.0000 </r>
       <r>    1.7739    0.0000 </r>
       <r>    1.9168    0.0000 </r>
       <r>    2.1086    0.0000 </r>
       <r>    2.1279    0.0000 </r>
       <r>    2.2767    0.0000 </r>
       <r>    2.4014    0.0000 </r>
       <r>    2.4942    0.0000 </r>
       <r>    2.5633    0.0000 </r>
       <r>    2.8150    0.0000 </r>
       <r>    2.8814    0.0000 </r>
      </set>
      <set comment="kpoint 18">
       <r>  -14.7455    1.0000 </r>
       <r>  -12.8696    1.0000 </r>
       <r>  -12.5822    1.0000 </r>
       <r>  -12.2302    1.0000 </r>
       <r>  -12.1311    1.0000 </r>
       <r>  -11.8774    1.0000 </r>
       <r>  -11.5918    1.0000 </r>
       <r>  -11.4095    1.0000 </r>
       <r>  -11.2069    1.0000 </r>
       <r>  -10.9052    1.0000 </r>
       <r>  -10.4779    1.0000 </r>
       <r>   -9.9651    1.0000 </r>
       <r>   -9.4323    1.0000 </r>
       <r>   -8.2780    1.0000 </r>
       <r>   -7.8650    1.0000 </r>
       <r>   -7.6614    1.0000 </r>
       <r>   -7.0553    1.0000 </r>
       <r>   -6.7860    1.0000 </r>
       <r>   -6.5691    1.0000 </r>
       <r>   -6.5132    1.0000 </r>
       <r>   -6.2699    1.0000 </r>
       <r>   -5.6178    1.0000 </r>
       <r>   -5.5641    1.0000 </r>
       <r>   -5.3801    1.0000 </r>
       <r>   -5.2127    1.0000 </r>
       <r>   -4.7804    1.0000 </r>
       <r>   -4.7022    1.0000 </r>
       <r>   -4.4781    1.0000 </r>
       <r>   -4.3982    1.0000 </r>
       <r>   -4.3435    1.0000 </r>
       <r>   -4.0966    1.0000 </r>
       <r>   -4.0284    1.0000 </r>
       <r>   -3.8123    1.0000 </r>
       <r>   -3.6421    1.0000 </r>
       <r>   -3.4477    1.0000 </r>
       <r>   -3.3246    1.0000 </r>
       <r>   -3.1320    1.0000 </r>
       <r>   -2.9084    1.0000 </r>
       <r>   -2.8728    1.0000 </r>
       <r>   -2.6945    1.0000 </r>
       <r>   -2.5476    1.0000 </r>
       <r>   -2.4727    1.0000 </r>
       <r>   -2.3321    1.0000 </r>
       <r>   -2.2900    1.0000 </r>
       <r>   -2.0688    1.0000 </r>
       <r>   -1.7851    1.0000 </r>
       <r>   -1.7099    1.0000 </r>
       <r>   -1.6953    1.0000 </r>
       <r>   -1.5943    1.0000 </r>
       <r>   -1.3367    1.0000 </r>
       <r>   -1.0002    1.0000 </r>
       <r>   -0.7486    1.0000 </r>
       <r>   -0.2808    1.0000 </r>
       <r>   -0.0903    0.9975 </r>
       <r>    0.2697    0.0110 </r>
       <r>    0.9325    0.0000 </r>
       <r>    1.4691    0.0000 </r>
       <r>    1.7297    0.0000 </r>
       <r>    1.9442    0.0000 </r>
[...]
       <r>    2.7985    0.0000 </r>
      </set>
      <set comment="kpoint 54">
       <r>  -13.5434    1.0000 </r>
       <r>  -11.7694    1.0000 </r>
       <r>  -11.3688    1.0000 </r>
       <r>  -11.2918    1.0000 </r>
       <r>  -11.0479    1.0000 </r>
       <r>  -10.9880    1.0000 </r>
       <r>  -10.9064    1.0000 </r>
       <r>  -10.8284    1.0000 </r>
       <r>  -10.7253    1.0000 </r>
       <r>  -10.6029    1.0000 </r>
       <r>  -10.4959    1.0000 </r>
       <r>  -10.4259    1.0000 </r>
       <r>   -9.6668    1.0000 </r>
       <r>   -8.6307    1.0000 </r>
       <r>   -8.5423    1.0000 </r>
       <r>   -8.3193    1.0000 </r>
       <r>   -8.0148    1.0000 </r>
       <r>   -7.9975    1.0000 </r>
       <r>   -7.7126    1.0000 </r>
       <r>   -7.4383    1.0000 </r>
       <r>   -7.3063    1.0000 </r>
       <r>   -7.1666    1.0000 </r>
       <r>   -7.0470    1.0000 </r>
       <r>   -6.1006    1.0000 </r>
       <r>   -5.4625    1.0000 </r>
       <r>   -4.8498    1.0000 </r>
       <r>   -4.8250    1.0000 </r>
       <r>   -4.4414    1.0000 </r>
       <r>   -4.3654    1.0000 </r>
       <r>   -4.3006    1.0000 </r>
       <r>   -4.1413    1.0000 </r>
       <r>   -3.9902    1.0000 </r>
       <r>   -3.9415    1.0000 </r>
       <r>   -3.8351    1.0000 </r>
       <r>   -3.6776    1.0000 </r>
       <r>   -3.6347    1.0000 </r>
       <r>   -3.4926    1.0000 </r>
       <r>   -3.4231    1.0000 </r>
       <r>   -3.1589    1.0000 </r>
       <r>   -3.1368    1.0000 </r>
       <r>   -2.9504    1.0000 </r>
       <r>   -2.8969    1.0000 </r>
       <r>   -2.6804    1.0000 </r>
       <r>   -2.5692    1.0000 </r>
       <r>   -2.2929    1.0000 </r>
       <r>   -2.2360    1.0000 </r>
       <r>   -2.0758    1.0000 </r>
       <r>   -1.9851    1.0000 </r>
       <r>   -1.8113    1.0000 </r>
       <r>   -1.5993    1.0000 </r>
       <r>   -1.4114    1.0000 </r>
       <r>   -1.3381    1.0000 </r>
       <r>   -0.6107    1.0000 </r>
       <r>   -0.3520    1.0000 </r>
       <r>    0.1194    0.4346 </r>
       <r>    0.2761    0.0086 </r>
       <r>    0.5733    0.0000 </r>
       <r>    1.1396    0.0000 </r>
       <r>    1.4672    0.0000 </r>
       <r>    1.5331    0.0000 </r>
       <r>    1.7082    0.0000 </r>
       <r>    1.8170    0.0000 </r>
       <r>    1.8889    0.0000 </r>
       <r>    1.9966    0.0000 </r>
       <r>    2.1593    0.0000 </r>
       <r>    2.2566    0.0000 </r>
       <r>    2.4738    0.0000 </r>
       <r>    2.5461    0.0000 </r>
      </set>
     </set>
    </set>
   </array>
  </eigenvalues>
  <separator name="orbital magnetization" >
   <v name="MAGDIPOLOUT">      0.00000000      0.00000000      0.00000000</v>
  </separator>
  <dos>
   <i name="efermi">      0.10776832 </i>
   <total>
    <array>
     <dimension dim="1">gridpoints</dimension>
     <dimension dim="2">spin</dimension>
     <field>energy</field>
     <field>total</field>
     <field>integrated</field>
     <set>
      <set comment="spin 1">
       <r>   -16.2638     0.0000     0.0000 </r>
       <r>   -16.1953     0.0000     0.0000 </r>
       <r>   -16.1267     0.0000     0.0000 </r>
       <r>   -16.0582     0.0000     0.0000 </r>
       <r>   -15.9896     0.0000     0.0000 </r>
       <r>   -15.9211     0.0000     0.0000 </r>
       <r>   -15.8526     0.0000     0.0000 </r>
       <r>   -15.7840     0.0000     0.0000 </r>
       <r>   -15.7155     0.0000     0.0000 </r>
       <r>   -15.6469     0.0000     0.0000 </r>
       <r>   -15.5784     0.0000     0.0000 </r>
       <r>   -15.5098     0.0005     0.0000 </r>
       <r>   -15.4413     0.0140     0.0010 </r>
       <r>   -15.3727     0.1560     0.0117 </r>
       <r>   -15.3042     0.7991     0.0665 </r>
       <r>   -15.2357     1.9512     0.2002 </r>
       <r>   -15.1671     2.3689     0.3626 </r>
       <r>   -15.0986     1.8457     0.4891 </r>
       <r>   -15.0300     1.7891     0.6117 </r>
       <r>   -14.9615     1.5421     0.7174 </r>
       <r>   -14.8929     0.7149     0.7664 </r>
       <r>   -14.8244     0.6130     0.8085 </r>
       <r>   -14.7558     1.3865     0.9035 </r>
       <r>   -14.6873     1.5911     1.0126 </r>
       <r>   -14.6187     0.7707     1.0654 </r>
       <r>   -14.5502     0.1733     1.0773 </r>
       <r>   -14.4817     0.2053     1.0913 </r>
       <r>   -14.4131     0.8674     1.1508 </r>
       <r>   -14.3446     1.6328     1.2627 </r>
       <r>   -14.2760     1.2898     1.3511 </r>
       <r>   -14.2075     0.4268     1.3804 </r>
       <r>   -14.1389     0.0634     1.3847 </r>
       <r>   -14.0704     0.0783     1.3901 </r>
       <r>   -14.0018     0.4977     1.4242 </r>
       <r>   -13.9333     1.3754     1.5185 </r>
       <r>   -13.8648     1.5926     1.6276 </r>
       <r>   -13.7962     0.7741     1.6807 </r>
       <r>   -13.7277     0.1766     1.6928 </r>
       <r>   -13.6591     0.2214     1.7080 </r>
       <r>   -13.5906     0.9110     1.7704 </r>
       <r>   -13.5220     1.7087     1.8875 </r>
       <r>   -13.4535     1.6201     1.9986 </r>
       <r>   -13.3849     1.5030     2.1016 </r>
       <r>   -13.3164     1.9257     2.2336 </r>
       <r>   -13.2478     2.2186     2.3857 </r>
       <r>   -13.1793     2.7227     2.5723 </r>
       <r>   -13.1108     3.5761     2.8174 </r>
       <r>   -13.0422     3.8438     3.0809 </r>
       <r>   -12.9737     3.4455     3.3171 </r>
       <r>   -12.9051     3.4925     3.5565 </r>
       <r>   -12.8366     3.9939     3.8302 </r>
       <r>   -12.7680     3.9304     4.0996 </r>
       <r>   -12.6995     3.5612     4.3437 </r>
       <r>   -12.6309     3.6892     4.5966 </r>
       <r>   -12.5624     4.1423     4.8805 </r>
       <r>   -12.4939     4.7400     5.2054 </r>
       <r>   -12.4253     5.5079     5.5830 </r>
       <r>   -12.3568     6.0538     5.9979 </r>
       <r>   -12.2882     6.2355     6.4253 </r>
       <r>   -12.2197     6.2414     6.8532 </r>
       <r>   -12.1511     6.4319     7.2940 </r>
       <r>   -12.0826     6.2250     7.7207 </r>
       <r>   -12.0140     5.7005     8.1115 </r>
       <r>   -11.9455     6.1574     8.5335 </r>
       <r>   -11.8769     7.5468     9.0508 </r>
       <r>   -11.8084     8.5727     9.6384 </r>
       <r>   -11.7399     8.2319    10.2027 </r>
       <r>   -11.6713     7.4008    10.7100 </r>
       <r>   -11.6028     7.6741    11.2360 </r>
       <r>   -11.5342     8.2850    11.8039 </r>
       <r>   -11.4657     8.7321    12.4024 </r>
       <r>   -11.3971     9.8467    13.0774 </r>
       <r>   -11.3286    10.1093    13.7703 </r>
       <r>   -11.2600     9.2599    14.4051 </r>
       <r>   -11.1915     9.2855    15.0415 </r>
       <r>   -11.1230     9.5111    15.6935 </r>
       <r>   -11.0544     8.0896    16.2480 </r>
       <r>   -10.9859     7.5884    16.7681 </r>
       <r>   -10.9173     9.8007    17.4399 </r>
       <r>   -10.8488    11.2902    18.2138 </r>
       <r>   -10.7802     9.6326    18.8741 </r>
       <r>   -10.7117     8.1544    19.4330 </r>
       <r>   -10.6431     8.5587    20.0197 </r>
       <r>   -10.5746     8.4571    20.5993 </r>
       <r>   -10.5060     8.1114    21.1553 </r>
       <r>   -10.4375     8.2463    21.7206 </r>
       <r>   -10.3690     7.3333    22.2232 </r>
       <r>   -10.3004     5.4868    22.5993 </r>
       <r>   -10.2319     3.2608    22.8228 </r>
       <r>   -10.1633     1.2190    22.9064 </r>
       <r>   -10.0948     0.3601    22.9311 </r>
       <r>   -10.0262     0.8789    22.9913 </r>
       <r>    -9.9577     2.7267    23.1782 </r>
       <r>    -9.8891     4.5126    23.4875 </r>
       <r>    -9.8206     4.3155    23.7834 </r>
       <r>    -9.7521     2.8206    23.9767 </r>
       <r>    -9.6835     2.1973    24.1273 </r>
       <r>    -9.6150     2.7104    24.3131 </r>
       <r>    -9.5464     3.8647    24.5780 </r>
       <r>    -9.4779     5.0563    24.9246 </r>
       <r>    -9.4093     4.8371    25.2561 </r>
       <r>    -9.3408     3.9700    25.5283 </r>
       <r>    -9.2722     3.3611    25.7587 </r>
       <r>    -9.2037     2.2832    25.9152 </r>
       <r>    -9.1352     0.9745    25.9820 </r>
       <r>    -9.0666     0.2355    25.9981 </r>
       <r>    -8.9981     0.0642    26.0025 </r>
       <r>    -8.9295     0.2833    26.0219 </r>
       <r>    -8.8610     1.0033    26.0907 </r>
       <r>    -8.7924     1.8391    26.2168 </r>
       <r>    -8.7239     2.6008    26.3950 </r>
       <r>    -8.6553     4.2196    26.6843 </r>
       <r>    -8.5868     5.4778    27.0597 </r>
       <r>    -8.5182     4.9401    27.3984 </r>
       <r>    -8.4497     4.6076    27.7142 </r>
       <r>    -8.3812     5.0142    28.0579 </r>
       <r>    -8.3126     5.0217    28.4021 </r>
       <r>    -8.2441     4.5487    28.7139 </r>
       <r>    -8.1755     3.6334    28.9629 </r>
       <r>    -8.1070     3.5852    29.2087 </r>
       <r>    -8.0384     4.8110    29.5384 </r>
       <r>    -7.9699     5.3973    29.9084 </r>
       <r>    -7.9013     4.6067    30.2242 </r>
       <r>    -7.8328     4.9116    30.5608 </r>
       <r>    -7.7643     7.2115    31.0552 </r>
       <r>    -7.6957     9.1384    31.6815 </r>
       <r>    -7.6272     7.9324    32.2253 </r>
       <r>    -7.5586     4.7681    32.5521 </r>
       <r>    -7.4901     3.4939    32.7916 </r>
       <r>    -7.4215     4.3686    33.0910 </r>
       <r>    -7.3530     6.2009    33.5161 </r>
       <r>    -7.2844     8.3525    34.0886 </r>
       <r>    -7.2159     9.1774    34.7177 </r>
       <r>    -7.1473     8.3181    35.2878 </r>
       <r>    -7.0788     7.6230    35.8103 </r>
       <r>    -7.0103     8.4891    36.3922 </r>
       <r>    -6.9417     8.6250    36.9834 </r>
       <r>    -6.8732     7.0160    37.4643 </r>
       <r>    -6.8046     5.7065    37.8555 </r>
       <r>    -6.7361     5.2441    38.2149 </r>
       <r>    -6.6675     6.0009    38.6263 </r>
       <r>    -6.5990     8.9900    39.2425 </r>
       <r>    -6.5304    11.8878    40.0573 </r>
       <r>    -6.4619    10.4801    40.7757 </r>
       <r>    -6.3934     6.8795    41.2473 </r>
       <r>    -6.3248     5.7266    41.6398 </r>
       <r>    -6.2563     6.5948    42.0918 </r>
       <r>    -6.1877     6.8641    42.5623 </r>
       <r>    -6.1192     7.0578    43.0461 </r>
       <r>    -6.0506     6.8402    43.5150 </r>
       <r>    -5.9821     4.7086    43.8377 </r>
       <r>    -5.9135     2.5070    44.0096 </r>
       <r>    -5.8450     2.5544    44.1847 </r>
       <r>    -5.7764     4.4270    44.4881 </r>
       <r>    -5.7079     6.4309    44.9289 </r>
       <r>    -5.6394     7.6719    45.4548 </r>
       <r>    -5.5708     7.8903    45.9956 </r>
       <r>    -5.5023     6.9829    46.4743 </r>
       <r>    -5.4337     5.9854    46.8845 </r>
       <r>    -5.3652     5.6480    47.2717 </r>
       <r>    -5.2966     5.5972    47.6553 </r>
       <r>    -5.2281     6.1403    48.0762 </r>
       <r>    -5.1595     5.9942    48.4871 </r>
       <r>    -5.0910     5.2965    48.8501 </r>
       <r>    -5.0225     5.7854    49.2467 </r>
       <r>    -4.9539     6.9645    49.7241 </r>
       <r>    -4.8854     8.1026    50.2795 </r>
       <r>    -4.8168     8.7679    50.8805 </r>
       <r>    -4.7483     9.4254    51.5265 </r>
       <r>    -4.6797     9.1711    52.1552 </r>
       <r>    -4.6112     8.2869    52.7232 </r>
       <r>    -4.5426     8.9263    53.3351 </r>
       <r>    -4.4741    10.2087    54.0348 </r>
       <r>    -4.4055    11.0572    54.7927 </r>
       <r>    -4.3370    11.9073    55.6089 </r>
       <r>    -4.2685    12.4863    56.4648 </r>
       <r>    -4.1999    12.7482    57.3386 </r>
       <r>    -4.1314    12.7630    58.2134 </r>
       <r>    -4.0628    12.7610    59.0881 </r>
       <r>    -3.9943    13.6023    60.0205 </r>
       <r>    -3.9257    14.4685    61.0123 </r>
       <r>    -3.8572    13.7289    61.9533 </r>
       <r>    -3.7886    11.9905    62.7752 </r>
       <r>    -3.7201    11.0751    63.5343 </r>
       <r>    -3.6516    11.2328    64.3043 </r>
       <r>    -3.5830    11.8828    65.1188 </r>
       <r>    -3.5145    12.2684    65.9597 </r>
       <r>    -3.4459    12.1494    66.7925 </r>
       <r>    -3.3774    12.0143    67.6160 </r>
       <r>    -3.3088    12.8475    68.4967 </r>
       <r>    -3.2403    14.0739    69.4613 </r>
       <r>    -3.1717    14.7487    70.4723 </r>
       <r>    -3.1032    15.8634    71.5597 </r>
       <r>    -3.0347    16.9328    72.7203 </r>
       <r>    -2.9661    18.4069    73.9820 </r>
       <r>    -2.8976    19.7432    75.3353 </r>
       <r>    -2.8290    17.9759    76.5675 </r>
       <r>    -2.7605    14.8494    77.5853 </r>
       <r>    -2.6919    13.5653    78.5152 </r>
       <r>    -2.6234    14.7638    79.5271 </r>
       <r>    -2.5548    17.2922    80.7124 </r>
       <r>    -2.4863    17.8465    81.9357 </r>
       <r>    -2.4177    16.6906    83.0798 </r>
       <r>    -2.3492    16.3976    84.2037 </r>
       <r>    -2.2807    17.1420    85.3787 </r>
       <r>    -2.2121    15.9689    86.4733 </r>
       <r>    -2.1436    13.6655    87.4100 </r>
       <r>    -2.0750    14.0087    88.3703 </r>
       <r>    -2.0065    15.1229    89.4069 </r>
       <r>    -1.9379    14.8981    90.4280 </r>
       <r>    -1.8694    15.4906    91.4899 </r>
       <r>    -1.8008    17.7280    92.7050 </r>
       <r>    -1.7323    18.8492    93.9970 </r>
       <r>    -1.6638    17.7911    95.2165 </r>
       <r>    -1.5952    16.4352    96.3431 </r>
       <r>    -1.5267    14.0072    97.3032 </r>
       <r>    -1.4581    11.1971    98.0707 </r>
       <r>    -1.3896    10.2073    98.7704 </r>
       <r>    -1.3210    10.5269    99.4919 </r>
       <r>    -1.2525     9.6412   100.1528 </r>
       <r>    -1.1839     7.1282   100.6414 </r>
       <r>    -1.1154     5.6208   101.0267 </r>
       <r>    -1.0468     6.1030   101.4450 </r>
       <r>    -0.9783     6.8522   101.9147 </r>
       <r>    -0.9098     7.0512   102.3980 </r>
       <r>    -0.8412     7.8024   102.9328 </r>
       <r>    -0.7727     7.7651   103.4651 </r>
       <r>    -0.7041     5.7588   103.8598 </r>
       <r>    -0.6356     4.2822   104.1533 </r>
       <r>    -0.5670     4.5030   104.4620 </r>
       <r>    -0.4985     4.6867   104.7832 </r>
       <r>    -0.4299     4.7430   105.1083 </r>
       <r>    -0.3614     5.1609   105.4621 </r>
       <r>    -0.2929     5.4473   105.8355 </r>
       <r>    -0.2243     5.2815   106.1975 </r>
       <r>    -0.1558     4.7213   106.5211 </r>
       <r>    -0.0872     4.9249   106.8587 </r>
       <r>    -0.0187     5.5700   107.2405 </r>
       <r>     0.0499     5.6596   107.6284 </r>
       <r>     0.1184     6.5340   108.0763 </r>
       <r>     0.1870     7.7750   108.6092 </r>
       <r>     0.2555     7.6640   109.1346 </r>
       <r>     0.3241     6.2469   109.5628 </r>
       <r>     0.3926     4.6818   109.8837 </r>
       <r>     0.4611     2.9772   110.0877 </r>
       <r>     0.5297     1.9083   110.2185 </r>
       <r>     0.5982     2.6586   110.4008 </r>
       <r>     0.6668     3.6025   110.6477 </r>
       <r>     0.7353     3.9018   110.9152 </r>
       <r>     0.8039     4.7690   111.2420 </r>
       <r>     0.8724     6.0809   111.6589 </r>
       <r>     0.9410     6.8404   112.1277 </r>
       <r>     1.0095     5.7742   112.5235 </r>
       <r>     1.0780     4.1053   112.8049 </r>
       <r>     1.1466     4.6270   113.1221 </r>
       <r>     1.2151     7.1703   113.6136 </r>
       <r>     1.2837     9.0326   114.2327 </r>
       <r>     1.3522     8.6366   114.8247 </r>
       <r>     1.4208     8.3191   115.3949 </r>
       <r>     1.4893     9.0162   116.0130 </r>
       <r>     1.5579     8.5592   116.5996 </r>
       <r>     1.6264     8.3756   117.1737 </r>
       <r>     1.6950    11.0771   117.9330 </r>
       <r>     1.7635    13.6550   118.8690 </r>
       <r>     1.8320    13.5728   119.7994 </r>
       <r>     1.9006    13.2385   120.7068 </r>
       <r>     1.9691    13.3293   121.6204 </r>
       <r>     2.0377    13.0232   122.5131 </r>
       <r>     2.1062    13.3542   123.4285 </r>
       <r>     2.1748    13.7300   124.3696 </r>
       <r>     2.2433    13.9845   125.3282 </r>
       <r>     2.3119    15.8816   126.4168 </r>
       <r>     2.3804    17.5192   127.6176 </r>
       <r>     2.4489    16.1797   128.7267 </r>
       <r>     2.5175    13.9346   129.6818 </r>
       <r>     2.5860    12.7862   130.5582 </r>
       <r>     2.6546    11.8684   131.3718 </r>
       <r>     2.7231    12.0300   132.1964 </r>
       <r>     2.7917    12.8298   133.0758 </r>
       <r>     2.8602    12.2051   133.9124 </r>
       <r>     2.9288     9.8979   134.5908 </r>
       <r>     2.9973     7.3393   135.0939 </r>
       <r>     3.0659     5.0780   135.4420 </r>
       <r>     3.1344     3.2590   135.6654 </r>
       <r>     3.2029     2.2796   135.8216 </r>
       <r>     3.2715     1.5448   135.9275 </r>
       <r>     3.3400     0.7626   135.9798 </r>
       <r>     3.4086     0.2460   135.9966 </r>
       <r>     3.4771     0.0451   135.9997 </r>
       <r>     3.5457     0.0040   136.0000 </r>
       <r>     3.6142     0.0002   136.0000 </r>
       <r>     3.6828     0.0000   136.0000 </r>
       <r>     3.7513     0.0000   136.0000 </r>
       <r>     3.8198     0.0000   136.0000 </r>
       <r>     3.8884     0.0000   136.0000 </r>
       <r>     3.9569     0.0000   136.0000 </r>
       <r>     4.0255     0.0000   136.0000 </r>
       <r>     4.0940     0.0000   136.0000 </r>
       <r>     4.1626     0.0000   136.0000 </r>
       <r>     4.2311     0.0000   136.0000 </r>
       <r>     4.2997     0.0000   136.0000 </r>
      </set>
     </set>
    </array>
   </total>
  </dos>
 </calculation>
 <structure name="finalpos" >
  <crystal>
   <varray name="basis" >
    <v>       3.54040000       0.00000000       0.00000000 </v>
    <v>      -1.77020000      10.29434800       0.00000000 </v>
    <v>       0.00000000       0.00000000      27.50142900 </v>
   </varray>
   <i name="volume">   1002.32009712 </i>
   <varray name="rec_basis" >
    <v>       0.28245396       0.04857034       0.00000000 </v>
    <v>       0.00000000       0.09714068       0.00000000 </v>
    <v>       0.00000000       0.00000000       0.03636175 </v>
   </varray>
  </crystal>
  <varray name="positions" >
   <v>       0.11402300       0.22804500       0.23316207 </v>
   <v>       0.71402300       0.52804500       0.51499159 </v>
   <v>       0.45808900       0.91617900       0.20939482 </v>
   <v>       0.05808900       0.21617900       0.49122434 </v>
   <v>       0.31085400       0.62170900       0.08414979 </v>
   <v>       0.31085400       0.62170900       0.36597930 </v>
   <v>       0.99923000       0.99846000       0.08631254 </v>
   <v>       0.99923000       0.99846000       0.36814206 </v>
   <v>       0.65492700       0.30985400       0.06041748 </v>
   <v>       0.65492700       0.30985400       0.34224700 </v>
   <v>       0.76973800       0.53947500       0.20725292 </v>
   <v>       0.36973800       0.83947500       0.48908244 </v>
   <v>       0.93971600       0.87943300       0.15783749 </v>
   <v>       0.53971600       0.17943300       0.43966701 </v>
   <v>       0.20515200       0.41030300       0.18578822 </v>
   <v>       0.80515200       0.71030300       0.46761774 </v>
   <v>       0.20184900       0.40369900       0.09969156 </v>
   <v>       0.20184900       0.40369900       0.38152107 </v>
   <v>       0.56380500       0.12761000       0.10779021 </v>
   <v>       0.56380500       0.12761000       0.38961973 </v>
   <v>       0.56710600       0.13421200       0.19387616 </v>
   <v>       0.16710600       0.43421200       0.47570568 </v>
   <v>       0.82923400       0.65846800       0.13571444 </v>
   <v>       0.42923400       0.95846800       0.41754396 </v>
  </varray>
 </structure>
</modeling>
