<?xml version="1.0" encoding="ISO-8859-1"?>
<modeling>
 <generator>
  <i name="program" type="string">vasp </i>
  <i name="version" type="string">5.3.5  </i>
  <i name="subversion" type="string">31Mar14 (build Oct 29 2014 16:16:03) complex                          parallel </i>
  <i name="platform" type="string">Linux-UFHPC </i>
  <i name="date" type="string">2016 02 09 </i>
  <i name="time" type="string">18:04:57 </i>
 </generator>
 <incar>
  <i type="string" name="PREC">accurate</i>
  <i type="int" name="IBRION">     2</i>
  <i name="EDIFF">      0.00000100</i>
  <i type="int" name="NSW">     0</i>
  <i type="int" name="ISIF">     3</i>
  <i name="ENCUT">    300.00000000</i>
  <i type="string" name="LREAL"> Auto</i>
  <i type="int" name="ISMEAR">     0</i>
  <i name="SIGMA">      0.10000000</i>
  <i type="logical" name="LWAVE"> F  </i>
  <i type="logical" name="LCHARG"> F  </i>
  <i type="logical" name="LAECHG"> F  </i>
  <i type="string" name="GGA"> Bo</i>
  <i name="PARAM1">      0.18333333</i>
  <i name="PARAM2">      0.22000000</i>
  <i type="logical" name="LUSE_VDW"> T  </i>
  <i name="AGGAC">      0.00000000</i>
 </incar>
 <kpoints>
  <generation param="Gamma">
   <v type="int" name="divisions">      13        4        2 </v>
   <v name="usershift">      0.00000000       0.00000000       0.00000000 </v>
   <v name="genvec1">      0.07692308      -0.00000000       0.00000000 </v>
   <v name="genvec2">      0.00000000       0.25000000       0.00000000 </v>
   <v name="genvec3">      0.00000000       0.00000000       0.50000000 </v>
   <v name="shift">      0.00000000       0.00000000       0.00000000 </v>
  </generation>
  <varray name="kpointlist" >
   <v>       0.00000000       0.00000000       0.00000000 </v>
   <v>       0.07692308      -0.00000000       0.00000000 </v>
   <v>       0.15384615      -0.00000000       0.00000000 </v>
   <v>       0.23076923      -0.00000000       0.00000000 </v>
   <v>       0.30769231      -0.00000000       0.00000000 </v>
   <v>       0.38461538      -0.00000000       0.00000000 </v>
   <v>       0.46153846      -0.00000000       0.00000000 </v>
   <v>       0.00000000       0.25000000       0.00000000 </v>
   <v>       0.07692308       0.25000000       0.00000000 </v>
   <v>       0.15384615       0.25000000       0.00000000 </v>
   <v>       0.23076923       0.25000000       0.00000000 </v>
   <v>       0.30769231       0.25000000       0.00000000 </v>
   <v>       0.38461538       0.25000000       0.00000000 </v>
   <v>       0.46153846       0.25000000       0.00000000 </v>
   <v>      -0.46153846       0.25000000       0.00000000 </v>
   <v>      -0.38461538       0.25000000       0.00000000 </v>
   <v>      -0.30769231       0.25000000       0.00000000 </v>
   <v>      -0.23076923       0.25000000       0.00000000 </v>
   <v>      -0.15384615       0.25000000       0.00000000 </v>
   <v>      -0.07692308       0.25000000       0.00000000 </v>
   <v>       0.00000000       0.50000000       0.00000000 </v>
   <v>       0.07692308       0.50000000       0.00000000 </v>
   <v>       0.15384615       0.50000000       0.00000000 </v>
   <v>       0.23076923       0.50000000       0.00000000 </v>
   <v>       0.30769231       0.50000000       0.00000000 </v>
   <v>       0.38461538       0.50000000       0.00000000 </v>
   <v>       0.46153846       0.50000000       0.00000000 </v>
   <v>       0.00000000       0.00000000       0.50000000 </v>
   <v>       0.07692308      -0.00000000       0.50000000 </v>
   <v>       0.15384615      -0.00000000       0.50000000 </v>
   <v>       0.23076923      -0.00000000       0.50000000 </v>
   <v>       0.30769231      -0.00000000       0.50000000 </v>
   <v>       0.38461538      -0.00000000       0.50000000 </v>
   <v>       0.46153846      -0.00000000       0.50000000 </v>
   <v>       0.00000000       0.25000000       0.50000000 </v>
   <v>       0.07692308       0.25000000       0.50000000 </v>
   <v>       0.15384615       0.25000000       0.50000000 </v>
   <v>       0.23076923       0.25000000       0.50000000 </v>
   <v>       0.30769231       0.25000000       0.50000000 </v>
   <v>       0.38461538       0.25000000       0.50000000 </v>
   <v>       0.46153846       0.25000000       0.50000000 </v>
   <v>      -0.46153846       0.25000000       0.50000000 </v>
   <v>      -0.38461538       0.25000000       0.50000000 </v>
   <v>      -0.30769231       0.25000000       0.50000000 </v>
   <v>      -0.23076923       0.25000000       0.50000000 </v>
   <v>      -0.15384615       0.25000000       0.50000000 </v>
   <v>      -0.07692308       0.25000000       0.50000000 </v>
   <v>       0.00000000       0.50000000       0.50000000 </v>
   <v>       0.07692308       0.50000000       0.50000000 </v>
   <v>       0.15384615       0.50000000       0.50000000 </v>
   <v>       0.23076923       0.50000000       0.50000000 </v>
   <v>       0.30769231       0.50000000       0.50000000 </v>
   <v>       0.38461538       0.50000000       0.50000000 </v>
   <v>       0.46153846       0.50000000       0.50000000 </v>
  </varray>
  <varray name="weights" >
   <v>       0.00961538 </v>
   <v>       0.01923077 </v>
   <v>       0.01923077 </v>
   <v>       0.01923077 </v>
   <v>       0.01923077 </v>
   <v>       0.01923077 </v>
   <v>       0.01923077 </v>
   <v>       0.01923077 </v>
   <v>       0.01923077 </v>
   <v>       0.01923077 </v>
   <v>       0.01923077 </v>
   <v>       0.01923077 </v>
   <v>       0.01923077 </v>
   <v>       0.01923077 </v>
   <v>       0.01923077 </v>
   <v>       0.01923077 </v>
   <v>       0.01923077 </v>
   <v>       0.01923077 </v>
   <v>       0.01923077 </v>
   <v>       0.01923077 </v>
   <v>       0.00961538 </v>
   <v>       0.01923077 </v>
   <v>       0.01923077 </v>
   <v>       0.01923077 </v>
   <v>       0.01923077 </v>
   <v>       0.01923077 </v>
   <v>       0.01923077 </v>
   <v>       0.00961538 </v>
   <v>       0.01923077 </v>
   <v>       0.01923077 </v>
   <v>       0.01923077 </v>
   <v>       0.01923077 </v>
   <v>       0.01923077 </v>
   <v>       0.01923077 </v>
   <v>       0.01923077 </v>
   <v>       0.01923077 </v>
   <v>       0.01923077 </v>
   <v>       0.01923077 </v>
   <v>       0.01923077 </v>
   <v>       0.01923077 </v>
   <v>       0.01923077 </v>
   <v>       0.01923077 </v>
   <v>       0.01923077 </v>
   <v>       0.01923077 </v>
   <v>       0.01923077 </v>
   <v>       0.01923077 </v>
   <v>       0.01923077 </v>
   <v>       0.00961538 </v>
   <v>       0.01923077 </v>
   <v>       0.01923077 </v>
   <v>       0.01923077 </v>
   <v>       0.01923077 </v>
   <v>       0.01923077 </v>
   <v>       0.01923077 </v>
  </varray>
 </kpoints>
 <parameters>
  <separator name="general" >
   <i type="string" name="SYSTEM">unknown system</i>
   <i type="logical" name="LCOMPAT"> F  </i>
  </separator>
  <separator name="electronic" >
   <i type="string" name="PREC">accura</i>
   <i name="ENMAX">    300.00000000</i>
   <i name="ENAUG">    342.92400000</i>
   <i name="EDIFF">      0.00000100</i>
   <i type="int" name="IALGO">    38</i>
   <i type="int" name="IWAVPR">    10</i>
   <i type="int" name="NBANDS">    68</i>
   <i name="NELECT">    108.00000000</i>
   <i type="int" name="TURBO">     0</i>
   <i type="int" name="IRESTART">     0</i>
   <i type="int" name="NREBOOT">     0</i>
   <i type="int" name="NMIN">     0</i>
   <i name="EREF">      0.00000000</i>
   <separator name="electronic smearing" >
    <i type="int" name="ISMEAR">     0</i>
    <i name="SIGMA">      0.10000000</i>
    <i name="KSPACING">      0.50000000</i>
    <i type="logical" name="KGAMMA"> T  </i>
   </separator>
   <separator name="electronic projectors" >
    <i type="logical" name="LREAL"> T  </i>
    <v name="ROPT">     -0.00025000     -0.00025000</v>
    <i type="int" name="LMAXPAW">  -100</i>
    <i type="int" name="LMAXMIX">     2</i>
    <i type="logical" name="NLSPLINE"> F  </i>
   </separator>
   <separator name="electronic startup" >
    <i type="int" name="ISTART">     0</i>
    <i type="int" name="ICHARG">     2</i>
    <i type="int" name="INIWAV">     1</i>
   </separator>
   <separator name="electronic spin" >
    <i type="int" name="ISPIN">     1</i>
    <i type="logical" name="LNONCOLLINEAR"> F  </i>
    <v name="MAGMOM">      1.00000000      1.00000000      1.00000000      1.00000000      1.00000000      1.00000000      1.00000000      1.00000000      1.00000000      1.00000000      1.00000000      1.00000000      1.00000000      1.00000000      1.00000000      1.00000000      1.00000000      1.00000000      1.00000000      1.00000000
      1.00000000      1.00000000      1.00000000      1.00000000</v>
    <i name="NUPDOWN">     -1.00000000</i>
    <i type="logical" name="LSORBIT"> F  </i>
    <v name="SAXIS">      0.00000000      0.00000000      1.00000000</v>
    <i type="logical" name="LSPIRAL"> F  </i>
    <v name="QSPIRAL">      0.00000000      0.00000000      0.00000000</v>
    <i type="logical" name="LZEROZ"> F  </i>
   </separator>
   <separator name="electronic exchange-correlation" >
    <i type="logical" name="LASPH"> F  </i>
    <i type="logical" name="LMETAGGA"> F  </i>
   </separator>
   <separator name="electronic convergence" >
    <i type="int" name="NELM">    60</i>
    <i type="int" name="NELMDL">    -5</i>
    <i type="int" name="NELMIN">     2</i>
    <i name="ENINI">    300.00000000</i>
    <separator name="electronic convergence detail" >
     <i type="logical" name="LDIAG"> T  </i>
     <i type="logical" name="LSUBROT"> F  </i>
     <i name="WEIMIN">      0.00000000</i>
     <i name="EBREAK">      0.00000000</i>
     <i name="DEPER">      0.30000000</i>
     <i type="int" name="NRMM">     4</i>
     <i name="TIME">      0.40000000</i>
    </separator>
   </separator>
   <separator name="electronic mixer" >
    <i name="AMIX">      0.40000000</i>
    <i name="BMIX">      1.00000000</i>
    <i name="AMIN">      0.10000000</i>
    <i name="AMIX_MAG">      1.60000000</i>
    <i name="BMIX_MAG">      1.00000000</i>
    <separator name="electronic mixer details" >
     <i type="int" name="IMIX">     4</i>
     <i type="int" name="MAXMIX">   -45</i>
     <i name="WC">    100.00000000</i>
     <i type="int" name="INIMIX">     1</i>
     <i type="int" name="MIXPRE">     1</i>
     <i type="int" name="MREMOVE">     5</i>
    </separator>
   </separator>
   <separator name="electronic dipolcorrection" >
    <i type="logical" name="LDIPOL"> F  </i>
    <i type="logical" name="LMONO"> F  </i>
    <i type="int" name="IDIPOL">     0</i>
    <i name="EPSILON">      1.00000000</i>
    <v name="DIPOL">   -100.00000000   -100.00000000   -100.00000000</v>
    <i name="EFIELD">      0.00000000</i>
   </separator>
  </separator>
  <separator name="grids" >
   <i type="int" name="NGX">    20</i>
   <i type="int" name="NGY">    60</i>
   <i type="int" name="NGZ">   160</i>
   <i type="int" name="NGXF">    40</i>
   <i type="int" name="NGYF">   120</i>
   <i type="int" name="NGZF">   320</i>
   <i type="logical" name="ADDGRID"> F  </i>
  </separator>
  <separator name="ionic" >
   <i type="int" name="NSW">     0</i>
   <i type="int" name="IBRION">    -1</i>
   <i type="int" name="ISIF">     3</i>
   <i name="PSTRESS">      0.00000000</i>
   <i name="EDIFFG">      0.00001000</i>
   <i type="int" name="NFREE">     1</i>
   <i name="POTIM">      0.50000000</i>
   <i name="SMASS">     -3.00000000</i>
   <i name="SCALEE">      1.00000000</i>
  </separator>
  <separator name="ionic md" >
   <i name="TEBEG">      0.00010000</i>
   <i name="TEEND">      0.00010000</i>
   <i type="int" name="NBLOCK">     1</i>
   <i type="int" name="KBLOCK">     1</i>
   <i type="int" name="NPACO">   256</i>
   <i name="APACO">     16.00000000</i>
  </separator>
  <separator name="symmetry" >
   <i type="int" name="ISYM">     2</i>
   <i name="SYMPREC">      0.00001000</i>
  </separator>
  <separator name="dos" >
   <i type="logical" name="LORBIT"> F  </i>
   <v name="RWIGS">     -1.00000000     -1.00000000</v>
   <i type="int" name="NEDOS">   301</i>
   <i name="EMIN">     10.00000000</i>
   <i name="EMAX">    -10.00000000</i>
   <i name="EFERMI">      0.00000000</i>
  </separator>
  <separator name="writing" >
   <i type="int" name="NWRITE">     2</i>
   <i type="logical" name="LWAVE"> F  </i>
   <i type="logical" name="LCHARG"> F  </i>
   <i type="logical" name="LPARD"> F  </i>
   <i type="logical" name="LVTOT"> F  </i>
   <i type="logical" name="LVHAR"> F  </i>
   <i type="logical" name="LELF"> F  </i>
   <i type="logical" name="LOPTICS"> F  </i>
   <v name="STM">      0.00000000      0.00000000      0.00000000      0.00000000      0.00000000      0.00000000      0.00000000</v>
  </separator>
  <separator name="performance" >
   <i type="int" name="NPAR">     4</i>
   <i type="int" name="NSIM">     4</i>
   <i type="int" name="NBLK">    -1</i>
   <i type="logical" name="LPLANE"> T  </i>
   <i type="logical" name="LSCALAPACK"> T  </i>
   <i type="logical" name="LSCAAWARE"> F  </i>
   <i type="logical" name="LSCALU"> F  </i>
   <i type="logical" name="LASYNC"> F  </i>
   <i type="logical" name="LORBITALREAL"> F  </i>
  </separator>
  <separator name="miscellaneous" >
   <i type="int" name="IDIOT">     3</i>
   <i type="logical" name="LMUSIC"> F  </i>
   <v name="POMASS">     30.97400000     28.08500000</v>
   <v name="DARWINR">      0.00000000      0.00000000</v>
   <v name="DARWINV">      1.00000000      1.00000000</v>
   <i type="logical" name="LCORR"> T  </i>
  </separator>
  <i type="logical" name="GGA_COMPAT"> T  </i>
  <i type="logical" name="LBERRY"> F  </i>
  <i type="int" name="ICORELEVEL">     0</i>
  <i type="logical" name="LDAU"> F  </i>
  <i type="int" name="I_CONSTRAINED_M">     0</i>
  <separator name="electronic exchange-correlation" >
   <i type="string" name="GGA">BO</i>
   <i type="int" name="VOSKOWN">     0</i>
   <i type="logical" name="LHFCALC"> F  </i>
   <i type="string" name="PRECFOCK"></i>
   <i type="logical" name="LSYMGRAD"> F  </i>
   <i type="logical" name="LHFONE"> F  </i>
   <i type="logical" name="LRHFCALC"> F  </i>
   <i type="logical" name="LTHOMAS"> F  </i>
   <i type="logical" name="LMODELHF"> F  </i>
   <i name="ENCUT4O">     -1.00000000</i>
   <i type="int" name="EXXOEP">     0</i>
   <i type="int" name="FOURORBIT">     0</i>
   <i name="AEXX">      0.00000000</i>
   <i name="HFALPHA">      0.00000000</i>
   <i name="MCALPHA">      0.00000000</i>
   <i name="ALDAX">      1.00000000</i>
   <i name="AGGAX">      1.00000000</i>
   <i name="ALDAC">      1.00000000</i>
   <i name="AGGAC">      0.00000000</i>
   <i type="int" name="NKREDX">     1</i>
   <i type="int" name="NKREDY">     1</i>
   <i type="int" name="NKREDZ">     1</i>
   <i type="logical" name="SHIFTRED"> F  </i>
   <i type="logical" name="ODDONLY"> F  </i>
   <i type="logical" name="EVENONLY"> F  </i>
   <i type="int" name="LMAXFOCK">     0</i>
   <i type="int" name="NMAXFOCKAE">     0</i>
   <i type="logical" name="LFOCKAEDFT"> F  </i>
   <i name="HFSCREEN">      0.00000000</i>
   <i name="HFSCREENC">      0.00000000</i>
   <i type="int" name="NBANDSGWLOW">     0</i>
  </separator>
  <separator name="vdW DFT" >
   <i type="logical" name="LUSE_VDW"> T  </i>
   <i name="Zab_VDW">     -0.84910000</i>
   <i name="PARAM1">      0.18333333</i>
   <i name="PARAM2">      0.22000000</i>
   <i name="PARAM3">      0.00000000</i>
  </separator>
  <separator name="model GW" >
   <i type="int" name="MODEL_GW">     0</i>
   <i name="MODEL_EPS0">     25.05800243</i>
   <i name="MODEL_ALPHA">      1.00000000</i>
  </separator>
  <separator name="linear response parameters" >
   <i type="logical" name="LEPSILON"> F  </i>
   <i type="logical" name="LRPA"> F  </i>
   <i type="logical" name="LNABLA"> F  </i>
   <i type="logical" name="LVEL"> F  </i>
   <i type="int" name="KINTER">     0</i>
   <i name="CSHIFT">      0.10000000</i>
   <i name="OMEGAMAX">     -1.00000000</i>
   <i name="DEG_THRESHOLD">      0.00200000</i>
  </separator>
  <separator name="orbital magnetization" >
   <i type="logical" name="NUCIND"> F  </i>
   <v name="MAGPOS">      0.00000000      0.00000000      0.00000000</v>
   <i type="logical" name="LNICSALL"> T  </i>
   <i type="logical" name="ORBITALMAG"> F  </i>
   <i type="logical" name="LMAGBLOCH"> F  </i>
   <i type="logical" name="LCHIMAG"> F  </i>
   <i type="logical" name="LGAUGE"> T  </i>
   <i type="int" name="MAGATOM">     0</i>
   <v name="MAGDIPOL">      0.00000000      0.00000000      0.00000000</v>
   <v name="AVECCONST">      0.00000000      0.00000000      0.00000000</v>
  </separator>
  <separator name="response functions" >
   <i type="logical" name="LADDER"> F  </i>
   <i type="logical" name="LFXC"> F  </i>
   <i type="logical" name="LHARTREE"> T  </i>
   <i type="int" name="IBSE">     0</i>
   <i type="logical" name="LTCTE"> F  </i>
   <i type="logical" name="LTETE"> F  </i>
   <i type="logical" name="LTRIPLET"> F  </i>
   <i type="logical" name="LFXCEPS"> F  </i>
   <i type="logical" name="LFXHEG"> F  </i>
   <i type="logical" name="L2ORDER"> F  </i>
   <i type="logical" name="LUSEW"> F  </i>
   <i name="ENCUTGW">     -2.00000000</i>
   <i name="ENCUTGWSOFT">     -2.00000000</i>
   <i name="ENCUTLF">     -1.00000000</i>
   <i type="int" name="LMAXMP2">    -1</i>
   <i name="SCISSOR">      0.00000000</i>
   <i type="int" name="NOMEGA">     0</i>
   <i type="int" name="NOMEGAR">     0</i>
   <i type="int" name="NBANDSGW">    -1</i>
   <i type="int" name="NBANDSO">    -1</i>
   <i type="int" name="NBANDSV">    -1</i>
   <i type="int" name="NELM">     1</i>
   <i type="int" name="DIM">     3</i>
   <i type="int" name="ANTIRES">     0</i>
   <i name="OMEGAMAX">    -30.00000000</i>
   <i name="OMEGAMIN">    -30.00000000</i>
   <i name="OMEGATL">   -200.00000000</i>
   <i type="int" name="OMEGAGRID">     0</i>
   <i name="CSHIFT">     -0.10000000</i>
   <i type="logical" name="SELFENERGY"> F  </i>
   <i type="logical" name="LSPECTRAL"> F  </i>
   <i type="logical" name="ODDONLYGW"> F  </i>
   <i type="logical" name="EVENONLYGW"> F  </i>
   <i type="int" name="NKREDLFX">     1</i>
   <i type="int" name="NKREDLFY">     1</i>
   <i type="int" name="NKREDLFZ">     1</i>
   <i type="int" name="MAXMEM">  1800</i>
   <i type="int" name="TELESCOPE">     0</i>
   <i type="int" name="TAUPAR">     1</i>
  </separator>
  <separator name="External order field" >
   <i name="OFIELD_KAPPA">      0.00000000</i>
   <v name="OFIELD_K">      0.00000000      0.00000000      0.00000000</v>
   <i name="OFIELD_Q6_NEAR">      0.00000000</i>
   <i name="OFIELD_Q6_FAR">      0.00000000</i>
   <i name="OFIELD_A">      0.00000000</i>
  </separator>
 </parameters>
 <atominfo>
  <atoms>      24 </atoms>
  <types>       2 </types>
  <array name="atoms" >
   <dimension dim="1">ion</dimension>
   <field type="string">element</field>
   <field type="int">atomtype</field>
   <set>
    <rc><c>P </c><c>   1</c></rc>
    <rc><c>P </c><c>   1</c></rc>
    <rc><c>P </c><c>   1</c></rc>
    <rc><c>P </c><c>   1</c></rc>
    <rc><c>P </c><c>   1</c></rc>
    <rc><c>P </c><c>   1</c></rc>
    <rc><c>P </c><c>   1</c></rc>
    <rc><c>P </c><c>   1</c></rc>
    <rc><c>P </c><c>   1</c></rc>
    <rc><c>P </c><c>   1</c></rc>
    <rc><c>P </c><c>   1</c></rc>
    <rc><c>P </c><c>   1</c></rc>
    <rc><c>Si</c><c>   2</c></rc>
    <rc><c>Si</c><c>   2</c></rc>
    <rc><c>Si</c><c>   2</c></rc>
    <rc><c>Si</c><c>   2</c></rc>
    <rc><c>Si</c><c>   2</c></rc>
    <rc><c>Si</c><c>   2</c></rc>
    <rc><c>Si</c><c>   2</c></rc>
    <rc><c>Si</c><c>   2</c></rc>
    <rc><c>Si</c><c>   2</c></rc>
    <rc><c>Si</c><c>   2</c></rc>
    <rc><c>Si</c><c>   2</c></rc>
    <rc><c>Si</c><c>   2</c></rc>
   </set>
  </array>
  <array name="atomtypes" >
   <dimension dim="1">type</dimension>
   <field type="int">atomspertype</field>
   <field type="string">element</field>
   <field>mass</field>
   <field>valence</field>
   <field type="string">pseudopotential</field>
   <set>
    <rc><c>  12</c><c>P </c><c>     30.97400000</c><c>      5.00000000</c><c>  PAW_PBE P 17Jan2003                   </c></rc>
    <rc><c>  12</c><c>Si</c><c>     28.08500000</c><c>      4.00000000</c><c> PAW_PBE Si 05Jan2001                   </c></rc>
   </set>
  </array>
 </atominfo>
 <structure name="initialpos" >
  <crystal>
   <varray name="basis" >
    <v>       3.54040000       0.00000000       0.00000000 </v>
    <v>      -1.77020000      10.29434800       0.00000000 </v>
    <v>       0.00000000       0.00000000      27.50142900 </v>
   </varray>
   <i name="volume">   1002.32009712 </i>
   <varray name="rec_basis" >
    <v>       0.28245396       0.04857034       0.00000000 </v>
    <v>       0.00000000       0.09714068       0.00000000 </v>
    <v>       0.00000000       0.00000000       0.03636175 </v>
   </varray>
  </crystal>
  <varray name="positions" >
   <v>       0.11402300       0.22804500       0.23316207 </v>
   <v>       0.51402300       0.72804500       0.51499159 </v>
   <v>       0.45808900       0.91617900       0.20939482 </v>
   <v>       0.85808900       0.41617900       0.49122434 </v>
   <v>       0.31085400       0.62170900       0.08414979 </v>
   <v>       0.31085400       0.62170900       0.36597930 </v>
   <v>       0.99923000       0.99846000       0.08631254 </v>
   <v>       0.99923000       0.99846000       0.36814206 </v>
   <v>       0.65492700       0.30985400       0.06041748 </v>
   <v>       0.65492700       0.30985400       0.34224700 </v>
   <v>       0.76973800       0.53947500       0.20725292 </v>
   <v>       0.16973800       0.03947500       0.48908244 </v>
   <v>       0.93971600       0.87943300       0.15783749 </v>
   <v>       0.33971600       0.37943300       0.43966701 </v>
   <v>       0.20515200       0.41030300       0.18578822 </v>
   <v>       0.60515200       0.91030300       0.46761774 </v>
   <v>       0.20184900       0.40369900       0.09969156 </v>
   <v>       0.20184900       0.40369900       0.38152107 </v>
   <v>       0.56380500       0.12761000       0.10779021 </v>
   <v>       0.56380500       0.12761000       0.38961973 </v>
   <v>       0.56710600       0.13421200       0.19387616 </v>
   <v>       0.96710600       0.63421200       0.47570568 </v>
   <v>       0.82923400       0.65846800       0.13571444 </v>
   <v>       0.22923400       0.15846800       0.41754396 </v>
  </varray>
 </structure>
 <calculation>
  <scstep>
   <time name="dav">   64.63   64.72</time>
   <time name="total">   80.70   80.81</time>
   <energy>
    <i name="alphaZ">     36.80884744 </i>
    <i name="ewald">  12046.52589073 </i>
    <i name="hartreedc"> -15062.07178207 </i>
    <i name="XCdc">    -86.98093259 </i>
    <i name="pawpsdc">   1056.43050070 </i>
    <i name="pawaedc">   -732.41190547 </i>
    <i name="eentropy">     -0.04582553 </i>
    <i name="bandstr">    -98.13182966 </i>
    <i name="atom">   3354.04126044 </i>
    <i name="e_fr_energy">    514.16422400 </i>
    <i name="e_wo_entrp">    514.21004954 </i>
    <i name="e_0_energy">    514.18713677 </i>
   </energy>
  </scstep>
  <scstep>
   <time name="dav">   77.69   77.75</time>
   <time name="total">   77.70   77.76</time>
   <energy>
    <i name="e_fr_energy">    -53.50274770 </i>
    <i name="e_wo_entrp">    -53.48188953 </i>
    <i name="e_0_energy">    -53.49231862 </i>
   </energy>
  </scstep>
  <scstep>
   <time name="dav">   71.73   71.79</time>
   <time name="total">   71.74   71.80</time>
   <energy>
    <i name="e_fr_energy">   -111.36542565 </i>
    <i name="e_wo_entrp">   -111.35296373 </i>
    <i name="e_0_energy">   -111.35919469 </i>
   </energy>
  </scstep>
  <scstep>
   <time name="dav">   90.38   90.46</time>
   <time name="total">   90.39   90.47</time>
   <energy>
    <i name="e_fr_energy">   -114.17869516 </i>
    <i name="e_wo_entrp">   -114.16554802 </i>
    <i name="e_0_energy">   -114.17212159 </i>
   </energy>
  </scstep>
  <scstep>
   <time name="dav">   80.78   80.83</time>
   <time name="total">   84.91   84.96</time>
   <energy>
    <i name="e_fr_energy">   -114.22956699 </i>
    <i name="e_wo_entrp">   -114.21645778 </i>
    <i name="e_0_energy">   -114.22301238 </i>
   </energy>
  </scstep>
  <scstep>
   <time name="dav">   74.69   74.71</time>
   <time name="total">   93.51   93.53</time>
   <energy>
    <i name="e_fr_energy">   -109.54456973 </i>
    <i name="e_wo_entrp">   -109.51469824 </i>
    <i name="e_0_energy">   -109.52963398 </i>
   </energy>
  </scstep>
  <scstep>
   <time name="dav">   70.79   70.84</time>
   <time name="total">   89.60   89.69</time>
   <energy>
    <i name="e_fr_energy">   -109.44283710 </i>
    <i name="e_wo_entrp">   -109.41734439 </i>
    <i name="e_0_energy">   -109.43009075 </i>
   </energy>
  </scstep>
  <scstep>
   <time name="dav">   82.28   82.34</time>
   <time name="total">  101.37  101.46</time>
   <energy>
    <i name="e_fr_energy">   -109.48669231 </i>
    <i name="e_wo_entrp">   -109.45346248 </i>
    <i name="e_0_energy">   -109.47007739 </i>
   </energy>
  </scstep>
  <scstep>
   <time name="dav">   84.43   84.45</time>
   <time name="total">  103.71  103.74</time>
   <energy>
    <i name="e_fr_energy">   -109.50980203 </i>
    <i name="e_wo_entrp">   -109.48040248 </i>
    <i name="e_0_energy">   -109.49510225 </i>
   </energy>
  </scstep>
  <scstep>
   <time name="dav">   92.39   92.46</time>
   <time name="total">  112.19  112.54</time>
   <energy>
    <i name="e_fr_energy">   -109.50034267 </i>
    <i name="e_wo_entrp">   -109.46806609 </i>
    <i name="e_0_energy">   -109.48420438 </i>
   </energy>
  </scstep>
  <scstep>
   <time name="dav">   84.84   84.90</time>
   <time name="total">  104.49  104.58</time>
   <energy>
    <i name="e_fr_energy">   -109.49484724 </i>
    <i name="e_wo_entrp">   -109.46320322 </i>
    <i name="e_0_energy">   -109.47902523 </i>
   </energy>
  </scstep>
  <scstep>
   <time name="dav">   85.97   86.03</time>
   <time name="total">  105.63  105.69</time>
   <energy>
    <i name="e_fr_energy">   -109.48735702 </i>
    <i name="e_wo_entrp">   -109.45577907 </i>
    <i name="e_0_energy">   -109.47156805 </i>
   </energy>
  </scstep>
  <scstep>
   <time name="dav">   88.07   88.14</time>
   <time name="total">  107.73  107.86</time>
   <energy>
    <i name="e_fr_energy">   -109.48140792 </i>
    <i name="e_wo_entrp">   -109.44976251 </i>
    <i name="e_0_energy">   -109.46558521 </i>
   </energy>
  </scstep>
  <scstep>
   <time name="dav">   92.47   92.55</time>
   <time name="total">  112.40  112.51</time>
   <energy>
    <i name="e_fr_energy">   -109.47887910 </i>
    <i name="e_wo_entrp">   -109.44728689 </i>
    <i name="e_0_energy">   -109.46308300 </i>
   </energy>
  </scstep>
  <scstep>
   <time name="dav">   96.71   96.81</time>
   <time name="total">  117.24  117.36</time>
   <energy>
    <i name="e_fr_energy">   -109.47779115 </i>
    <i name="e_wo_entrp">   -109.44617344 </i>
    <i name="e_0_energy">   -109.46198229 </i>
   </energy>
  </scstep>
  <scstep>
   <time name="dav">   90.30   90.38</time>
   <time name="total">  111.05  111.15</time>
   <energy>
    <i name="e_fr_energy">   -109.47762557 </i>
    <i name="e_wo_entrp">   -109.44602382 </i>
    <i name="e_0_energy">   -109.46182469 </i>
   </energy>
  </scstep>
  <scstep>
   <time name="dav">   91.64   91.70</time>
   <time name="total">  112.42  112.50</time>
   <energy>
    <i name="e_fr_energy">   -109.47838415 </i>
    <i name="e_wo_entrp">   -109.44677569 </i>
    <i name="e_0_energy">   -109.46257992 </i>
   </energy>
  </scstep>
  <scstep>
   <time name="dav">   84.46   84.49</time>
   <time name="total">  104.84  104.88</time>
   <energy>
    <i name="e_fr_energy">   -109.47856299 </i>
    <i name="e_wo_entrp">   -109.44695667 </i>
    <i name="e_0_energy">   -109.46275983 </i>
   </energy>
  </scstep>
  <scstep>
   <time name="dav">   75.33   75.35</time>
   <time name="total">   95.45   95.48</time>
   <energy>
    <i name="e_fr_energy">   -109.47865145 </i>
    <i name="e_wo_entrp">   -109.44704657 </i>
    <i name="e_0_energy">   -109.46284901 </i>
   </energy>
  </scstep>
  <scstep>
   <time name="dav">   69.70   69.72</time>
   <time name="total">   89.93   89.95</time>
   <energy>
    <i name="e_fr_energy">   -109.47868610 </i>
    <i name="e_wo_entrp">   -109.44708053 </i>
    <i name="e_0_energy">   -109.46288332 </i>
   </energy>
  </scstep>
  <scstep>
   <time name="dav">   76.49   76.50</time>
   <time name="total">   96.78   96.80</time>
   <energy>
    <i name="e_fr_energy">   -109.47862172 </i>
    <i name="e_wo_entrp">   -109.44701406 </i>
    <i name="e_0_energy">   -109.46281789 </i>
   </energy>
  </scstep>
  <scstep>
   <time name="dav">   69.90   69.92</time>
   <time name="total">   90.13   90.14</time>
   <energy>
    <i name="e_fr_energy">   -109.47860401 </i>
    <i name="e_wo_entrp">   -109.44699646 </i>
    <i name="e_0_energy">   -109.46280024 </i>
   </energy>
  </scstep>
  <scstep>
   <time name="dav">   71.90   71.91</time>
   <time name="total">   92.20   92.22</time>
   <energy>
    <i name="e_fr_energy">   -109.47854097 </i>
    <i name="e_wo_entrp">   -109.44693349 </i>
    <i name="e_0_energy">   -109.46273723 </i>
   </energy>
  </scstep>
  <scstep>
   <time name="dav">   68.17   68.19</time>
   <time name="total">   88.33   88.35</time>
   <energy>
    <i name="e_fr_energy">   -109.47852760 </i>
    <i name="e_wo_entrp">   -109.44692000 </i>
    <i name="e_0_energy">   -109.46272380 </i>
   </energy>
  </scstep>
  <scstep>
   <time name="dav">   72.12   72.14</time>
   <time name="total">   92.34   92.36</time>
   <energy>
    <i name="e_fr_energy">   -109.47851286 </i>
    <i name="e_wo_entrp">   -109.44690531 </i>
    <i name="e_0_energy">   -109.46270908 </i>
   </energy>
  </scstep>
  <scstep>
   <time name="dav">   68.98   68.99</time>
   <time name="total">   89.08   89.10</time>
   <energy>
    <i name="e_fr_energy">   -109.47851488 </i>
    <i name="e_wo_entrp">   -109.44690731 </i>
    <i name="e_0_energy">   -109.46271109 </i>
   </energy>
  </scstep>
  <scstep>
   <time name="dav">   62.05   62.06</time>
   <time name="total">   77.57   77.58</time>
   <energy>
    <i name="alphaZ">     36.80884744 </i>
    <i name="ewald">  12046.52589073 </i>
    <i name="hartreedc"> -15165.95127523 </i>
    <i name="XCdc">    -78.98446544 </i>
    <i name="pawpsdc">   1194.27898561 </i>
    <i name="pawaedc">   -874.53489941 </i>
    <i name="eentropy">     -0.03160753 </i>
    <i name="bandstr">   -621.63125084 </i>
    <i name="atom">   3354.04126044 </i>
    <i name="e_fr_energy">   -109.47851422 </i>
    <i name="e_wo_entrp">   -109.44690669 </i>
    <i name="e_0_energy">   -109.46271045 </i>
   </energy>
  </scstep>
  <structure>
   <crystal>
    <varray name="basis" >
     <v>       3.54040000       0.00000000       0.00000000 </v>
     <v>      -1.77020000      10.29434800       0.00000000 </v>
     <v>       0.00000000       0.00000000      27.50142900 </v>
    </varray>
    <i name="volume">   1002.32009712 </i>
    <varray name="rec_basis" >
     <v>       0.28245396       0.04857034       0.00000000 </v>
     <v>       0.00000000       0.09714068       0.00000000 </v>
     <v>       0.00000000       0.00000000       0.03636175 </v>
    </varray>
   </crystal>
   <varray name="positions" >
    <v>       0.11402300       0.22804500       0.23316207 </v>
    <v>       0.51402300       0.72804500       0.51499159 </v>
    <v>       0.45808900       0.91617900       0.20939482 </v>
    <v>       0.85808900       0.41617900       0.49122434 </v>
    <v>       0.31085400       0.62170900       0.08414979 </v>
    <v>       0.31085400       0.62170900       0.36597930 </v>
    <v>       0.99923000       0.99846000       0.08631254 </v>
    <v>       0.99923000       0.99846000       0.36814206 </v>
    <v>       0.65492700       0.30985400       0.06041748 </v>
    <v>       0.65492700       0.30985400       0.34224700 </v>
    <v>       0.76973800       0.53947500       0.20725292 </v>
    <v>       0.16973800       0.03947500       0.48908244 </v>
    <v>       0.93971600       0.87943300       0.15783749 </v>
    <v>       0.33971600       0.37943300       0.43966701 </v>
    <v>       0.20515200       0.41030300       0.18578822 </v>
    <v>       0.60515200       0.91030300       0.46761774 </v>
    <v>       0.20184900       0.40369900       0.09969156 </v>
    <v>       0.20184900       0.40369900       0.38152107 </v>
    <v>       0.56380500       0.12761000       0.10779021 </v>
    <v>       0.56380500       0.12761000       0.38961973 </v>
    <v>       0.56710600       0.13421200       0.19387616 </v>
    <v>       0.96710600       0.63421200       0.47570568 </v>
    <v>       0.82923400       0.65846800       0.13571444 </v>
    <v>       0.22923400       0.15846800       0.41754396 </v>
   </varray>
  </structure>
  <varray name="forces" >
   <v>       0.02336658      -0.03687090      -0.00373611 </v>
   <v>       0.15190927      -0.00198069      -0.14623873 </v>
   <v>       0.00052446      -0.01264258       0.08054275 </v>
   <v>      -0.29896790      -0.20095273       0.27738670 </v>
   <v>      -0.00095524      -0.00317566       0.00722325 </v>
   <v>      -0.52034365      -0.08885983       0.91645990 </v>
   <v>       0.00286800      -0.00148623       0.00265755 </v>
   <v>      -1.38883130      -1.12727587      -1.13875266 </v>
   <v>       0.00078652      -0.00084136       0.00624528 </v>
   <v>       0.33170730       0.24162003      -1.00947488 </v>
   <v>      -0.00145444       0.00833738       0.09358109 </v>
   <v>      -0.10626088      -0.49076672       0.88727108 </v>
   <v>       0.00291489      -0.00379013       0.00714942 </v>
   <v>       5.82568220      -2.60297498      20.60979794 </v>
   <v>      -0.00116880       0.01537511       0.04345662 </v>
   <v>       0.20884575       0.51179757       0.13128407 </v>
   <v>      -0.00182861      -0.00046311      -0.01777575 </v>
   <v>      -6.21433042       4.98420211     -20.73544908 </v>
   <v>       0.00027244      -0.00786298      -0.01236117 </v>
   <v>      37.44126043      -9.69626299     -24.43108328 </v>
   <v>      -0.00328561      -0.01933948       0.00761171 </v>
   <v>       0.41065904      -0.11533188      -1.10678788 </v>
   <v>       0.00106123       0.00669476      -0.00141365 </v>
   <v>     -35.86443126       8.64285116      25.53240582 </v>
  </varray>
  <varray name="stress" >
   <v>      79.82451552     -20.30659732     -26.72840401 </v>
   <v>     -20.30659709      13.81453794       2.50497816 </v>
   <v>     -26.72840392       2.50497825      83.41477402 </v>
  </varray>
  <energy>
   <i name="e_fr_energy">   -109.47851422 </i>
   <i name="e_wo_entrp">   -109.46271045 </i>
   <i name="e_0_energy">     -0.03160753 </i>
  </energy>
  <time name="totalsc"> 2720.39 2722.25</time>
  <eigenvalues>
   <array>
    <dimension dim="1">band</dimension>
    <dimension dim="2">kpoint</dimension>
    <dimension dim="3">spin</dimension>
    <field>eigene</field>
    <field>occ</field>
    <set>
     <set comment="spin 1">
      <set comment="kpoint 1">
       <r>  -15.0286    1.0000 </r>
       <r>  -13.5275    1.0000 </r>
       <r>  -13.3910    1.0000 </r>
       <r>  -12.8068    1.0000 </r>
       <r>  -12.7867    1.0000 </r>
       <r>  -12.4679    1.0000 </r>
       <r>  -12.0749    1.0000 </r>
       <r>  -11.7510    1.0000 </r>
       <r>  -11.4551    1.0000 </r>
       <r>  -11.4182    1.0000 </r>
       <r>  -10.9784    1.0000 </r>
       <r>  -10.0143    1.0000 </r>
       <r>   -9.1568    1.0000 </r>
       <r>   -8.3426    1.0000 </r>
       <r>   -8.0142    1.0000 </r>
       <r>   -7.8144    1.0000 </r>
       <r>   -6.8211    1.0000 </r>
       <r>   -6.7757    1.0000 </r>
       <r>   -6.4804    1.0000 </r>
       <r>   -5.9428    1.0000 </r>
       <r>   -5.8215    1.0000 </r>
       <r>   -5.5939    1.0000 </r>
       <r>   -5.1516    1.0000 </r>
       <r>   -4.7360    1.0000 </r>
       <r>   -4.4399    1.0000 </r>
       <r>   -4.2358    1.0000 </r>
       <r>   -3.7051    1.0000 </r>
       <r>   -3.6203    1.0000 </r>
       <r>   -3.4166    1.0000 </r>
       <r>   -3.1242    1.0000 </r>
       <r>   -3.0759    1.0000 </r>
       <r>   -3.0425    1.0000 </r>
       <r>   -2.9834    1.0000 </r>
       <r>   -2.8314    1.0000 </r>
       <r>   -2.6121    1.0000 </r>
       <r>   -2.4829    1.0000 </r>
       <r>   -2.4272    1.0000 </r>
       <r>   -2.3718    1.0000 </r>
       <r>   -2.3586    1.0000 </r>
       <r>   -2.0780    1.0000 </r>
       <r>   -1.9745    1.0000 </r>
       <r>   -1.8498    1.0000 </r>
       <r>   -1.7287    1.0000 </r>
       <r>   -1.7175    1.0000 </r>
       <r>   -1.6305    1.0000 </r>
       <r>   -1.6198    1.0000 </r>
       <r>   -1.5536    1.0000 </r>
       <r>   -1.4193    1.0000 </r>
       <r>   -1.3507    1.0000 </r>
       <r>   -1.1288    1.0000 </r>
       <r>   -0.9614    1.0000 </r>
       <r>   -0.6025    1.0000 </r>
       <r>   -0.5694    1.0000 </r>
       <r>    0.2393    0.0144 </r>
       <r>    0.5283    0.0000 </r>
       <r>    0.8242    0.0000 </r>
       <r>    1.1614    0.0000 </r>
       <r>    1.1948    0.0000 </r>
       <r>    1.2574    0.0000 </r>
       <r>    1.3410    0.0000 </r>
       <r>    1.4897    0.0000 </r>
       <r>    1.6569    0.0000 </r>
       <r>    1.7789    0.0000 </r>
       <r>    1.9765    0.0000 </r>
       <r>    2.0831    0.0000 </r>
       <r>    2.1521    0.0000 </r>
       <r>    2.4443    0.0000 </r>
       <r>    2.5966    0.0000 </r>
      </set>
      <set comment="kpoint 2">
       <r>  -14.9699    1.0000 </r>
       <r>  -13.4662    1.0000 </r>
       <r>  -13.3353    1.0000 </r>
       <r>  -12.7477    1.0000 </r>
       <r>  -12.7338    1.0000 </r>
       <r>  -12.4123    1.0000 </r>
       <r>  -12.0127    1.0000 </r>
       <r>  -11.7100    1.0000 </r>
       <r>  -11.3955    1.0000 </r>
       <r>  -11.3687    1.0000 </r>
       <r>  -10.9300    1.0000 </r>
       <r>   -9.9869    1.0000 </r>
       <r>   -9.1463    1.0000 </r>
       <r>   -8.3422    1.0000 </r>
       <r>   -8.0528    1.0000 </r>
       <r>   -7.7765    1.0000 </r>
       <r>   -6.7927    1.0000 </r>
       <r>   -6.7645    1.0000 </r>
       <r>   -6.4746    1.0000 </r>
       <r>   -5.9590    1.0000 </r>
       <r>   -5.7885    1.0000 </r>
       <r>   -5.5951    1.0000 </r>
       <r>   -5.2470    1.0000 </r>
       <r>   -4.8378    1.0000 </r>
       <r>   -4.7356    1.0000 </r>
       <r>   -4.2462    1.0000 </r>
       <r>   -3.7640    1.0000 </r>
       <r>   -3.6769    1.0000 </r>
       <r>   -3.5784    1.0000 </r>
       <r>   -3.4116    1.0000 </r>
       <r>   -3.2728    1.0000 </r>
       <r>   -3.2503    1.0000 </r>
       <r>   -3.1429    1.0000 </r>
       <r>   -2.9724    1.0000 </r>
       <r>   -2.7536    1.0000 </r>
       <r>   -2.7036    1.0000 </r>
       <r>   -2.5742    1.0000 </r>
       <r>   -2.4813    1.0000 </r>
       <r>   -2.4494    1.0000 </r>
       <r>   -2.2035    1.0000 </r>
       <r>   -2.1053    1.0000 </r>
       <r>   -2.0419    1.0000 </r>
       <r>   -1.9528    1.0000 </r>
       <r>   -1.8446    1.0000 </r>
       <r>   -1.7892    1.0000 </r>
       <r>   -1.7457    1.0000 </r>
       <r>   -1.6574    1.0000 </r>
       <r>   -1.4976    1.0000 </r>
       <r>   -1.2958    1.0000 </r>
       <r>   -1.1083    1.0000 </r>
       <r>   -0.9323    1.0000 </r>
       <r>   -0.6295    1.0000 </r>
       <r>   -0.5302    1.0000 </r>
       <r>    0.2028    0.0474 </r>
       <r>    0.5793    0.0000 </r>
       <r>    0.8741    0.0000 </r>
       <r>    1.1341    0.0000 </r>
       <r>    1.2662    0.0000 </r>
       <r>    1.5747    0.0000 </r>
       <r>    1.5974    0.0000 </r>
       <r>    1.7778    0.0000 </r>
       <r>    2.0545    0.0000 </r>
       <r>    2.1382    0.0000 </r>
       <r>    2.2266    0.0000 </r>
       <r>    2.2730    0.0000 </r>
       <r>    2.4470    0.0000 </r>
       <r>    2.6263    0.0000 </r>
       <r>    2.7257    0.0000 </r>
      </set>
      <set comment="kpoint 3">
       <r>  -14.7958    1.0000 </r>
       <r>  -13.2832    1.0000 </r>
       <r>  -13.1695    1.0000 </r>
       <r>  -12.5818    1.0000 </r>
       <r>  -12.5670    1.0000 </r>
       <r>  -12.2476    1.0000 </r>
       <r>  -11.8303    1.0000 </r>
       <r>  -11.5874    1.0000 </r>
       <r>  -11.2328    1.0000 </r>
       <r>  -11.2181    1.0000 </r>
       <r>  -10.7912    1.0000 </r>
       <r>   -9.9238    1.0000 </r>
       <r>   -9.1348    1.0000 </r>
       <r>   -8.3699    1.0000 </r>
       <r>   -8.1518    1.0000 </r>
       <r>   -7.7344    1.0000 </r>
       <r>   -6.8305    1.0000 </r>
       <r>   -6.7076    1.0000 </r>
       <r>   -6.4866    1.0000 </r>
       <r>   -6.2197    1.0000 </r>
       <r>   -5.7381    1.0000 </r>
       <r>   -5.6867    1.0000 </r>
       <r>   -5.4691    1.0000 </r>
       <r>   -4.9759    1.0000 </r>
       <r>   -4.8523    1.0000 </r>
       <r>   -4.4454    1.0000 </r>
       <r>   -4.3297    1.0000 </r>
       <r>   -4.1889    1.0000 </r>
       <r>   -4.0707    1.0000 </r>
       <r>   -3.9594    1.0000 </r>
       <r>   -3.6977    1.0000 </r>
       <r>   -3.6058    1.0000 </r>
       <r>   -3.4238    1.0000 </r>
       <r>   -3.2679    1.0000 </r>
       <r>   -3.1539    1.0000 </r>
       <r>   -3.0398    1.0000 </r>
       <r>   -2.9594    1.0000 </r>
       <r>   -2.9349    1.0000 </r>
       <r>   -2.7400    1.0000 </r>
       <r>   -2.5879    1.0000 </r>
       <r>   -2.3809    1.0000 </r>
       <r>   -2.3092    1.0000 </r>
       <r>   -2.1402    1.0000 </r>
       <r>   -1.9903    1.0000 </r>
       <r>   -1.8829    1.0000 </r>
       <r>   -1.7598    1.0000 </r>
       <r>   -1.6615    1.0000 </r>
       <r>   -1.6100    1.0000 </r>
       <r>   -1.2827    1.0000 </r>
       <r>   -1.1618    1.0000 </r>
       <r>   -0.9313    1.0000 </r>
       <r>   -0.7206    1.0000 </r>
       <r>   -0.5754    1.0000 </r>
       <r>    0.1164    0.3270 </r>
       <r>    0.4888    0.0000 </r>
       <r>    0.8763    0.0000 </r>
       <r>    1.1640    0.0000 </r>
       <r>    1.3366    0.0000 </r>
       <r>    1.7363    0.0000 </r>
       <r>    1.9588    0.0000 </r>
       <r>    2.2633    0.0000 </r>
       <r>    2.4286    0.0000 </r>
       <r>    2.5607    0.0000 </r>
       <r>    2.6243    0.0000 </r>
       <r>    2.6715    0.0000 </r>
       <r>    2.9114    0.0000 </r>
       <r>    3.0220    0.0000 </r>
       <r>    3.0345    0.0000 </r>
      </set>
      <set comment="kpoint 4">
       <r>  -14.5129    1.0000 </r>
       <r>  -12.9823    1.0000 </r>
       <r>  -12.8990    1.0000 </r>
       <r>  -12.3243    1.0000 </r>
       <r>  -12.2827    1.0000 </r>
       <r>  -11.9810    1.0000 </r>
       <r>  -11.5431    1.0000 </r>
       <r>  -11.3908    1.0000 </r>
       <r>  -11.0128    1.0000 </r>
       <r>  -10.9674    1.0000 </r>
       <r>  -10.5881    1.0000 </r>
       <r>   -9.9142    1.0000 </r>
       <r>   -9.1605    1.0000 </r>
       <r>   -8.5077    1.0000 </r>
       <r>   -8.3444    1.0000 </r>
       <r>   -7.8091    1.0000 </r>
       <r>   -7.1396    1.0000 </r>
       <r>   -6.6806    1.0000 </r>
       <r>   -6.6217    1.0000 </r>
       <r>   -6.5734    1.0000 </r>
       <r>   -5.9362    1.0000 </r>
       <r>   -5.7259    1.0000 </r>
       <r>   -5.5316    1.0000 </r>
       <r>   -5.3255    1.0000 </r>
       <r>   -5.2188    1.0000 </r>
       <r>   -4.9033    1.0000 </r>
       <r>   -4.7829    1.0000 </r>
       <r>   -4.6344    1.0000 </r>
       <r>   -4.5888    1.0000 </r>
       <r>   -4.4928    1.0000 </r>
       <r>   -4.1748    1.0000 </r>
       <r>   -4.0636    1.0000 </r>
       <r>   -3.7759    1.0000 </r>
       <r>   -3.6958    1.0000 </r>
       <r>   -3.4613    1.0000 </r>
       <r>   -3.3916    1.0000 </r>
       <r>   -3.0806    1.0000 </r>
       <r>   -3.0104    1.0000 </r>
       <r>   -2.9783    1.0000 </r>
       <r>   -2.6994    1.0000 </r>
       <r>   -2.5814    1.0000 </r>
       <r>   -2.4642    1.0000 </r>
       <r>   -2.3942    1.0000 </r>
       <r>   -2.1962    1.0000 </r>
       <r>   -1.8940    1.0000 </r>
       <r>   -1.8183    1.0000 </r>
       <r>   -1.7223    1.0000 </r>
       <r>   -1.5593    1.0000 </r>
       <r>   -1.4515    1.0000 </r>
       <r>   -1.3263    1.0000 </r>
       <r>   -1.0601    1.0000 </r>
       <r>   -0.8875    1.0000 </r>
       <r>   -0.6919    1.0000 </r>
       <r>   -0.2973    1.0000 </r>
       <r>    0.4249    0.0000 </r>
       <r>    0.7098    0.0000 </r>
       <r>    1.1543    0.0000 </r>
       <r>    1.6161    0.0000 </r>
       <r>    1.8723    0.0000 </r>
       <r>    1.9122    0.0000 </r>
       <r>    2.0543    0.0000 </r>
       <r>    2.2867    0.0000 </r>
       <r>    2.3765    0.0000 </r>
       <r>    2.4567    0.0000 </r>
       <r>    2.6922    0.0000 </r>
       <r>    2.8710    0.0000 </r>
       <r>    2.9007    0.0000 </r>
       <r>    2.9775    0.0000 </r>
      </set>
      <set comment="kpoint 5">
       <r>  -14.1374    1.0000 </r>
       <r>  -12.5715    1.0000 </r>
       <r>  -12.5366    1.0000 </r>
       <r>  -11.9758    1.0000 </r>
       <r>  -11.9100    1.0000 </r>
       <r>  -11.6294    1.0000 </r>
       <r>  -11.1931    1.0000 </r>
       <r>  -11.1516    1.0000 </r>
       <r>  -10.7683    1.0000 </r>
       <r>  -10.7043    1.0000 </r>
       <r>  -10.4020    1.0000 </r>
       <r>  -10.1388    1.0000 </r>
       <r>   -9.1602    1.0000 </r>
       <r>   -8.7990    1.0000 </r>
       <r>   -8.6398    1.0000 </r>
       <r>   -8.0703    1.0000 </r>
       <r>   -7.4123    1.0000 </r>
       <r>   -6.9854    1.0000 </r>
       <r>   -6.9584    1.0000 </r>
       <r>   -6.8847    1.0000 </r>
       <r>   -6.4295    1.0000 </r>
       <r>   -6.1511    1.0000 </r>
       <r>   -5.9510    1.0000 </r>
       <r>   -5.7908    1.0000 </r>
       <r>   -5.3912    1.0000 </r>
       <r>   -5.2629    1.0000 </r>
       <r>   -5.1793    1.0000 </r>
       <r>   -4.7732    1.0000 </r>
       <r>   -4.6864    1.0000 </r>
       <r>   -4.5914    1.0000 </r>
       <r>   -4.3070    1.0000 </r>
       <r>   -4.2364    1.0000 </r>
       <r>   -4.2049    1.0000 </r>
       <r>   -3.8451    1.0000 </r>
       <r>   -3.5276    1.0000 </r>
       <r>   -3.3776    1.0000 </r>
       <r>   -3.2318    1.0000 </r>
       <r>   -3.0919    1.0000 </r>
       <r>   -3.0364    1.0000 </r>
       <r>   -2.9083    1.0000 </r>
       <r>   -2.7524    1.0000 </r>
       <r>   -2.5983    1.0000 </r>
       <r>   -2.5247    1.0000 </r>
       <r>   -2.3496    1.0000 </r>
       <r>   -2.0610    1.0000 </r>
       <r>   -1.9083    1.0000 </r>
       <r>   -1.8578    1.0000 </r>
       <r>   -1.7090    1.0000 </r>
       <r>   -1.6021    1.0000 </r>
       <r>   -1.3661    1.0000 </r>
       <r>   -1.2563    1.0000 </r>
       <r>   -1.1243    1.0000 </r>
       <r>   -0.8415    1.0000 </r>
       <r>   -0.5493    1.0000 </r>
       <r>    0.2371    0.0156 </r>
       <r>    0.5074    0.0000 </r>
       <r>    0.9865    0.0000 </r>
       <r>    1.4494    0.0000 </r>
       <r>    1.6403    0.0000 </r>
       <r>    1.8181    0.0000 </r>
       <r>    1.9929    0.0000 </r>
       <r>    2.0435    0.0000 </r>
       <r>    2.2328    0.0000 </r>
       <r>    2.3245    0.0000 </r>
       <r>    2.4148    0.0000 </r>
       <r>    2.6629    0.0000 </r>
       <r>    2.7272    0.0000 </r>
       <r>    2.8419    0.0000 </r>
      </set>
      <set comment="kpoint 6">
       <r>  -13.7111    1.0000 </r>
       <r>  -12.1225    1.0000 </r>
       <r>  -12.0604    1.0000 </r>
       <r>  -11.5568    1.0000 </r>
       <r>  -11.5091    1.0000 </r>
       <r>  -11.2321    1.0000 </r>
       <r>  -11.0751    1.0000 </r>
       <r>  -10.8373    1.0000 </r>
       <r>  -10.6639    1.0000 </r>
       <r>  -10.6132    1.0000 </r>
       <r>  -10.4417    1.0000 </r>
       <r>  -10.3378    1.0000 </r>
       <r>   -9.2111    1.0000 </r>
       <r>   -9.0095    1.0000 </r>
       <r>   -8.8167    1.0000 </r>
       <r>   -8.3630    1.0000 </r>
       <r>   -7.7034    1.0000 </r>
       <r>   -7.4454    1.0000 </r>
       <r>   -7.4026    1.0000 </r>
       <r>   -7.2349    1.0000 </r>
       <r>   -6.9103    1.0000 </r>
       <r>   -6.7473    1.0000 </r>
       <r>   -6.6483    1.0000 </r>
       <r>   -6.3425    1.0000 </r>
       <r>   -5.4694    1.0000 </r>
       <r>   -5.1916    1.0000 </r>
       <r>   -5.0306    1.0000 </r>
       <r>   -4.6439    1.0000 </r>
       <r>   -4.6065    1.0000 </r>
       <r>   -4.5132    1.0000 </r>
       <r>   -4.2488    1.0000 </r>
       <r>   -4.1824    1.0000 </r>
       <r>   -4.0734    1.0000 </r>
       <r>   -3.9084    1.0000 </r>
       <r>   -3.6624    1.0000 </r>
       <r>   -3.6288    1.0000 </r>
       <r>   -3.3679    1.0000 </r>
       <r>   -3.2550    1.0000 </r>
       <r>   -3.1758    1.0000 </r>
       <r>   -3.1183    1.0000 </r>
       <r>   -2.7890    1.0000 </r>
       <r>   -2.6420    1.0000 </r>
       <r>   -2.5347    1.0000 </r>
       <r>   -2.4120    1.0000 </r>
       <r>   -2.2799    1.0000 </r>
       <r>   -2.1571    1.0000 </r>
       <r>   -2.0169    1.0000 </r>
       <r>   -1.8666    1.0000 </r>
       <r>   -1.6996    1.0000 </r>
       <r>   -1.5038    1.0000 </r>
       <r>   -1.4141    1.0000 </r>
       <r>   -1.2813    1.0000 </r>
       <r>   -0.8918    1.0000 </r>
       <r>   -0.6192    1.0000 </r>
       <r>    0.0531    0.6728 </r>
       <r>    0.3102    0.0007 </r>
       <r>    0.7933    0.0000 </r>
       <r>    1.3327    0.0000 </r>
       <r>    1.4770    0.0000 </r>
       <r>    1.6952    0.0000 </r>
       <r>    1.7803    0.0000 </r>
       <r>    1.9642    0.0000 </r>
       <r>    2.0847    0.0000 </r>
       <r>    2.1785    0.0000 </r>
       <r>    2.2936    0.0000 </r>
       <r>    2.4061    0.0000 </r>
       <r>    2.5883    0.0000 </r>
       <r>    2.7047    0.0000 </r>
      </set>
      <set comment="kpoint 7">
       <r>  -13.3605    1.0000 </r>
       <r>  -11.7813    1.0000 </r>
       <r>  -11.4876    1.0000 </r>
       <r>  -11.4256    1.0000 </r>
       <r>  -11.1342    1.0000 </r>
       <r>  -11.0473    1.0000 </r>
       <r>  -10.9312    1.0000 </r>
       <r>  -10.8299    1.0000 </r>
       <r>  -10.7802    1.0000 </r>
       <r>  -10.7160    1.0000 </r>
       <r>  -10.6203    1.0000 </r>
       <r>  -10.3161    1.0000 </r>
       <r>   -9.4070    1.0000 </r>
       <r>   -8.9568    1.0000 </r>
       <r>   -8.6747    1.0000 </r>
       <r>   -8.4259    1.0000 </r>
       <r>   -8.0655    1.0000 </r>
       <r>   -7.8504    1.0000 </r>
       <r>   -7.5581    1.0000 </r>
       <r>   -7.5025    1.0000 </r>
       <r>   -7.2739    1.0000 </r>
       <r>   -7.2464    1.0000 </r>
       <r>   -7.1661    1.0000 </r>
       <r>   -6.5391    1.0000 </r>
       <r>   -5.4136    1.0000 </r>
       <r>   -4.9364    1.0000 </r>
       <r>   -4.8946    1.0000 </r>
       <r>   -4.6735    1.0000 </r>
       <r>   -4.4859    1.0000 </r>
       <r>   -4.2926    1.0000 </r>
       <r>   -4.1943    1.0000 </r>
       <r>   -4.0462    1.0000 </r>
       <r>   -3.9284    1.0000 </r>
       <r>   -3.9047    1.0000 </r>
       <r>   -3.8112    1.0000 </r>
       <r>   -3.7578    1.0000 </r>
       <r>   -3.5576    1.0000 </r>
       <r>   -3.4193    1.0000 </r>
       <r>   -3.2417    1.0000 </r>
       <r>   -3.1141    1.0000 </r>
       <r>   -2.9873    1.0000 </r>
       <r>   -2.7477    1.0000 </r>
       <r>   -2.6862    1.0000 </r>
       <r>   -2.5586    1.0000 </r>
       <r>   -2.3438    1.0000 </r>
       <r>   -2.1919    1.0000 </r>
       <r>   -2.1249    1.0000 </r>
       <r>   -1.8872    1.0000 </r>
       <r>   -1.7043    1.0000 </r>
       <r>   -1.6549    1.0000 </r>
       <r>   -1.5084    1.0000 </r>
       <r>   -1.2701    1.0000 </r>
       <r>   -0.8946    1.0000 </r>
       <r>   -0.7097    1.0000 </r>
       <r>   -0.0355    0.9554 </r>
       <r>    0.2304    0.0197 </r>
       <r>    0.6163    0.0000 </r>
       <r>    1.3040    0.0000 </r>
       <r>    1.3965    0.0000 </r>
       <r>    1.5711    0.0000 </r>
       <r>    1.7265    0.0000 </r>
       <r>    1.8511    0.0000 </r>
       <r>    1.9868    0.0000 </r>
       <r>    2.0997    0.0000 </r>
       <r>    2.2879    0.0000 </r>
       <r>    2.3973    0.0000 </r>
       <r>    2.4711    0.0000 </r>
       <r>    2.5650    0.0000 </r>
      </set>
      <set comment="kpoint 8">
       <r>  -15.0262    1.0000 </r>
       <r>  -13.4732    1.0000 </r>
       <r>  -13.4348    1.0000 </r>
       <r>  -12.9618    1.0000 </r>
       <r>  -12.6923    1.0000 </r>
       <r>  -12.4665    1.0000 </r>
       <r>  -11.9805    1.0000 </r>
       <r>  -11.8562    1.0000 </r>
       <r>  -11.4649    1.0000 </r>
       <r>  -11.2624    1.0000 </r>
       <r>  -10.9871    1.0000 </r>
       <r>   -9.9878    1.0000 </r>
       <r>   -9.2772    1.0000 </r>
       <r>   -8.5022    1.0000 </r>
       <r>   -8.3076    1.0000 </r>
       <r>   -7.3639    1.0000 </r>
       <r>   -6.8405    1.0000 </r>
       <r>   -6.6579    1.0000 </r>
       <r>   -6.5898    1.0000 </r>
       <r>   -5.8986    1.0000 </r>
       <r>   -5.7362    1.0000 </r>
       <r>   -5.5950    1.0000 </r>
       <r>   -4.9816    1.0000 </r>
       <r>   -4.6379    1.0000 </r>
       <r>   -4.4070    1.0000 </r>
       <r>   -4.1766    1.0000 </r>
       <r>   -4.0031    1.0000 </r>
       <r>   -3.6208    1.0000 </r>
       <r>   -3.4688    1.0000 </r>
       <r>   -3.3002    1.0000 </r>
       <r>   -3.1160    1.0000 </r>
       <r>   -3.1016    1.0000 </r>
       <r>   -3.0124    1.0000 </r>
       <r>   -2.7401    1.0000 </r>
       <r>   -2.6961    1.0000 </r>
       <r>   -2.5533    1.0000 </r>
       <r>   -2.3834    1.0000 </r>
       <r>   -2.3753    1.0000 </r>
       <r>   -2.2786    1.0000 </r>
       <r>   -2.1426    1.0000 </r>
       <r>   -1.9766    1.0000 </r>
       <r>   -1.8788    1.0000 </r>
       <r>   -1.8665    1.0000 </r>
       <r>   -1.7790    1.0000 </r>
       <r>   -1.6147    1.0000 </r>
       <r>   -1.5478    1.0000 </r>
       <r>   -1.4701    1.0000 </r>
       <r>   -1.3501    1.0000 </r>
       <r>   -1.2274    1.0000 </r>
       <r>   -1.1023    1.0000 </r>
       <r>   -0.9822    1.0000 </r>
       <r>   -0.7664    1.0000 </r>
       <r>   -0.5346    1.0000 </r>
       <r>    0.0900    0.4702 </r>
       <r>    0.7052    0.0000 </r>
       <r>    0.9293    0.0000 </r>
       <r>    1.1404    0.0000 </r>
       <r>    1.1952    0.0000 </r>
       <r>    1.2957    0.0000 </r>
       <r>    1.4044    0.0000 </r>
       <r>    1.5309    0.0000 </r>
       <r>    1.7059    0.0000 </r>
       <r>    1.7975    0.0000 </r>
       <r>    1.8299    0.0000 </r>
       <r>    2.1139    0.0000 </r>
       <r>    2.2714    0.0000 </r>
       <r>    2.5085    0.0000 </r>
       <r>    2.6508    0.0000 </r>
      </set>
      <set comment="kpoint 9">
       <r>  -14.9671    1.0000 </r>
       <r>  -13.3998    1.0000 </r>
       <r>  -13.3832    1.0000 </r>
       <r>  -12.9427    1.0000 </r>
       <r>  -12.6062    1.0000 </r>
       <r>  -12.4095    1.0000 </r>
       <r>  -11.9708    1.0000 </r>
       <r>  -11.7578    1.0000 </r>
       <r>  -11.4236    1.0000 </r>
       <r>  -11.1806    1.0000 </r>
       <r>  -10.9427    1.0000 </r>
       <r>   -9.9535    1.0000 </r>
       <r>   -9.2874    1.0000 </r>
       <r>   -8.5605    1.0000 </r>
       <r>   -8.3119    1.0000 </r>
       <r>   -7.3150    1.0000 </r>
       <r>   -6.8250    1.0000 </r>
       <r>   -6.6659    1.0000 </r>
       <r>   -6.5178    1.0000 </r>
       <r>   -5.9042    1.0000 </r>
       <r>   -5.6940    1.0000 </r>
       <r>   -5.6088    1.0000 </r>
       <r>   -5.1587    1.0000 </r>
       <r>   -4.7121    1.0000 </r>
       <r>   -4.6791    1.0000 </r>
       <r>   -4.1764    1.0000 </r>
       <r>   -4.0501    1.0000 </r>
       <r>   -3.7210    1.0000 </r>
       <r>   -3.6073    1.0000 </r>
       <r>   -3.4250    1.0000 </r>
       <r>   -3.3763    1.0000 </r>
       <r>   -3.2955    1.0000 </r>
       <r>   -3.0681    1.0000 </r>
       <r>   -3.0081    1.0000 </r>
       <r>   -2.9116    1.0000 </r>
       <r>   -2.6877    1.0000 </r>
       <r>   -2.6245    1.0000 </r>
       <r>   -2.4878    1.0000 </r>
       <r>   -2.3824    1.0000 </r>
       <r>   -2.2759    1.0000 </r>
       <r>   -2.1763    1.0000 </r>
       <r>   -2.1209    1.0000 </r>
       <r>   -2.0013    1.0000 </r>
       <r>   -1.8372    1.0000 </r>
       <r>   -1.7492    1.0000 </r>
       <r>   -1.7245    1.0000 </r>
       <r>   -1.5582    1.0000 </r>
       <r>   -1.3943    1.0000 </r>
       <r>   -1.1825    1.0000 </r>
       <r>   -1.0784    1.0000 </r>
       <r>   -0.9776    1.0000 </r>
       <r>   -0.7967    1.0000 </r>
       <r>   -0.5225    1.0000 </r>
       <r>    0.1242    0.2881 </r>
       <r>    0.7131    0.0000 </r>
       <r>    0.9128    0.0000 </r>
       <r>    1.1794    0.0000 </r>
       <r>    1.3172    0.0000 </r>
       <r>    1.5871    0.0000 </r>
       <r>    1.6139    0.0000 </r>
       <r>    1.7963    0.0000 </r>
       <r>    1.9499    0.0000 </r>
       <r>    2.1136    0.0000 </r>
       <r>    2.2490    0.0000 </r>
       <r>    2.4363    0.0000 </r>
       <r>    2.5203    0.0000 </r>
       <r>    2.6492    0.0000 </r>
       <r>    2.7023    0.0000 </r>
      </set>
      <set comment="kpoint 10">
       <r>  -14.7927    1.0000 </r>
       <r>  -13.2273    1.0000 </r>
       <r>  -13.1961    1.0000 </r>
       <r>  -12.8062    1.0000 </r>
       <r>  -12.4117    1.0000 </r>
       <r>  -12.2432    1.0000 </r>
       <r>  -11.8570    1.0000 </r>
       <r>  -11.5602    1.0000 </r>
       <r>  -11.2841    1.0000 </r>
       <r>  -11.0099    1.0000 </r>
       <r>  -10.8015    1.0000 </r>
       <r>   -9.8898    1.0000 </r>
       <r>   -9.2746    1.0000 </r>
       <r>   -8.6262    1.0000 </r>
       <r>   -8.3504    1.0000 </r>
       <r>   -7.2869    1.0000 </r>
       <r>   -6.8407    1.0000 </r>
       <r>   -6.6434    1.0000 </r>
       <r>   -6.4855    1.0000 </r>
       <r>   -6.2426    1.0000 </r>
       <r>   -5.7357    1.0000 </r>
       <r>   -5.6301    1.0000 </r>
       <r>   -5.4323    1.0000 </r>
       <r>   -4.8438    1.0000 </r>
       <r>   -4.8085    1.0000 </r>
       <r>   -4.3942    1.0000 </r>
       <r>   -4.3365    1.0000 </r>
       <r>   -4.2831    1.0000 </r>
       <r>   -4.2490    1.0000 </r>
       <r>   -3.9543    1.0000 </r>
       <r>   -3.7210    1.0000 </r>
       <r>   -3.6046    1.0000 </r>
       <r>   -3.4258    1.0000 </r>
       <r>   -3.2801    1.0000 </r>
       <r>   -3.1783    1.0000 </r>
       <r>   -3.0482    1.0000 </r>
       <r>   -2.9485    1.0000 </r>
       <r>   -2.8121    1.0000 </r>
       <r>   -2.7239    1.0000 </r>
       <r>   -2.6263    1.0000 </r>
       <r>   -2.5638    1.0000 </r>
       <r>   -2.3130    1.0000 </r>
       <r>   -2.3023    1.0000 </r>
       <r>   -1.9931    1.0000 </r>
       <r>   -1.8868    1.0000 </r>
       <r>   -1.8243    1.0000 </r>
       <r>   -1.4985    1.0000 </r>
       <r>   -1.4807    1.0000 </r>
       <r>   -1.2364    1.0000 </r>
       <r>   -1.1135    1.0000 </r>
       <r>   -1.0163    1.0000 </r>
       <r>   -0.8012    1.0000 </r>
       <r>   -0.6421    1.0000 </r>
       <r>    0.1005    0.4114 </r>
       <r>    0.5757    0.0000 </r>
       <r>    0.9548    0.0000 </r>
       <r>    1.0426    0.0000 </r>
       <r>    1.4434    0.0000 </r>
       <r>    1.6584    0.0000 </r>
       <r>    1.7811    0.0000 </r>
       <r>    2.1197    0.0000 </r>
       <r>    2.3472    0.0000 </r>
       <r>    2.5430    0.0000 </r>
       <r>    2.7414    0.0000 </r>
       <r>    2.8386    0.0000 </r>
       <r>    2.9415    0.0000 </r>
       <r>    3.0134    0.0000 </r>
       <r>    3.0804    0.0000 </r>
      </set>
      <set comment="kpoint 11">
       <r>  -14.5099    1.0000 </r>
       <r>  -12.9534    1.0000 </r>
       <r>  -12.8857    1.0000 </r>
       <r>  -12.5548    1.0000 </r>
       <r>  -12.1212    1.0000 </r>
       <r>  -11.9758    1.0000 </r>
       <r>  -11.6473    1.0000 </r>
       <r>  -11.2836    1.0000 </r>
       <r>  -11.0623    1.0000 </r>
       <r>  -10.7763    1.0000 </r>
       <r>  -10.5842    1.0000 </r>
       <r>   -9.8981    1.0000 </r>
       <r>   -9.2611    1.0000 </r>
       <r>   -8.7579    1.0000 </r>
       <r>   -8.4943    1.0000 </r>
       <r>   -7.3781    1.0000 </r>
       <r>   -7.0829    1.0000 </r>
       <r>   -6.7528    1.0000 </r>
       <r>   -6.6825    1.0000 </r>
       <r>   -6.6299    1.0000 </r>
       <r>   -5.8211    1.0000 </r>
       <r>   -5.7953    1.0000 </r>
       <r>   -5.5044    1.0000 </r>
       <r>   -5.2075    1.0000 </r>
       <r>   -5.1685    1.0000 </r>
       <r>   -5.0246    1.0000 </r>
       <r>   -4.9172    1.0000 </r>
       <r>   -4.6524    1.0000 </r>
       <r>   -4.5789    1.0000 </r>
       <r>   -4.5349    1.0000 </r>
       <r>   -4.1376    1.0000 </r>
       <r>   -3.9993    1.0000 </r>
       <r>   -3.7300    1.0000 </r>
       <r>   -3.6714    1.0000 </r>
       <r>   -3.3359    1.0000 </r>
       <r>   -3.1934    1.0000 </r>
       <r>   -3.0797    1.0000 </r>
       <r>   -3.0386    1.0000 </r>
       <r>   -2.9731    1.0000 </r>
       <r>   -2.7592    1.0000 </r>
       <r>   -2.6172    1.0000 </r>
       <r>   -2.5167    1.0000 </r>
       <r>   -2.4556    1.0000 </r>
       <r>   -2.1451    1.0000 </r>
       <r>   -1.9792    1.0000 </r>
       <r>   -1.8766    1.0000 </r>
       <r>   -1.7649    1.0000 </r>
       <r>   -1.5634    1.0000 </r>
       <r>   -1.4114    1.0000 </r>
       <r>   -1.3354    1.0000 </r>
       <r>   -1.0882    1.0000 </r>
       <r>   -0.9168    1.0000 </r>
       <r>   -0.7482    1.0000 </r>
       <r>   -0.2341    1.0000 </r>
       <r>    0.4303    0.0000 </r>
       <r>    0.6938    0.0000 </r>
       <r>    1.1236    0.0000 </r>
       <r>    1.4341    0.0000 </r>
       <r>    1.5884    0.0000 </r>
       <r>    1.7264    0.0000 </r>
       <r>    1.9195    0.0000 </r>
       <r>    2.2513    0.0000 </r>
       <r>    2.3373    0.0000 </r>
       <r>    2.5903    0.0000 </r>
       <r>    2.6313    0.0000 </r>
       <r>    2.7396    0.0000 </r>
       <r>    2.9990    0.0000 </r>
       <r>    3.0539    0.0000 </r>
      </set>
      <set comment="kpoint 12">
       <r>  -14.1349    1.0000 </r>
       <r>  -12.5833    1.0000 </r>
       <r>  -12.4692    1.0000 </r>
       <r>  -12.1958    1.0000 </r>
       <r>  -11.7634    1.0000 </r>
       <r>  -11.6251    1.0000 </r>
       <r>  -11.3702    1.0000 </r>
       <r>  -10.9699    1.0000 </r>
       <r>  -10.7986    1.0000 </r>
       <r>  -10.5638    1.0000 </r>
       <r>  -10.3786    1.0000 </r>
       <r>  -10.1485    1.0000 </r>
       <r>   -9.1989    1.0000 </r>
       <r>   -8.9572    1.0000 </r>
       <r>   -8.7725    1.0000 </r>
       <r>   -7.6930    1.0000 </r>
       <r>   -7.4176    1.0000 </r>
       <r>   -7.1105    1.0000 </r>
       <r>   -7.0986    1.0000 </r>
       <r>   -6.9473    1.0000 </r>
       <r>   -6.1826    1.0000 </r>
       <r>   -6.1600    1.0000 </r>
       <r>   -5.9397    1.0000 </r>
       <r>   -5.9006    1.0000 </r>
       <r>   -5.5156    1.0000 </r>
       <r>   -5.3698    1.0000 </r>
       <r>   -5.1599    1.0000 </r>
       <r>   -4.9250    1.0000 </r>
       <r>   -4.5972    1.0000 </r>
       <r>   -4.4139    1.0000 </r>
       <r>   -4.3246    1.0000 </r>
       <r>   -4.2741    1.0000 </r>
       <r>   -3.9979    1.0000 </r>
       <r>   -3.7204    1.0000 </r>
       <r>   -3.3998    1.0000 </r>
       <r>   -3.3246    1.0000 </r>
       <r>   -3.1739    1.0000 </r>
       <r>   -3.0100    1.0000 </r>
       <r>   -2.9661    1.0000 </r>
       <r>   -2.8725    1.0000 </r>
       <r>   -2.8366    1.0000 </r>
       <r>   -2.6383    1.0000 </r>
       <r>   -2.4765    1.0000 </r>
       <r>   -2.3692    1.0000 </r>
       <r>   -2.2998    1.0000 </r>
       <r>   -1.9606    1.0000 </r>
       <r>   -1.8740    1.0000 </r>
       <r>   -1.7445    1.0000 </r>
       <r>   -1.6484    1.0000 </r>
       <r>   -1.4344    1.0000 </r>
       <r>   -1.2588    1.0000 </r>
       <r>   -1.1314    1.0000 </r>
       <r>   -0.8200    1.0000 </r>
       <r>   -0.5824    1.0000 </r>
       <r>    0.2071    0.0417 </r>
       <r>    0.4387    0.0000 </r>
       <r>    0.9777    0.0000 </r>
       <r>    1.2335    0.0000 </r>
       <r>    1.2770    0.0000 </r>
       <r>    1.6001    0.0000 </r>
       <r>    2.0082    0.0000 </r>
       <r>    2.0730    0.0000 </r>
       <r>    2.2449    0.0000 </r>
       <r>    2.4021    0.0000 </r>
       <r>    2.4682    0.0000 </r>
       <r>    2.5201    0.0000 </r>
       <r>    2.6310    0.0000 </r>
       <r>    2.8839    0.0000 </r>
      </set>
      <set comment="kpoint 13">
       <r>  -13.7093    1.0000 </r>
       <r>  -12.1496    1.0000 </r>
       <r>  -11.9658    1.0000 </r>
       <r>  -11.7458    1.0000 </r>
       <r>  -11.4260    1.0000 </r>
       <r>  -11.2314    1.0000 </r>
       <r>  -11.1397    1.0000 </r>
       <r>  -10.7157    1.0000 </r>
       <r>  -10.6916    1.0000 </r>
       <r>  -10.5870    1.0000 </r>
       <r>  -10.4544    1.0000 </r>
       <r>  -10.2900    1.0000 </r>
       <r>   -9.2073    1.0000 </r>
       <r>   -9.0017    1.0000 </r>
       <r>   -8.9470    1.0000 </r>
       <r>   -8.0976    1.0000 </r>
       <r>   -7.7663    1.0000 </r>
       <r>   -7.7278    1.0000 </r>
       <r>   -7.3477    1.0000 </r>
       <r>   -7.2922    1.0000 </r>
       <r>   -6.7572    1.0000 </r>
       <r>   -6.6801    1.0000 </r>
       <r>   -6.6465    1.0000 </r>
       <r>   -6.4822    1.0000 </r>
       <r>   -5.5409    1.0000 </r>
       <r>   -5.3275    1.0000 </r>
       <r>   -4.9894    1.0000 </r>
       <r>   -4.7702    1.0000 </r>
       <r>   -4.5480    1.0000 </r>
       <r>   -4.4114    1.0000 </r>
       <r>   -4.3466    1.0000 </r>
       <r>   -4.1030    1.0000 </r>
       <r>   -3.8508    1.0000 </r>
       <r>   -3.7745    1.0000 </r>
       <r>   -3.5612    1.0000 </r>
       <r>   -3.3782    1.0000 </r>
       <r>   -3.3390    1.0000 </r>
       <r>   -3.2639    1.0000 </r>
       <r>   -3.1331    1.0000 </r>
       <r>   -3.1091    1.0000 </r>
       <r>   -2.9128    1.0000 </r>
       <r>   -2.7002    1.0000 </r>
       <r>   -2.6118    1.0000 </r>
       <r>   -2.4795    1.0000 </r>
       <r>   -2.3034    1.0000 </r>
       <r>   -2.1861    1.0000 </r>
       <r>   -2.0581    1.0000 </r>
       <r>   -1.8601    1.0000 </r>
       <r>   -1.6874    1.0000 </r>
       <r>   -1.4908    1.0000 </r>
       <r>   -1.4527    1.0000 </r>
       <r>   -1.3576    1.0000 </r>
       <r>   -0.9538    1.0000 </r>
       <r>   -0.6893    1.0000 </r>
       <r>    0.0864    0.4905 </r>
       <r>    0.2587    0.0069 </r>
       <r>    0.7598    0.0000 </r>
       <r>    1.2041    0.0000 </r>
       <r>    1.3178    0.0000 </r>
       <r>    1.5060    0.0000 </r>
       <r>    1.8221    0.0000 </r>
       <r>    1.8509    0.0000 </r>
       <r>    2.0154    0.0000 </r>
       <r>    2.1703    0.0000 </r>
       <r>    2.3338    0.0000 </r>
       <r>    2.4210    0.0000 </r>
       <r>    2.6348    0.0000 </r>
       <r>    2.6596    0.0000 </r>
      </set>
      <set comment="kpoint 14">
       <r>  -13.3599    1.0000 </r>
       <r>  -11.7809    1.0000 </r>
       <r>  -11.4432    1.0000 </r>
       <r>  -11.4153    1.0000 </r>
       <r>  -11.2508    1.0000 </r>
       <r>  -11.0370    1.0000 </r>
       <r>  -10.9442    1.0000 </r>
       <r>  -10.8505    1.0000 </r>
       <r>  -10.7671    1.0000 </r>
       <r>  -10.6867    1.0000 </r>
       <r>  -10.5660    1.0000 </r>
       <r>  -10.3198    1.0000 </r>
       <r>   -9.4153    1.0000 </r>
       <r>   -8.9415    1.0000 </r>
       <r>   -8.5411    1.0000 </r>
       <r>   -8.3863    1.0000 </r>
       <r>   -8.3144    1.0000 </r>
       <r>   -7.8545    1.0000 </r>
       <r>   -7.5336    1.0000 </r>
       <r>   -7.5003    1.0000 </r>
       <r>   -7.3023    1.0000 </r>
       <r>   -7.2233    1.0000 </r>
       <r>   -7.1259    1.0000 </r>
       <r>   -6.5542    1.0000 </r>
       <r>   -5.4440    1.0000 </r>
       <r>   -5.0092    1.0000 </r>
       <r>   -4.9771    1.0000 </r>
       <r>   -4.5448    1.0000 </r>
       <r>   -4.4609    1.0000 </r>
       <r>   -4.3139    1.0000 </r>
       <r>   -4.1548    1.0000 </r>
       <r>   -4.1050    1.0000 </r>
       <r>   -3.9385    1.0000 </r>
       <r>   -3.9084    1.0000 </r>
       <r>   -3.7091    1.0000 </r>
       <r>   -3.6481    1.0000 </r>
       <r>   -3.4779    1.0000 </r>
       <r>   -3.3420    1.0000 </r>
       <r>   -3.2477    1.0000 </r>
       <r>   -3.1334    1.0000 </r>
       <r>   -2.9753    1.0000 </r>
       <r>   -2.7911    1.0000 </r>
       <r>   -2.6367    1.0000 </r>
       <r>   -2.5904    1.0000 </r>
       <r>   -2.5366    1.0000 </r>
       <r>   -2.1773    1.0000 </r>
       <r>   -2.1114    1.0000 </r>
       <r>   -1.8694    1.0000 </r>
       <r>   -1.7178    1.0000 </r>
       <r>   -1.6596    1.0000 </r>
       <r>   -1.5360    1.0000 </r>
       <r>   -1.3457    1.0000 </r>
       <r>   -0.9447    1.0000 </r>
       <r>   -0.7024    1.0000 </r>
       <r>    0.0185    0.8254 </r>
       <r>    0.2151    0.0326 </r>
       <r>    0.6533    0.0000 </r>
       <r>    1.3511    0.0000 </r>
       <r>    1.4368    0.0000 </r>
       <r>    1.5288    0.0000 </r>
       <r>    1.5707    0.0000 </r>
       <r>    1.8131    0.0000 </r>
       <r>    1.8595    0.0000 </r>
       <r>    2.0979    0.0000 </r>
       <r>    2.2565    0.0000 </r>
       <r>    2.4366    0.0000 </r>
       <r>    2.4867    0.0000 </r>
       <r>    2.5061    0.0000 </r>
      </set>
      <set comment="kpoint 15">
       <r>  -13.3609    1.0000 </r>
       <r>  -11.7720    1.0000 </r>
       <r>  -11.5212    1.0000 </r>
       <r>  -11.4424    1.0000 </r>
       <r>  -11.0578    1.0000 </r>
       <r>  -11.0207    1.0000 </r>
       <r>  -10.9180    1.0000 </r>
       <r>  -10.8111    1.0000 </r>
       <r>  -10.7943    1.0000 </r>
       <r>  -10.7419    1.0000 </r>
       <r>  -10.6892    1.0000 </r>
       <r>  -10.3041    1.0000 </r>
       <r>   -9.4029    1.0000 </r>
       <r>   -8.9547    1.0000 </r>
       <r>   -8.7433    1.0000 </r>
       <r>   -8.4198    1.0000 </r>
       <r>   -7.9305    1.0000 </r>
       <r>   -7.8628    1.0000 </r>
       <r>   -7.5912    1.0000 </r>
       <r>   -7.5654    1.0000 </r>
       <r>   -7.2673    1.0000 </r>
       <r>   -7.2174    1.0000 </r>
       <r>   -7.1868    1.0000 </r>
       <r>   -6.4790    1.0000 </r>
       <r>   -5.4524    1.0000 </r>
       <r>   -4.9311    1.0000 </r>
       <r>   -4.7434    1.0000 </r>
       <r>   -4.6724    1.0000 </r>
       <r>   -4.5604    1.0000 </r>
       <r>   -4.3565    1.0000 </r>
       <r>   -4.2364    1.0000 </r>
       <r>   -4.0026    1.0000 </r>
       <r>   -3.9827    1.0000 </r>
       <r>   -3.8719    1.0000 </r>
       <r>   -3.8396    1.0000 </r>
       <r>   -3.7283    1.0000 </r>
       <r>   -3.6229    1.0000 </r>
       <r>   -3.4325    1.0000 </r>
       <r>   -3.3398    1.0000 </r>
       <r>   -3.1074    1.0000 </r>
       <r>   -2.8080    1.0000 </r>
       <r>   -2.7274    1.0000 </r>
       <r>   -2.6859    1.0000 </r>
       <r>   -2.6034    1.0000 </r>
       <r>   -2.3696    1.0000 </r>
       <r>   -2.1653    1.0000 </r>
       <r>   -2.1422    1.0000 </r>
       <r>   -1.9207    1.0000 </r>
       <r>   -1.7355    1.0000 </r>
       <r>   -1.6444    1.0000 </r>
       <r>   -1.4881    1.0000 </r>
       <r>   -1.3028    1.0000 </r>
       <r>   -0.9212    1.0000 </r>
       <r>   -0.6219    1.0000 </r>
       <r>   -0.0258    0.9409 </r>
       <r>    0.2382    0.0150 </r>
       <r>    0.7329    0.0000 </r>
       <r>    1.2910    0.0000 </r>
       <r>    1.4165    0.0000 </r>
       <r>    1.6748    0.0000 </r>
       <r>    1.7561    0.0000 </r>
       <r>    1.8550    0.0000 </r>
       <r>    1.9745    0.0000 </r>
       <r>    2.1570    0.0000 </r>
       <r>    2.2407    0.0000 </r>
       <r>    2.3666    0.0000 </r>
       <r>    2.4205    0.0000 </r>
       <r>    2.5831    0.0000 </r>
      </set>
      <set comment="kpoint 16">
       <r>  -13.7119    1.0000 </r>
       <r>  -12.1074    1.0000 </r>
       <r>  -12.0850    1.0000 </r>
       <r>  -11.5550    1.0000 </r>
       <r>  -11.4718    1.0000 </r>
       <r>  -11.2299    1.0000 </r>
       <r>  -11.0514    1.0000 </r>
       <r>  -10.9172    1.0000 </r>
       <r>  -10.6166    1.0000 </r>
       <r>  -10.6051    1.0000 </r>
       <r>  -10.4372    1.0000 </r>
       <r>  -10.3960    1.0000 </r>
       <r>   -9.2075    1.0000 </r>
       <r>   -9.0197    1.0000 </r>
       <r>   -8.7284    1.0000 </r>
       <r>   -8.4770    1.0000 </r>
       <r>   -7.6583    1.0000 </r>
       <r>   -7.4272    1.0000 </r>
       <r>   -7.3167    1.0000 </r>
       <r>   -7.2182    1.0000 </r>
       <r>   -7.0243    1.0000 </r>
       <r>   -6.7966    1.0000 </r>
       <r>   -6.6520    1.0000 </r>
       <r>   -6.2366    1.0000 </r>
       <r>   -5.5004    1.0000 </r>
       <r>   -5.0364    1.0000 </r>
       <r>   -5.0013    1.0000 </r>
       <r>   -4.8287    1.0000 </r>
       <r>   -4.6699    1.0000 </r>
       <r>   -4.3888    1.0000 </r>
       <r>   -4.2687    1.0000 </r>
       <r>   -4.1887    1.0000 </r>
       <r>   -4.0792    1.0000 </r>
       <r>   -3.8700    1.0000 </r>
       <r>   -3.7146    1.0000 </r>
       <r>   -3.6470    1.0000 </r>
       <r>   -3.4424    1.0000 </r>
       <r>   -3.3878    1.0000 </r>
       <r>   -3.1838    1.0000 </r>
       <r>   -3.1224    1.0000 </r>
       <r>   -2.7828    1.0000 </r>
       <r>   -2.6749    1.0000 </r>
       <r>   -2.5078    1.0000 </r>
       <r>   -2.3589    1.0000 </r>
       <r>   -2.2402    1.0000 </r>
       <r>   -2.1512    1.0000 </r>
       <r>   -1.9347    1.0000 </r>
       <r>   -1.8542    1.0000 </r>
       <r>   -1.7056    1.0000 </r>
       <r>   -1.5376    1.0000 </r>
       <r>   -1.3908    1.0000 </r>
       <r>   -1.2960    1.0000 </r>
       <r>   -0.9083    1.0000 </r>
       <r>   -0.5904    1.0000 </r>
       <r>    0.0547    0.6642 </r>
       <r>    0.3250    0.0003 </r>
       <r>    0.8637    0.0000 </r>
       <r>    1.2837    0.0000 </r>
       <r>    1.5171    0.0000 </r>
       <r>    1.7743    0.0000 </r>
       <r>    1.9066    0.0000 </r>
       <r>    2.0735    0.0000 </r>
       <r>    2.1894    0.0000 </r>
       <r>    2.2692    0.0000 </r>
       <r>    2.2963    0.0000 </r>
       <r>    2.4258    0.0000 </r>
       <r>    2.4883    0.0000 </r>
       <r>    2.6458    0.0000 </r>
      </set>
      <set comment="kpoint 17">
       <r>  -14.1379    1.0000 </r>
       <r>  -12.5831    1.0000 </r>
       <r>  -12.5273    1.0000 </r>
       <r>  -11.9379    1.0000 </r>
       <r>  -11.9296    1.0000 </r>
       <r>  -11.6289    1.0000 </r>
       <r>  -11.2319    1.0000 </r>
       <r>  -11.1427    1.0000 </r>
       <r>  -10.7598    1.0000 </r>
       <r>  -10.6796    1.0000 </r>
       <r>  -10.4082    1.0000 </r>
       <r>  -10.1836    1.0000 </r>
       <r>   -9.1488    1.0000 </r>
       <r>   -8.7885    1.0000 </r>
       <r>   -8.5409    1.0000 </r>
       <r>   -8.1731    1.0000 </r>
       <r>   -7.4271    1.0000 </r>
       <r>   -6.9872    1.0000 </r>
       <r>   -6.8847    1.0000 </r>
       <r>   -6.8551    1.0000 </r>
       <r>   -6.5295    1.0000 </r>
       <r>   -6.1433    1.0000 </r>
       <r>   -5.9596    1.0000 </r>
       <r>   -5.7852    1.0000 </r>
       <r>   -5.3939    1.0000 </r>
       <r>   -5.2043    1.0000 </r>
       <r>   -5.1196    1.0000 </r>
       <r>   -4.8673    1.0000 </r>
       <r>   -4.6804    1.0000 </r>
       <r>   -4.6268    1.0000 </r>
       <r>   -4.3015    1.0000 </r>
       <r>   -4.2278    1.0000 </r>
       <r>   -4.0780    1.0000 </r>
       <r>   -3.8785    1.0000 </r>
       <r>   -3.5730    1.0000 </r>
       <r>   -3.4413    1.0000 </r>
       <r>   -3.2605    1.0000 </r>
       <r>   -3.0991    1.0000 </r>
       <r>   -3.0611    1.0000 </r>
       <r>   -2.9137    1.0000 </r>
       <r>   -2.7663    1.0000 </r>
       <r>   -2.6182    1.0000 </r>
       <r>   -2.5563    1.0000 </r>
       <r>   -2.2483    1.0000 </r>
       <r>   -2.0129    1.0000 </r>
       <r>   -1.8974    1.0000 </r>
       <r>   -1.8565    1.0000 </r>
       <r>   -1.6956    1.0000 </r>
       <r>   -1.5867    1.0000 </r>
       <r>   -1.3564    1.0000 </r>
       <r>   -1.2497    1.0000 </r>
       <r>   -1.1469    1.0000 </r>
       <r>   -0.8271    1.0000 </r>
       <r>   -0.6236    1.0000 </r>
       <r>    0.2156    0.0321 </r>
       <r>    0.4981    0.0000 </r>
       <r>    0.9752    0.0000 </r>
       <r>    1.4339    0.0000 </r>
       <r>    1.7054    0.0000 </r>
       <r>    1.9336    0.0000 </r>
       <r>    1.9823    0.0000 </r>
       <r>    2.1924    0.0000 </r>
       <r>    2.2868    0.0000 </r>
       <r>    2.4115    0.0000 </r>
       <r>    2.5418    0.0000 </r>
       <r>    2.6678    0.0000 </r>
       <r>    2.7521    0.0000 </r>
       <r>    2.8702    0.0000 </r>
      </set>
      <set comment="kpoint 18">
       <r>  -14.5127    1.0000 </r>
       <r>  -12.9782    1.0000 </r>
       <r>  -12.9024    1.0000 </r>
       <r>  -12.3388    1.0000 </r>
       <r>  -12.2743    1.0000 </r>
       <r>  -11.9811    1.0000 </r>
       <r>  -11.5269    1.0000 </r>
       <r>  -11.4163    1.0000 </r>
       <r>  -11.0161    1.0000 </r>
       <r>  -10.9346    1.0000 </r>
       <r>  -10.5867    1.0000 </r>
       <r>   -9.9319    1.0000 </r>
       <r>   -9.1677    1.0000 </r>
       <r>   -8.4756    1.0000 </r>
       <r>   -8.3841    1.0000 </r>
       <r>   -7.7675    1.0000 </r>
       <r>   -7.2105    1.0000 </r>
       <r>   -6.6789    1.0000 </r>
       <r>   -6.6239    1.0000 </r>
       <r>   -6.5142    1.0000 </r>
       <r>   -5.9068    1.0000 </r>
       <r>   -5.7321    1.0000 </r>
       <r>   -5.5841    1.0000 </r>
       <r>   -5.3221    1.0000 </r>
       <r>   -5.2167    1.0000 </r>
       <r>   -4.9410    1.0000 </r>
       <r>   -4.8125    1.0000 </r>
       <r>   -4.6273    1.0000 </r>
       <r>   -4.5748    1.0000 </r>
       <r>   -4.4925    1.0000 </r>
       <r>   -4.1680    1.0000 </r>
       <r>   -3.9387    1.0000 </r>
       <r>   -3.7742    1.0000 </r>
       <r>   -3.6879    1.0000 </r>
       <r>   -3.4506    1.0000 </r>
       <r>   -3.4194    1.0000 </r>
       <r>   -3.0878    1.0000 </r>
       <r>   -3.0014    1.0000 </r>
       <r>   -2.9733    1.0000 </r>
       <r>   -2.7246    1.0000 </r>
       <r>   -2.5968    1.0000 </r>
       <r>   -2.5285    1.0000 </r>
       <r>   -2.4257    1.0000 </r>
       <r>   -2.1637    1.0000 </r>
       <r>   -1.8819    1.0000 </r>
       <r>   -1.8243    1.0000 </r>
       <r>   -1.7365    1.0000 </r>
       <r>   -1.5015    1.0000 </r>
       <r>   -1.4419    1.0000 </r>
       <r>   -1.3392    1.0000 </r>
       <r>   -1.0009    1.0000 </r>
       <r>   -0.9227    1.0000 </r>
       <r>   -0.7085    1.0000 </r>
       <r>   -0.3062    1.0000 </r>
       <r>    0.3550    0.0001 </r>
       <r>    0.6510    0.0000 </r>
       <r>    1.1414    0.0000 </r>
       <r>    1.6026    0.0000 </r>
       <r>    1.8575    0.0000 </r>
       <r>    1.9135    0.0000 </r>
       <r>    2.0531    0.0000 </r>
       <r>    2.2621    0.0000 </r>
       <r>    2.4077    0.0000 </r>
       <r>    2.6817    0.0000 </r>
       <r>    2.7412    0.0000 </r>
       <r>    2.8563    0.0000 </r>
       <r>    2.9349    0.0000 </r>
[...]
       <r>    2.7304    0.0000 </r>
      </set>
      <set comment="kpoint 54">
       <r>  -13.3602    1.0000 </r>
       <r>  -11.7714    1.0000 </r>
       <r>  -11.4770    1.0000 </r>
       <r>  -11.4570    1.0000 </r>
       <r>  -11.1561    1.0000 </r>
       <r>  -11.0127    1.0000 </r>
       <r>  -10.9347    1.0000 </r>
       <r>  -10.8364    1.0000 </r>
       <r>  -10.7957    1.0000 </r>
       <r>  -10.7088    1.0000 </r>
       <r>  -10.6070    1.0000 </r>
       <r>  -10.3075    1.0000 </r>
       <r>   -9.4111    1.0000 </r>
       <r>   -8.9391    1.0000 </r>
       <r>   -8.6518    1.0000 </r>
       <r>   -8.4265    1.0000 </r>
       <r>   -8.1055    1.0000 </r>
       <r>   -7.8663    1.0000 </r>
       <r>   -7.5908    1.0000 </r>
       <r>   -7.5459    1.0000 </r>
       <r>   -7.2778    1.0000 </r>
       <r>   -7.1811    1.0000 </r>
       <r>   -7.1545    1.0000 </r>
       <r>   -6.4914    1.0000 </r>
       <r>   -5.4878    1.0000 </r>
       <r>   -4.9878    1.0000 </r>
       <r>   -4.9301    1.0000 </r>
       <r>   -4.5834    1.0000 </r>
       <r>   -4.4679    1.0000 </r>
       <r>   -4.3026    1.0000 </r>
       <r>   -4.2035    1.0000 </r>
       <r>   -4.0655    1.0000 </r>
       <r>   -3.9296    1.0000 </r>
       <r>   -3.8425    1.0000 </r>
       <r>   -3.7546    1.0000 </r>
       <r>   -3.6893    1.0000 </r>
       <r>   -3.5403    1.0000 </r>
       <r>   -3.4092    1.0000 </r>
       <r>   -3.2452    1.0000 </r>
       <r>   -3.0776    1.0000 </r>
       <r>   -3.0160    1.0000 </r>
       <r>   -2.8166    1.0000 </r>
       <r>   -2.6872    1.0000 </r>
       <r>   -2.5920    1.0000 </r>
       <r>   -2.3644    1.0000 </r>
       <r>   -2.2026    1.0000 </r>
       <r>   -2.1048    1.0000 </r>
       <r>   -1.8935    1.0000 </r>
       <r>   -1.7379    1.0000 </r>
       <r>   -1.6588    1.0000 </r>
       <r>   -1.5175    1.0000 </r>
       <r>   -1.3781    1.0000 </r>
       <r>   -0.9689    1.0000 </r>
       <r>   -0.6252    1.0000 </r>
       <r>    0.0160    0.8344 </r>
       <r>    0.2307    0.0195 </r>
       <r>    0.7791    0.0000 </r>
       <r>    1.3428    0.0000 </r>
       <r>    1.3749    0.0000 </r>
       <r>    1.5688    0.0000 </r>
       <r>    1.6630    0.0000 </r>
       <r>    1.7574    0.0000 </r>
       <r>    1.9309    0.0000 </r>
       <r>    2.0505    0.0000 </r>
       <r>    2.1888    0.0000 </r>
       <r>    2.3505    0.0000 </r>
       <r>    2.5096    0.0000 </r>
       <r>    2.6074    0.0000 </r>
      </set>
     </set>
    </set>
   </array>
  </eigenvalues>
  <separator name="orbital magnetization" >
   <v name="MAGDIPOLOUT">      0.00000000      0.00000000      0.00000000</v>
  </separator>
  <dos>
   <i name="efermi">      0.08470554 </i>
   <total>
    <array>
     <dimension dim="1">gridpoints</dimension>
     <dimension dim="2">spin</dimension>
     <field>energy</field>
     <field>total</field>
     <field>integrated</field>
     <set>
      <set comment="spin 1">
       <r>   -16.0286     0.0000     0.0000 </r>
       <r>   -15.9615     0.0000     0.0000 </r>
       <r>   -15.8943     0.0000     0.0000 </r>
       <r>   -15.8272     0.0000     0.0000 </r>
       <r>   -15.7601     0.0000     0.0000 </r>
       <r>   -15.6929     0.0000     0.0000 </r>
       <r>   -15.6258     0.0000     0.0000 </r>
       <r>   -15.5587     0.0000     0.0000 </r>
       <r>   -15.4916     0.0000     0.0000 </r>
       <r>   -15.4244     0.0000     0.0000 </r>
       <r>   -15.3573     0.0000     0.0000 </r>
       <r>   -15.2902     0.0002     0.0000 </r>
       <r>   -15.2231     0.0066     0.0005 </r>
       <r>   -15.1559     0.0873     0.0063 </r>
       <r>   -15.0888     0.5357     0.0423 </r>
       <r>   -15.0217     1.5971     0.1495 </r>
       <r>   -14.9546     2.3896     0.3099 </r>
       <r>   -14.8874     2.0387     0.4467 </r>
       <r>   -14.8203     1.7527     0.5644 </r>
       <r>   -14.7532     1.7501     0.6819 </r>
       <r>   -14.6861     1.0394     0.7516 </r>
       <r>   -14.6189     0.5249     0.7869 </r>
       <r>   -14.5518     1.0353     0.8564 </r>
       <r>   -14.4847     1.6666     0.9682 </r>
       <r>   -14.4176     1.1954     1.0485 </r>
       <r>   -14.3504     0.3768     1.0738 </r>
       <r>   -14.2833     0.1305     1.0825 </r>
       <r>   -14.2162     0.5103     1.1168 </r>
       <r>   -14.1490     1.3720     1.2089 </r>
       <r>   -14.0819     1.6064     1.3167 </r>
       <r>   -14.0148     0.8154     1.3714 </r>
       <r>   -13.9477     0.1805     1.3836 </r>
       <r>   -13.8805     0.0522     1.3871 </r>
       <r>   -13.8134     0.2979     1.4071 </r>
       <r>   -13.7463     1.0728     1.4791 </r>
       <r>   -13.6792     1.6859     1.5922 </r>
       <r>   -13.6120     1.2678     1.6773 </r>
       <r>   -13.5449     1.0736     1.7494 </r>
       <r>   -13.4778     2.4002     1.9105 </r>
       <r>   -13.4107     4.6629     2.2235 </r>
       <r>   -13.3435     5.9072     2.6201 </r>
       <r>   -13.2764     5.1834     2.9680 </r>
       <r>   -13.2093     4.0590     3.2405 </r>
       <r>   -13.1422     3.2052     3.4556 </r>
       <r>   -13.0750     2.3279     3.6119 </r>
       <r>   -13.0079     2.4965     3.7795 </r>
       <r>   -12.9408     3.9203     4.0426 </r>
       <r>   -12.8737     4.6494     4.3547 </r>
       <r>   -12.8065     3.8670     4.6143 </r>
       <r>   -12.7394     3.0253     4.8174 </r>
       <r>   -12.6723     3.2788     5.0375 </r>
       <r>   -12.6051     4.8654     5.3641 </r>
       <r>   -12.5380     6.6444     5.8101 </r>
       <r>   -12.4709     6.7306     6.2619 </r>
       <r>   -12.4038     5.6640     6.6421 </r>
       <r>   -12.3366     4.6982     6.9574 </r>
       <r>   -12.2695     4.4226     7.2543 </r>
       <r>   -12.2024     4.7598     7.5738 </r>
       <r>   -12.1353     5.4099     7.9370 </r>
       <r>   -12.0681     5.9792     8.3383 </r>
       <r>   -12.0010     6.5286     8.7766 </r>
       <r>   -11.9339     6.9645     9.2441 </r>
       <r>   -11.8668     6.3623     9.6711 </r>
       <r>   -11.7996     6.1162    10.0817 </r>
       <r>   -11.7325     6.5187    10.5193 </r>
       <r>   -11.6654     6.6390    10.9649 </r>
       <r>   -11.5983     6.9476    11.4313 </r>
       <r>   -11.5311     7.8666    11.9593 </r>
       <r>   -11.4640     9.4551    12.5940 </r>
       <r>   -11.3969     9.7228    13.2467 </r>
       <r>   -11.3298     8.1110    13.7911 </r>
       <r>   -11.2626     7.8476    14.3179 </r>
       <r>   -11.1955     8.7028    14.9021 </r>
       <r>   -11.1284     8.6566    15.4832 </r>
       <r>   -11.0613     9.1166    16.0951 </r>
       <r>   -10.9941    10.2946    16.7862 </r>
       <r>   -10.9270    10.2234    17.4724 </r>
       <r>   -10.8599     9.3202    18.0981 </r>
       <r>   -10.7927    10.1323    18.7782 </r>
       <r>   -10.7256    10.9418    19.5127 </r>
       <r>   -10.6585    10.0104    20.1846 </r>
       <r>   -10.5914     8.7530    20.7722 </r>
       <r>   -10.5242     6.7564    21.2257 </r>
       <r>   -10.4571     4.9926    21.5609 </r>
       <r>   -10.3900     5.0853    21.9022 </r>
       <r>   -10.3229     5.2515    22.2547 </r>
       <r>   -10.2557     4.1345    22.5323 </r>
       <r>   -10.1886     2.7397    22.7162 </r>
       <r>   -10.1215     1.9963    22.8502 </r>
       <r>   -10.0544     1.9041    22.9780 </r>
       <r>    -9.9872     3.3364    23.2019 </r>
       <r>    -9.9201     5.1732    23.5492 </r>
       <r>    -9.8530     4.4125    23.8454 </r>
       <r>    -9.7859     1.8816    23.9717 </r>
       <r>    -9.7187     0.3839    23.9975 </r>
       <r>    -9.6516     0.0377    24.0000 </r>
       <r>    -9.5845     0.0334    24.0022 </r>
       <r>    -9.5174     0.2992    24.0223 </r>
       <r>    -9.4502     1.2707    24.1076 </r>
       <r>    -9.3831     2.7191    24.2901 </r>
       <r>    -9.3160     3.9445    24.5549 </r>
       <r>    -9.2488     5.5721    24.9289 </r>
       <r>    -9.1817     6.9868    25.3979 </r>
       <r>    -9.1146     6.0923    25.8069 </r>
       <r>    -9.0475     4.2247    26.0905 </r>
       <r>    -8.9803     4.2526    26.3759 </r>
       <r>    -8.9132     4.6800    26.6901 </r>
       <r>    -8.8461     4.2032    26.9722 </r>
       <r>    -8.7790     4.5943    27.2806 </r>
       <r>    -8.7118     5.2207    27.6311 </r>
       <r>    -8.6447     4.5049    27.9335 </r>
       <r>    -8.5776     3.7955    28.1883 </r>
       <r>    -8.5105     4.4863    28.4894 </r>
       <r>    -8.4433     6.0120    28.8930 </r>
       <r>    -8.3762     7.4831    29.3953 </r>
       <r>    -8.3091     7.6807    29.9108 </r>
       <r>    -8.2420     5.4760    30.2784 </r>
       <r>    -8.1748     3.1795    30.4919 </r>
       <r>    -8.1077     2.7338    30.6754 </r>
       <r>    -8.0406     2.7131    30.8575 </r>
       <r>    -7.9735     2.0937    30.9980 </r>
       <r>    -7.9063     2.1014    31.1391 </r>
       <r>    -7.8392     3.2745    31.3589 </r>
       <r>    -7.7721     4.4618    31.6584 </r>
       <r>    -7.7050     4.7502    31.9773 </r>
       <r>    -7.6378     4.3677    32.2704 </r>
       <r>    -7.5707     4.4853    32.5715 </r>
       <r>    -7.5036     5.1452    32.9169 </r>
       <r>    -7.4364     6.0231    33.3212 </r>
       <r>    -7.3693     7.1506    33.8012 </r>
       <r>    -7.3022     8.1445    34.3479 </r>
       <r>    -7.2351     8.9105    34.9460 </r>
       <r>    -7.1679     8.4248    35.5116 </r>
       <r>    -7.1008     6.6434    35.9575 </r>
       <r>    -7.0337     5.1744    36.3048 </r>
       <r>    -6.9666     5.2832    36.6595 </r>
       <r>    -6.8994     6.6995    37.1092 </r>
       <r>    -6.8323     7.8820    37.6383 </r>
       <r>    -6.7652     8.5972    38.2154 </r>
       <r>    -6.6981    10.1626    38.8976 </r>
       <r>    -6.6309    11.4801    39.6682 </r>
       <r>    -6.5638    10.1923    40.3523 </r>
       <r>    -6.4967     7.9466    40.8858 </r>
       <r>    -6.4296     5.6868    41.2675 </r>
       <r>    -6.3624     3.6361    41.5116 </r>
       <r>    -6.2953     3.1889    41.7256 </r>
       <r>    -6.2282     3.9005    41.9874 </r>
       <r>    -6.1611     4.2546    42.2730 </r>
       <r>    -6.0939     3.3612    42.4987 </r>
       <r>    -6.0268     2.4723    42.6646 </r>
       <r>    -5.9597     3.7055    42.9134 </r>
       <r>    -5.8925     5.9793    43.3147 </r>
       <r>    -5.8254     7.1423    43.7942 </r>
       <r>    -5.7583     7.7540    44.3147 </r>
       <r>    -5.6912     7.9489    44.8482 </r>
       <r>    -5.6240     7.8488    45.3751 </r>
       <r>    -5.5569     8.5336    45.9479 </r>
       <r>    -5.4898     8.8956    46.5450 </r>
       <r>    -5.4227     7.7461    47.0650 </r>
       <r>    -5.3555     6.1925    47.4807 </r>
       <r>    -5.2884     5.8551    47.8737 </r>
       <r>    -5.2213     6.6766    48.3219 </r>
       <r>    -5.1542     6.8913    48.7845 </r>
       <r>    -5.0870     6.0228    49.1888 </r>
       <r>    -5.0199     6.8660    49.6496 </r>
       <r>    -4.9528     9.4373    50.2831 </r>
       <r>    -4.8857    10.3503    50.9779 </r>
       <r>    -4.8185     9.4034    51.6091 </r>
       <r>    -4.7514     8.8690    52.2045 </r>
       <r>    -4.6843    10.1328    52.8846 </r>
       <r>    -4.6172    11.9157    53.6845 </r>
       <r>    -4.5500    11.6838    54.4688 </r>
       <r>    -4.4829    10.1942    55.1531 </r>
       <r>    -4.4158     9.5006    55.7908 </r>
       <r>    -4.3487    10.0382    56.4646 </r>
       <r>    -4.2815    11.7874    57.2559 </r>
       <r>    -4.2144    13.3311    58.1507 </r>
       <r>    -4.1473    13.2602    59.0408 </r>
       <r>    -4.0801    12.2484    59.8630 </r>
       <r>    -4.0130    11.5784    60.6402 </r>
       <r>    -3.9459    11.0974    61.3852 </r>
       <r>    -3.8788    10.0874    62.0623 </r>
       <r>    -3.8116     9.5466    62.7031 </r>
       <r>    -3.7445    11.2687    63.4595 </r>
       <r>    -3.6774    13.6010    64.3725 </r>
       <r>    -3.6103    13.7582    65.2961 </r>
       <r>    -3.5431    12.1175    66.1095 </r>
       <r>    -3.4760    11.8272    66.9034 </r>
       <r>    -3.4089    14.3076    67.8638 </r>
       <r>    -3.3418    15.6281    68.9128 </r>
       <r>    -3.2746    14.6693    69.8975 </r>
       <r>    -3.2075    14.0292    70.8392 </r>
       <r>    -3.1404    15.3557    71.8700 </r>
       <r>    -3.0733    18.2314    73.0938 </r>
       <r>    -3.0061    19.3382    74.3919 </r>
       <r>    -2.9390    17.0042    75.5333 </r>
       <r>    -2.8719    13.3837    76.4317 </r>
       <r>    -2.8048    12.1220    77.2454 </r>
       <r>    -2.7376    14.0771    78.1904 </r>
       <r>    -2.6705    16.3791    79.2898 </r>
       <r>    -2.6034    17.5092    80.4652 </r>
       <r>    -2.5362    17.2666    81.6242 </r>
       <r>    -2.4691    15.4781    82.6632 </r>
       <r>    -2.4020    14.1556    83.6134 </r>
       <r>    -2.3349    14.0125    84.5540 </r>
       <r>    -2.2677    13.2840    85.4457 </r>
       <r>    -2.2006    13.0261    86.3201 </r>
       <r>    -2.1335    14.0542    87.2635 </r>
       <r>    -2.0664    13.6433    88.1793 </r>
       <r>    -1.9992    12.8431    89.0414 </r>
       <r>    -1.9321    14.5598    90.0188 </r>
       <r>    -1.8650    17.3493    91.1833 </r>
       <r>    -1.7979    17.5745    92.3630 </r>
       <r>    -1.7307    16.4971    93.4704 </r>
       <r>    -1.6636    15.3471    94.5006 </r>
       <r>    -1.5965    13.4428    95.4030 </r>
       <r>    -1.5294    12.8816    96.2677 </r>
       <r>    -1.4622    13.8441    97.1970 </r>
       <r>    -1.3951    14.3713    98.1617 </r>
       <r>    -1.3280    13.9267    99.0965 </r>
       <r>    -1.2609    12.2442    99.9184 </r>
       <r>    -1.1937     9.9818   100.5884 </r>
       <r>    -1.1266     8.8689   101.1838 </r>
       <r>    -1.0595     8.7239   101.7694 </r>
       <r>    -0.9923     9.4676   102.4049 </r>
       <r>    -0.9252    11.1152   103.1510 </r>
       <r>    -0.8581    10.7012   103.8693 </r>
       <r>    -0.7910     8.5675   104.4444 </r>
       <r>    -0.7238     7.7543   104.9650 </r>
       <r>    -0.6567     8.4282   105.5307 </r>
       <r>    -0.5896     8.6488   106.1113 </r>
       <r>    -0.5225     6.9067   106.5749 </r>
       <r>    -0.4553     3.7931   106.8295 </r>
       <r>    -0.3882     1.4630   106.9277 </r>
       <r>    -0.3211     1.0664   106.9993 </r>
       <r>    -0.2540     1.4821   107.0988 </r>
       <r>    -0.1868     1.3148   107.1870 </r>
       <r>    -0.1197     0.9052   107.2478 </r>
       <r>    -0.0526     1.6020   107.3553 </r>
       <r>     0.0145     3.6395   107.5996 </r>
       <r>     0.0817     5.6788   107.9808 </r>
       <r>     0.1488     6.4528   108.4140 </r>
       <r>     0.2159     6.4759   108.8487 </r>
       <r>     0.2830     5.9300   109.2467 </r>
       <r>     0.3502     4.6833   109.5611 </r>
       <r>     0.4173     4.1415   109.8391 </r>
       <r>     0.4844     4.2183   110.1223 </r>
       <r>     0.5515     4.1578   110.4014 </r>
       <r>     0.6187     4.2315   110.6854 </r>
       <r>     0.6858     4.6603   110.9982 </r>
       <r>     0.7529     5.1457   111.3436 </r>
       <r>     0.8201     5.6674   111.7241 </r>
       <r>     0.8872     6.3124   112.1478 </r>
       <r>     0.9543     6.1097   112.5579 </r>
       <r>     1.0214     5.1574   112.9041 </r>
       <r>     1.0886     5.1760   113.2516 </r>
       <r>     1.1557     6.7797   113.7067 </r>
       <r>     1.2228     8.1838   114.2560 </r>
       <r>     1.2899     9.4712   114.8918 </r>
       <r>     1.3571    10.5101   115.5973 </r>
       <r>     1.4242     9.9940   116.2681 </r>
       <r>     1.4913     9.1659   116.8834 </r>
       <r>     1.5584     9.9949   117.5543 </r>
       <r>     1.6256    11.7587   118.3436 </r>
       <r>     1.6927    12.1154   119.1569 </r>
       <r>     1.7598    12.2147   119.9768 </r>
       <r>     1.8269    12.6355   120.8250 </r>
       <r>     1.8941    12.1661   121.6416 </r>
       <r>     1.9612    11.3510   122.4036 </r>
       <r>     2.0283    11.5038   123.1758 </r>
       <r>     2.0954    12.3331   124.0037 </r>
       <r>     2.1626    12.7286   124.8581 </r>
       <r>     2.2297    13.5628   125.7685 </r>
       <r>     2.2968    14.3507   126.7318 </r>
       <r>     2.3640    13.7922   127.6576 </r>
       <r>     2.4311    14.1615   128.6082 </r>
       <r>     2.4982    14.9756   129.6135 </r>
       <r>     2.5653    14.5106   130.5875 </r>
       <r>     2.6325    14.5514   131.5643 </r>
       <r>     2.6996    14.5364   132.5401 </r>
       <r>     2.7667    12.0965   133.3520 </r>
       <r>     2.8338     8.7908   133.9421 </r>
       <r>     2.9010     7.3800   134.4375 </r>
       <r>     2.9681     7.2840   134.9265 </r>
       <r>     3.0352     6.9985   135.3963 </r>
       <r>     3.1023     5.3969   135.7585 </r>
       <r>     3.1695     2.7090   135.9404 </r>
       <r>     3.2366     0.7680   135.9919 </r>
       <r>     3.3037     0.1123   135.9995 </r>
       <r>     3.3708     0.0079   136.0000 </r>
       <r>     3.4380     0.0003   136.0000 </r>
       <r>     3.5051     0.0000   136.0000 </r>
       <r>     3.5722     0.0000   136.0000 </r>
       <r>     3.6393     0.0000   136.0000 </r>
       <r>     3.7065     0.0000   136.0000 </r>
       <r>     3.7736     0.0000   136.0000 </r>
       <r>     3.8407     0.0000   136.0000 </r>
       <r>     3.9078     0.0000   136.0000 </r>
       <r>     3.9750     0.0000   136.0000 </r>
       <r>     4.0421     0.0000   136.0000 </r>
       <r>     4.1092     0.0000   136.0000 </r>
      </set>
     </set>
    </array>
   </total>
  </dos>
 </calculation>
 <structure name="finalpos" >
  <crystal>
   <varray name="basis" >
    <v>       3.54040000       0.00000000       0.00000000 </v>
    <v>      -1.77020000      10.29434800       0.00000000 </v>
    <v>       0.00000000       0.00000000      27.50142900 </v>
   </varray>
   <i name="volume">   1002.32009712 </i>
   <varray name="rec_basis" >
    <v>       0.28245396       0.04857034       0.00000000 </v>
    <v>       0.00000000       0.09714068       0.00000000 </v>
    <v>       0.00000000       0.00000000       0.03636175 </v>
   </varray>
  </crystal>
  <varray name="positions" >
   <v>       0.11402300       0.22804500       0.23316207 </v>
   <v>       0.51402300       0.72804500       0.51499159 </v>
   <v>       0.45808900       0.91617900       0.20939482 </v>
   <v>       0.85808900       0.41617900       0.49122434 </v>
   <v>       0.31085400       0.62170900       0.08414979 </v>
   <v>       0.31085400       0.62170900       0.36597930 </v>
   <v>       0.99923000       0.99846000       0.08631254 </v>
   <v>       0.99923000       0.99846000       0.36814206 </v>
   <v>       0.65492700       0.30985400       0.06041748 </v>
   <v>       0.65492700       0.30985400       0.34224700 </v>
   <v>       0.76973800       0.53947500       0.20725292 </v>
   <v>       0.16973800       0.03947500       0.48908244 </v>
   <v>       0.93971600       0.87943300       0.15783749 </v>
   <v>       0.33971600       0.37943300       0.43966701 </v>
   <v>       0.20515200       0.41030300       0.18578822 </v>
   <v>       0.60515200       0.91030300       0.46761774 </v>
   <v>       0.20184900       0.40369900       0.09969156 </v>
   <v>       0.20184900       0.40369900       0.38152107 </v>
   <v>       0.56380500       0.12761000       0.10779021 </v>
   <v>       0.56380500       0.12761000       0.38961973 </v>
   <v>       0.56710600       0.13421200       0.19387616 </v>
   <v>       0.96710600       0.63421200       0.47570568 </v>
   <v>       0.82923400       0.65846800       0.13571444 </v>
   <v>       0.22923400       0.15846800       0.41754396 </v>
  </varray>
 </structure>
</modeling>
