  24  24   0   0
  0.4176334E+02  0.3540400E-09  0.1044544E-08  0.2750143E-08  0.5000000E-15
  1.000000000000000E-004
  CAR 
 unknown system                          
      4.19885794    -16.07940924  301      0.20360164      1.00000000
    -16.079  0.0000E+00  0.0000E+00
    -16.012  0.0000E+00  0.0000E+00
    -15.944  0.0000E+00  0.0000E+00
    -15.877  0.0000E+00  0.0000E+00
    -15.809  0.0000E+00  0.0000E+00
    -15.741  0.0000E+00  0.0000E+00
    -15.674  0.0000E+00  0.0000E+00
    -15.606  0.9057E-13  0.6122E-14
    -15.539  0.8298E-10  0.5615E-11
    -15.471  0.3124E-07  0.2117E-08
    -15.403  0.4876E-05  0.3317E-06
    -15.336  0.3203E-03  0.2198E-04
    -15.268  0.9060E-02  0.6344E-03
    -15.201  0.1139E+00  0.8331E-02
    -15.133  0.6591E+00  0.5288E-01
    -15.065  0.1815E+01  0.1755E+00
    -14.998  0.2495E+01  0.3442E+00
    -14.930  0.2163E+01  0.4903E+00
    -14.863  0.1962E+01  0.6230E+00
    -14.795  0.1519E+01  0.7257E+00
    -14.728  0.8386E+00  0.7823E+00
    -14.660  0.1115E+01  0.8577E+00
    -14.592  0.1674E+01  0.9709E+00
    -14.525  0.1174E+01  0.1050E+01
    -14.457  0.4141E+00  0.1078E+01
    -14.390  0.4810E+00  0.1111E+01
    -14.322  0.1294E+01  0.1198E+01
    -14.254  0.1639E+01  0.1309E+01
    -14.187  0.8954E+00  0.1369E+01
    -14.119  0.2768E+00  0.1388E+01
    -14.052  0.4874E+00  0.1421E+01
    -13.984  0.1332E+01  0.1511E+01
    -13.916  0.1639E+01  0.1622E+01
    -13.849  0.1022E+01  0.1691E+01
    -13.781  0.9954E+00  0.1758E+01
    -13.714  0.1626E+01  0.1868E+01
    -13.646  0.1421E+01  0.1964E+01
    -13.578  0.8074E+00  0.2019E+01
    -13.511  0.1059E+01  0.2090E+01
    -13.443  0.1761E+01  0.2209E+01
    -13.376  0.2009E+01  0.2345E+01
    -13.308  0.1925E+01  0.2475E+01
    -13.240  0.1847E+01  0.2600E+01
    -13.173  0.1712E+01  0.2716E+01
    -13.105  0.1534E+01  0.2820E+01
    -13.038  0.1639E+01  0.2930E+01
    -12.970  0.2538E+01  0.3102E+01
    -12.902  0.3851E+01  0.3362E+01
    -12.835  0.4666E+01  0.3678E+01
    -12.767  0.4324E+01  0.3970E+01
    -12.700  0.3599E+01  0.4213E+01
    -12.632  0.3813E+01  0.4471E+01
    -12.565  0.4363E+01  0.4766E+01
    -12.497  0.4528E+01  0.5072E+01
    -12.429  0.5080E+01  0.5415E+01
    -12.362  0.5529E+01  0.5789E+01
    -12.294  0.5669E+01  0.6172E+01
    -12.227  0.5929E+01  0.6573E+01
    -12.159  0.6077E+01  0.6984E+01
    -12.091  0.7327E+01  0.7479E+01
    -12.024  0.8888E+01  0.8080E+01
    -11.956  0.8738E+01  0.8671E+01
    -11.889  0.8134E+01  0.9220E+01
    -11.821  0.8359E+01  0.9785E+01
    -11.753  0.7619E+01  0.1030E+02
    -11.686  0.6555E+01  0.1074E+02
    -11.618  0.7233E+01  0.1123E+02
    -11.551  0.7936E+01  0.1177E+02
    -11.483  0.7664E+01  0.1229E+02
    -11.415  0.7395E+01  0.1279E+02
    -11.348  0.8407E+01  0.1335E+02
    -11.280  0.1052E+02  0.1407E+02
    -11.213  0.1052E+02  0.1478E+02
    -11.145  0.7586E+01  0.1529E+02
    -11.077  0.5908E+01  0.1569E+02
    -11.010  0.8339E+01  0.1625E+02
    -10.942  0.1143E+02  0.1703E+02
    -10.875  0.1102E+02  0.1777E+02
    -10.807  0.9966E+01  0.1844E+02
    -10.739  0.1013E+02  0.1913E+02
    -10.672  0.1033E+02  0.1983E+02
    -10.604  0.1081E+02  0.2056E+02
    -10.537  0.8871E+01  0.2116E+02
    -10.469  0.5392E+01  0.2152E+02
    -10.401  0.3745E+01  0.2177E+02
    -10.334  0.2357E+01  0.2193E+02
    -10.266  0.8265E+00  0.2199E+02
    -10.199  0.1437E+00  0.2200E+02
    -10.131  0.7665E-01  0.2200E+02
    -10.064  0.4625E+00  0.2204E+02
     -9.996  0.1633E+01  0.2215E+02
     -9.928  0.3149E+01  0.2236E+02
     -9.861  0.3967E+01  0.2263E+02
     -9.793  0.4812E+01  0.2295E+02
     -9.726  0.6316E+01  0.2338E+02
     -9.658  0.5755E+01  0.2377E+02
     -9.590  0.2739E+01  0.2395E+02
     -9.523  0.6179E+00  0.2400E+02
     -9.455  0.6325E-01  0.2400E+02
     -9.388  0.2949E-02  0.2400E+02
     -9.320  0.3771E-02  0.2400E+02
     -9.252  0.6064E-01  0.2400E+02
     -9.185  0.4252E+00  0.2403E+02
     -9.117  0.1334E+01  0.2412E+02
     -9.050  0.2200E+01  0.2427E+02
     -8.982  0.2968E+01  0.2447E+02
     -8.914  0.4068E+01  0.2475E+02
     -8.847  0.4893E+01  0.2508E+02
     -8.779  0.6231E+01  0.2550E+02
     -8.712  0.8086E+01  0.2605E+02
     -8.644  0.8470E+01  0.2662E+02
     -8.576  0.6986E+01  0.2709E+02
     -8.509  0.5164E+01  0.2744E+02
     -8.441  0.4445E+01  0.2774E+02
     -8.374  0.4372E+01  0.2804E+02
     -8.306  0.3463E+01  0.2827E+02
     -8.238  0.2798E+01  0.2846E+02
     -8.171  0.3627E+01  0.2870E+02
     -8.103  0.4587E+01  0.2901E+02
     -8.036  0.4738E+01  0.2933E+02
     -7.968  0.4427E+01  0.2963E+02
     -7.901  0.4349E+01  0.2993E+02
     -7.833  0.5410E+01  0.3029E+02
     -7.765  0.7643E+01  0.3081E+02
     -7.698  0.8835E+01  0.3141E+02
     -7.630  0.7734E+01  0.3193E+02
     -7.563  0.6686E+01  0.3238E+02
     -7.495  0.6862E+01  0.3285E+02
     -7.427  0.7332E+01  0.3334E+02
     -7.360  0.8146E+01  0.3389E+02
     -7.292  0.8953E+01  0.3450E+02
     -7.225  0.8392E+01  0.3506E+02
     -7.157  0.6619E+01  0.3551E+02
     -7.089  0.4993E+01  0.3585E+02
     -7.022  0.4195E+01  0.3613E+02
     -6.954  0.4936E+01  0.3647E+02
     -6.887  0.6463E+01  0.3690E+02
     -6.819  0.7710E+01  0.3742E+02
     -6.751  0.1014E+02  0.3811E+02
     -6.684  0.1391E+02  0.3905E+02
     -6.616  0.1419E+02  0.4001E+02
     -6.549  0.9722E+01  0.4067E+02
     -6.481  0.5926E+01  0.4107E+02
     -6.413  0.5416E+01  0.4143E+02
     -6.346  0.6646E+01  0.4188E+02
     -6.278  0.6559E+01  0.4233E+02
     -6.211  0.5023E+01  0.4266E+02
     -6.143  0.4433E+01  0.4296E+02
     -6.075  0.4369E+01  0.4326E+02
     -6.008  0.4182E+01  0.4354E+02
     -5.940  0.4255E+01  0.4383E+02
     -5.873  0.4298E+01  0.4412E+02
     -5.805  0.4489E+01  0.4442E+02
     -5.737  0.5195E+01  0.4478E+02
     -5.670  0.5803E+01  0.4517E+02
     -5.602  0.5469E+01  0.4554E+02
     -5.535  0.4201E+01  0.4582E+02
     -5.467  0.3028E+01  0.4603E+02
     -5.400  0.3281E+01  0.4625E+02
     -5.332  0.4721E+01  0.4657E+02
     -5.264  0.5581E+01  0.4694E+02
     -5.197  0.5938E+01  0.4735E+02
     -5.129  0.6090E+01  0.4776E+02
     -5.062  0.6271E+01  0.4818E+02
     -4.994  0.7251E+01  0.4867E+02
     -4.926  0.8684E+01  0.4926E+02
     -4.859  0.9953E+01  0.4993E+02
     -4.791  0.1021E+02  0.5062E+02
     -4.724  0.9775E+01  0.5128E+02
     -4.656  0.1060E+02  0.5200E+02
     -4.588  0.1203E+02  0.5281E+02
     -4.521  0.1321E+02  0.5370E+02
     -4.453  0.1372E+02  0.5463E+02
     -4.386  0.1240E+02  0.5547E+02
     -4.318  0.1076E+02  0.5620E+02
     -4.250  0.1158E+02  0.5698E+02
     -4.183  0.1425E+02  0.5794E+02
     -4.115  0.1574E+02  0.5901E+02
     -4.048  0.1475E+02  0.6000E+02
     -3.980  0.1213E+02  0.6082E+02
     -3.912  0.9223E+01  0.6145E+02
     -3.845  0.8531E+01  0.6202E+02
     -3.777  0.1157E+02  0.6280E+02
     -3.710  0.1482E+02  0.6381E+02
     -3.642  0.1523E+02  0.6484E+02
     -3.574  0.1451E+02  0.6582E+02
     -3.507  0.1400E+02  0.6676E+02
     -3.439  0.1312E+02  0.6765E+02
     -3.372  0.1224E+02  0.6848E+02
     -3.304  0.1244E+02  0.6932E+02
     -3.237  0.1406E+02  0.7027E+02
     -3.169  0.1583E+02  0.7134E+02
     -3.101  0.1683E+02  0.7248E+02
     -3.034  0.1694E+02  0.7362E+02
     -2.966  0.1614E+02  0.7471E+02
     -2.899  0.1391E+02  0.7565E+02
     -2.831  0.1204E+02  0.7647E+02
     -2.763  0.1277E+02  0.7733E+02
     -2.696  0.1495E+02  0.7834E+02
     -2.628  0.1623E+02  0.7944E+02
     -2.561  0.1630E+02  0.8054E+02
     -2.493  0.1645E+02  0.8165E+02
     -2.425  0.1789E+02  0.8286E+02
     -2.358  0.1975E+02  0.8419E+02
     -2.290  0.1871E+02  0.8546E+02
     -2.223  0.1522E+02  0.8649E+02
     -2.155  0.1279E+02  0.8735E+02
     -2.087  0.1225E+02  0.8818E+02
     -2.020  0.1279E+02  0.8904E+02
     -1.952  0.1509E+02  0.9006E+02
     -1.885  0.1750E+02  0.9125E+02
     -1.817  0.1682E+02  0.9238E+02
     -1.749  0.1470E+02  0.9338E+02
     -1.682  0.1273E+02  0.9424E+02
     -1.614  0.1110E+02  0.9499E+02
     -1.547  0.1014E+02  0.9567E+02
     -1.479  0.9980E+01  0.9635E+02
     -1.411  0.1092E+02  0.9709E+02
     -1.344  0.1207E+02  0.9790E+02
     -1.276  0.1180E+02  0.9870E+02
     -1.209  0.9900E+01  0.9937E+02
     -1.141  0.9308E+01  0.1000E+03
     -1.073  0.1000E+02  0.1007E+03
     -1.006  0.1055E+02  0.1014E+03
     -0.938  0.1135E+02  0.1022E+03
     -0.871  0.1053E+02  0.1029E+03
     -0.803  0.6779E+01  0.1033E+03
     -0.736  0.3734E+01  0.1036E+03
     -0.668  0.3572E+01  0.1038E+03
     -0.600  0.4133E+01  0.1041E+03
     -0.533  0.4119E+01  0.1044E+03
     -0.465  0.3673E+01  0.1046E+03
     -0.398  0.2922E+01  0.1048E+03
     -0.330  0.2408E+01  0.1050E+03
     -0.262  0.2392E+01  0.1051E+03
     -0.195  0.3287E+01  0.1054E+03
     -0.127  0.4946E+01  0.1057E+03
     -0.060  0.6607E+01  0.1061E+03
      0.008  0.7638E+01  0.1067E+03
      0.076  0.7706E+01  0.1072E+03
      0.143  0.6935E+01  0.1077E+03
      0.211  0.5636E+01  0.1080E+03
      0.278  0.4727E+01  0.1084E+03
      0.346  0.4612E+01  0.1087E+03
      0.414  0.5132E+01  0.1090E+03
      0.481  0.5861E+01  0.1094E+03
      0.549  0.5264E+01  0.1098E+03
      0.616  0.3613E+01  0.1100E+03
      0.684  0.3085E+01  0.1102E+03
      0.752  0.3965E+01  0.1105E+03
      0.819  0.5079E+01  0.1108E+03
      0.887  0.5795E+01  0.1112E+03
      0.954  0.6705E+01  0.1117E+03
      1.022  0.7048E+01  0.1122E+03
      1.090  0.5906E+01  0.1126E+03
      1.157  0.5926E+01  0.1130E+03
      1.225  0.7232E+01  0.1134E+03
      1.292  0.8545E+01  0.1140E+03
      1.360  0.1026E+02  0.1147E+03
      1.427  0.1134E+02  0.1155E+03
      1.495  0.1189E+02  0.1163E+03
      1.563  0.1208E+02  0.1171E+03
      1.630  0.1225E+02  0.1179E+03
      1.698  0.1312E+02  0.1188E+03
      1.765  0.1330E+02  0.1197E+03
      1.833  0.1271E+02  0.1206E+03
      1.901  0.1242E+02  0.1214E+03
      1.968  0.1301E+02  0.1223E+03
      2.036  0.1409E+02  0.1232E+03
      2.103  0.1430E+02  0.1242E+03
      2.171  0.1408E+02  0.1252E+03
      2.239  0.1492E+02  0.1262E+03
      2.306  0.1566E+02  0.1272E+03
      2.374  0.1562E+02  0.1283E+03
      2.441  0.1583E+02  0.1294E+03
      2.509  0.1465E+02  0.1303E+03
      2.577  0.1235E+02  0.1312E+03
      2.644  0.1180E+02  0.1320E+03
      2.712  0.1194E+02  0.1328E+03
      2.779  0.1102E+02  0.1335E+03
      2.847  0.9057E+01  0.1341E+03
      2.915  0.7067E+01  0.1346E+03
      2.982  0.6037E+01  0.1350E+03
      3.050  0.5464E+01  0.1354E+03
      3.117  0.4562E+01  0.1357E+03
      3.185  0.2825E+01  0.1359E+03
      3.253  0.1173E+01  0.1360E+03
      3.320  0.3225E+00  0.1360E+03
      3.388  0.5225E-01  0.1360E+03
      3.455  0.4234E-02  0.1360E+03
      3.523  0.1545E-03  0.1360E+03
      3.591  0.2412E-05  0.1360E+03
      3.658  0.1572E-07  0.1360E+03
      3.726  0.4224E-10  0.1360E+03
      3.793  0.4637E-13  0.1360E+03
      3.861  0.0000E+00  0.1360E+03
      3.928  0.0000E+00  0.1360E+03
      3.996  0.0000E+00  0.1360E+03
      4.064  0.0000E+00  0.1360E+03
      4.131  0.0000E+00  0.1360E+03
      4.199  0.0000E+00  0.1360E+03
