       N       E                     dE             d eps       ncg     rms          rms(c)
DAV:   1     0.489878652989E+03    0.48988E+03   -0.28658E+04  7360   0.790E+02
DAV:   2    -0.671250040648E+02   -0.55700E+03   -0.54241E+03  9736   0.189E+02
DAV:   3    -0.122730800870E+03   -0.55606E+02   -0.54827E+02  8776   0.619E+01
DAV:   4    -0.125276914479E+03   -0.25461E+01   -0.25269E+01 10920   0.140E+01
DAV:   5    -0.125338492314E+03   -0.61578E-01   -0.61491E-01 10004   0.216E+00    0.980E+00
DAV:   6    -0.123305960803E+03    0.20325E+01   -0.55013E+00  8568   0.575E+00    0.547E+00
DAV:   7    -0.123092371844E+03    0.21359E+00   -0.39154E+00  8952   0.496E+00    0.203E+00
DAV:   8    -0.123071323085E+03    0.21049E-01   -0.82384E-01  9096   0.253E+00    0.966E-01
DAV:   9    -0.123046400055E+03    0.24923E-01   -0.12607E-01  8888   0.113E+00    0.367E-01
DAV:  10    -0.123032902572E+03    0.13497E-01   -0.32016E-02  8984   0.530E-01    0.139E-01
DAV:  11    -0.123025853296E+03    0.70493E-02   -0.51299E-03  8896   0.216E-01    0.705E-02
DAV:  12    -0.123020229791E+03    0.56235E-02   -0.11870E-03  9232   0.986E-02    0.336E-02
DAV:  13    -0.123016619029E+03    0.36108E-02   -0.26347E-04  9328   0.481E-02    0.170E-02
DAV:  14    -0.123015330508E+03    0.12885E-02   -0.10858E-04  9280   0.277E-02    0.103E-02
DAV:  15    -0.123015102109E+03    0.22840E-03   -0.44215E-05  8360   0.194E-02    0.592E-03
DAV:  16    -0.123015639711E+03   -0.53760E-03   -0.11514E-04  8136   0.224E-02    0.359E-03
DAV:  17    -0.123015951455E+03   -0.31174E-03   -0.14069E-04  7960   0.202E-02    0.200E-03
DAV:  18    -0.123015983808E+03   -0.32353E-04   -0.35503E-05  7360   0.114E-02    0.121E-03
DAV:  19    -0.123016029035E+03   -0.45228E-04   -0.11834E-05  6616   0.750E-03    0.829E-04
DAV:  20    -0.123016049947E+03   -0.20911E-04   -0.30956E-05  7008   0.969E-03    0.582E-04
DAV:  21    -0.123015999445E+03    0.50502E-04   -0.18019E-05  6408   0.104E-02    0.297E-04
DAV:  22    -0.123015948124E+03    0.51321E-04   -0.52801E-06  6256   0.620E-03    0.183E-04
DAV:  23    -0.123015933734E+03    0.14389E-04   -0.58926E-06  6152   0.743E-03    0.928E-05
DAV:  24    -0.123015917509E+03    0.16225E-04   -0.51480E-06  6480   0.652E-03    0.499E-05
DAV:  25    -0.123015917136E+03    0.37289E-06   -0.23741E-06  6032   0.526E-03
   1 F= -.12301592E+03 E0= -.12300305E+03  d E =-.257289E-01
