 vasp.5.3.5 31Mar14 (build Oct 29 2014 16:16:03) complex                        
  
 executed on          Linux-UFHPC date 2016.02.09  17:28:12
 running on    8 total cores
 distrk:  each k-point on    8 cores,    1 groups
 distr:  one band on NCORES_PER_BAND=   2 cores,    4 groups


--------------------------------------------------------------------------------------------------------


 INCAR:
 POTCAR:    PAW_PBE P 17Jan2003                   
 POTCAR:   PAW_PBE Si 05Jan2001                   

 ----------------------------------------------------------------------------- 
|                                                                             |
|  ADVICE TO THIS USER RUNNING 'VASP/VAMP'   (HEAR YOUR MASTER'S VOICE ...):  |
|                                                                             |
|      You have switched on vdW-DFT.                                          |
|      This routine was written and supplied by Jiri Klimes.                  |
|      We recommed that you carefully read and cite the following             |
|      publication                                                            |
|      J. Klimes, D.R. Bowler, A. Michelides                                  |
|        J. Phys.: Cond Matt. 22 022201 (2010)                                |
|      J. Klimes, D.R. Bowler, A. Michelides                                  |
|        Phys. Rev. B. 83, 195131 (2011)                                      |
|      and references therein.                                                |
|                                                                             |
 ----------------------------------------------------------------------------- 

 POTCAR:    PAW_PBE P 17Jan2003                   
   VRHFIN =P : s2p3                                                             
   LEXCH  = PE                                                                  
   EATOM  =   176.0430 eV,   12.9388 Ry                                         
                                                                                
   TITEL  = PAW_PBE P 17Jan2003                                                 
   LULTRA =        F    use ultrasoft PP ?                                      
   IUNSCR =        1    unscreen: 0-lin 1-nonlin 2-no                           
   RPACOR =    1.500    partial core radius                                     
   POMASS =   30.974; ZVAL   =    5.000    mass and valenz                      
   RCORE  =    1.900    outmost cutoff radius                                   
   RWIGS  =    2.330; RWIGS  =    1.233    wigner-seitz radius (au A)           
   ENMAX  =  270.000; ENMIN  =  191.280 eV                                      
   ICORE  =        2    local potential                                         
   LCOR   =        T    correct aug charges                                     
   LPAW   =        T    paw PP                                                  
   EAUG   =  342.924                                                            
   DEXC   =    -.002                                                            
   RMAX   =    2.887    core radius for proj-oper                               
   RAUG   =    1.300    factor for augmentation sphere                          
   RDEP   =    1.931    radius for radial grids                                 
   QCUT   =   -4.330; QGAM   =    8.659    optimization parameters              
                                                                                
   Description                                                                  
     l     E      TYP  RCUT    TYP  RCUT                                        
     0   .000     23  1.900                                                     
     0   .000     23  1.900                                                     
     1   .000     23  1.900                                                     
     1   .000     23  1.900                                                     
     2   .000     23  1.900                                                     
  local pseudopotential read in
  partial core-charges read in
  atomic valenz-charges read in
  non local Contribution for L=           0  read in
    real space projection operators read in
  non local Contribution for L=           0  read in
    real space projection operators read in
  non local Contribution for L=           1  read in
    real space projection operators read in
  non local Contribution for L=           1  read in
    real space projection operators read in
    PAW grid and wavefunctions read in
 
   number of l-projection  operators is LMAX  =           4
   number of lm-projection operators is LMMAX =           8
 
 POTCAR:   PAW_PBE Si 05Jan2001                   
   VRHFIN =Si: s2p2                                                             
   LEXCH  = PE                                                                  
   EATOM  =   103.0669 eV,    7.5752 Ry                                         
                                                                                
   TITEL  = PAW_PBE Si 05Jan2001                                                
   LULTRA =        F    use ultrasoft PP ?                                      
   IUNSCR =        1    unscreen: 0-lin 1-nonlin 2-no                           
   RPACOR =    1.500    partial core radius                                     
   POMASS =   28.085; ZVAL   =    4.000    mass and valenz                      
   RCORE  =    1.900    outmost cutoff radius                                   
   RWIGS  =    2.480; RWIGS  =    1.312    wigner-seitz radius (au A)           
   ENMAX  =  245.345; ENMIN  =  184.009 eV                                      
   ICORE  =        2    local potential                                         
   LCOR   =        T    correct aug charges                                     
   LPAW   =        T    paw PP                                                  
   EAUG   =  322.069                                                            
   DEXC   =    -.007                                                            
   RMAX   =    2.944    core radius for proj-oper                               
   RAUG   =    1.300    factor for augmentation sphere                          
   RDEP   =    1.993    radius for radial grids                                 
   QCUT   =   -4.246; QGAM   =    8.493    optimization parameters              
                                                                                
   Description                                                                  
     l     E      TYP  RCUT    TYP  RCUT                                        
     0   .000     23  1.900                                                     
     0   .000     23  1.900                                                     
     1   .000     23  1.900                                                     
     1   .000     23  1.900                                                     
     2   .000      7  1.900                                                     
  local pseudopotential read in
  partial core-charges read in
  atomic valenz-charges read in
  non local Contribution for L=           0  read in
    real space projection operators read in
  non local Contribution for L=           0  read in
    real space projection operators read in
  non local Contribution for L=           1  read in
    real space projection operators read in
  non local Contribution for L=           1  read in
    real space projection operators read in
    PAW grid and wavefunctions read in
 
   number of l-projection  operators is LMAX  =           4
   number of lm-projection operators is LMMAX =           8
 
 Optimization of the real space projectors (new method)

 maximal supplied QI-value         = 19.84
 optimisation between [QCUT,QGAM] = [  8.73, 17.66] = [ 21.34, 87.33] Ry 
 Optimized for a Real-space Cutoff    1.50 Angstroem

   l    n(q)    QCUT    max X(q) W(low)/X(q) W(high)/X(q)  e(spline) 
   0      8     8.731     6.651    0.16E-04    0.15E-04    0.77E-08
   0      8     8.731    90.285    0.16E-03    0.90E-04    0.16E-06
   1      7     8.731     4.328    0.47E-04    0.36E-04    0.45E-07
   1      7     8.731    54.583    0.13E-03    0.39E-03    0.20E-06
 Optimization of the real space projectors (new method)

 maximal supplied QI-value         = 19.84
 optimisation between [QCUT,QGAM] = [  8.73, 17.66] = [ 21.34, 87.33] Ry 
 Optimized for a Real-space Cutoff    1.46 Angstroem

   l    n(q)    QCUT    max X(q) W(low)/X(q) W(high)/X(q)  e(spline) 
   0      8     8.731     8.708    0.16E-04    0.11E-04    0.68E-08
   0      8     8.731   106.241    0.24E-03    0.77E-04    0.13E-06
   1      7     8.731     5.901    0.34E-04    0.38E-04    0.36E-07
   1      7     8.731    73.241    0.12E-03    0.39E-03    0.15E-06

 ----------------------------------------------------------------------------- 
|                                                                             |
|  ADVICE TO THIS USER RUNNING 'VASP/VAMP'   (HEAR YOUR MASTER'S VOICE ...):  |
|                                                                             |
|      You enforced a specific xc-type in the INCAR file,                     |
|      a different type was found on the POTCAR file                          |
|          I HOPE YOU KNOW, WHAT YOU ARE  DOING                               |
|                                                                             |
 ----------------------------------------------------------------------------- 

  PAW_PBE P 17Jan2003                   :
 energy of atom  1       EATOM= -176.0430
 kinetic energy error for atom=    0.0040 (will be added to EATOM!!)
 PAW_PBE Si 05Jan2001                   :
 energy of atom  2       EATOM= -103.0669
 kinetic energy error for atom=    0.0021 (will be added to EATOM!!)
 
 
 POSCAR: Si12                                    
  positions in direct lattice
  No initial velocities read in
 exchange correlation table for  LEXCH =       42
   RHO(1)=    0.500       N(1)  =     2000
   RHO(2)=  100.500       N(2)  =     4000
 


--------------------------------------------------------------------------------------------------------


 ion  position               nearest neighbor table
   1  0.114  0.228  0.233-  15 2.28  21 2.29  21 2.29
   2  0.314  0.428  0.515-  16 2.28  22 2.29  22 2.29
   3  0.458  0.916  0.209-  21 2.28  13 2.30  13 2.30
   4  0.658  0.116  0.491-  22 2.28  14 2.30  14 2.30  20 2.82
   5  0.311  0.622  0.084-  17 2.28  23 2.30  23 2.30
   6  0.311  0.622  0.366-  18 2.28  16 2.82
   7  0.999  0.998  0.086-  19 2.29  19 2.29  13 2.32
   8  0.999  0.998  0.368-  24 2.01  14 2.17  20 2.29  20 2.29
   9  0.655  0.310  0.060-  19 2.28  17 2.29  17 2.29
  10  0.655  0.310  0.342-  20 2.28  18 2.29  18 2.29
  11  0.770  0.539  0.207-  15 2.29  15 2.29  23 2.32
  12  0.970  0.739  0.489-  16 2.29  16 2.29  24 2.32
  13  0.940  0.879  0.158-   3 2.30   3 2.30   7 2.32  23 2.35
  14  0.140  0.079  0.440-  20 2.04   8 2.17   4 2.30   4 2.30  24 2.35  20 2.58
  15  0.205  0.410  0.186-   1 2.28  11 2.29  11 2.29  17 2.37
  16  0.405  0.610  0.468-   2 2.28  12 2.29  12 2.29   6 2.82
  17  0.202  0.404  0.100-   5 2.28   9 2.29   9 2.29  15 2.37
  18  0.202  0.404  0.382-   6 2.28  10 2.29  10 2.29  22 3.04
  19  0.564  0.128  0.108-   9 2.28   7 2.29   7 2.29  21 2.37
  20  0.564  0.128  0.390-  14 2.04  10 2.28   8 2.29   8 2.29  14 2.58   4 2.82
  21  0.567  0.134  0.194-   3 2.28   1 2.29   1 2.29  19 2.37
  22  0.767  0.334  0.476-   4 2.28   2 2.29   2 2.29  18 3.04
  23  0.829  0.658  0.136-   5 2.30   5 2.30  11 2.32  13 2.35
  24  0.029  0.858  0.418-   8 2.01  12 2.32  14 2.35
 
  LATTYP: Found a base centered orthorhombic cell.
 ALAT       =     3.5404000000
 B/A-ratio  =     5.8153587165
 C/A-ratio  =     7.7678875268
  
  Lattice vectors:
  
 A1 = (   1.7702000000,  10.2943480000,   0.0000000000)
 A2 = (   1.7702000000, -10.2943480000,   0.0000000000)
 A3 = (   0.0000000000,   0.0000000000, -27.5014290000)


Analysis of symmetry for initial positions (statically):
=====================================================================
 Subroutine PRICEL returns:
 Original cell was already a primitive cell.
 

 Routine SETGRP: Setting up the symmetry group for a 
 base centered orthorhombic supercell.


 Subroutine GETGRP returns: Found  1 space group operations
 (whereof  1 operations were pure point group operations)
 out of a pool of  8 trial point group operations.


The static configuration has the point symmetry C_1 .


Analysis of symmetry for dynamics (positions and initial velocities):
=====================================================================
 Subroutine PRICEL returns:
 Original cell was already a primitive cell.
 

 Routine SETGRP: Setting up the symmetry group for a 
 base centered orthorhombic supercell.


 Subroutine GETGRP returns: Found  1 space group operations
 (whereof  1 operations were pure point group operations)
 out of a pool of  8 trial point group operations.


The dynamic configuration has the point symmetry C_1 .
 
 
 KPOINTS: pymatgen generated KPOINTS with grid den

Automatic generation of k-mesh.
Space group operators:
 irot       det(A)        alpha          n_x          n_y          n_z        tau_x        tau_y        tau_z
    1     1.000000     0.000000     1.000000     0.000000     0.000000     0.000000     0.000000     0.000000
 
 Subroutine IBZKPT returns following result:
 ===========================================
 
 Found     54 irreducible k-points:
 
 Following reciprocal coordinates:
            Coordinates               Weight
  0.000000  0.000000  0.000000      1.000000
  0.076923 -0.000000  0.000000      2.000000
  0.153846 -0.000000  0.000000      2.000000
  0.230769 -0.000000  0.000000      2.000000
  0.307692 -0.000000  0.000000      2.000000
  0.384615 -0.000000  0.000000      2.000000
  0.461538 -0.000000  0.000000      2.000000
  0.000000  0.250000  0.000000      2.000000
  0.076923  0.250000  0.000000      2.000000
  0.153846  0.250000  0.000000      2.000000
  0.230769  0.250000  0.000000      2.000000
  0.307692  0.250000  0.000000      2.000000
  0.384615  0.250000  0.000000      2.000000
  0.461538  0.250000  0.000000      2.000000
 -0.461538  0.250000  0.000000      2.000000
 -0.384615  0.250000  0.000000      2.000000
 -0.307692  0.250000  0.000000      2.000000
 -0.230769  0.250000  0.000000      2.000000
 -0.153846  0.250000  0.000000      2.000000
 -0.076923  0.250000  0.000000      2.000000
  0.000000  0.500000  0.000000      1.000000
  0.076923  0.500000  0.000000      2.000000
  0.153846  0.500000  0.000000      2.000000
  0.230769  0.500000  0.000000      2.000000
  0.307692  0.500000  0.000000      2.000000
  0.384615  0.500000  0.000000      2.000000
  0.461538  0.500000  0.000000      2.000000
  0.000000  0.000000  0.500000      1.000000
  0.076923 -0.000000  0.500000      2.000000
  0.153846 -0.000000  0.500000      2.000000
  0.230769 -0.000000  0.500000      2.000000
  0.307692 -0.000000  0.500000      2.000000
  0.384615 -0.000000  0.500000      2.000000
  0.461538 -0.000000  0.500000      2.000000
  0.000000  0.250000  0.500000      2.000000
  0.076923  0.250000  0.500000      2.000000
  0.153846  0.250000  0.500000      2.000000
  0.230769  0.250000  0.500000      2.000000
  0.307692  0.250000  0.500000      2.000000
  0.384615  0.250000  0.500000      2.000000
  0.461538  0.250000  0.500000      2.000000
 -0.461538  0.250000  0.500000      2.000000
 -0.384615  0.250000  0.500000      2.000000
 -0.307692  0.250000  0.500000      2.000000
 -0.230769  0.250000  0.500000      2.000000
 -0.153846  0.250000  0.500000      2.000000
 -0.076923  0.250000  0.500000      2.000000
  0.000000  0.500000  0.500000      1.000000
  0.076923  0.500000  0.500000      2.000000
  0.153846  0.500000  0.500000      2.000000
  0.230769  0.500000  0.500000      2.000000
  0.307692  0.500000  0.500000      2.000000
  0.384615  0.500000  0.500000      2.000000
  0.461538  0.500000  0.500000      2.000000
 
 Following cartesian coordinates:
            Coordinates               Weight
  0.000000  0.000000  0.000000      1.000000
  0.021727  0.003736  0.000000      2.000000
  0.043454  0.007472  0.000000      2.000000
  0.065182  0.011209  0.000000      2.000000
  0.086909  0.014945  0.000000      2.000000
  0.108636  0.018681  0.000000      2.000000
  0.130363  0.022417  0.000000      2.000000
  0.000000  0.024285  0.000000      2.000000
  0.021727  0.028021  0.000000      2.000000
  0.043454  0.031758  0.000000      2.000000
  0.065182  0.035494  0.000000      2.000000
  0.086909  0.039230  0.000000      2.000000
  0.108636  0.042966  0.000000      2.000000
  0.130363  0.046702  0.000000      2.000000
 -0.130363  0.001868  0.000000      2.000000
 -0.108636  0.005604  0.000000      2.000000
 -0.086909  0.009340  0.000000      2.000000
 -0.065182  0.013077  0.000000      2.000000
 -0.043454  0.016813  0.000000      2.000000
 -0.021727  0.020549  0.000000      2.000000
  0.000000  0.048570  0.000000      1.000000
  0.021727  0.052307  0.000000      2.000000
  0.043454  0.056043  0.000000      2.000000
  0.065182  0.059779  0.000000      2.000000
  0.086909  0.063515  0.000000      2.000000
  0.108636  0.067251  0.000000      2.000000
  0.130363  0.070987  0.000000      2.000000
  0.000000  0.000000  0.018181      1.000000
  0.021727  0.003736  0.018181      2.000000
  0.043454  0.007472  0.018181      2.000000
  0.065182  0.011209  0.018181      2.000000
  0.086909  0.014945  0.018181      2.000000
  0.108636  0.018681  0.018181      2.000000
  0.130363  0.022417  0.018181      2.000000
  0.000000  0.024285  0.018181      2.000000
  0.021727  0.028021  0.018181      2.000000
  0.043454  0.031758  0.018181      2.000000
  0.065182  0.035494  0.018181      2.000000
  0.086909  0.039230  0.018181      2.000000
  0.108636  0.042966  0.018181      2.000000
  0.130363  0.046702  0.018181      2.000000
 -0.130363  0.001868  0.018181      2.000000
 -0.108636  0.005604  0.018181      2.000000
 -0.086909  0.009340  0.018181      2.000000
 -0.065182  0.013077  0.018181      2.000000
 -0.043454  0.016813  0.018181      2.000000
 -0.021727  0.020549  0.018181      2.000000
  0.000000  0.048570  0.018181      1.000000
  0.021727  0.052307  0.018181      2.000000
  0.043454  0.056043  0.018181      2.000000
  0.065182  0.059779  0.018181      2.000000
  0.086909  0.063515  0.018181      2.000000
  0.108636  0.067251  0.018181      2.000000
  0.130363  0.070987  0.018181      2.000000
 


--------------------------------------------------------------------------------------------------------




 Dimension of arrays:
   k-points           NKPTS =     54   k-points in BZ     NKDIM =     54   number of bands    NBANDS=     68
   number of dos      NEDOS =    301   number of ions     NIONS =     24
   non local maximal  LDIM  =      4   non local SUM 2l+1 LMDIM =      8
   total plane-waves  NPLWV = 192000
   max r-space proj   IRMAX =   2772   max aug-charges    IRDMAX=   6603
   dimension x,y,z NGX =    20 NGY =   60 NGZ =  160
   dimension x,y,z NGXF=    40 NGYF=  120 NGZF=  320
   support grid    NGXF=    40 NGYF=  120 NGZF=  320
   ions per type =              12  12
 NGX,Y,Z   is equivalent  to a cutoff of   9.39,  9.55,  9.67 a.u.
 NGXF,Y,Z  is equivalent  to a cutoff of  18.78, 19.10, 19.34 a.u.


 I would recommend the setting:
   dimension x,y,z NGX =    20 NGY =   59 NGZ =  155
 SYSTEM =  unknown system                          
 POSCAR =  Si12                                    

 Startparameter for this run:
   NWRITE =      2    write-flag & timer
   PREC   = accura    normal or accurate (medium, high low for compatibility)
   ISTART =      0    job   : 0-new  1-cont  2-samecut
   ICHARG =      2    charge: 1-file 2-atom 10-const
   ISPIN  =      1    spin polarized calculation?
   LNONCOLLINEAR =      F non collinear calculations
   LSORBIT =      F    spin-orbit coupling
   INIWAV =      1    electr: 0-lowe 1-rand  2-diag
   LASPH  =      F    aspherical Exc in radial PAW
   METAGGA=      F    non-selfconsistent MetaGGA calc.

 Electronic Relaxation 1
   ENCUT  =  300.0 eV  22.05 Ry    4.70 a.u.   5.00 14.75 38.84*2*pi/ulx,y,z
   ENINI  =  300.0     initial cutoff
   ENAUG  =  342.9 eV  augmentation charge cutoff
   NELM   =     60;   NELMIN=  2; NELMDL= -5     # of ELM steps 
   EDIFF  = 0.1E-05   stopping-criterion for ELM
   LREAL  =      T    real-space projection
   NLSPLINE    = F    spline interpolate recip. space projectors
   LCOMPAT=      F    compatible to vasp.4.4
   GGA_COMPAT  = T    GGA compatible to vasp.4.4-vasp.4.6
   LMAXPAW     = -100 max onsite density
   LMAXMIX     =    2 max onsite mixed and CHGCAR
   VOSKOWN=      0    Vosko Wilk Nusair interpolation
   ROPT   =   -0.00025  -0.00025
 Ionic relaxation
   EDIFFG = 0.1E-04   stopping-criterion for IOM
   NSW    =      0    number of steps for IOM
   NBLOCK =      1;   KBLOCK =      1    inner block; outer block 
   IBRION =     -1    ionic relax: 0-MD 1-quasi-New 2-CG
   NFREE  =      1    steps in history (QN), initial steepest desc. (CG)
   ISIF   =      3    stress and relaxation
   IWAVPR =     10    prediction:  0-non 1-charg 2-wave 3-comb
   ISYM   =      2    0-nonsym 1-usesym 2-fastsym
   LCORR  =      T    Harris-Foulkes like correction to forces

   POTIM  = 0.5000    time-step for ionic-motion
   TEIN   =    0.0    initial temperature
   TEBEG  =    0.0;   TEEND  =   0.0 temperature during run
   SMASS  =  -3.00    Nose mass-parameter (am)
   estimated Nose-frequenzy (Omega)   =  0.10E-29 period in steps =****** mass=  -0.286E-27a.u.
   SCALEE = 1.0000    scale energy and forces
   NPACO  =    256;   APACO  = 16.0  distance and # of slots for P.C.
   PSTRESS=    0.0 pullay stress

  Mass of Ions in am
   POMASS =  30.97 28.09
  Ionic Valenz
   ZVAL   =   5.00  4.00
  Atomic Wigner-Seitz radii
   RWIGS  =  -1.00 -1.00
  virtual crystal weights 
   VCA    =   1.00  1.00
   NELECT =     108.0000    total number of electrons
   NUPDOWN=      -1.0000    fix difference up-down

 DOS related values:
   EMIN   =  10.00;   EMAX   =-10.00  energy-range for DOS
   EFERMI =   0.00
   ISMEAR =     0;   SIGMA  =   0.10  broadening in eV -4-tet -1-fermi 0-gaus

 Electronic relaxation 2 (details)
   IALGO  =     38    algorithm
   LDIAG  =      T    sub-space diagonalisation (order eigenvalues)
   LSUBROT=      F    optimize rotation matrix (better conditioning)
   TURBO    =      0    0=normal 1=particle mesh
   IRESTART =      0    0=no restart 2=restart with 2 vectors
   NREBOOT  =      0    no. of reboots
   NMIN     =      0    reboot dimension
   EREF     =   0.00    reference energy to select bands
   IMIX   =      4    mixing-type and parameters
     AMIX     =   0.40;   BMIX     =  1.00
     AMIX_MAG =   1.60;   BMIX_MAG =  1.00
     AMIN     =   0.10
     WC   =   100.;   INIMIX=   1;  MIXPRE=   1;  MAXMIX= -45

 Intra band minimization:
   WEIMIN = 0.0000     energy-eigenvalue tresh-hold
   EBREAK =  0.37E-08  absolut break condition
   DEPER  =   0.30     relativ break condition  

   TIME   =   0.40     timestep for ELM

  volume/ion in A,a.u.               =      41.76       281.83
  Fermi-wavevector in a.u.,A,eV,Ry     =   0.779018  1.472130  8.256946  0.606868
  Thomas-Fermi vector in A             =   1.882034
 
 Write flags
   LWAVE  =      F    write WAVECAR
   LCHARG =      F    write CHGCAR
   LVTOT  =      F    write LOCPOT, total local potential
   LVHAR  =      F    write LOCPOT, Hartree potential only
   LELF   =      F    write electronic localiz. function (ELF)
   LORBIT =      0    0 simple, 1 ext, 2 COOP (PROOUT)


 Dipole corrections
   LMONO  =      F    monopole corrections only (constant potential shift)
   LDIPOL =      F    correct potential (dipole corrections)
   IDIPOL =      0    1-x, 2-y, 3-z, 4-all directions 
   EPSILON=  1.0000000 bulk dielectric constant

 Exchange correlation treatment:
   GGA     =    BO    GGA type
   LEXCH   =    42    internal setting for exchange type
   VOSKOWN=      0    Vosko Wilk Nusair interpolation
   LHFCALC =     F    Hartree Fock is set to
   LHFONE  =     F    Hartree Fock one center treatment
   AEXX    =    0.0000 exact exchange contribution

 vdW DFT:
   LUSE_VDW   =     T    switch on vdW DFT
   Zab_VDW    =-.8491    correlation parameter
   PARAM1     =0.1833
   PARAM2     =0.2200
   PARAM3     =0.0000

 Linear response parameters
   LEPSILON=     F    determine dielectric tensor
   LRPA    =     F    only Hartree local field effects (RPA)
   LNABLA  =     F    use nabla operator in PAW spheres
   LVEL    =     F    velocity operator in full k-point grid
   LINTERFAST=   F  fast interpolation
   KINTER  =     0    interpolate to denser k-point grid
   CSHIFT  =0.1000    complex shift for real part using Kramers Kronig
   OMEGAMAX=  -1.0    maximum frequency
   DEG_THRESHOLD= 0.2000000E-02 threshold for treating states as degnerate
   RTIME   =    0.100 relaxation time in fs

 Orbital magnetization related:
   ORBITALMAG=     F  switch on orbital magnetization
   LCHIMAG   =     F  perturbation theory with respect to B field
   DQ        =  0.001000  dq finite difference perturbation B field



--------------------------------------------------------------------------------------------------------


 Static calculation
 charge density and potential will be updated during run
 non-spin polarized calculation
 Variant of blocked Davidson
 Davidson routine will perform the subspace rotation
 perform sub-space diagonalisation
    after iterative eigenvector-optimisation
 modified Broyden-mixing scheme, WC =      100.0
 initial mixing is a Kerker type mixing with AMIX =  0.4000 and BMIX =      1.0000
 Hartree-type preconditioning will be used
 using additional bands           14
 real space projection scheme for non local part
 use partial core corrections
 calculate Harris-corrections to forces 
   (improved forces if not selfconsistent)
 use gradient corrections 
 use of overlap-Matrix (Vanderbilt PP)
 Gauss-broadening in eV      SIGMA  =   0.10


--------------------------------------------------------------------------------------------------------


  energy-cutoff  :      300.00
  volume of cell :     1002.32
      direct lattice vectors                 reciprocal lattice vectors
     3.540400000  0.000000000  0.000000000     0.282453960  0.048570342  0.000000000
    -1.770200000 10.294348000  0.000000000     0.000000000  0.097140683  0.000000000
     0.000000000  0.000000000 27.501429000     0.000000000  0.000000000  0.036361747

  length of vectors
     3.540400000 10.445439617 27.501429000     0.286599577  0.097140683  0.036361747


 
 k-points in units of 2pi/SCALE and weight: pymatgen generated KPOINTS with grid den
   0.00000000  0.00000000  0.00000000       0.010
   0.02172723  0.00373618  0.00000000       0.019
   0.04345446  0.00747236  0.00000000       0.019
   0.06518168  0.01120854  0.00000000       0.019
   0.08690891  0.01494472  0.00000000       0.019
   0.10863614  0.01868090  0.00000000       0.019
   0.13036337  0.02241708  0.00000000       0.019
   0.00000000  0.02428517  0.00000000       0.019
   0.02172723  0.02802135  0.00000000       0.019
   0.04345446  0.03175753  0.00000000       0.019
   0.06518168  0.03549371  0.00000000       0.019
   0.08690891  0.03922989  0.00000000       0.019
   0.10863614  0.04296607  0.00000000       0.019
   0.13036337  0.04670225  0.00000000       0.019
  -0.13036337  0.00186809  0.00000000       0.019
  -0.10863614  0.00560427  0.00000000       0.019
  -0.08690891  0.00934045  0.00000000       0.019
  -0.06518168  0.01307663  0.00000000       0.019
  -0.04345446  0.01681281  0.00000000       0.019
  -0.02172723  0.02054899  0.00000000       0.019
   0.00000000  0.04857034  0.00000000       0.010
   0.02172723  0.05230652  0.00000000       0.019
   0.04345446  0.05604270  0.00000000       0.019
   0.06518168  0.05977888  0.00000000       0.019
   0.08690891  0.06351506  0.00000000       0.019
   0.10863614  0.06725124  0.00000000       0.019
   0.13036337  0.07098742  0.00000000       0.019
   0.00000000  0.00000000  0.01818087       0.010
   0.02172723  0.00373618  0.01818087       0.019
   0.04345446  0.00747236  0.01818087       0.019
   0.06518168  0.01120854  0.01818087       0.019
   0.08690891  0.01494472  0.01818087       0.019
   0.10863614  0.01868090  0.01818087       0.019
   0.13036337  0.02241708  0.01818087       0.019
   0.00000000  0.02428517  0.01818087       0.019
   0.02172723  0.02802135  0.01818087       0.019
   0.04345446  0.03175753  0.01818087       0.019
   0.06518168  0.03549371  0.01818087       0.019
   0.08690891  0.03922989  0.01818087       0.019
   0.10863614  0.04296607  0.01818087       0.019
   0.13036337  0.04670225  0.01818087       0.019
  -0.13036337  0.00186809  0.01818087       0.019
  -0.10863614  0.00560427  0.01818087       0.019
  -0.08690891  0.00934045  0.01818087       0.019
  -0.06518168  0.01307663  0.01818087       0.019
  -0.04345446  0.01681281  0.01818087       0.019
  -0.02172723  0.02054899  0.01818087       0.019
   0.00000000  0.04857034  0.01818087       0.010
   0.02172723  0.05230652  0.01818087       0.019
   0.04345446  0.05604270  0.01818087       0.019
   0.06518168  0.05977888  0.01818087       0.019
   0.08690891  0.06351506  0.01818087       0.019
   0.10863614  0.06725124  0.01818087       0.019
   0.13036337  0.07098742  0.01818087       0.019
 
 k-points in reciprocal lattice and weights: pymatgen generated KPOINTS with grid den
   0.00000000  0.00000000  0.00000000       0.010
   0.07692308 -0.00000000  0.00000000       0.019
   0.15384615 -0.00000000  0.00000000       0.019
   0.23076923 -0.00000000  0.00000000       0.019
   0.30769231 -0.00000000  0.00000000       0.019
   0.38461538 -0.00000000  0.00000000       0.019
   0.46153846 -0.00000000  0.00000000       0.019
   0.00000000  0.25000000  0.00000000       0.019
   0.07692308  0.25000000  0.00000000       0.019
   0.15384615  0.25000000  0.00000000       0.019
   0.23076923  0.25000000  0.00000000       0.019
   0.30769231  0.25000000  0.00000000       0.019
   0.38461538  0.25000000  0.00000000       0.019
   0.46153846  0.25000000  0.00000000       0.019
  -0.46153846  0.25000000  0.00000000       0.019
  -0.38461538  0.25000000  0.00000000       0.019
  -0.30769231  0.25000000  0.00000000       0.019
  -0.23076923  0.25000000  0.00000000       0.019
  -0.15384615  0.25000000  0.00000000       0.019
  -0.07692308  0.25000000  0.00000000       0.019
   0.00000000  0.50000000  0.00000000       0.010
   0.07692308  0.50000000  0.00000000       0.019
   0.15384615  0.50000000  0.00000000       0.019
   0.23076923  0.50000000  0.00000000       0.019
   0.30769231  0.50000000  0.00000000       0.019
   0.38461538  0.50000000  0.00000000       0.019
   0.46153846  0.50000000  0.00000000       0.019
   0.00000000  0.00000000  0.50000000       0.010
   0.07692308 -0.00000000  0.50000000       0.019
   0.15384615 -0.00000000  0.50000000       0.019
   0.23076923 -0.00000000  0.50000000       0.019
   0.30769231 -0.00000000  0.50000000       0.019
   0.38461538 -0.00000000  0.50000000       0.019
   0.46153846 -0.00000000  0.50000000       0.019
   0.00000000  0.25000000  0.50000000       0.019
   0.07692308  0.25000000  0.50000000       0.019
   0.15384615  0.25000000  0.50000000       0.019
   0.23076923  0.25000000  0.50000000       0.019
   0.30769231  0.25000000  0.50000000       0.019
   0.38461538  0.25000000  0.50000000       0.019
   0.46153846  0.25000000  0.50000000       0.019
  -0.46153846  0.25000000  0.50000000       0.019
  -0.38461538  0.25000000  0.50000000       0.019
  -0.30769231  0.25000000  0.50000000       0.019
  -0.23076923  0.25000000  0.50000000       0.019
  -0.15384615  0.25000000  0.50000000       0.019
  -0.07692308  0.25000000  0.50000000       0.019
   0.00000000  0.50000000  0.50000000       0.010
   0.07692308  0.50000000  0.50000000       0.019
   0.15384615  0.50000000  0.50000000       0.019
   0.23076923  0.50000000  0.50000000       0.019
   0.30769231  0.50000000  0.50000000       0.019
   0.38461538  0.50000000  0.50000000       0.019
   0.46153846  0.50000000  0.50000000       0.019
 
 position of ions in fractional coordinates (direct lattice) 
   0.11402300  0.22804500  0.23316207
   0.31402300  0.42804500  0.51499159
   0.45808900  0.91617900  0.20939482
   0.65808900  0.11617900  0.49122434
   0.31085400  0.62170900  0.08414979
   0.31085400  0.62170900  0.36597930
   0.99923000  0.99846000  0.08631254
   0.99923000  0.99846000  0.36814206
   0.65492700  0.30985400  0.06041748
   0.65492700  0.30985400  0.34224700
   0.76973800  0.53947500  0.20725292
   0.96973800  0.73947500  0.48908244
   0.93971600  0.87943300  0.15783749
   0.13971600  0.07943300  0.43966701
   0.20515200  0.41030300  0.18578822
   0.40515200  0.61030300  0.46761774
   0.20184900  0.40369900  0.09969156
   0.20184900  0.40369900  0.38152107
   0.56380500  0.12761000  0.10779021
   0.56380500  0.12761000  0.38961973
   0.56710600  0.13421200  0.19387616
   0.76710600  0.33421200  0.47570568
   0.82923400  0.65846800  0.13571444
   0.02923400  0.85846800  0.41754396
 
 position of ions in cartesian coordinates  (Angst):
   0.00000177  2.34757459  6.41229012
   0.35404177  4.40644419 14.16300462
  -0.00000177  9.43146546  5.75865686
   2.12423823  1.19598706 13.50937136
  -0.00000177  6.40008880  2.31423934
  -0.00000177  6.40008880 10.06495384
   1.77020000 10.27849470  2.37371832
   1.77020000 10.27849470 10.12443282
   1.77020000  3.18974491  1.66156717
   1.77020000  3.18974491  9.41228167
   1.77020177  5.55354339  5.69975143
   2.12424177  7.61241299 13.45046593
   1.77019823  9.05318934  4.34075665
   0.35403823  0.81771094 12.09147115
   0.00000177  4.22380187  5.10944151
   0.35404177  6.28267147 12.86015601
  -0.00000177  4.15581799  2.74166024
  -0.00000177  4.15581799 10.49237474
   1.77020000  1.31366175  2.96438477
   1.77020000  1.31366175 10.71509927
   1.77020000  1.38162503  5.33187152
   2.12424000  3.44049463 13.08258602
   1.77020000  6.77849874  3.73234107
  -1.41616000  8.83736834 11.48305557
 


--------------------------------------------------------------------------------------------------------


 k-point  1 :   0.0000 0.0000 0.0000  plane waves:   11717
 k-point  2 :   0.0769-0.0000 0.0000  plane waves:   11762
 k-point  3 :   0.1538-0.0000 0.0000  plane waves:   11805
 k-point  4 :   0.2308-0.0000 0.0000  plane waves:   11824
 k-point  5 :   0.3077-0.0000 0.0000  plane waves:   11875
 k-point  6 :   0.3846-0.0000 0.0000  plane waves:   11864
 k-point  7 :   0.4615-0.0000 0.0000  plane waves:   11883
 k-point  8 :   0.0000 0.2500 0.0000  plane waves:   11683
 k-point  9 :   0.0769 0.2500 0.0000  plane waves:   11756
 k-point 10 :   0.1538 0.2500 0.0000  plane waves:   11807
 k-point 11 :   0.2308 0.2500 0.0000  plane waves:   11853
 k-point 12 :   0.3077 0.2500 0.0000  plane waves:   11866
 k-point 13 :   0.3846 0.2500 0.0000  plane waves:   11889
 k-point 14 :   0.4615 0.2500 0.0000  plane waves:   11885
 k-point 15 :  -0.4615 0.2500 0.0000  plane waves:   11886
 k-point 16 :  -0.3846 0.2500 0.0000  plane waves:   11867
 k-point 17 :  -0.3077 0.2500 0.0000  plane waves:   11849
 k-point 18 :  -0.2308 0.2500 0.0000  plane waves:   11827
 k-point 19 :  -0.1538 0.2500 0.0000  plane waves:   11801
 k-point 20 :  -0.0769 0.2500 0.0000  plane waves:   11757
 k-point 21 :   0.0000 0.5000 0.0000  plane waves:   11710
 k-point 22 :   0.0769 0.5000 0.0000  plane waves:   11762
 k-point 23 :   0.1538 0.5000 0.0000  plane waves:   11782
 k-point 24 :   0.2308 0.5000 0.0000  plane waves:   11841
 k-point 25 :   0.3077 0.5000 0.0000  plane waves:   11876
 k-point 26 :   0.3846 0.5000 0.0000  plane waves:   11889
 k-point 27 :   0.4615 0.5000 0.0000  plane waves:   11881
 k-point 28 :   0.0000 0.0000 0.5000  plane waves:   11698
 k-point 29 :   0.0769-0.0000 0.5000  plane waves:   11752
 k-point 30 :   0.1538-0.0000 0.5000  plane waves:   11800
 k-point 31 :   0.2308-0.0000 0.5000  plane waves:   11834
 k-point 32 :   0.3077-0.0000 0.5000  plane waves:   11850
 k-point 33 :   0.3846-0.0000 0.5000  plane waves:   11888
 k-point 34 :   0.4615-0.0000 0.5000  plane waves:   11896
 k-point 35 :   0.0000 0.2500 0.5000  plane waves:   11714
 k-point 36 :   0.0769 0.2500 0.5000  plane waves:   11754
 k-point 37 :   0.1538 0.2500 0.5000  plane waves:   11802
 k-point 38 :   0.2308 0.2500 0.5000  plane waves:   11840
 k-point 39 :   0.3077 0.2500 0.5000  plane waves:   11858
 k-point 40 :   0.3846 0.2500 0.5000  plane waves:   11896
 k-point 41 :   0.4615 0.2500 0.5000  plane waves:   11886
 k-point 42 :  -0.4615 0.2500 0.5000  plane waves:   11852
 k-point 43 :  -0.3846 0.2500 0.5000  plane waves:   11838
 k-point 44 :  -0.3077 0.2500 0.5000  plane waves:   11842
 k-point 45 :  -0.2308 0.2500 0.5000  plane waves:   11840
 k-point 46 :  -0.1538 0.2500 0.5000  plane waves:   11804
 k-point 47 :  -0.0769 0.2500 0.5000  plane waves:   11748
 k-point 48 :   0.0000 0.5000 0.5000  plane waves:   11724
 k-point 49 :   0.0769 0.5000 0.5000  plane waves:   11748
 k-point 50 :   0.1538 0.5000 0.5000  plane waves:   11814
 k-point 51 :   0.2308 0.5000 0.5000  plane waves:   11832
 k-point 52 :   0.3077 0.5000 0.5000  plane waves:   11868
 k-point 53 :   0.3846 0.5000 0.5000  plane waves:   11892
 k-point 54 :   0.4615 0.5000 0.5000  plane waves:   11878

 maximum and minimum number of plane-waves per node :      5964     5832

 maximum number of plane-waves:     11896
 maximum index in each direction: 
   IXMAX=    5   IYMAX=   14   IZMAX=   38
   IXMIN=   -5   IYMIN=  -15   IZMIN=  -39

 WARNING: aliasing errors must be expected set NGX to  22 to avoid them
 NGY is ok and might be reduce to  60
 NGZ is ok and might be reduce to 156
 aliasing errors are usually negligible using standard VASP settings
 and one can safely disregard these warnings

 real space projection operators:
  total allocation   :       3793.25 KBytes
  max/ min on nodes  :       1899.38       1893.88


 parallel 3D FFT for wavefunctions:
    minimum data exchange during FFTs selected (reduces bandwidth)
 parallel 3D FFT for charge:
    minimum data exchange during FFTs selected (reduces bandwidth)


 total amount of memory used by VASP on root node   146493. kBytes
========================================================================

   base      :      30000. kBytes
   nonlr-proj:       3452. kBytes
   fftplans  :       9347. kBytes
   grid      :      14649. kBytes
   one-center:         36. kBytes
   wavefun   :      89009. kBytes
 
     INWAV:  cpu time    0.00: real time    0.00
 Broyden mixing: mesh for mixing (old mesh)
   NGX =  9   NGY = 29   NGZ = 77
  (NGX  = 40   NGY  =120   NGZ  =320)
  gives a total of  20097 points

 initial charge density was supplied:
 charge density of overlapping atoms calculated
 number of electron     108.0000000 magnetization 
 keeping initial charge density in first step


--------------------------------------------------------------------------------------------------------


 Maximum index for non-local projection operator         1333
 Maximum index for augmentation-charges          822 (set IRDMAX)


--------------------------------------------------------------------------------------------------------


 First call to EWALD:  gamma=   0.177
 Maximum number of real-space cells 7x 3x 1
 Maximum number of reciprocal cells 1x 3x 7

 FEWALD executed in parallel
    FEWALD:  cpu time    0.00: real time    0.00


----------------------------------------- Iteration    1(   1)  ---------------------------------------


vdW kernel read from vdw_kernel.bindat
  0.0000  0.2424  0.5071  0.7962  1.1119  1.4567  1.8333  2.2446  2.6937  3.1842
  3.7199  4.3049  4.9438  5.6415  6.4036  7.2358  8.1446  9.1372 10.2212 11.4050
 12.6979 14.1099 15.6519 17.3360 19.1751 21.1837 23.3773 25.7729 28.3892 31.2465
 34.3669 37.7748 41.4965 45.5611 50.0000
 
    POTLOK:  cpu time   15.87: real time   15.88
    SETDIJ:  cpu time    0.01: real time    0.01
     EDDAV:  cpu time   56.05: real time   56.08
       DOS:  cpu time    0.01: real time    0.01
    --------------------------------------------
      LOOP:  cpu time   71.95: real time   71.99

 eigenvalue-minimisations  :  7360
 total energy-change (2. order) : 0.4898787E+03  (-0.2865826E+04)
 number of electron     108.0000000 magnetization 
 augmentation part      108.0000000 magnetization 

 Free energy of the ion-electron system (eV)
  ---------------------------------------------------
  alpha Z        PSCENC =        36.80884744
  Ewald energy   TEWEN  =     11927.23705817
  -Hartree energ DENC   =    -14976.12484783
  -exchange      EXHF   =         0.00000000
  -V(xc)+E(xc)   XCENC  =       -87.83189898
  PAW double counting   =      1056.43050070     -732.41190547
  entropy T*S    EENTRO =        -0.04812158
  eigenvalues    EBANDS =       -88.22223990
  atomic energy  EATOM  =      3354.04126044
  ---------------------------------------------------
  free energy    TOTEN  =       489.87865299 eV

  energy without entropy =      489.92677457  energy(sigma->0) =      489.90271378


--------------------------------------------------------------------------------------------------------




----------------------------------------- Iteration    1(   2)  ---------------------------------------


     EDDAV:  cpu time   69.83: real time   69.86
       DOS:  cpu time    0.01: real time    0.01
    --------------------------------------------
      LOOP:  cpu time   69.84: real time   69.87

 eigenvalue-minimisations  :  9736
 total energy-change (2. order) :-0.5570037E+03  (-0.5424082E+03)
 number of electron     108.0000000 magnetization 
 augmentation part      108.0000000 magnetization 

 Free energy of the ion-electron system (eV)
  ---------------------------------------------------
  alpha Z        PSCENC =        36.80884744
  Ewald energy   TEWEN  =     11927.23705817
  -Hartree energ DENC   =    -14976.12484783
  -exchange      EXHF   =         0.00000000
  -V(xc)+E(xc)   XCENC  =       -87.83189898
  PAW double counting   =      1056.43050070     -732.41190547
  entropy T*S    EENTRO =        -0.02483207
  eigenvalues    EBANDS =      -645.24918647
  atomic energy  EATOM  =      3354.04126044
  ---------------------------------------------------
  free energy    TOTEN  =       -67.12500406 eV

  energy without entropy =      -67.10017200  energy(sigma->0) =      -67.11258803


--------------------------------------------------------------------------------------------------------




----------------------------------------- Iteration    1(   3)  ---------------------------------------


     EDDAV:  cpu time   64.20: real time   64.24
       DOS:  cpu time    0.01: real time    0.01
    --------------------------------------------
      LOOP:  cpu time   64.22: real time   64.25

 eigenvalue-minimisations  :  8776
 total energy-change (2. order) :-0.5560580E+02  (-0.5482688E+02)
 number of electron     108.0000000 magnetization 
 augmentation part      108.0000000 magnetization 

 Free energy of the ion-electron system (eV)
  ---------------------------------------------------
  alpha Z        PSCENC =        36.80884744
  Ewald energy   TEWEN  =     11927.23705817
  -Hartree energ DENC   =    -14976.12484783
  -exchange      EXHF   =         0.00000000
  -V(xc)+E(xc)   XCENC  =       -87.83189898
  PAW double counting   =      1056.43050070     -732.41190547
  entropy T*S    EENTRO =        -0.01896691
  eigenvalues    EBANDS =      -700.86084844
  atomic energy  EATOM  =      3354.04126044
  ---------------------------------------------------
  free energy    TOTEN  =      -122.73080087 eV

  energy without entropy =     -122.71183397  energy(sigma->0) =     -122.72131742


--------------------------------------------------------------------------------------------------------




----------------------------------------- Iteration    1(   4)  ---------------------------------------


     EDDAV:  cpu time   77.07: real time   77.11
       DOS:  cpu time    0.01: real time    0.01
    --------------------------------------------
      LOOP:  cpu time   77.08: real time   77.12

 eigenvalue-minimisations  : 10920
 total energy-change (2. order) :-0.2546114E+01  (-0.2526916E+01)
 number of electron     108.0000000 magnetization 
 augmentation part      108.0000000 magnetization 

 Free energy of the ion-electron system (eV)
  ---------------------------------------------------
  alpha Z        PSCENC =        36.80884744
  Ewald energy   TEWEN  =     11927.23705817
  -Hartree energ DENC   =    -14976.12484783
  -exchange      EXHF   =         0.00000000
  -V(xc)+E(xc)   XCENC  =       -87.83189898
  PAW double counting   =      1056.43050070     -732.41190547
  entropy T*S    EENTRO =        -0.02213127
  eigenvalues    EBANDS =      -703.40379768
  atomic energy  EATOM  =      3354.04126044
  ---------------------------------------------------
  free energy    TOTEN  =      -125.27691448 eV

  energy without entropy =     -125.25478320  energy(sigma->0) =     -125.26584884


--------------------------------------------------------------------------------------------------------




----------------------------------------- Iteration    1(   5)  ---------------------------------------


     EDDAV:  cpu time   71.39: real time   71.43
       DOS:  cpu time    0.01: real time    0.01
    CHARGE:  cpu time    3.89: real time    3.89
    MIXING:  cpu time    0.01: real time    0.01
    --------------------------------------------
      LOOP:  cpu time   75.30: real time   75.35

 eigenvalue-minimisations  : 10004
 total energy-change (2. order) :-0.6157784E-01  (-0.6149074E-01)
 number of electron     107.9999995 magnetization 
 augmentation part       -9.5502367 magnetization 

 Broyden mixing:
  rms(total) = 0.98045E+00    rms(broyden)= 0.98025E+00
  rms(prec ) = 0.10462E+01
  weight for this iteration     100.00

 Free energy of the ion-electron system (eV)
  ---------------------------------------------------
  alpha Z        PSCENC =        36.80884744
  Ewald energy   TEWEN  =     11927.23705817
  -Hartree energ DENC   =    -14976.12484783
  -exchange      EXHF   =         0.00000000
  -V(xc)+E(xc)   XCENC  =       -87.83189898
  PAW double counting   =      1056.43050070     -732.41190547
  entropy T*S    EENTRO =        -0.02218916
  eigenvalues    EBANDS =      -703.46531762
  atomic energy  EATOM  =      3354.04126044
  ---------------------------------------------------
  free energy    TOTEN  =      -125.33849231 eV

  energy without entropy =     -125.31630315  energy(sigma->0) =     -125.32739773


--------------------------------------------------------------------------------------------------------




----------------------------------------- Iteration    1(   6)  ---------------------------------------


    POTLOK:  cpu time   14.38: real time   14.39
    SETDIJ:  cpu time    0.01: real time    0.01
     EDDAV:  cpu time   63.31: real time   63.36
       DOS:  cpu time    0.01: real time    0.01
    CHARGE:  cpu time    3.90: real time    3.90
    MIXING:  cpu time    0.01: real time    0.01
    --------------------------------------------
      LOOP:  cpu time   81.63: real time   81.69

 eigenvalue-minimisations  :  8568
 total energy-change (2. order) : 0.2032532E+01  (-0.5501349E+00)
 number of electron     107.9999995 magnetization 
 augmentation part       -9.4106621 magnetization 

 Broyden mixing:
  rms(total) = 0.54693E+00    rms(broyden)= 0.54692E+00
  rms(prec ) = 0.57836E+00
  weight for this iteration     100.00

 eigenvalues of (default mixing * dielectric matrix)
  average eigenvalue GAMMA=   1.9340
  1.9340

 Free energy of the ion-electron system (eV)
  ---------------------------------------------------
  alpha Z        PSCENC =        36.80884744
  Ewald energy   TEWEN  =     11927.23705817
  -Hartree energ DENC   =    -15014.83710270
  -exchange      EXHF   =         0.00000000
  -V(xc)+E(xc)   XCENC  =       -84.89079090
  PAW double counting   =      1112.44159227     -789.96546262
  entropy T*S    EENTRO =        -0.02145216
  eigenvalues    EBANDS =      -664.11991075
  atomic energy  EATOM  =      3354.04126044
  ---------------------------------------------------
  free energy    TOTEN  =      -123.30596080 eV

  energy without entropy =     -123.28450865  energy(sigma->0) =     -123.29523473


--------------------------------------------------------------------------------------------------------




----------------------------------------- Iteration    1(   7)  ---------------------------------------


    POTLOK:  cpu time   14.36: real time   14.38
    SETDIJ:  cpu time    0.01: real time    0.01
     EDDAV:  cpu time   65.51: real time   65.54
       DOS:  cpu time    0.01: real time    0.01
    CHARGE:  cpu time    3.90: real time    3.90
    MIXING:  cpu time    0.01: real time    0.01
    --------------------------------------------
      LOOP:  cpu time   83.80: real time   83.85

 eigenvalue-minimisations  :  8952
 total energy-change (2. order) : 0.2135890E+00  (-0.3915351E+00)
 number of electron     107.9999995 magnetization 
 augmentation part       -9.3160449 magnetization 

 Broyden mixing:
  rms(total) = 0.20258E+00    rms(broyden)= 0.20256E+00
  rms(prec ) = 0.22692E+00
  weight for this iteration     100.00

 eigenvalues of (default mixing * dielectric matrix)
  average eigenvalue GAMMA=   1.5271
  0.8710  2.1831

 Free energy of the ion-electron system (eV)
  ---------------------------------------------------
  alpha Z        PSCENC =        36.80884744
  Ewald energy   TEWEN  =     11927.23705817
  -Hartree energ DENC   =    -15048.13045165
  -exchange      EXHF   =         0.00000000
  -V(xc)+E(xc)   XCENC  =       -81.87479306
  PAW double counting   =      1156.67500837     -835.43931517
  entropy T*S    EENTRO =        -0.03063563
  eigenvalues    EBANDS =      -632.37935075
  atomic energy  EATOM  =      3354.04126044
  ---------------------------------------------------
  free energy    TOTEN  =      -123.09237184 eV

  energy without entropy =     -123.06173621  energy(sigma->0) =     -123.07705403


--------------------------------------------------------------------------------------------------------




----------------------------------------- Iteration    1(   8)  ---------------------------------------


    POTLOK:  cpu time   14.37: real time   14.38
    SETDIJ:  cpu time    0.01: real time    0.01
     EDDAV:  cpu time   66.31: real time   66.35
       DOS:  cpu time    0.01: real time    0.01
    CHARGE:  cpu time    3.89: real time    3.89
    MIXING:  cpu time    0.01: real time    0.01
    --------------------------------------------
      LOOP:  cpu time   84.60: real time   84.65

 eigenvalue-minimisations  :  9096
 total energy-change (2. order) : 0.2104876E-01  (-0.8238377E-01)
 number of electron     107.9999995 magnetization 
 augmentation part       -9.3061653 magnetization 

 Broyden mixing:
  rms(total) = 0.96561E-01    rms(broyden)= 0.96552E-01
  rms(prec ) = 0.10321E+00
  weight for this iteration     100.00

 eigenvalues of (default mixing * dielectric matrix)
  average eigenvalue GAMMA=   1.5467
  2.4258  1.5135  0.7008

 Free energy of the ion-electron system (eV)
  ---------------------------------------------------
  alpha Z        PSCENC =        36.80884744
  Ewald energy   TEWEN  =     11927.23705817
  -Hartree energ DENC   =    -15054.88878050
  -exchange      EXHF   =         0.00000000
  -V(xc)+E(xc)   XCENC  =       -81.03223168
  PAW double counting   =      1162.80561570     -841.76096296
  entropy T*S    EENTRO =        -0.02596572
  eigenvalues    EBANDS =      -626.25616398
  atomic energy  EATOM  =      3354.04126044
  ---------------------------------------------------
  free energy    TOTEN  =      -123.07132309 eV

  energy without entropy =     -123.04535736  energy(sigma->0) =     -123.05834022


--------------------------------------------------------------------------------------------------------




----------------------------------------- Iteration    1(   9)  ---------------------------------------


    POTLOK:  cpu time   14.38: real time   14.38
    SETDIJ:  cpu time    0.01: real time    0.01
     EDDAV:  cpu time   64.91: real time   64.96
       DOS:  cpu time    0.01: real time    0.01
    CHARGE:  cpu time    3.90: real time    3.90
    MIXING:  cpu time    0.01: real time    0.01
    --------------------------------------------
      LOOP:  cpu time   83.22: real time   83.28

 eigenvalue-minimisations  :  8888
 total energy-change (2. order) : 0.2492303E-01  (-0.1260700E-01)
 number of electron     107.9999995 magnetization 
 augmentation part       -9.3106499 magnetization 

 Broyden mixing:
  rms(total) = 0.36731E-01    rms(broyden)= 0.36728E-01
  rms(prec ) = 0.40353E-01
  weight for this iteration     100.00

 eigenvalues of (default mixing * dielectric matrix)
  average eigenvalue GAMMA=   1.4763
  2.5813  1.6963  0.8521  0.7755

 Free energy of the ion-electron system (eV)
  ---------------------------------------------------
  alpha Z        PSCENC =        36.80884744
  Ewald energy   TEWEN  =     11927.23705817
  -Hartree energ DENC   =    -15060.38987863
  -exchange      EXHF   =         0.00000000
  -V(xc)+E(xc)   XCENC  =       -80.68194959
  PAW double counting   =      1160.11155373     -839.00472408
  entropy T*S    EENTRO =        -0.02552001
  eigenvalues    EBANDS =      -621.14304754
  atomic energy  EATOM  =      3354.04126044
  ---------------------------------------------------
  free energy    TOTEN  =      -123.04640006 eV

  energy without entropy =     -123.02088005  energy(sigma->0) =     -123.03364005


--------------------------------------------------------------------------------------------------------




----------------------------------------- Iteration    1(  10)  ---------------------------------------


    POTLOK:  cpu time   14.35: real time   14.37
    SETDIJ:  cpu time    0.01: real time    0.01
     EDDAV:  cpu time   65.70: real time   65.74
       DOS:  cpu time    0.01: real time    0.01
    CHARGE:  cpu time    3.89: real time    3.89
    MIXING:  cpu time    0.01: real time    0.01
    --------------------------------------------
      LOOP:  cpu time   83.98: real time   84.03

 eigenvalue-minimisations  :  8984
 total energy-change (2. order) : 0.1349748E-01  (-0.3201598E-02)
 number of electron     107.9999995 magnetization 
 augmentation part       -9.3140001 magnetization 

 Broyden mixing:
  rms(total) = 0.13894E-01    rms(broyden)= 0.13892E-01
  rms(prec ) = 0.15904E-01
  weight for this iteration     100.00

 eigenvalues of (default mixing * dielectric matrix)
  average eigenvalue GAMMA=   1.4145
  2.6142  1.5541  1.3919  0.7561  0.7561

 Free energy of the ion-electron system (eV)
  ---------------------------------------------------
  alpha Z        PSCENC =        36.80884744
  Ewald energy   TEWEN  =     11927.23705817
  -Hartree energ DENC   =    -15061.25696610
  -exchange      EXHF   =         0.00000000
  -V(xc)+E(xc)   XCENC  =       -80.57417353
  PAW double counting   =      1157.97627490     -836.81195515
  entropy T*S    EENTRO =        -0.02566602
  eigenvalues    EBANDS =      -620.42758273
  atomic energy  EATOM  =      3354.04126044
  ---------------------------------------------------
  free energy    TOTEN  =      -123.03290257 eV

  energy without entropy =     -123.00723655  energy(sigma->0) =     -123.02006956


--------------------------------------------------------------------------------------------------------




----------------------------------------- Iteration    1(  11)  ---------------------------------------


    POTLOK:  cpu time   14.36: real time   14.37
    SETDIJ:  cpu time    0.01: real time    0.01
     EDDAV:  cpu time   64.93: real time   64.98
       DOS:  cpu time    0.01: real time    0.01
    CHARGE:  cpu time    3.90: real time    3.90
    MIXING:  cpu time    0.01: real time    0.01
    --------------------------------------------
      LOOP:  cpu time   83.23: real time   83.29

 eigenvalue-minimisations  :  8896
 total energy-change (2. order) : 0.7049276E-02  (-0.5129942E-03)
 number of electron     107.9999995 magnetization 
 augmentation part       -9.3138998 magnetization 

 Broyden mixing:
  rms(total) = 0.70475E-02    rms(broyden)= 0.70467E-02
  rms(prec ) = 0.85183E-02
  weight for this iteration     100.00

 eigenvalues of (default mixing * dielectric matrix)
  average eigenvalue GAMMA=   1.4201
  2.6495  1.7465  1.5747  1.0181  0.8398  0.6919

 Free energy of the ion-electron system (eV)
  ---------------------------------------------------
  alpha Z        PSCENC =        36.80884744
  Ewald energy   TEWEN  =     11927.23705817
  -Hartree energ DENC   =    -15062.59071867
  -exchange      EXHF   =         0.00000000
  -V(xc)+E(xc)   XCENC  =       -80.54347049
  PAW double counting   =      1157.16276402     -835.97406319
  entropy T*S    EENTRO =        -0.02592005
  eigenvalues    EBANDS =      -619.14161097
  atomic energy  EATOM  =      3354.04126044
  ---------------------------------------------------
  free energy    TOTEN  =      -123.02585330 eV

  energy without entropy =     -122.99993324  energy(sigma->0) =     -123.01289327


--------------------------------------------------------------------------------------------------------




----------------------------------------- Iteration    1(  12)  ---------------------------------------


    POTLOK:  cpu time   14.37: real time   14.38
    SETDIJ:  cpu time    0.01: real time    0.01
     EDDAV:  cpu time   66.81: real time   66.85
       DOS:  cpu time    0.01: real time    0.01
    CHARGE:  cpu time    3.91: real time    3.91
    MIXING:  cpu time    0.01: real time    0.01
    --------------------------------------------
      LOOP:  cpu time   85.14: real time   85.18

 eigenvalue-minimisations  :  9232
 total energy-change (2. order) : 0.5623505E-02  (-0.1186964E-03)
 number of electron     107.9999995 magnetization 
 augmentation part       -9.3136456 magnetization 

 Broyden mixing:
  rms(total) = 0.33628E-02    rms(broyden)= 0.33625E-02
  rms(prec ) = 0.46512E-02
  weight for this iteration     100.00

 eigenvalues of (default mixing * dielectric matrix)
  average eigenvalue GAMMA=   1.4610
  2.7163  2.1939  1.4430  1.4430  0.6937  0.8686  0.8686

 Free energy of the ion-electron system (eV)
  ---------------------------------------------------
  alpha Z        PSCENC =        36.80884744
  Ewald energy   TEWEN  =     11927.23705817
  -Hartree energ DENC   =    -15063.71850698
  -exchange      EXHF   =         0.00000000
  -V(xc)+E(xc)   XCENC  =       -80.53141039
  PAW double counting   =      1156.38380013     -835.17379263
  entropy T*S    EENTRO =        -0.02578967
  eigenvalues    EBANDS =      -618.04169630
  atomic energy  EATOM  =      3354.04126044
  ---------------------------------------------------
  free energy    TOTEN  =      -123.02022979 eV

  energy without entropy =     -122.99444012  energy(sigma->0) =     -123.00733495


--------------------------------------------------------------------------------------------------------




----------------------------------------- Iteration    1(  13)  ---------------------------------------


    POTLOK:  cpu time   14.36: real time   14.37
    SETDIJ:  cpu time    0.01: real time    0.01
     EDDAV:  cpu time   67.31: real time   67.34
       DOS:  cpu time    0.01: real time    0.01
    CHARGE:  cpu time    3.90: real time    3.91
    MIXING:  cpu time    0.01: real time    0.01
    --------------------------------------------
      LOOP:  cpu time   85.61: real time   85.66

 eigenvalue-minimisations  :  9328
 total energy-change (2. order) : 0.3610762E-02  (-0.2634733E-04)
 number of electron     107.9999995 magnetization 
 augmentation part       -9.3137078 magnetization 

 Broyden mixing:
  rms(total) = 0.17020E-02    rms(broyden)= 0.17019E-02
  rms(prec ) = 0.27866E-02
  weight for this iteration     100.00

 eigenvalues of (default mixing * dielectric matrix)
  average eigenvalue GAMMA=   1.4764
  2.8024  2.4211  1.6801  1.2394  1.2394  0.6958  0.8665  0.8665

 Free energy of the ion-electron system (eV)
  ---------------------------------------------------
  alpha Z        PSCENC =        36.80884744
  Ewald energy   TEWEN  =     11927.23705817
  -Hartree energ DENC   =    -15064.71347462
  -exchange      EXHF   =         0.00000000
  -V(xc)+E(xc)   XCENC  =       -80.52607498
  PAW double counting   =      1155.83524366     -834.61128246
  entropy T*S    EENTRO =        -0.02572851
  eigenvalues    EBANDS =      -617.06246818
  atomic energy  EATOM  =      3354.04126044
  ---------------------------------------------------
  free energy    TOTEN  =      -123.01661903 eV

  energy without entropy =     -122.99089052  energy(sigma->0) =     -123.00375478


--------------------------------------------------------------------------------------------------------




----------------------------------------- Iteration    1(  14)  ---------------------------------------


    POTLOK:  cpu time   14.42: real time   14.43
    SETDIJ:  cpu time    0.01: real time    0.01
     EDDAV:  cpu time   67.17: real time   67.22
       DOS:  cpu time    0.01: real time    0.01
    CHARGE:  cpu time    3.91: real time    3.91
    MIXING:  cpu time    0.01: real time    0.01
    --------------------------------------------
      LOOP:  cpu time   85.56: real time   85.62

 eigenvalue-minimisations  :  9280
 total energy-change (2. order) : 0.1288522E-02  (-0.1085845E-04)
 number of electron     107.9999995 magnetization 
 augmentation part       -9.3133928 magnetization 

 Broyden mixing:
  rms(total) = 0.10286E-02    rms(broyden)= 0.10286E-02
  rms(prec ) = 0.17863E-02
  weight for this iteration     100.00

 eigenvalues of (default mixing * dielectric matrix)
  average eigenvalue GAMMA=   1.5173
  3.0534  2.5853  1.5423  1.5423  1.2632  1.2632  0.6994  0.8535  0.8535

 Free energy of the ion-electron system (eV)
  ---------------------------------------------------
  alpha Z        PSCENC =        36.80884744
  Ewald energy   TEWEN  =     11927.23705817
  -Hartree energ DENC   =    -15065.64683114
  -exchange      EXHF   =         0.00000000
  -V(xc)+E(xc)   XCENC  =       -80.51897937
  PAW double counting   =      1155.69854648     -834.47126808
  entropy T*S    EENTRO =        -0.02574792
  eigenvalues    EBANDS =      -616.13821653
  atomic energy  EATOM  =      3354.04126044
  ---------------------------------------------------
  free energy    TOTEN  =      -123.01533051 eV

  energy without entropy =     -122.98958259  energy(sigma->0) =     -123.00245655


--------------------------------------------------------------------------------------------------------




----------------------------------------- Iteration    1(  15)  ---------------------------------------


    POTLOK:  cpu time   14.49: real time   14.51
    SETDIJ:  cpu time    0.01: real time    0.01
     EDDAV:  cpu time   61.98: real time   62.01
       DOS:  cpu time    0.01: real time    0.01
    CHARGE:  cpu time    3.91: real time    3.91
    MIXING:  cpu time    0.01: real time    0.01
    --------------------------------------------
      LOOP:  cpu time   80.42: real time   80.47

 eigenvalue-minimisations  :  8360
 total energy-change (2. order) : 0.2283983E-03  (-0.4421548E-05)
 number of electron     107.9999995 magnetization 
 augmentation part       -9.3133177 magnetization 

 Broyden mixing:
  rms(total) = 0.59229E-03    rms(broyden)= 0.59227E-03
  rms(prec ) = 0.10980E-02
  weight for this iteration     100.00

 eigenvalues of (default mixing * dielectric matrix)
  average eigenvalue GAMMA=   1.6193
  3.7305  2.6734  2.0966  1.8515  1.2382  1.2382  0.7002  0.9692  0.8476  0.8476

 Free energy of the ion-electron system (eV)
  ---------------------------------------------------
  alpha Z        PSCENC =        36.80884744
  Ewald energy   TEWEN  =     11927.23705817
  -Hartree energ DENC   =    -15066.35238638
  -exchange      EXHF   =         0.00000000
  -V(xc)+E(xc)   XCENC  =       -80.51459362
  PAW double counting   =      1155.64035868     -834.41176990
  entropy T*S    EENTRO =        -0.02573354
  eigenvalues    EBANDS =      -615.43814340
  atomic energy  EATOM  =      3354.04126044
  ---------------------------------------------------
  free energy    TOTEN  =      -123.01510211 eV

  energy without entropy =     -122.98936857  energy(sigma->0) =     -123.00223534


--------------------------------------------------------------------------------------------------------




----------------------------------------- Iteration    1(  16)  ---------------------------------------


    POTLOK:  cpu time   14.72: real time   14.73
    SETDIJ:  cpu time    0.01: real time    0.01
     EDDAV:  cpu time   61.63: real time   61.66
       DOS:  cpu time    0.01: real time    0.01
    CHARGE:  cpu time    3.91: real time    3.91
    MIXING:  cpu time    0.01: real time    0.01
    --------------------------------------------
      LOOP:  cpu time   80.31: real time   80.35

 eigenvalue-minimisations  :  8136
 total energy-change (2. order) :-0.5376013E-03  (-0.1151360E-04)
 number of electron     107.9999995 magnetization 
 augmentation part       -9.3132186 magnetization 

 Broyden mixing:
  rms(total) = 0.35917E-03    rms(broyden)= 0.35914E-03
  rms(prec ) = 0.59611E-03
  weight for this iteration     100.00

 eigenvalues of (default mixing * dielectric matrix)
  average eigenvalue GAMMA=   1.7518
  5.0049  2.7972  2.3910  1.6617  1.6617  1.2060  1.2060  0.7005  0.9338  0.8534
  0.8534

 Free energy of the ion-electron system (eV)
  ---------------------------------------------------
  alpha Z        PSCENC =        36.80884744
  Ewald energy   TEWEN  =     11927.23705817
  -Hartree energ DENC   =    -15067.03933508
  -exchange      EXHF   =         0.00000000
  -V(xc)+E(xc)   XCENC  =       -80.51079315
  PAW double counting   =      1155.65802715     -834.43004134
  entropy T*S    EENTRO =        -0.02572780
  eigenvalues    EBANDS =      -614.75493555
  atomic energy  EATOM  =      3354.04126044
  ---------------------------------------------------
  free energy    TOTEN  =      -123.01563971 eV

  energy without entropy =     -122.98991191  energy(sigma->0) =     -123.00277581


--------------------------------------------------------------------------------------------------------




----------------------------------------- Iteration    1(  17)  ---------------------------------------


    POTLOK:  cpu time   14.75: real time   14.76
    SETDIJ:  cpu time    0.01: real time    0.01
     EDDAV:  cpu time   60.59: real time   60.62
       DOS:  cpu time    0.01: real time    0.01
    CHARGE:  cpu time    3.90: real time    3.91
    MIXING:  cpu time    0.01: real time    0.01
    --------------------------------------------
      LOOP:  cpu time   79.28: real time   79.33

 eigenvalue-minimisations  :  7960
 total energy-change (2. order) :-0.3117441E-03  (-0.1406946E-04)
 number of electron     107.9999995 magnetization 
 augmentation part       -9.3131328 magnetization 

 Broyden mixing:
  rms(total) = 0.20034E-03    rms(broyden)= 0.20032E-03
  rms(prec ) = 0.34480E-03
  weight for this iteration     100.00

 eigenvalues of (default mixing * dielectric matrix)
  average eigenvalue GAMMA=   1.8207
  5.8905  2.8656  2.4747  2.0214  1.6115  1.2382  1.2382  1.1672  0.7006  0.8568
  0.8568  0.9265

 Free energy of the ion-electron system (eV)
  ---------------------------------------------------
  alpha Z        PSCENC =        36.80884744
  Ewald energy   TEWEN  =     11927.23705817
  -Hartree energ DENC   =    -15067.40351236
  -exchange      EXHF   =         0.00000000
  -V(xc)+E(xc)   XCENC  =       -80.50901399
  PAW double counting   =      1155.69029908     -834.46303161
  entropy T*S    EENTRO =        -0.02572839
  eigenvalues    EBANDS =      -614.39213025
  atomic energy  EATOM  =      3354.04126044
  ---------------------------------------------------
  free energy    TOTEN  =      -123.01595145 eV

  energy without entropy =     -122.99022307  energy(sigma->0) =     -123.00308726


--------------------------------------------------------------------------------------------------------




----------------------------------------- Iteration    1(  18)  ---------------------------------------


    POTLOK:  cpu time   14.72: real time   14.72
    SETDIJ:  cpu time    0.01: real time    0.01
     EDDAV:  cpu time   57.30: real time   57.34
       DOS:  cpu time    0.01: real time    0.01
    CHARGE:  cpu time    3.91: real time    3.92
    MIXING:  cpu time    0.01: real time    0.01
    --------------------------------------------
      LOOP:  cpu time   75.97: real time   76.01

 eigenvalue-minimisations  :  7360
 total energy-change (2. order) :-0.3235277E-04  (-0.3550343E-05)
 number of electron     107.9999995 magnetization 
 augmentation part       -9.3131575 magnetization 

 Broyden mixing:
  rms(total) = 0.12094E-03    rms(broyden)= 0.12093E-03
  rms(prec ) = 0.22122E-03
  weight for this iteration     100.00

 eigenvalues of (default mixing * dielectric matrix)
  average eigenvalue GAMMA=   1.8530
  6.2315  2.9800  2.6652  2.1202  1.6242  1.6242  1.1960  1.1960  0.7006  1.1138
  0.8572  0.8572  0.9229

 Free energy of the ion-electron system (eV)
  ---------------------------------------------------
  alpha Z        PSCENC =        36.80884744
  Ewald energy   TEWEN  =     11927.23705817
  -Hartree energ DENC   =    -15067.56024625
  -exchange      EXHF   =         0.00000000
  -V(xc)+E(xc)   XCENC  =       -80.50855265
  PAW double counting   =      1155.68763743     -834.46013469
  entropy T*S    EENTRO =        -0.02573143
  eigenvalues    EBANDS =      -614.23612228
  atomic energy  EATOM  =      3354.04126044
  ---------------------------------------------------
  free energy    TOTEN  =      -123.01598381 eV

  energy without entropy =     -122.99025238  energy(sigma->0) =     -123.00311809


--------------------------------------------------------------------------------------------------------




----------------------------------------- Iteration    1(  19)  ---------------------------------------


    POTLOK:  cpu time   14.72: real time   14.72
    SETDIJ:  cpu time    0.01: real time    0.01
     EDDAV:  cpu time   52.18: real time   52.21
       DOS:  cpu time    0.01: real time    0.01
    CHARGE:  cpu time    3.89: real time    3.90
    MIXING:  cpu time    0.01: real time    0.01
    --------------------------------------------
      LOOP:  cpu time   70.83: real time   70.88

 eigenvalue-minimisations  :  6616
 total energy-change (2. order) :-0.4522760E-04  (-0.1183430E-05)
 number of electron     107.9999995 magnetization 
 augmentation part       -9.3131581 magnetization 

 Broyden mixing:
  rms(total) = 0.82899E-04    rms(broyden)= 0.82897E-04
  rms(prec ) = 0.14673E-03
  weight for this iteration     100.00

 eigenvalues of (default mixing * dielectric matrix)
  average eigenvalue GAMMA=   1.8776
  6.7410  3.1905  2.6807  2.2396  1.8716  1.2041  1.2041  1.3219  1.3219  0.7006
  1.1887  0.8576  0.8576  0.9067

 Free energy of the ion-electron system (eV)
  ---------------------------------------------------
  alpha Z        PSCENC =        36.80884744
  Ewald energy   TEWEN  =     11927.23705817
  -Hartree energ DENC   =    -15067.64300484
  -exchange      EXHF   =         0.00000000
  -V(xc)+E(xc)   XCENC  =       -80.50842168
  PAW double counting   =      1155.68670854     -834.45916814
  entropy T*S    EENTRO =        -0.02572964
  eigenvalues    EBANDS =      -614.15357932
  atomic energy  EATOM  =      3354.04126044
  ---------------------------------------------------
  free energy    TOTEN  =      -123.01602904 eV

  energy without entropy =     -122.99029939  energy(sigma->0) =     -123.00316421


--------------------------------------------------------------------------------------------------------




----------------------------------------- Iteration    1(  20)  ---------------------------------------


    POTLOK:  cpu time   14.71: real time   14.72
    SETDIJ:  cpu time    0.01: real time    0.01
     EDDAV:  cpu time   54.53: real time   54.56
       DOS:  cpu time    0.01: real time    0.01
    CHARGE:  cpu time    3.93: real time    3.93
    MIXING:  cpu time    0.01: real time    0.02
    --------------------------------------------
      LOOP:  cpu time   73.21: real time   73.25

 eigenvalue-minimisations  :  7008
 total energy-change (2. order) :-0.2091143E-04  (-0.3095597E-05)
 number of electron     107.9999995 magnetization 
 augmentation part       -9.3131501 magnetization 

 Broyden mixing:
  rms(total) = 0.58247E-04    rms(broyden)= 0.58243E-04
  rms(prec ) = 0.94548E-04
  weight for this iteration     100.00

 eigenvalues of (default mixing * dielectric matrix)
  average eigenvalue GAMMA=   1.9733
  6.9108  4.0967  2.8366  2.4827  1.8782  1.8782  1.4055  1.4055  1.1824  1.1824
  0.7006  0.8573  0.8573  0.9264  0.9986

 Free energy of the ion-electron system (eV)
  ---------------------------------------------------
  alpha Z        PSCENC =        36.80884744
  Ewald energy   TEWEN  =     11927.23705817
  -Hartree energ DENC   =    -15067.68948077
  -exchange      EXHF   =         0.00000000
  -V(xc)+E(xc)   XCENC  =       -80.50848010
  PAW double counting   =      1155.68479938     -834.45723240
  entropy T*S    EENTRO =        -0.02572923
  eigenvalues    EBANDS =      -614.10709288
  atomic energy  EATOM  =      3354.04126044
  ---------------------------------------------------
  free energy    TOTEN  =      -123.01604995 eV

  energy without entropy =     -122.99032071  energy(sigma->0) =     -123.00318533


--------------------------------------------------------------------------------------------------------




----------------------------------------- Iteration    1(  21)  ---------------------------------------


    POTLOK:  cpu time   14.72: real time   14.73
    SETDIJ:  cpu time    0.01: real time    0.01
     EDDAV:  cpu time   51.51: real time   51.54
       DOS:  cpu time    0.01: real time    0.01
    CHARGE:  cpu time    3.91: real time    3.91
    MIXING:  cpu time    0.02: real time    0.02
    --------------------------------------------
      LOOP:  cpu time   70.18: real time   70.21

 eigenvalue-minimisations  :  6408
 total energy-change (2. order) : 0.5050168E-04  (-0.1801943E-05)
 number of electron     107.9999995 magnetization 
 augmentation part       -9.3131563 magnetization 

 Broyden mixing:
  rms(total) = 0.29723E-04    rms(broyden)= 0.29721E-04
  rms(prec ) = 0.43395E-04
  weight for this iteration     100.00

 eigenvalues of (default mixing * dielectric matrix)
  average eigenvalue GAMMA=   2.0557
  7.4396  5.2996  2.9050  2.6165  2.1085  1.7367  1.4013  1.4013  1.1905  1.1905
  1.2586  0.7006  0.8578  0.8578  0.9157  1.0119

 Free energy of the ion-electron system (eV)
  ---------------------------------------------------
  alpha Z        PSCENC =        36.80884744
  Ewald energy   TEWEN  =     11927.23705817
  -Hartree energ DENC   =    -15067.70624141
  -exchange      EXHF   =         0.00000000
  -V(xc)+E(xc)   XCENC  =       -80.50861182
  PAW double counting   =      1155.68153650     -834.45390429
  entropy T*S    EENTRO =        -0.02572932
  eigenvalues    EBANDS =      -614.09021516
  atomic energy  EATOM  =      3354.04126044
  ---------------------------------------------------
  free energy    TOTEN  =      -123.01599944 eV

  energy without entropy =     -122.99027012  energy(sigma->0) =     -123.00313478


--------------------------------------------------------------------------------------------------------




----------------------------------------- Iteration    1(  22)  ---------------------------------------


    POTLOK:  cpu time   14.70: real time   14.72
    SETDIJ:  cpu time    0.01: real time    0.01
     EDDAV:  cpu time   50.94: real time   50.97
       DOS:  cpu time    0.01: real time    0.01
    CHARGE:  cpu time    3.93: real time    3.93
    MIXING:  cpu time    0.02: real time    0.02
    --------------------------------------------
      LOOP:  cpu time   69.61: real time   69.65

 eigenvalue-minimisations  :  6256
 total energy-change (2. order) : 0.5132117E-04  (-0.5280129E-06)
 number of electron     107.9999995 magnetization 
 augmentation part       -9.3131526 magnetization 

 Broyden mixing:
  rms(total) = 0.18277E-04    rms(broyden)= 0.18275E-04
  rms(prec ) = 0.23561E-04
  weight for this iteration     100.00

 eigenvalues of (default mixing * dielectric matrix)
  average eigenvalue GAMMA=   2.0986
  7.7339  6.1100  3.0381  2.6808  2.1487  1.6117  1.6117  1.5482  1.1896  1.1896
  1.2584  1.2584  0.7006  0.8569  0.8569  0.9126  0.9708

 Free energy of the ion-electron system (eV)
  ---------------------------------------------------
  alpha Z        PSCENC =        36.80884744
  Ewald energy   TEWEN  =     11927.23705817
  -Hartree energ DENC   =    -15067.72381726
  -exchange      EXHF   =         0.00000000
  -V(xc)+E(xc)   XCENC  =       -80.50855834
  PAW double counting   =      1155.68196531     -834.45435693
  entropy T*S    EENTRO =        -0.02572906
  eigenvalues    EBANDS =      -614.07261790
  atomic energy  EATOM  =      3354.04126044
  ---------------------------------------------------
  free energy    TOTEN  =      -123.01594812 eV

  energy without entropy =     -122.99021907  energy(sigma->0) =     -123.00308360


--------------------------------------------------------------------------------------------------------




----------------------------------------- Iteration    1(  23)  ---------------------------------------


    POTLOK:  cpu time   14.70: real time   14.72
    SETDIJ:  cpu time    0.01: real time    0.01
     EDDAV:  cpu time   50.25: real time   50.28
       DOS:  cpu time    0.01: real time    0.01
    CHARGE:  cpu time    3.92: real time    3.92
    MIXING:  cpu time    0.02: real time    0.02
    --------------------------------------------
      LOOP:  cpu time   68.92: real time   68.98

 eigenvalue-minimisations  :  6152
 total energy-change (2. order) : 0.1438949E-04  (-0.5892639E-06)
 number of electron     107.9999995 magnetization 
 augmentation part       -9.3131530 magnetization 

 Broyden mixing:
  rms(total) = 0.92840E-05    rms(broyden)= 0.92818E-05
  rms(prec ) = 0.11433E-04
  weight for this iteration     100.00

 eigenvalues of (default mixing * dielectric matrix)
  average eigenvalue GAMMA=   2.1701
  8.6763  6.6901  3.2380  2.7305  2.3604  1.9810  1.4920  1.3610  1.3610  0.7006
  1.2142  1.2142  1.2280  1.2280  0.8576  0.8576  0.9351  0.9351

 Free energy of the ion-electron system (eV)
  ---------------------------------------------------
  alpha Z        PSCENC =        36.80884744
  Ewald energy   TEWEN  =     11927.23705817
  -Hartree energ DENC   =    -15067.72034005
  -exchange      EXHF   =         0.00000000
  -V(xc)+E(xc)   XCENC  =       -80.50858977
  PAW double counting   =      1155.68188916     -834.45427914
  entropy T*S    EENTRO =        -0.02572905
  eigenvalues    EBANDS =      -614.07605093
  atomic energy  EATOM  =      3354.04126044
  ---------------------------------------------------
  free energy    TOTEN  =      -123.01593373 eV

  energy without entropy =     -122.99020468  energy(sigma->0) =     -123.00306921


[...]
     31      -4.0869      2.00000
     32      -3.9899      2.00000
     33      -3.7451      2.00000
     34      -3.6091      2.00000
     35      -3.3917      2.00000
     36      -3.2558      2.00000
     37      -3.2099      2.00000
     38      -3.0601      2.00000
     39      -2.9276      2.00000
     40      -2.6797      2.00000
     41      -2.5651      2.00000
     42      -2.5397      2.00000
     43      -2.4944      2.00000
     44      -2.3327      2.00000
     45      -2.0101      2.00000
     46      -1.9158      2.00000
     47      -1.7697      2.00000
     48      -1.4133      2.00000
     49      -1.3599      2.00000
     50      -1.2017      2.00000
     51      -1.0309      2.00000
     52      -0.6108      2.00000
     53      -0.1573      2.00000
     54      -0.0170      1.99819
     55       0.4323      0.00122
     56       0.8349      0.00000
     57       1.1843      0.00000
     58       1.4378      0.00000
     59       1.5117      0.00000
     60       1.6612      0.00000
     61       2.0189      0.00000
     62       2.2230      0.00000
     63       2.4868      0.00000
     64       2.6034      0.00000
     65       2.7137      0.00000
     66       2.8729      0.00000
     67       3.0507      0.00000
     68       3.1263      0.00000

 k-point    52 :       0.3077    0.5000    0.5000
  band No.  band energies     occupation 
      1     -14.3024      2.00000
      2     -12.5032      2.00000
      3     -12.1650      2.00000
      4     -12.1083      2.00000
      5     -11.6350      2.00000
      6     -11.5548      2.00000
      7     -11.3008      2.00000
      8     -11.0119      2.00000
      9     -10.8056      2.00000
     10     -10.7719      2.00000
     11     -10.3913      2.00000
     12      -9.7106      2.00000
     13      -8.9185      2.00000
     14      -8.6406      2.00000
     15      -7.9520      2.00000
     16      -7.7666      2.00000
     17      -7.5011      2.00000
     18      -7.0627      2.00000
     19      -6.9586      2.00000
     20      -6.7251      2.00000
     21      -6.3538      2.00000
     22      -6.1952      2.00000
     23      -6.1351      2.00000
     24      -5.9144      2.00000
     25      -5.3581      2.00000
     26      -5.1358      2.00000
     27      -4.8990      2.00000
     28      -4.8301      2.00000
     29      -4.5318      2.00000
     30      -4.4460      2.00000
     31      -4.3271      2.00000
     32      -4.2595      2.00000
     33      -4.0826      2.00000
     34      -3.6253      2.00000
     35      -3.4862      2.00000
     36      -3.2629      2.00000
     37      -3.1545      2.00000
     38      -3.0660      2.00000
     39      -2.9603      2.00000
     40      -2.8929      2.00000
     41      -2.6912      2.00000
     42      -2.5618      2.00000
     43      -2.4427      2.00000
     44      -2.3531      2.00000
     45      -2.2144      2.00000
     46      -1.9543      2.00000
     47      -1.8870      2.00000
     48      -1.7492      2.00000
     49      -1.6272      2.00000
     50      -1.3524      2.00000
     51      -1.2797      2.00000
     52      -0.9426      2.00000
     53      -0.6493      2.00000
     54      -0.3448      2.00000
     55       0.1710      1.35482
     56       0.5180      0.00001
     57       1.0395      0.00000
     58       1.2680      0.00000
     59       1.3787      0.00000
     60       1.5101      0.00000
     61       1.8685      0.00000
     62       2.1675      0.00000
     63       2.2834      0.00000
     64       2.3547      0.00000
     65       2.4619      0.00000
     66       2.5556      0.00000
     67       2.8251      0.00000
     68       2.9706      0.00000

 k-point    53 :       0.3846    0.5000    0.5000
  band No.  band energies     occupation 
      1     -13.9679      2.00000
      2     -12.0273      2.00000
      3     -11.8455      2.00000
      4     -11.6679      2.00000
      5     -11.2753      2.00000
      6     -11.2366      2.00000
      7     -10.9470      2.00000
      8     -10.7665      2.00000
      9     -10.6153      2.00000
     10     -10.5968      2.00000
     11     -10.4578      2.00000
     12      -9.7099      2.00000
     13      -8.9217      2.00000
     14      -8.9014      2.00000
     15      -8.2434      2.00000
     16      -7.9879      2.00000
     17      -7.7293      2.00000
     18      -7.6118      2.00000
     19      -7.3742      2.00000
     20      -7.1780      2.00000
     21      -6.8897      2.00000
     22      -6.7181      2.00000
     23      -6.6535      2.00000
     24      -6.5364      2.00000
     25      -5.3008      2.00000
     26      -5.2185      2.00000
     27      -4.7767      2.00000
     28      -4.6718      2.00000
     29      -4.5499      2.00000
     30      -4.4200      2.00000
     31      -4.1604      2.00000
     32      -4.1227      2.00000
     33      -4.0358      2.00000
     34      -3.6795      2.00000
     35      -3.5722      2.00000
     36      -3.5315      2.00000
     37      -3.2184      2.00000
     38      -3.1841      2.00000
     39      -3.1289      2.00000
     40      -2.9934      2.00000
     41      -2.8681      2.00000
     42      -2.7186      2.00000
     43      -2.4756      2.00000
     44      -2.3505      2.00000
     45      -2.2857      2.00000
     46      -2.1019      2.00000
     47      -2.0531      2.00000
     48      -1.8696      2.00000
     49      -1.7791      2.00000
     50      -1.5740      2.00000
     51      -1.4032      2.00000
     52      -1.1149      2.00000
     53      -0.9831      2.00000
     54      -0.5513      2.00000
     55       0.0176      1.99146
     56       0.3102      0.13161
     57       0.8829      0.00000
     58       1.2539      0.00000
     59       1.5084      0.00000
     60       1.5548      0.00000
     61       1.7513      0.00000
     62       1.8509      0.00000
     63       2.0868      0.00000
     64       2.1411      0.00000
     65       2.2225      0.00000
     66       2.3307      0.00000
     67       2.5835      0.00000
     68       2.7265      0.00000

 k-point    54 :       0.4615    0.5000    0.5000
  band No.  band energies     occupation 
      1     -13.7262      2.00000
      2     -11.7777      2.00000
      3     -11.4843      2.00000
      4     -11.1702      2.00000
      5     -10.9552      2.00000
      6     -10.9342      2.00000
      7     -10.8479      2.00000
      8     -10.7223      2.00000
      9     -10.6590      2.00000
     10     -10.6148      2.00000
     11     -10.6045      2.00000
     12      -9.7348      2.00000
     13      -9.0990      2.00000
     14      -8.6637      2.00000
     15      -8.4322      2.00000
     16      -8.1663      2.00000
     17      -8.1143      2.00000
     18      -7.7175      2.00000
     19      -7.5500      2.00000
     20      -7.4323      2.00000
     21      -7.3025      2.00000
     22      -7.2761      2.00000
     23      -7.1733      2.00000
     24      -6.8016      2.00000
     25      -5.0778      2.00000
     26      -4.9434      2.00000
     27      -4.6451      2.00000
     28      -4.4822      2.00000
     29      -4.4541      2.00000
     30      -4.2538      2.00000
     31      -4.0730      2.00000
     32      -4.0324      2.00000
     33      -3.9419      2.00000
     34      -3.7736      2.00000
     35      -3.7615      2.00000
     36      -3.6299      2.00000
     37      -3.5434      2.00000
     38      -3.4064      2.00000
     39      -3.2614      2.00000
     40      -3.1364      2.00000
     41      -3.0198      2.00000
     42      -2.7113      2.00000
     43      -2.6044      2.00000
     44      -2.3856      2.00000
     45      -2.3548      2.00000
     46      -2.1763      2.00000
     47      -2.0900      2.00000
     48      -1.8883      2.00000
     49      -1.7646      2.00000
     50      -1.6520      2.00000
     51      -1.4919      2.00000
     52      -1.2014      2.00000
     53      -1.0622      2.00000
     54      -0.6258      2.00000
     55      -0.0592      1.99980
     56       0.2084      0.94551
     57       0.8059      0.00000
     58       1.3314      0.00000
     59       1.5262      0.00000
     60       1.5901      0.00000
     61       1.6661      0.00000
     62       1.7302      0.00000
     63       1.8909      0.00000
     64       1.9797      0.00000
     65       2.0612      0.00000
     66       2.3574      0.00000
     67       2.4687      0.00000
     68       2.5910      0.00000


--------------------------------------------------------------------------------------------------------


 soft charge-density along one line, spin component           1
         0         1         2         3         4         5         6         7         8         9
 total charge-density along one line
 
 pseudopotential strength for first ion, spin component:           1
 29.768   0.008  -0.000  -0.024   0.000  -0.000  -0.001  -0.000
  0.008   0.009  -0.000  -0.000  -0.000   0.000   0.000   0.000
 -0.000  -0.000   6.547  -0.001  -0.000  -0.003   0.000   0.000
 -0.024  -0.000  -0.001   6.541  -0.000   0.000  -0.002   0.000
  0.000  -0.000  -0.000  -0.000   6.548   0.000   0.000  -0.003
 -0.000   0.000  -0.003   0.000   0.000   0.015  -0.000  -0.000
 -0.001   0.000   0.000  -0.002   0.000  -0.000   0.015  -0.000
 -0.000   0.000   0.000   0.000  -0.003  -0.000  -0.000   0.015
 total augmentation occupancy for first ion, spin component:           1
  1.819  -0.345   0.007   0.258  -0.000   0.005   0.113   0.000
 -0.345   1.316   0.026   0.868   0.000   0.003  -0.433   0.000
  0.007   0.026   1.139   0.012  -0.000  -0.504   0.015   0.000
  0.258   0.868   0.012   1.290  -0.000   0.015  -0.419   0.000
 -0.000   0.000  -0.000  -0.000   1.142   0.000   0.000  -0.527
  0.005   0.003  -0.504   0.015   0.000   0.293  -0.016  -0.000
  0.113  -0.433   0.015  -0.419   0.000  -0.016   0.228  -0.000
  0.000   0.000   0.000   0.000  -0.527  -0.000  -0.000   0.326


------------------------ aborting loop because EDIFF is reached ----------------------------------------


    CHARGE:  cpu time    3.88: real time    3.89
    FORLOC:  cpu time    0.05: real time    0.05
    FORNL :  cpu time   17.79: real time   17.80
    STRESS:  cpu time   54.94: real time   54.97
    FORCOR:  cpu time   14.75: real time   14.76
    FORHAR:  cpu time    0.13: real time    0.13
    MIXING:  cpu time    0.01: real time    0.01
    OFIELD:  cpu time    0.00: real time    0.00

  FORCE on cell =-STRESS in cart. coord.  units (eV):
  Direction    XX          YY          ZZ          XY          YZ          ZX
  --------------------------------------------------------------------------------------
  Alpha Z    36.80885    36.80885    36.80885
  Ewald   14372.02558 13970.16431-16414.96022     1.42258   -32.76554     4.33521
  Hartree 14901.69414 14594.46245-14428.43511     0.36139    -3.81316     2.93785
  E(xc)    -356.70948  -356.57086  -354.88489    -0.05798    -0.03100     0.18719
  Local  -30822.71252-30121.45523 29261.99435    -1.87189    32.84780    -4.93567
  n-local  1149.48679  1154.95869  1142.14094     0.50672    -5.85597    -4.13666
  augment  -201.46223  -202.62720  -204.01340    -0.08159    -0.24910     0.23534
  Kinetic   926.87019   929.66141   970.81378     1.72445    12.41230     1.89895
  Fock        0.00000     0.00000     0.00000     0.00000     0.00000     0.00000
  -------------------------------------------------------------------------------------
  Total       6.00132     5.40241     9.46430     2.00369     2.54533     0.52221
  in kB       9.59292     8.63558    15.12839     3.20284     4.06863     0.83474
  external pressure =       11.12 kB  Pullay stress =        0.00 kB


 VOLUME and BASIS-vectors are now :
 -----------------------------------------------------------------------------
  energy-cutoff  :      300.00
  volume of cell :     1002.32
      direct lattice vectors                 reciprocal lattice vectors
     3.540400000  0.000000000  0.000000000     0.282453960  0.048570342  0.000000000
    -1.770200000 10.294348000  0.000000000     0.000000000  0.097140683  0.000000000
     0.000000000  0.000000000 27.501429000     0.000000000  0.000000000  0.036361747

  length of vectors
     3.540400000 10.445439617 27.501429000     0.286599577  0.097140683  0.036361747


 FORCES acting on ions
    electron-ion (+dipol)            ewald-force                    non-local-force                 convergence-correction
 -----------------------------------------------------------------------------------------------
   -.379E-01 0.446E+01 0.291E+02   -.457E-02 -.434E+01 -.243E+02   0.243E-01 -.173E+00 -.477E+01   0.351E-06 0.190E-05 -.780E-05
   -.867E-01 -.142E+02 -.566E+03   0.231E+00 0.146E+02 0.570E+03   -.209E-01 -.801E-01 -.364E+01   0.116E-05 -.238E-04 -.574E-05
   -.149E-01 0.647E+02 0.509E+02   0.580E-02 -.661E+02 -.468E+02   0.755E-02 0.146E+01 -.404E+01   -.303E-07 0.591E-05 0.422E-05
   -.108E+01 0.484E+02 -.558E+03   0.949E+00 -.498E+02 0.562E+03   0.579E+00 0.153E+01 -.330E+01   -.501E-05 0.262E-05 0.208E-04
   0.202E-02 -.570E+02 0.526E+03   0.922E-04 0.586E+02 -.530E+03   -.147E-02 -.154E+01 0.429E+01   -.955E-07 -.239E-04 0.455E-05
   0.444E+00 -.559E+02 -.758E+02   0.292E+00 0.579E+02 0.729E+02   -.335E+00 -.251E+01 0.459E+01   -.615E-06 -.198E-05 0.383E-05
   -.493E-02 0.539E+02 0.526E+03   0.490E-05 -.558E+02 -.531E+03   0.718E-03 0.189E+01 0.417E+01   0.503E-09 0.199E-04 0.168E-04
   0.115E+02 0.731E+02 -.178E+02   -.117E+02 -.740E+02 0.160E+02   -.139E+01 0.154E+01 -.314E+01   0.769E-05 -.488E-05 0.147E-04
   0.685E-03 0.158E+01 0.572E+03   -.850E-04 -.179E+01 -.577E+03   0.901E-03 0.205E+00 0.478E+01   0.361E-08 0.413E-06 -.759E-05
   -.412E+00 -.306E+02 -.229E+02   0.708E-01 0.311E+02 0.193E+02   0.432E-01 -.893E+00 0.315E+01   -.358E-05 0.953E-05 -.159E-04
   0.517E-02 -.637E+02 0.566E+02   -.719E-03 0.656E+02 -.525E+02   -.333E-02 -.190E+01 -.401E+01   -.106E-06 -.417E-05 -.756E-06
   -.101E+00 -.358E+02 -.506E+03   -.318E+00 0.376E+02 0.511E+03   -.130E+00 -.142E+01 -.492E+01   0.137E-05 0.104E-04 0.397E-05
   0.755E-02 0.315E+02 0.209E+03   -.370E-03 -.336E+02 -.210E+03   -.457E-02 0.215E+01 0.406E+00   0.503E-08 0.555E-05 0.113E-04
   0.105E+02 0.169E+02 -.317E+03   -.778E+01 -.169E+02 0.315E+03   -.526E+01 -.264E-01 0.762E+01   0.229E-05 -.906E-06 0.360E-05
   -.481E-03 -.131E+02 0.138E+03   -.302E-05 0.133E+02 -.140E+03   -.176E-02 -.262E+00 0.255E+01   0.568E-07 -.101E-04 0.140E-07
   -.175E+01 -.140E+02 -.303E+03   0.175E+01 0.143E+02 0.303E+03   -.380E-01 0.268E-02 -.190E+01   -.902E-06 0.978E-05 0.114E-05
   0.352E-03 -.538E+01 0.345E+03   0.720E-04 0.586E+01 -.343E+03   -.351E-03 -.474E+00 -.253E+01   -.206E-07 -.125E-04 -.792E-05
   -.605E+00 -.366E+02 -.143E+03   0.495E+00 0.379E+02 0.142E+03   -.592E+00 -.116E+01 0.953E+00   0.259E-06 -.928E-06 -.369E-06
   -.281E-02 0.949E+01 0.335E+03   0.119E-04 -.976E+01 -.333E+03   -.239E-02 0.241E+00 -.260E+01   -.140E-07 0.128E-04 0.205E-05
   -.143E+02 -.297E+01 -.119E+03   0.118E+02 0.278E+01 0.122E+03   0.518E+01 0.270E+01 -.688E+01   -.542E-05 -.127E-04 0.110E-04
   0.466E-01 0.102E+02 0.128E+03   0.116E-02 -.104E+02 -.130E+03   -.429E-01 0.286E+00 0.250E+01   -.621E-07 0.332E-05 0.147E-05
   0.126E+01 -.157E+02 -.334E+03   -.659E+00 0.159E+02 0.333E+03   0.565E-01 0.324E+00 0.755E+00   -.295E-06 -.186E-04 0.533E-05
   -.101E-02 -.309E+02 0.254E+03   -.148E-03 0.330E+02 -.253E+03   0.220E-02 -.211E+01 -.368E+00   0.104E-07 -.251E-05 0.939E-05
   -.160E+01 0.685E+02 -.205E+03   0.486E+01 -.656E+02 0.204E+03   -.193E+01 -.653E+01 0.343E+01   0.675E-06 0.172E-04 -.288E-05
 -----------------------------------------------------------------------------------------------
   0.387E+01 0.674E+01 0.288E+01   -.204E-13 0.426E-13 -.256E-12   -.386E+01 -.674E+01 -.288E+01   -.229E-05 -.178E-04 0.651E-04
 
 
 POSITION                                       TOTAL-FORCE (eV/Angst)
 -----------------------------------------------------------------------------------
      0.00000      2.34757      6.41229        -0.018384     -0.056862      0.019989
      0.35404      4.40644     14.16300         0.122968      0.386958      0.381687
     -0.00000      9.43147      5.75866        -0.001751     -0.005854      0.078881
      2.12424      1.19599     13.50937         0.451023      0.090581      0.918352
     -0.00000      6.40009      2.31424         0.000419      0.001659      0.006545
     -0.00000      6.40009     10.06495         0.401105     -0.592696      1.691197
      1.77020     10.27849      2.37372        -0.004425     -0.016512     -0.003568
      1.77020     10.27849     10.12443        -1.586556      0.568543     -4.951476
      1.77020      3.18974      1.66157         0.001279     -0.000859      0.011284
      1.77020      3.18974      9.41228        -0.298597     -0.458809     -0.461945
      1.77020      5.55354      5.69975         0.000898      0.006653      0.093233
      2.12424      7.61241     13.45047        -0.549326      0.348549      0.137667
      1.77020      9.05319      4.34076         0.002391     -0.004910     -0.002013
      0.35404      0.81771     12.09147        -2.534230     -0.069121      5.593696
      0.00000      4.22380      5.10944        -0.002469     -0.006113      0.061079
      0.35404      6.28267     12.86016        -0.038101      0.315982     -1.319793
     -0.00000      4.15582      2.74166        -0.000148      0.001073     -0.016068
     -0.00000      4.15582     10.49237        -0.702241      0.144363      0.403414
      1.77020      1.31366      2.96438        -0.005407     -0.024006      0.011398
      1.77020      1.31366     10.71510         2.763779      2.502443     -4.349835
      1.77020      1.38163      5.33187         0.004701      0.020304     -0.036914
      2.12424      3.44049     13.08259         0.657022      0.478002     -0.717309
      1.77020      6.77850      3.73234         0.000818      0.006839     -0.002437
     -1.41616      8.83737     11.48306         1.335233     -3.636208      2.452937
 -----------------------------------------------------------------------------------
    total drift:                                0.005315      0.000362      0.003752


--------------------------------------------------------------------------------------------------------



  FREE ENERGIE OF THE ION-ELECTRON SYSTEM (eV)
  ---------------------------------------------------
  free  energy   TOTEN  =      -123.01591714 eV

  energy  without entropy=     -122.99018828  energy(sigma->0) =     -123.00305271
 


--------------------------------------------------------------------------------------------------------


    POTLOK:  cpu time   14.72: real time   14.72


--------------------------------------------------------------------------------------------------------


     LOOP+:  cpu time 2025.61: real time 2026.88
    4ORBIT:  cpu time    0.00: real time    0.00

 total amount of memory used by VASP on root node   146493. kBytes
========================================================================

   base      :      30000. kBytes
   nonlr-proj:       3452. kBytes
   fftplans  :       9347. kBytes
   grid      :      14649. kBytes
   one-center:         36. kBytes
   wavefun   :      89009. kBytes
 
  
  
 General timing and accounting informations for this job:
 ========================================================
  
                  Total CPU time used (sec):     2040.386
                            User time (sec):     2017.459
                          System time (sec):       22.927
                         Elapsed time (sec):     2042.722
  
                   Maximum memory used (kb):      334796.
                   Average memory used (kb):           0.
  
                          Minor page faults:      7471305
                          Major page faults:           17
                 Voluntary context switches:         1760
