<?xml version="1.0" encoding="ISO-8859-1"?>
<modeling>
 <generator>
  <i name="program" type="string">vasp </i>
  <i name="version" type="string">5.3.5  </i>
  <i name="subversion" type="string">31Mar14 (build Oct 29 2014 16:16:03) complex                          parallel </i>
  <i name="platform" type="string">Linux-UFHPC </i>
  <i name="date" type="string">2016 02 09 </i>
  <i name="time" type="string">17:25:17 </i>
 </generator>
 <incar>
  <i type="string" name="PREC">accurate</i>
  <i type="int" name="IBRION">     2</i>
  <i name="EDIFF">      0.00000100</i>
  <i type="int" name="NSW">     0</i>
  <i type="int" name="ISIF">     3</i>
  <i name="ENCUT">    300.00000000</i>
  <i type="string" name="LREAL"> Auto</i>
  <i type="int" name="ISMEAR">     0</i>
  <i name="SIGMA">      0.10000000</i>
  <i type="logical" name="LWAVE"> F  </i>
  <i type="logical" name="LCHARG"> F  </i>
  <i type="logical" name="LAECHG"> F  </i>
  <i type="string" name="GGA"> Bo</i>
  <i name="PARAM1">      0.18333333</i>
  <i name="PARAM2">      0.22000000</i>
  <i type="logical" name="LUSE_VDW"> T  </i>
  <i name="AGGAC">      0.00000000</i>
 </incar>
 <kpoints>
  <generation param="Gamma">
   <v type="int" name="divisions">      13        4        2 </v>
   <v name="usershift">      0.00000000       0.00000000       0.00000000 </v>
   <v name="genvec1">      0.07692308      -0.00000000       0.00000000 </v>
   <v name="genvec2">      0.00000000       0.25000000       0.00000000 </v>
   <v name="genvec3">      0.00000000       0.00000000       0.50000000 </v>
   <v name="shift">      0.00000000       0.00000000       0.00000000 </v>
  </generation>
  <varray name="kpointlist" >
   <v>       0.00000000       0.00000000       0.00000000 </v>
   <v>       0.07692308      -0.00000000       0.00000000 </v>
   <v>       0.15384615      -0.00000000       0.00000000 </v>
   <v>       0.23076923      -0.00000000       0.00000000 </v>
   <v>       0.30769231      -0.00000000       0.00000000 </v>
   <v>       0.38461538      -0.00000000       0.00000000 </v>
   <v>       0.46153846      -0.00000000       0.00000000 </v>
   <v>       0.00000000       0.25000000       0.00000000 </v>
   <v>       0.07692308       0.25000000       0.00000000 </v>
   <v>       0.15384615       0.25000000       0.00000000 </v>
   <v>       0.23076923       0.25000000       0.00000000 </v>
   <v>       0.30769231       0.25000000       0.00000000 </v>
   <v>       0.38461538       0.25000000       0.00000000 </v>
   <v>       0.46153846       0.25000000       0.00000000 </v>
   <v>      -0.46153846       0.25000000       0.00000000 </v>
   <v>      -0.38461538       0.25000000       0.00000000 </v>
   <v>      -0.30769231       0.25000000       0.00000000 </v>
   <v>      -0.23076923       0.25000000       0.00000000 </v>
   <v>      -0.15384615       0.25000000       0.00000000 </v>
   <v>      -0.07692308       0.25000000       0.00000000 </v>
   <v>       0.00000000       0.50000000       0.00000000 </v>
   <v>       0.07692308       0.50000000       0.00000000 </v>
   <v>       0.15384615       0.50000000       0.00000000 </v>
   <v>       0.23076923       0.50000000       0.00000000 </v>
   <v>       0.30769231       0.50000000       0.00000000 </v>
   <v>       0.38461538       0.50000000       0.00000000 </v>
   <v>       0.46153846       0.50000000       0.00000000 </v>
   <v>       0.00000000       0.00000000       0.50000000 </v>
   <v>       0.07692308      -0.00000000       0.50000000 </v>
   <v>       0.15384615      -0.00000000       0.50000000 </v>
   <v>       0.23076923      -0.00000000       0.50000000 </v>
   <v>       0.30769231      -0.00000000       0.50000000 </v>
   <v>       0.38461538      -0.00000000       0.50000000 </v>
   <v>       0.46153846      -0.00000000       0.50000000 </v>
   <v>       0.00000000       0.25000000       0.50000000 </v>
   <v>       0.07692308       0.25000000       0.50000000 </v>
   <v>       0.15384615       0.25000000       0.50000000 </v>
   <v>       0.23076923       0.25000000       0.50000000 </v>
   <v>       0.30769231       0.25000000       0.50000000 </v>
   <v>       0.38461538       0.25000000       0.50000000 </v>
   <v>       0.46153846       0.25000000       0.50000000 </v>
   <v>      -0.46153846       0.25000000       0.50000000 </v>
   <v>      -0.38461538       0.25000000       0.50000000 </v>
   <v>      -0.30769231       0.25000000       0.50000000 </v>
   <v>      -0.23076923       0.25000000       0.50000000 </v>
   <v>      -0.15384615       0.25000000       0.50000000 </v>
   <v>      -0.07692308       0.25000000       0.50000000 </v>
   <v>       0.00000000       0.50000000       0.50000000 </v>
   <v>       0.07692308       0.50000000       0.50000000 </v>
   <v>       0.15384615       0.50000000       0.50000000 </v>
   <v>       0.23076923       0.50000000       0.50000000 </v>
   <v>       0.30769231       0.50000000       0.50000000 </v>
   <v>       0.38461538       0.50000000       0.50000000 </v>
   <v>       0.46153846       0.50000000       0.50000000 </v>
  </varray>
  <varray name="weights" >
   <v>       0.00961538 </v>
   <v>       0.01923077 </v>
   <v>       0.01923077 </v>
   <v>       0.01923077 </v>
   <v>       0.01923077 </v>
   <v>       0.01923077 </v>
   <v>       0.01923077 </v>
   <v>       0.01923077 </v>
   <v>       0.01923077 </v>
   <v>       0.01923077 </v>
   <v>       0.01923077 </v>
   <v>       0.01923077 </v>
   <v>       0.01923077 </v>
   <v>       0.01923077 </v>
   <v>       0.01923077 </v>
   <v>       0.01923077 </v>
   <v>       0.01923077 </v>
   <v>       0.01923077 </v>
   <v>       0.01923077 </v>
   <v>       0.01923077 </v>
   <v>       0.00961538 </v>
   <v>       0.01923077 </v>
   <v>       0.01923077 </v>
   <v>       0.01923077 </v>
   <v>       0.01923077 </v>
   <v>       0.01923077 </v>
   <v>       0.01923077 </v>
   <v>       0.00961538 </v>
   <v>       0.01923077 </v>
   <v>       0.01923077 </v>
   <v>       0.01923077 </v>
   <v>       0.01923077 </v>
   <v>       0.01923077 </v>
   <v>       0.01923077 </v>
   <v>       0.01923077 </v>
   <v>       0.01923077 </v>
   <v>       0.01923077 </v>
   <v>       0.01923077 </v>
   <v>       0.01923077 </v>
   <v>       0.01923077 </v>
   <v>       0.01923077 </v>
   <v>       0.01923077 </v>
   <v>       0.01923077 </v>
   <v>       0.01923077 </v>
   <v>       0.01923077 </v>
   <v>       0.01923077 </v>
   <v>       0.01923077 </v>
   <v>       0.00961538 </v>
   <v>       0.01923077 </v>
   <v>       0.01923077 </v>
   <v>       0.01923077 </v>
   <v>       0.01923077 </v>
   <v>       0.01923077 </v>
   <v>       0.01923077 </v>
  </varray>
 </kpoints>
 <parameters>
  <separator name="general" >
   <i type="string" name="SYSTEM">unknown system</i>
   <i type="logical" name="LCOMPAT"> F  </i>
  </separator>
  <separator name="electronic" >
   <i type="string" name="PREC">accura</i>
   <i name="ENMAX">    300.00000000</i>
   <i name="ENAUG">    342.92400000</i>
   <i name="EDIFF">      0.00000100</i>
   <i type="int" name="IALGO">    38</i>
   <i type="int" name="IWAVPR">    10</i>
   <i type="int" name="NBANDS">    68</i>
   <i name="NELECT">    108.00000000</i>
   <i type="int" name="TURBO">     0</i>
   <i type="int" name="IRESTART">     0</i>
   <i type="int" name="NREBOOT">     0</i>
   <i type="int" name="NMIN">     0</i>
   <i name="EREF">      0.00000000</i>
   <separator name="electronic smearing" >
    <i type="int" name="ISMEAR">     0</i>
    <i name="SIGMA">      0.10000000</i>
    <i name="KSPACING">      0.50000000</i>
    <i type="logical" name="KGAMMA"> T  </i>
   </separator>
   <separator name="electronic projectors" >
    <i type="logical" name="LREAL"> T  </i>
    <v name="ROPT">     -0.00025000     -0.00025000</v>
    <i type="int" name="LMAXPAW">  -100</i>
    <i type="int" name="LMAXMIX">     2</i>
    <i type="logical" name="NLSPLINE"> F  </i>
   </separator>
   <separator name="electronic startup" >
    <i type="int" name="ISTART">     0</i>
    <i type="int" name="ICHARG">     2</i>
    <i type="int" name="INIWAV">     1</i>
   </separator>
   <separator name="electronic spin" >
    <i type="int" name="ISPIN">     1</i>
    <i type="logical" name="LNONCOLLINEAR"> F  </i>
    <v name="MAGMOM">      1.00000000      1.00000000      1.00000000      1.00000000      1.00000000      1.00000000      1.00000000      1.00000000      1.00000000      1.00000000      1.00000000      1.00000000      1.00000000      1.00000000      1.00000000      1.00000000      1.00000000      1.00000000      1.00000000      1.00000000
      1.00000000      1.00000000      1.00000000      1.00000000</v>
    <i name="NUPDOWN">     -1.00000000</i>
    <i type="logical" name="LSORBIT"> F  </i>
    <v name="SAXIS">      0.00000000      0.00000000      1.00000000</v>
    <i type="logical" name="LSPIRAL"> F  </i>
    <v name="QSPIRAL">      0.00000000      0.00000000      0.00000000</v>
    <i type="logical" name="LZEROZ"> F  </i>
   </separator>
   <separator name="electronic exchange-correlation" >
    <i type="logical" name="LASPH"> F  </i>
    <i type="logical" name="LMETAGGA"> F  </i>
   </separator>
   <separator name="electronic convergence" >
    <i type="int" name="NELM">    60</i>
    <i type="int" name="NELMDL">    -5</i>
    <i type="int" name="NELMIN">     2</i>
    <i name="ENINI">    300.00000000</i>
    <separator name="electronic convergence detail" >
     <i type="logical" name="LDIAG"> T  </i>
     <i type="logical" name="LSUBROT"> F  </i>
     <i name="WEIMIN">      0.00000000</i>
     <i name="EBREAK">      0.00000000</i>
     <i name="DEPER">      0.30000000</i>
     <i type="int" name="NRMM">     4</i>
     <i name="TIME">      0.40000000</i>
    </separator>
   </separator>
   <separator name="electronic mixer" >
    <i name="AMIX">      0.40000000</i>
    <i name="BMIX">      1.00000000</i>
    <i name="AMIN">      0.10000000</i>
    <i name="AMIX_MAG">      1.60000000</i>
    <i name="BMIX_MAG">      1.00000000</i>
    <separator name="electronic mixer details" >
     <i type="int" name="IMIX">     4</i>
     <i type="int" name="MAXMIX">   -45</i>
     <i name="WC">    100.00000000</i>
     <i type="int" name="INIMIX">     1</i>
     <i type="int" name="MIXPRE">     1</i>
     <i type="int" name="MREMOVE">     5</i>
    </separator>
   </separator>
   <separator name="electronic dipolcorrection" >
    <i type="logical" name="LDIPOL"> F  </i>
    <i type="logical" name="LMONO"> F  </i>
    <i type="int" name="IDIPOL">     0</i>
    <i name="EPSILON">      1.00000000</i>
    <v name="DIPOL">   -100.00000000   -100.00000000   -100.00000000</v>
    <i name="EFIELD">      0.00000000</i>
   </separator>
  </separator>
  <separator name="grids" >
   <i type="int" name="NGX">    20</i>
   <i type="int" name="NGY">    60</i>
   <i type="int" name="NGZ">   160</i>
   <i type="int" name="NGXF">    40</i>
   <i type="int" name="NGYF">   120</i>
   <i type="int" name="NGZF">   320</i>
   <i type="logical" name="ADDGRID"> F  </i>
  </separator>
  <separator name="ionic" >
   <i type="int" name="NSW">     0</i>
   <i type="int" name="IBRION">    -1</i>
   <i type="int" name="ISIF">     3</i>
   <i name="PSTRESS">      0.00000000</i>
   <i name="EDIFFG">      0.00001000</i>
   <i type="int" name="NFREE">     1</i>
   <i name="POTIM">      0.50000000</i>
   <i name="SMASS">     -3.00000000</i>
   <i name="SCALEE">      1.00000000</i>
  </separator>
  <separator name="ionic md" >
   <i name="TEBEG">      0.00010000</i>
   <i name="TEEND">      0.00010000</i>
   <i type="int" name="NBLOCK">     1</i>
   <i type="int" name="KBLOCK">     1</i>
   <i type="int" name="NPACO">   256</i>
   <i name="APACO">     16.00000000</i>
  </separator>
  <separator name="symmetry" >
   <i type="int" name="ISYM">     2</i>
   <i name="SYMPREC">      0.00001000</i>
  </separator>
  <separator name="dos" >
   <i type="logical" name="LORBIT"> F  </i>
   <v name="RWIGS">     -1.00000000     -1.00000000</v>
   <i type="int" name="NEDOS">   301</i>
   <i name="EMIN">     10.00000000</i>
   <i name="EMAX">    -10.00000000</i>
   <i name="EFERMI">      0.00000000</i>
  </separator>
  <separator name="writing" >
   <i type="int" name="NWRITE">     2</i>
   <i type="logical" name="LWAVE"> F  </i>
   <i type="logical" name="LCHARG"> F  </i>
   <i type="logical" name="LPARD"> F  </i>
   <i type="logical" name="LVTOT"> F  </i>
   <i type="logical" name="LVHAR"> F  </i>
   <i type="logical" name="LELF"> F  </i>
   <i type="logical" name="LOPTICS"> F  </i>
   <v name="STM">      0.00000000      0.00000000      0.00000000      0.00000000      0.00000000      0.00000000      0.00000000</v>
  </separator>
  <separator name="performance" >
   <i type="int" name="NPAR">     4</i>
   <i type="int" name="NSIM">     4</i>
   <i type="int" name="NBLK">    -1</i>
   <i type="logical" name="LPLANE"> T  </i>
   <i type="logical" name="LSCALAPACK"> T  </i>
   <i type="logical" name="LSCAAWARE"> F  </i>
   <i type="logical" name="LSCALU"> F  </i>
   <i type="logical" name="LASYNC"> F  </i>
   <i type="logical" name="LORBITALREAL"> F  </i>
  </separator>
  <separator name="miscellaneous" >
   <i type="int" name="IDIOT">     3</i>
   <i type="logical" name="LMUSIC"> F  </i>
   <v name="POMASS">     30.97400000     28.08500000</v>
   <v name="DARWINR">      0.00000000      0.00000000</v>
   <v name="DARWINV">      1.00000000      1.00000000</v>
   <i type="logical" name="LCORR"> T  </i>
  </separator>
  <i type="logical" name="GGA_COMPAT"> T  </i>
  <i type="logical" name="LBERRY"> F  </i>
  <i type="int" name="ICORELEVEL">     0</i>
  <i type="logical" name="LDAU"> F  </i>
  <i type="int" name="I_CONSTRAINED_M">     0</i>
  <separator name="electronic exchange-correlation" >
   <i type="string" name="GGA">BO</i>
   <i type="int" name="VOSKOWN">     0</i>
   <i type="logical" name="LHFCALC"> F  </i>
   <i type="string" name="PRECFOCK"></i>
   <i type="logical" name="LSYMGRAD"> F  </i>
   <i type="logical" name="LHFONE"> F  </i>
   <i type="logical" name="LRHFCALC"> F  </i>
   <i type="logical" name="LTHOMAS"> F  </i>
   <i type="logical" name="LMODELHF"> F  </i>
   <i name="ENCUT4O">     -1.00000000</i>
   <i type="int" name="EXXOEP">     0</i>
   <i type="int" name="FOURORBIT">     0</i>
   <i name="AEXX">      0.00000000</i>
   <i name="HFALPHA">      0.00000000</i>
   <i name="MCALPHA">      0.00000000</i>
   <i name="ALDAX">      1.00000000</i>
   <i name="AGGAX">      1.00000000</i>
   <i name="ALDAC">      1.00000000</i>
   <i name="AGGAC">      0.00000000</i>
   <i type="int" name="NKREDX">     1</i>
   <i type="int" name="NKREDY">     1</i>
   <i type="int" name="NKREDZ">     1</i>
   <i type="logical" name="SHIFTRED"> F  </i>
   <i type="logical" name="ODDONLY"> F  </i>
   <i type="logical" name="EVENONLY"> F  </i>
   <i type="int" name="LMAXFOCK">     0</i>
   <i type="int" name="NMAXFOCKAE">     0</i>
   <i type="logical" name="LFOCKAEDFT"> F  </i>
   <i name="HFSCREEN">      0.00000000</i>
   <i name="HFSCREENC">      0.00000000</i>
   <i type="int" name="NBANDSGWLOW">     0</i>
  </separator>
  <separator name="vdW DFT" >
   <i type="logical" name="LUSE_VDW"> T  </i>
   <i name="Zab_VDW">     -0.84910000</i>
   <i name="PARAM1">      0.18333333</i>
   <i name="PARAM2">      0.22000000</i>
   <i name="PARAM3">      0.00000000</i>
  </separator>
  <separator name="model GW" >
   <i type="int" name="MODEL_GW">     0</i>
   <i name="MODEL_EPS0">     25.05800243</i>
   <i name="MODEL_ALPHA">      1.00000000</i>
  </separator>
  <separator name="linear response parameters" >
   <i type="logical" name="LEPSILON"> F  </i>
   <i type="logical" name="LRPA"> F  </i>
   <i type="logical" name="LNABLA"> F  </i>
   <i type="logical" name="LVEL"> F  </i>
   <i type="int" name="KINTER">     0</i>
   <i name="CSHIFT">      0.10000000</i>
   <i name="OMEGAMAX">     -1.00000000</i>
   <i name="DEG_THRESHOLD">      0.00200000</i>
  </separator>
  <separator name="orbital magnetization" >
   <i type="logical" name="NUCIND"> F  </i>
   <v name="MAGPOS">      0.00000000      0.00000000      0.00000000</v>
   <i type="logical" name="LNICSALL"> T  </i>
   <i type="logical" name="ORBITALMAG"> F  </i>
   <i type="logical" name="LMAGBLOCH"> F  </i>
   <i type="logical" name="LCHIMAG"> F  </i>
   <i type="logical" name="LGAUGE"> T  </i>
   <i type="int" name="MAGATOM">     0</i>
   <v name="MAGDIPOL">      0.00000000      0.00000000      0.00000000</v>
   <v name="AVECCONST">      0.00000000      0.00000000      0.00000000</v>
  </separator>
  <separator name="response functions" >
   <i type="logical" name="LADDER"> F  </i>
   <i type="logical" name="LFXC"> F  </i>
   <i type="logical" name="LHARTREE"> T  </i>
   <i type="int" name="IBSE">     0</i>
   <i type="logical" name="LTCTE"> F  </i>
   <i type="logical" name="LTETE"> F  </i>
   <i type="logical" name="LTRIPLET"> F  </i>
   <i type="logical" name="LFXCEPS"> F  </i>
   <i type="logical" name="LFXHEG"> F  </i>
   <i type="logical" name="L2ORDER"> F  </i>
   <i type="logical" name="LUSEW"> F  </i>
   <i name="ENCUTGW">     -2.00000000</i>
   <i name="ENCUTGWSOFT">     -2.00000000</i>
   <i name="ENCUTLF">     -1.00000000</i>
   <i type="int" name="LMAXMP2">    -1</i>
   <i name="SCISSOR">      0.00000000</i>
   <i type="int" name="NOMEGA">     0</i>
   <i type="int" name="NOMEGAR">     0</i>
   <i type="int" name="NBANDSGW">    -1</i>
   <i type="int" name="NBANDSO">    -1</i>
   <i type="int" name="NBANDSV">    -1</i>
   <i type="int" name="NELM">     1</i>
   <i type="int" name="DIM">     3</i>
   <i type="int" name="ANTIRES">     0</i>
   <i name="OMEGAMAX">    -30.00000000</i>
   <i name="OMEGAMIN">    -30.00000000</i>
   <i name="OMEGATL">   -200.00000000</i>
   <i type="int" name="OMEGAGRID">     0</i>
   <i name="CSHIFT">     -0.10000000</i>
   <i type="logical" name="SELFENERGY"> F  </i>
   <i type="logical" name="LSPECTRAL"> F  </i>
   <i type="logical" name="ODDONLYGW"> F  </i>
   <i type="logical" name="EVENONLYGW"> F  </i>
   <i type="int" name="NKREDLFX">     1</i>
   <i type="int" name="NKREDLFY">     1</i>
   <i type="int" name="NKREDLFZ">     1</i>
   <i type="int" name="MAXMEM">  1800</i>
   <i type="int" name="TELESCOPE">     0</i>
   <i type="int" name="TAUPAR">     1</i>
  </separator>
  <separator name="External order field" >
   <i name="OFIELD_KAPPA">      0.00000000</i>
   <v name="OFIELD_K">      0.00000000      0.00000000      0.00000000</v>
   <i name="OFIELD_Q6_NEAR">      0.00000000</i>
   <i name="OFIELD_Q6_FAR">      0.00000000</i>
   <i name="OFIELD_A">      0.00000000</i>
  </separator>
 </parameters>
 <atominfo>
  <atoms>      24 </atoms>
  <types>       2 </types>
  <array name="atoms" >
   <dimension dim="1">ion</dimension>
   <field type="string">element</field>
   <field type="int">atomtype</field>
   <set>
    <rc><c>P </c><c>   1</c></rc>
    <rc><c>P </c><c>   1</c></rc>
    <rc><c>P </c><c>   1</c></rc>
    <rc><c>P </c><c>   1</c></rc>
    <rc><c>P </c><c>   1</c></rc>
    <rc><c>P </c><c>   1</c></rc>
    <rc><c>P </c><c>   1</c></rc>
    <rc><c>P </c><c>   1</c></rc>
    <rc><c>P </c><c>   1</c></rc>
    <rc><c>P </c><c>   1</c></rc>
    <rc><c>P </c><c>   1</c></rc>
    <rc><c>P </c><c>   1</c></rc>
    <rc><c>Si</c><c>   2</c></rc>
    <rc><c>Si</c><c>   2</c></rc>
    <rc><c>Si</c><c>   2</c></rc>
    <rc><c>Si</c><c>   2</c></rc>
    <rc><c>Si</c><c>   2</c></rc>
    <rc><c>Si</c><c>   2</c></rc>
    <rc><c>Si</c><c>   2</c></rc>
    <rc><c>Si</c><c>   2</c></rc>
    <rc><c>Si</c><c>   2</c></rc>
    <rc><c>Si</c><c>   2</c></rc>
    <rc><c>Si</c><c>   2</c></rc>
    <rc><c>Si</c><c>   2</c></rc>
   </set>
  </array>
  <array name="atomtypes" >
   <dimension dim="1">type</dimension>
   <field type="int">atomspertype</field>
   <field type="string">element</field>
   <field>mass</field>
   <field>valence</field>
   <field type="string">pseudopotential</field>
   <set>
    <rc><c>  12</c><c>P </c><c>     30.97400000</c><c>      5.00000000</c><c>  PAW_PBE P 17Jan2003                   </c></rc>
    <rc><c>  12</c><c>Si</c><c>     28.08500000</c><c>      4.00000000</c><c> PAW_PBE Si 05Jan2001                   </c></rc>
   </set>
  </array>
 </atominfo>
 <structure name="initialpos" >
  <crystal>
   <varray name="basis" >
    <v>       3.54040000       0.00000000       0.00000000 </v>
    <v>      -1.77020000      10.29434800       0.00000000 </v>
    <v>       0.00000000       0.00000000      27.50142900 </v>
   </varray>
   <i name="volume">   1002.32009712 </i>
   <varray name="rec_basis" >
    <v>       0.28245396       0.04857034       0.00000000 </v>
    <v>       0.00000000       0.09714068       0.00000000 </v>
    <v>       0.00000000       0.00000000       0.03636175 </v>
   </varray>
  </crystal>
  <varray name="positions" >
   <v>       0.11402300       0.22804500       0.23316207 </v>
   <v>       0.11402300       0.42804500       0.51499159 </v>
   <v>       0.45808900       0.91617900       0.20939482 </v>
   <v>       0.45808900       0.11617900       0.49122434 </v>
   <v>       0.31085400       0.62170900       0.08414979 </v>
   <v>       0.31085400       0.62170900       0.36597930 </v>
   <v>       0.99923000       0.99846000       0.08631254 </v>
   <v>       0.99923000       0.99846000       0.36814206 </v>
   <v>       0.65492700       0.30985400       0.06041748 </v>
   <v>       0.65492700       0.30985400       0.34224700 </v>
   <v>       0.76973800       0.53947500       0.20725292 </v>
   <v>       0.76973800       0.73947500       0.48908244 </v>
   <v>       0.93971600       0.87943300       0.15783749 </v>
   <v>       0.93971600       0.07943300       0.43966701 </v>
   <v>       0.20515200       0.41030300       0.18578822 </v>
   <v>       0.20515200       0.61030300       0.46761774 </v>
   <v>       0.20184900       0.40369900       0.09969156 </v>
   <v>       0.20184900       0.40369900       0.38152107 </v>
   <v>       0.56380500       0.12761000       0.10779021 </v>
   <v>       0.56380500       0.12761000       0.38961973 </v>
   <v>       0.56710600       0.13421200       0.19387616 </v>
   <v>       0.56710600       0.33421200       0.47570568 </v>
   <v>       0.82923400       0.65846800       0.13571444 </v>
   <v>       0.82923400       0.85846800       0.41754396 </v>
  </varray>
 </structure>
 <calculation>
  <scstep>
   <time name="dav">   57.50   57.52</time>
   <time name="total">   71.66   71.68</time>
   <energy>
    <i name="alphaZ">     36.80884744 </i>
    <i name="ewald">  11927.23708542 </i>
    <i name="hartreedc"> -14976.12485142 </i>
    <i name="XCdc">    -87.83189841 </i>
    <i name="pawpsdc">   1056.43050070 </i>
    <i name="pawaedc">   -732.41190547 </i>
    <i name="eentropy">     -0.04217480 </i>
    <i name="bandstr">    -88.60918417 </i>
    <i name="atom">   3354.04126044 </i>
    <i name="e_fr_energy">    489.49767973 </i>
    <i name="e_wo_entrp">    489.53985453 </i>
    <i name="e_0_energy">    489.51876713 </i>
   </energy>
  </scstep>
  <scstep>
   <time name="dav">   71.19   71.20</time>
   <time name="total">   71.21   71.22</time>
   <energy>
    <i name="e_fr_energy">    -66.95553793 </i>
    <i name="e_wo_entrp">    -66.93252405 </i>
    <i name="e_0_energy">    -66.94403099 </i>
   </energy>
  </scstep>
  <scstep>
   <time name="dav">   66.28   66.29</time>
   <time name="total">   66.30   66.31</time>
   <energy>
    <i name="e_fr_energy">   -122.70775566 </i>
    <i name="e_wo_entrp">   -122.68873111 </i>
    <i name="e_0_energy">   -122.69824339 </i>
   </energy>
  </scstep>
  <scstep>
   <time name="dav">   78.66   78.68</time>
   <time name="total">   78.68   78.70</time>
   <energy>
    <i name="e_fr_energy">   -125.27655316 </i>
    <i name="e_wo_entrp">   -125.25426938 </i>
    <i name="e_0_energy">   -125.26541127 </i>
   </energy>
  </scstep>
  <scstep>
   <time name="dav">   74.38   74.40</time>
   <time name="total">   78.40   78.41</time>
   <energy>
    <i name="e_fr_energy">   -125.33867914 </i>
    <i name="e_wo_entrp">   -125.31628490 </i>
    <i name="e_0_energy">   -125.32748202 </i>
   </energy>
  </scstep>
  <scstep>
   <time name="dav">   65.05   65.06</time>
   <time name="total">   81.69   81.71</time>
   <energy>
    <i name="e_fr_energy">   -123.30603933 </i>
    <i name="e_wo_entrp">   -123.28496263 </i>
    <i name="e_0_energy">   -123.29550098 </i>
   </energy>
  </scstep>
  <scstep>
   <time name="dav">   66.36   66.37</time>
   <time name="total">   82.36   82.38</time>
   <energy>
    <i name="e_fr_energy">   -123.09422636 </i>
    <i name="e_wo_entrp">   -123.06390299 </i>
    <i name="e_0_energy">   -123.07906468 </i>
   </energy>
  </scstep>
  <scstep>
   <time name="dav">   74.17   74.19</time>
   <time name="total">   91.45   91.47</time>
   <energy>
    <i name="e_fr_energy">   -123.07117165 </i>
    <i name="e_wo_entrp">   -123.04443972 </i>
    <i name="e_0_energy">   -123.05780568 </i>
   </energy>
  </scstep>
  <scstep>
   <time name="dav">   72.55   72.57</time>
   <time name="total">   90.37   90.39</time>
   <energy>
    <i name="e_fr_energy">   -123.04635400 </i>
    <i name="e_wo_entrp">   -123.02046279 </i>
    <i name="e_0_energy">   -123.03340839 </i>
   </energy>
  </scstep>
  <scstep>
   <time name="dav">   74.11   74.12</time>
   <time name="total">   92.40   92.42</time>
   <energy>
    <i name="e_fr_energy">   -123.03267048 </i>
    <i name="e_wo_entrp">   -123.00643766 </i>
    <i name="e_0_energy">   -123.01955407 </i>
   </energy>
  </scstep>
  <scstep>
   <time name="dav">   73.31   73.32</time>
   <time name="total">   91.89   91.91</time>
   <energy>
    <i name="e_fr_energy">   -123.02558016 </i>
    <i name="e_wo_entrp">   -122.99920740 </i>
    <i name="e_0_energy">   -123.01239378 </i>
   </energy>
  </scstep>
  <scstep>
   <time name="dav">   75.56   75.58</time>
   <time name="total">   93.69   93.71</time>
   <energy>
    <i name="e_fr_energy">   -123.01988383 </i>
    <i name="e_wo_entrp">   -122.99360071 </i>
    <i name="e_0_energy">   -123.00674227 </i>
   </energy>
  </scstep>
  <scstep>
   <time name="dav">   76.01   76.03</time>
   <time name="total">   93.58   93.60</time>
   <energy>
    <i name="e_fr_energy">   -123.01613634 </i>
    <i name="e_wo_entrp">   -122.98992503 </i>
    <i name="e_0_energy">   -123.00303069 </i>
   </energy>
  </scstep>
  <scstep>
   <time name="dav">   75.75   75.77</time>
   <time name="total">   94.23   94.25</time>
   <energy>
    <i name="e_fr_energy">   -123.01472858 </i>
    <i name="e_wo_entrp">   -122.98851255 </i>
    <i name="e_0_energy">   -123.00162056 </i>
   </energy>
  </scstep>
  <scstep>
   <time name="dav">   72.66   72.68</time>
   <time name="total">   90.31   90.32</time>
   <energy>
    <i name="e_fr_energy">   -123.01443237 </i>
    <i name="e_wo_entrp">   -122.98821876 </i>
    <i name="e_0_energy">   -123.00132556 </i>
   </energy>
  </scstep>
  <scstep>
   <time name="dav">   70.92   70.93</time>
   <time name="total">   89.10   89.12</time>
   <energy>
    <i name="e_fr_energy">   -123.01492363 </i>
    <i name="e_wo_entrp">   -122.98872267 </i>
    <i name="e_0_energy">   -123.00182315 </i>
   </energy>
  </scstep>
  <scstep>
   <time name="dav">   69.06   69.08</time>
   <time name="total">   87.03   87.05</time>
   <energy>
    <i name="e_fr_energy">   -123.01527422 </i>
    <i name="e_wo_entrp">   -122.98907184 </i>
    <i name="e_0_energy">   -123.00217303 </i>
   </energy>
  </scstep>
  <scstep>
   <time name="dav">   66.43   66.45</time>
   <time name="total">   84.52   84.54</time>
   <energy>
    <i name="e_fr_energy">   -123.01532543 </i>
    <i name="e_wo_entrp">   -122.98911976 </i>
    <i name="e_0_energy">   -123.00222259 </i>
   </energy>
  </scstep>
  <scstep>
   <time name="dav">   60.88   60.89</time>
   <time name="total">   78.78   78.79</time>
   <energy>
    <i name="e_fr_energy">   -123.01536902 </i>
    <i name="e_wo_entrp">   -122.98916461 </i>
    <i name="e_0_energy">   -123.00226681 </i>
   </energy>
  </scstep>
  <scstep>
   <time name="dav">   62.04   62.05</time>
   <time name="total">   80.29   80.31</time>
   <energy>
    <i name="e_fr_energy">   -123.01539274 </i>
    <i name="e_wo_entrp">   -122.98918871 </i>
    <i name="e_0_energy">   -123.00229072 </i>
   </energy>
  </scstep>
  <scstep>
   <time name="dav">   57.07   57.08</time>
   <time name="total">   75.39   75.41</time>
   <energy>
    <i name="e_fr_energy">   -123.01535205 </i>
    <i name="e_wo_entrp">   -122.98914802 </i>
    <i name="e_0_energy">   -123.00225003 </i>
   </energy>
  </scstep>
  <scstep>
   <time name="dav">   57.82   57.83</time>
   <time name="total">   75.67   75.68</time>
   <energy>
    <i name="e_fr_energy">   -123.01529803 </i>
    <i name="e_wo_entrp">   -122.98909415 </i>
    <i name="e_0_energy">   -123.00219609 </i>
   </energy>
  </scstep>
  <scstep>
   <time name="dav">   58.38   58.39</time>
   <time name="total">   76.04   76.06</time>
   <energy>
    <i name="e_fr_energy">   -123.01528096 </i>
    <i name="e_wo_entrp">   -122.98907717 </i>
    <i name="e_0_energy">   -123.00217906 </i>
   </energy>
  </scstep>
  <scstep>
   <time name="dav">   60.90   60.91</time>
   <time name="total">   78.37   78.39</time>
   <energy>
    <i name="e_fr_energy">   -123.01526312 </i>
    <i name="e_wo_entrp">   -122.98905954 </i>
    <i name="e_0_energy">   -123.00216133 </i>
   </energy>
  </scstep>
  <scstep>
   <time name="dav">   56.95   56.96</time>
   <time name="total">   69.96   69.98</time>
   <energy>
    <i name="alphaZ">     36.80884744 </i>
    <i name="ewald">  11927.23708542 </i>
    <i name="hartreedc"> -15067.72369998 </i>
    <i name="XCdc">    -80.50804420 </i>
    <i name="pawpsdc">   1155.68941002 </i>
    <i name="pawaedc">   -834.46199819 </i>
    <i name="eentropy">     -0.02620358 </i>
    <i name="bandstr">   -614.07192026 </i>
    <i name="atom">   3354.04126044 </i>
    <i name="e_fr_energy">   -123.01526288 </i>
    <i name="e_wo_entrp">   -122.98905930 </i>
    <i name="e_0_energy">   -123.00216109 </i>
   </energy>
  </scstep>
  <structure>
   <crystal>
    <varray name="basis" >
     <v>       3.54040000       0.00000000       0.00000000 </v>
     <v>      -1.77020000      10.29434800       0.00000000 </v>
     <v>       0.00000000       0.00000000      27.50142900 </v>
    </varray>
    <i name="volume">   1002.32009712 </i>
    <varray name="rec_basis" >
     <v>       0.28245396       0.04857034       0.00000000 </v>
     <v>       0.00000000       0.09714068       0.00000000 </v>
     <v>       0.00000000       0.00000000       0.03636175 </v>
    </varray>
   </crystal>
   <varray name="positions" >
    <v>       0.11402300       0.22804500       0.23316207 </v>
    <v>       0.11402300       0.42804500       0.51499159 </v>
    <v>       0.45808900       0.91617900       0.20939482 </v>
    <v>       0.45808900       0.11617900       0.49122434 </v>
    <v>       0.31085400       0.62170900       0.08414979 </v>
    <v>       0.31085400       0.62170900       0.36597930 </v>
    <v>       0.99923000       0.99846000       0.08631254 </v>
    <v>       0.99923000       0.99846000       0.36814206 </v>
    <v>       0.65492700       0.30985400       0.06041748 </v>
    <v>       0.65492700       0.30985400       0.34224700 </v>
    <v>       0.76973800       0.53947500       0.20725292 </v>
    <v>       0.76973800       0.73947500       0.48908244 </v>
    <v>       0.93971600       0.87943300       0.15783749 </v>
    <v>       0.93971600       0.07943300       0.43966701 </v>
    <v>       0.20515200       0.41030300       0.18578822 </v>
    <v>       0.20515200       0.61030300       0.46761774 </v>
    <v>       0.20184900       0.40369900       0.09969156 </v>
    <v>       0.20184900       0.40369900       0.38152107 </v>
    <v>       0.56380500       0.12761000       0.10779021 </v>
    <v>       0.56380500       0.12761000       0.38961973 </v>
    <v>       0.56710600       0.13421200       0.19387616 </v>
    <v>       0.56710600       0.33421200       0.47570568 </v>
    <v>       0.82923400       0.65846800       0.13571444 </v>
    <v>       0.82923400       0.85846800       0.41754396 </v>
   </varray>
  </structure>
  <varray name="forces" >
   <v>       0.01889507      -0.05709515       0.01947980 </v>
   <v>      -0.12139091       0.38630745       0.38192022 </v>
   <v>       0.00106251      -0.00586588       0.07886981 </v>
   <v>      -0.45263362       0.08910830       0.91688450 </v>
   <v>      -0.00142675       0.00161514       0.00657892 </v>
   <v>      -0.40196795      -0.58937919       1.69133756 </v>
   <v>       0.00409961      -0.01656809      -0.00354421 </v>
   <v>       1.58873126       0.56759141      -4.94892819 </v>
   <v>       0.00090184      -0.00084222       0.01129538 </v>
   <v>       0.30040881      -0.45616735      -0.45981523 </v>
   <v>      -0.00062357       0.00665703       0.09324608 </v>
   <v>       0.54928851       0.34789962       0.13846561 </v>
   <v>       0.00302755      -0.00490955      -0.00204072 </v>
   <v>       2.53730253      -0.06649921       5.59381138 </v>
   <v>      -0.00200705      -0.00616714       0.06096372 </v>
   <v>       0.03563573       0.31707149      -1.32017295 </v>
   <v>      -0.00065030       0.00105689      -0.01603597 </v>
   <v>       0.70297317       0.14327613       0.40068733 </v>
   <v>       0.00033924      -0.02400167       0.01154541 </v>
   <v>      -2.76614097       2.49960191      -4.34861056 </v>
   <v>      -0.00356035       0.02033950      -0.03713003 </v>
   <v>      -0.65926777       0.47846785      -0.71642436 </v>
   <v>       0.00232231       0.00688430      -0.00247233 </v>
   <v>      -1.33531890      -3.63838158       2.45008882 </v>
  </varray>
  <varray name="stress" >
   <v>       9.60171116      -3.19273212      -0.85713011 </v>
   <v>      -3.19273223       8.65908072       4.05772708 </v>
   <v>      -0.85713019       4.05772694      15.12540211 </v>
  </varray>
  <energy>
   <i name="e_fr_energy">   -123.01526288 </i>
   <i name="e_wo_entrp">   -123.00216109 </i>
   <i name="e_0_energy">     -0.02620358 </i>
  </energy>
  <time name="totalsc"> 2178.88 2179.36</time>
  <eigenvalues>
   <array>
    <dimension dim="1">band</dimension>
    <dimension dim="2">kpoint</dimension>
    <dimension dim="3">spin</dimension>
    <field>eigene</field>
    <field>occ</field>
    <set>
     <set comment="spin 1">
      <set comment="kpoint 1">
       <r>  -15.0792    1.0000 </r>
       <r>  -13.5354    1.0000 </r>
       <r>  -12.8120    1.0000 </r>
       <r>  -12.8003    1.0000 </r>
       <r>  -12.4775    1.0000 </r>
       <r>  -12.3243    1.0000 </r>
       <r>  -12.1457    1.0000 </r>
       <r>  -12.0527    1.0000 </r>
       <r>  -11.4288    1.0000 </r>
       <r>  -11.3640    1.0000 </r>
       <r>  -10.9892    1.0000 </r>
       <r>  -10.0123    1.0000 </r>
       <r>   -8.7494    1.0000 </r>
       <r>   -8.0291    1.0000 </r>
       <r>   -7.8213    1.0000 </r>
       <r>   -7.5294    1.0000 </r>
       <r>   -6.9140    1.0000 </r>
       <r>   -6.8187    1.0000 </r>
       <r>   -6.4874    1.0000 </r>
       <r>   -6.3416    1.0000 </r>
       <r>   -5.8256    1.0000 </r>
       <r>   -5.6424    1.0000 </r>
       <r>   -4.8066    1.0000 </r>
       <r>   -4.6938    1.0000 </r>
       <r>   -4.3465    1.0000 </r>
       <r>   -4.1831    1.0000 </r>
       <r>   -3.7715    1.0000 </r>
       <r>   -3.6912    1.0000 </r>
       <r>   -3.5165    1.0000 </r>
       <r>   -3.3706    1.0000 </r>
       <r>   -3.0473    1.0000 </r>
       <r>   -2.9344    1.0000 </r>
       <r>   -2.8460    1.0000 </r>
       <r>   -2.6154    1.0000 </r>
       <r>   -2.4937    1.0000 </r>
       <r>   -2.4403    1.0000 </r>
       <r>   -2.3819    1.0000 </r>
       <r>   -2.3243    1.0000 </r>
       <r>   -2.2180    1.0000 </r>
       <r>   -2.0164    1.0000 </r>
       <r>   -1.9162    1.0000 </r>
       <r>   -1.8627    1.0000 </r>
       <r>   -1.7295    1.0000 </r>
       <r>   -1.6335    1.0000 </r>
       <r>   -1.5974    1.0000 </r>
       <r>   -1.5707    1.0000 </r>
       <r>   -1.4277    1.0000 </r>
       <r>   -1.3746    1.0000 </r>
       <r>   -1.1415    1.0000 </r>
       <r>   -1.0230    1.0000 </r>
       <r>   -0.9910    1.0000 </r>
       <r>   -0.5213    1.0000 </r>
       <r>    0.0350    0.9912 </r>
       <r>    0.2932    0.1009 </r>
       <r>    0.6237    0.0000 </r>
       <r>    1.1596    0.0000 </r>
       <r>    1.1784    0.0000 </r>
       <r>    1.2578    0.0000 </r>
       <r>    1.3243    0.0000 </r>
       <r>    1.6336    0.0000 </r>
       <r>    1.6982    0.0000 </r>
       <r>    1.8716    0.0000 </r>
       <r>    1.9767    0.0000 </r>
       <r>    1.9877    0.0000 </r>
       <r>    2.0894    0.0000 </r>
       <r>    2.1750    0.0000 </r>
       <r>    2.4402    0.0000 </r>
       <r>    2.6075    0.0000 </r>
      </set>
      <set comment="kpoint 2">
       <r>  -15.0262    1.0000 </r>
       <r>  -13.4741    1.0000 </r>
       <r>  -12.7594    1.0000 </r>
       <r>  -12.7482    1.0000 </r>
       <r>  -12.4219    1.0000 </r>
       <r>  -12.2741    1.0000 </r>
       <r>  -12.0880    1.0000 </r>
       <r>  -11.9927    1.0000 </r>
       <r>  -11.3800    1.0000 </r>
       <r>  -11.3173    1.0000 </r>
       <r>  -10.9408    1.0000 </r>
       <r>   -9.9799    1.0000 </r>
       <r>   -8.7216    1.0000 </r>
       <r>   -8.0659    1.0000 </r>
       <r>   -7.7843    1.0000 </r>
       <r>   -7.5291    1.0000 </r>
       <r>   -6.8780    1.0000 </r>
       <r>   -6.7844    1.0000 </r>
       <r>   -6.4814    1.0000 </r>
       <r>   -6.3347    1.0000 </r>
       <r>   -5.7921    1.0000 </r>
       <r>   -5.6752    1.0000 </r>
       <r>   -4.9599    1.0000 </r>
       <r>   -4.7512    1.0000 </r>
       <r>   -4.5298    1.0000 </r>
       <r>   -4.1384    1.0000 </r>
       <r>   -3.7791    1.0000 </r>
       <r>   -3.7065    1.0000 </r>
       <r>   -3.5414    1.0000 </r>
       <r>   -3.5264    1.0000 </r>
       <r>   -3.3346    1.0000 </r>
       <r>   -3.2460    1.0000 </r>
       <r>   -3.0367    1.0000 </r>
       <r>   -2.9504    1.0000 </r>
       <r>   -2.7327    1.0000 </r>
       <r>   -2.6600    1.0000 </r>
       <r>   -2.4754    1.0000 </r>
       <r>   -2.3876    1.0000 </r>
       <r>   -2.2971    1.0000 </r>
       <r>   -2.2492    1.0000 </r>
       <r>   -2.1945    1.0000 </r>
       <r>   -2.0160    1.0000 </r>
       <r>   -1.9685    1.0000 </r>
       <r>   -1.9632    1.0000 </r>
       <r>   -1.8389    1.0000 </r>
       <r>   -1.7377    1.0000 </r>
       <r>   -1.5145    1.0000 </r>
       <r>   -1.3030    1.0000 </r>
       <r>   -1.1004    1.0000 </r>
       <r>   -1.0208    1.0000 </r>
       <r>   -0.9294    1.0000 </r>
       <r>   -0.2149    1.0000 </r>
       <r>    0.0482    0.9857 </r>
       <r>    0.3894    0.0042 </r>
       <r>    0.7286    0.0000 </r>
       <r>    0.9795    0.0000 </r>
       <r>    1.3506    0.0000 </r>
       <r>    1.5725    0.0000 </r>
       <r>    1.6291    0.0000 </r>
       <r>    1.7657    0.0000 </r>
       <r>    1.9317    0.0000 </r>
       <r>    2.1043    0.0000 </r>
       <r>    2.1412    0.0000 </r>
       <r>    2.2351    0.0000 </r>
       <r>    2.3023    0.0000 </r>
       <r>    2.4091    0.0000 </r>
       <r>    2.6171    0.0000 </r>
       <r>    2.7776    0.0000 </r>
      </set>
      <set comment="kpoint 3">
       <r>  -14.8702    1.0000 </r>
       <r>  -13.2911    1.0000 </r>
       <r>  -12.6049    1.0000 </r>
       <r>  -12.5925    1.0000 </r>
       <r>  -12.2571    1.0000 </r>
       <r>  -12.1270    1.0000 </r>
       <r>  -11.9193    1.0000 </r>
       <r>  -11.8157    1.0000 </r>
       <r>  -11.2384    1.0000 </r>
       <r>  -11.1828    1.0000 </r>
       <r>  -10.8018    1.0000 </r>
       <r>   -9.8919    1.0000 </r>
       <r>   -8.6482    1.0000 </r>
       <r>   -8.1624    1.0000 </r>
       <r>   -7.7421    1.0000 </r>
       <r>   -7.5637    1.0000 </r>
       <r>   -6.8014    1.0000 </r>
       <r>   -6.7065    1.0000 </r>
       <r>   -6.4930    1.0000 </r>
       <r>   -6.4249    1.0000 </r>
       <r>   -5.9170    1.0000 </r>
       <r>   -5.7155    1.0000 </r>
       <r>   -5.3323    1.0000 </r>
       <r>   -4.8675    1.0000 </r>
       <r>   -4.6367    1.0000 </r>
       <r>   -4.2209    1.0000 </r>
       <r>   -4.1432    1.0000 </r>
       <r>   -4.0777    1.0000 </r>
       <r>   -3.9749    1.0000 </r>
       <r>   -3.8335    1.0000 </r>
       <r>   -3.7372    1.0000 </r>
       <r>   -3.6405    1.0000 </r>
       <r>   -3.4831    1.0000 </r>
       <r>   -3.3100    1.0000 </r>
       <r>   -3.1460    1.0000 </r>
       <r>   -3.0849    1.0000 </r>
       <r>   -2.9916    1.0000 </r>
       <r>   -2.9659    1.0000 </r>
       <r>   -2.8433    1.0000 </r>
       <r>   -2.6210    1.0000 </r>
       <r>   -2.3971    1.0000 </r>
       <r>   -2.3585    1.0000 </r>
       <r>   -2.2668    1.0000 </r>
       <r>   -2.1394    1.0000 </r>
       <r>   -1.9419    1.0000 </r>
       <r>   -1.7685    1.0000 </r>
       <r>   -1.6571    1.0000 </r>
       <r>   -1.2843    1.0000 </r>
       <r>   -1.1342    1.0000 </r>
       <r>   -1.0699    1.0000 </r>
       <r>   -0.9241    1.0000 </r>
       <r>   -0.1559    1.0000 </r>
       <r>    0.1413    0.8086 </r>
       <r>    0.4637    0.0001 </r>
       <r>    0.6434    0.0000 </r>
       <r>    0.9778    0.0000 </r>
       <r>    1.3906    0.0000 </r>
       <r>    1.5009    0.0000 </r>
       <r>    1.9076    0.0000 </r>
       <r>    1.9545    0.0000 </r>
       <r>    2.2590    0.0000 </r>
       <r>    2.4148    0.0000 </r>
       <r>    2.4475    0.0000 </r>
       <r>    2.6089    0.0000 </r>
       <r>    2.6712    0.0000 </r>
       <r>    2.8251    0.0000 </r>
       <r>    2.9664    0.0000 </r>
       <r>    3.0857    0.0000 </r>
      </set>
      <set comment="kpoint 4">
       <r>  -14.6214    1.0000 </r>
       <r>  -12.9900    1.0000 </r>
       <r>  -12.3615    1.0000 </r>
       <r>  -12.3364    1.0000 </r>
       <r>  -11.9903    1.0000 </r>
       <r>  -11.8968    1.0000 </r>
       <r>  -11.6535    1.0000 </r>
       <r>  -11.5334    1.0000 </r>
       <r>  -11.0223    1.0000 </r>
       <r>  -10.9798    1.0000 </r>
       <r>  -10.5984    1.0000 </r>
       <r>   -9.7804    1.0000 </r>
       <r>   -8.5782    1.0000 </r>
       <r>   -8.3538    1.0000 </r>
       <r>   -7.8162    1.0000 </r>
       <r>   -7.7424    1.0000 </r>
       <r>   -6.9461    1.0000 </r>
       <r>   -6.7159    1.0000 </r>
       <r>   -6.6689    1.0000 </r>
       <r>   -6.6245    1.0000 </r>
       <r>   -6.0539    1.0000 </r>
       <r>   -5.7380    1.0000 </r>
       <r>   -5.5785    1.0000 </r>
       <r>   -5.3335    1.0000 </r>
       <r>   -4.9662    1.0000 </r>
       <r>   -4.8046    1.0000 </r>
       <r>   -4.5996    1.0000 </r>
       <r>   -4.5122    1.0000 </r>
       <r>   -4.4475    1.0000 </r>
       <r>   -4.2199    1.0000 </r>
       <r>   -4.1725    1.0000 </r>
       <r>   -4.0777    1.0000 </r>
       <r>   -3.7937    1.0000 </r>
       <r>   -3.6771    1.0000 </r>
       <r>   -3.4751    1.0000 </r>
       <r>   -3.4499    1.0000 </r>
       <r>   -3.2564    1.0000 </r>
       <r>   -3.1396    1.0000 </r>
       <r>   -2.9881    1.0000 </r>
       <r>   -2.6938    1.0000 </r>
       <r>   -2.5506    1.0000 </r>
       <r>   -2.5042    1.0000 </r>
       <r>   -2.4292    1.0000 </r>
       <r>   -2.3409    1.0000 </r>
       <r>   -1.9117    1.0000 </r>
       <r>   -1.8338    1.0000 </r>
       <r>   -1.7363    1.0000 </r>
       <r>   -1.4718    1.0000 </r>
       <r>   -1.3197    1.0000 </r>
       <r>   -1.1432    1.0000 </r>
       <r>   -1.0500    1.0000 </r>
       <r>   -0.5767    1.0000 </r>
       <r>   -0.1883    1.0000 </r>
       <r>    0.1910    0.5671 </r>
       <r>    0.4960    0.0000 </r>
       <r>    1.0044    0.0000 </r>
       <r>    1.1750    0.0000 </r>
       <r>    1.6711    0.0000 </r>
       <r>    1.8790    0.0000 </r>
       <r>    1.9529    0.0000 </r>
       <r>    2.0693    0.0000 </r>
       <r>    2.2589    0.0000 </r>
       <r>    2.3917    0.0000 </r>
       <r>    2.5126    0.0000 </r>
       <r>    2.6665    0.0000 </r>
       <r>    2.7073    0.0000 </r>
       <r>    2.8859    0.0000 </r>
       <r>    2.9335    0.0000 </r>
      </set>
      <set comment="kpoint 5">
       <r>  -14.3034    1.0000 </r>
       <r>  -12.5781    1.0000 </r>
       <r>  -12.0681    1.0000 </r>
       <r>  -11.9884    1.0000 </r>
       <r>  -11.6395    1.0000 </r>
       <r>  -11.6093    1.0000 </r>
       <r>  -11.3140    1.0000 </r>
       <r>  -11.1790    1.0000 </r>
       <r>  -10.7790    1.0000 </r>
       <r>  -10.7549    1.0000 </r>
       <r>  -10.4119    1.0000 </r>
       <r>   -9.7038    1.0000 </r>
       <r>   -8.6783    1.0000 </r>
       <r>   -8.6480    1.0000 </r>
       <r>   -8.0771    1.0000 </r>
       <r>   -7.9509    1.0000 </r>
       <r>   -7.3722    1.0000 </r>
       <r>   -6.9876    1.0000 </r>
       <r>   -6.9129    1.0000 </r>
       <r>   -6.8831    1.0000 </r>
       <r>   -6.3151    1.0000 </r>
       <r>   -6.1677    1.0000 </r>
       <r>   -6.0094    1.0000 </r>
       <r>   -5.9495    1.0000 </r>
       <r>   -5.2148    1.0000 </r>
       <r>   -5.1579    1.0000 </r>
       <r>   -4.8524    1.0000 </r>
       <r>   -4.7918    1.0000 </r>
       <r>   -4.6959    1.0000 </r>
       <r>   -4.5301    1.0000 </r>
       <r>   -4.3097    1.0000 </r>
       <r>   -4.2168    1.0000 </r>
       <r>   -4.1417    1.0000 </r>
       <r>   -3.6902    1.0000 </r>
       <r>   -3.5365    1.0000 </r>
       <r>   -3.3948    1.0000 </r>
       <r>   -3.2578    1.0000 </r>
       <r>   -3.0968    1.0000 </r>
       <r>   -3.0298    1.0000 </r>
       <r>   -2.8447    1.0000 </r>
       <r>   -2.7684    1.0000 </r>
       <r>   -2.6404    1.0000 </r>
       <r>   -2.4759    1.0000 </r>
       <r>   -2.3722    1.0000 </r>
       <r>   -2.0586    1.0000 </r>
       <r>   -1.8956    1.0000 </r>
       <r>   -1.8774    1.0000 </r>
       <r>   -1.7256    1.0000 </r>
       <r>   -1.6136    1.0000 </r>
       <r>   -1.3131    1.0000 </r>
       <r>   -1.2599    1.0000 </r>
       <r>   -0.9372    1.0000 </r>
       <r>   -0.5596    1.0000 </r>
       <r>   -0.1032    1.0000 </r>
       <r>    0.2575    0.2202 </r>
       <r>    0.6667    0.0000 </r>
       <r>    1.1767    0.0000 </r>
       <r>    1.4981    0.0000 </r>
       <r>    1.6175    0.0000 </r>
       <r>    1.7820    0.0000 </r>
       <r>    1.9097    0.0000 </r>
       <r>    2.0191    0.0000 </r>
       <r>    2.2031    0.0000 </r>
       <r>    2.3338    0.0000 </r>
       <r>    2.3778    0.0000 </r>
       <r>    2.5683    0.0000 </r>
       <r>    2.6988    0.0000 </r>
       <r>    2.7771    0.0000 </r>
      </set>
      <set comment="kpoint 6">
       <r>  -13.9681    1.0000 </r>
       <r>  -12.0697    1.0000 </r>
       <r>  -11.8350    1.0000 </r>
       <r>  -11.5697    1.0000 </r>
       <r>  -11.2927    1.0000 </r>
       <r>  -11.2366    1.0000 </r>
       <r>  -10.9453    1.0000 </r>
       <r>  -10.8379    1.0000 </r>
       <r>  -10.6257    1.0000 </r>
       <r>  -10.5977    1.0000 </r>
       <r>  -10.4511    1.0000 </r>
       <r>   -9.7012    1.0000 </r>
       <r>   -8.9418    1.0000 </r>
       <r>   -8.8259    1.0000 </r>
       <r>   -8.3697    1.0000 </r>
       <r>   -8.0016    1.0000 </r>
       <r>   -7.6896    1.0000 </r>
       <r>   -7.4548    1.0000 </r>
       <r>   -7.4047    1.0000 </r>
       <r>   -7.2558    1.0000 </r>
       <r>   -6.8724    1.0000 </r>
       <r>   -6.7619    1.0000 </r>
       <r>   -6.6506    1.0000 </r>
       <r>   -6.4325    1.0000 </r>
       <r>   -5.2254    1.0000 </r>
       <r>   -5.1927    1.0000 </r>
       <r>   -4.7855    1.0000 </r>
       <r>   -4.6550    1.0000 </r>
       <r>   -4.5219    1.0000 </r>
       <r>   -4.4700    1.0000 </r>
       <r>   -4.2349    1.0000 </r>
       <r>   -4.1399    1.0000 </r>
       <r>   -4.0653    1.0000 </r>
       <r>   -3.6756    1.0000 </r>
       <r>   -3.6522    1.0000 </r>
       <r>   -3.6327    1.0000 </r>
       <r>   -3.2704    1.0000 </r>
       <r>   -3.2254    1.0000 </r>
       <r>   -3.1630    1.0000 </r>
       <r>   -3.0642    1.0000 </r>
       <r>   -2.8046    1.0000 </r>
       <r>   -2.6695    1.0000 </r>
       <r>   -2.4586    1.0000 </r>
       <r>   -2.3899    1.0000 </r>
       <r>   -2.2691    1.0000 </r>
       <r>   -2.0821    1.0000 </r>
       <r>   -2.0266    1.0000 </r>
       <r>   -1.8584    1.0000 </r>
       <r>   -1.7940    1.0000 </r>
       <r>   -1.5952    1.0000 </r>
       <r>   -1.3760    1.0000 </r>
       <r>   -1.1227    1.0000 </r>
       <r>   -0.8738    1.0000 </r>
       <r>   -0.3994    1.0000 </r>
       <r>    0.0726    0.9674 </r>
       <r>    0.3702    0.0090 </r>
       <r>    1.0030    0.0000 </r>
       <r>    1.3746    0.0000 </r>
       <r>    1.5409    0.0000 </r>
       <r>    1.6924    0.0000 </r>
       <r>    1.7406    0.0000 </r>
       <r>    1.8290    0.0000 </r>
       <r>    2.0569    0.0000 </r>
       <r>    2.1311    0.0000 </r>
       <r>    2.2678    0.0000 </r>
       <r>    2.3238    0.0000 </r>
       <r>    2.5211    0.0000 </r>
       <r>    2.7117    0.0000 </r>
      </set>
      <set comment="kpoint 7">
       <r>  -13.7260    1.0000 </r>
       <r>  -11.7777    1.0000 </r>
       <r>  -11.4956    1.0000 </r>
       <r>  -11.1480    1.0000 </r>
       <r>  -10.9541    1.0000 </r>
       <r>  -10.9308    1.0000 </r>
       <r>  -10.8421    1.0000 </r>
       <r>  -10.7285    1.0000 </r>
       <r>  -10.6585    1.0000 </r>
       <r>  -10.6274    1.0000 </r>
       <r>  -10.6081    1.0000 </r>
       <r>   -9.7342    1.0000 </r>
       <r>   -9.1017    1.0000 </r>
       <r>   -8.6863    1.0000 </r>
       <r>   -8.4313    1.0000 </r>
       <r>   -8.1641    1.0000 </r>
       <r>   -8.0742    1.0000 </r>
       <r>   -7.7162    1.0000 </r>
       <r>   -7.5601    1.0000 </r>
       <r>   -7.4491    1.0000 </r>
       <r>   -7.3010    1.0000 </r>
       <r>   -7.2733    1.0000 </r>
       <r>   -7.1821    1.0000 </r>
       <r>   -6.7810    1.0000 </r>
       <r>   -5.0724    1.0000 </r>
       <r>   -4.9137    1.0000 </r>
       <r>   -4.6416    1.0000 </r>
       <r>   -4.5053    1.0000 </r>
       <r>   -4.4576    1.0000 </r>
       <r>   -4.2465    1.0000 </r>
       <r>   -4.0614    1.0000 </r>
       <r>   -4.0444    1.0000 </r>
       <r>   -3.9447    1.0000 </r>
       <r>   -3.8334    1.0000 </r>
       <r>   -3.7503    1.0000 </r>
       <r>   -3.6397    1.0000 </r>
       <r>   -3.5578    1.0000 </r>
       <r>   -3.4097    1.0000 </r>
       <r>   -3.2564    1.0000 </r>
       <r>   -3.1384    1.0000 </r>
       <r>   -2.9994    1.0000 </r>
       <r>   -2.7086    1.0000 </r>
       <r>   -2.6117    1.0000 </r>
       <r>   -2.3786    1.0000 </r>
       <r>   -2.3486    1.0000 </r>
       <r>   -2.1815    1.0000 </r>
       <r>   -2.0901    1.0000 </r>
       <r>   -1.8873    1.0000 </r>
       <r>   -1.7767    1.0000 </r>
       <r>   -1.6504    1.0000 </r>
       <r>   -1.4861    1.0000 </r>
       <r>   -1.1982    1.0000 </r>
       <r>   -1.0518    1.0000 </r>
       <r>   -0.6014    1.0000 </r>
       <r>   -0.0512    0.9998 </r>
       <r>    0.2147    0.4343 </r>
       <r>    0.8247    0.0000 </r>
       <r>    1.3486    0.0000 </r>
       <r>    1.5278    0.0000 </r>
       <r>    1.5746    0.0000 </r>
       <r>    1.6786    0.0000 </r>
       <r>    1.7359    0.0000 </r>
       <r>    1.8780    0.0000 </r>
       <r>    1.9661    0.0000 </r>
       <r>    2.0868    0.0000 </r>
       <r>    2.3844    0.0000 </r>
       <r>    2.4853    0.0000 </r>
       <r>    2.6027    0.0000 </r>
      </set>
      <set comment="kpoint 8">
       <r>  -15.0777    1.0000 </r>
       <r>  -13.4795    1.0000 </r>
       <r>  -12.9743    1.0000 </r>
       <r>  -12.8595    1.0000 </r>
       <r>  -12.4765    1.0000 </r>
       <r>  -12.2912    1.0000 </r>
       <r>  -12.0788    1.0000 </r>
       <r>  -11.8628    1.0000 </r>
       <r>  -11.4739    1.0000 </r>
       <r>  -11.3894    1.0000 </r>
       <r>  -10.9970    1.0000 </r>
       <r>   -9.9705    1.0000 </r>
       <r>   -8.8291    1.0000 </r>
       <r>   -8.5121    1.0000 </r>
       <r>   -7.7050    1.0000 </r>
       <r>   -7.3725    1.0000 </r>
       <r>   -6.7248    1.0000 </r>
       <r>   -6.6616    1.0000 </r>
       <r>   -6.5945    1.0000 </r>
       <r>   -6.3193    1.0000 </r>
       <r>   -5.7484    1.0000 </r>
       <r>   -5.5181    1.0000 </r>
       <r>   -4.6945    1.0000 </r>
       <r>   -4.5919    1.0000 </r>
       <r>   -4.3754    1.0000 </r>
       <r>   -4.2103    1.0000 </r>
       <r>   -4.0158    1.0000 </r>
       <r>   -3.7584    1.0000 </r>
       <r>   -3.5723    1.0000 </r>
       <r>   -3.3724    1.0000 </r>
       <r>   -3.1216    1.0000 </r>
       <r>   -3.0586    1.0000 </r>
       <r>   -2.7457    1.0000 </r>
       <r>   -2.7087    1.0000 </r>
       <r>   -2.5778    1.0000 </r>
       <r>   -2.3866    1.0000 </r>
       <r>   -2.3824    1.0000 </r>
       <r>   -2.2989    1.0000 </r>
       <r>   -2.2378    1.0000 </r>
       <r>   -2.1457    1.0000 </r>
       <r>   -1.9825    1.0000 </r>
       <r>   -1.9455    1.0000 </r>
       <r>   -1.8744    1.0000 </r>
       <r>   -1.6206    1.0000 </r>
       <r>   -1.5911    1.0000 </r>
       <r>   -1.4930    1.0000 </r>
       <r>   -1.3601    1.0000 </r>
       <r>   -1.3118    1.0000 </r>
       <r>   -1.1384    1.0000 </r>
       <r>   -1.0233    1.0000 </r>
       <r>   -0.9633    1.0000 </r>
       <r>   -0.4005    1.0000 </r>
       <r>    0.0475    0.9860 </r>
       <r>    0.4202    0.0011 </r>
       <r>    0.7945    0.0000 </r>
       <r>    1.1367    0.0000 </r>
       <r>    1.2032    0.0000 </r>
       <r>    1.2971    0.0000 </r>
       <r>    1.4144    0.0000 </r>
       <r>    1.6519    0.0000 </r>
       <r>    1.7413    0.0000 </r>
       <r>    1.8433    0.0000 </r>
       <r>    1.9375    0.0000 </r>
       <r>    2.0071    0.0000 </r>
       <r>    2.1459    0.0000 </r>
       <r>    2.2687    0.0000 </r>
       <r>    2.5613    0.0000 </r>
       <r>    2.6242    0.0000 </r>
      </set>
      <set comment="kpoint 9">
       <r>  -15.0244    1.0000 </r>
       <r>  -13.4024    1.0000 </r>
       <r>  -12.9554    1.0000 </r>
       <r>  -12.8157    1.0000 </r>
       <r>  -12.4195    1.0000 </r>
       <r>  -12.2326    1.0000 </r>
       <r>  -12.0158    1.0000 </r>
       <r>  -11.7643    1.0000 </r>
       <r>  -11.4324    1.0000 </r>
       <r>  -11.3471    1.0000 </r>
       <r>  -10.9525    1.0000 </r>
       <r>   -9.9337    1.0000 </r>
       <r>   -8.8044    1.0000 </r>
       <r>   -8.5706    1.0000 </r>
       <r>   -7.7385    1.0000 </r>
       <r>   -7.3229    1.0000 </r>
       <r>   -6.6879    1.0000 </r>
       <r>   -6.6659    1.0000 </r>
       <r>   -6.5232    1.0000 </r>
       <r>   -6.2463    1.0000 </r>
       <r>   -5.7004    1.0000 </r>
       <r>   -5.5640    1.0000 </r>
       <r>   -4.9359    1.0000 </r>
       <r>   -4.6805    1.0000 </r>
       <r>   -4.5192    1.0000 </r>
       <r>   -4.1666    1.0000 </r>
       <r>   -4.0763    1.0000 </r>
       <r>   -3.7436    1.0000 </r>
       <r>   -3.6195    1.0000 </r>
       <r>   -3.5280    1.0000 </r>
       <r>   -3.3852    1.0000 </r>
       <r>   -3.1299    1.0000 </r>
       <r>   -3.0141    1.0000 </r>
       <r>   -3.0066    1.0000 </r>
       <r>   -2.7785    1.0000 </r>
       <r>   -2.6975    1.0000 </r>
       <r>   -2.5186    1.0000 </r>
       <r>   -2.4388    1.0000 </r>
       <r>   -2.3766    1.0000 </r>
       <r>   -2.2918    1.0000 </r>
       <r>   -2.2429    1.0000 </r>
       <r>   -2.1489    1.0000 </r>
       <r>   -2.0098    1.0000 </r>
       <r>   -1.9083    1.0000 </r>
       <r>   -1.8349    1.0000 </r>
       <r>   -1.7509    1.0000 </r>
       <r>   -1.4360    1.0000 </r>
       <r>   -1.2791    1.0000 </r>
       <r>   -1.0843    1.0000 </r>
       <r>   -0.9867    1.0000 </r>
       <r>   -0.9070    1.0000 </r>
       <r>   -0.0886    1.0000 </r>
       <r>    0.0794    0.9597 </r>
       <r>    0.4295    0.0007 </r>
       <r>    0.8466    0.0000 </r>
       <r>    0.9750    0.0000 </r>
       <r>    1.3723    0.0000 </r>
       <r>    1.6055    0.0000 </r>
       <r>    1.7332    0.0000 </r>
       <r>    1.7918    0.0000 </r>
       <r>    1.9381    0.0000 </r>
       <r>    1.9888    0.0000 </r>
       <r>    2.1966    0.0000 </r>
       <r>    2.2532    0.0000 </r>
       <r>    2.4594    0.0000 </r>
       <r>    2.5312    0.0000 </r>
       <r>    2.6647    0.0000 </r>
       <r>    2.8795    0.0000 </r>
      </set>
      <set comment="kpoint 10">
       <r>  -14.8682    1.0000 </r>
       <r>  -13.2055    1.0000 </r>
       <r>  -12.8192    1.0000 </r>
       <r>  -12.6658    1.0000 </r>
       <r>  -12.2531    1.0000 </r>
       <r>  -12.0749    1.0000 </r>
       <r>  -11.8551    1.0000 </r>
       <r>  -11.5675    1.0000 </r>
       <r>  -11.2928    1.0000 </r>
       <r>  -11.2143    1.0000 </r>
       <r>  -10.8111    1.0000 </r>
       <r>   -9.8546    1.0000 </r>
       <r>   -8.7076    1.0000 </r>
       <r>   -8.6348    1.0000 </r>
       <r>   -7.7623    1.0000 </r>
       <r>   -7.2921    1.0000 </r>
       <r>   -6.7019    1.0000 </r>
       <r>   -6.6510    1.0000 </r>
       <r>   -6.4958    1.0000 </r>
       <r>   -6.1896    1.0000 </r>
       <r>   -5.9322    1.0000 </r>
       <r>   -5.6522    1.0000 </r>
       <r>   -5.2970    1.0000 </r>
       <r>   -4.8344    1.0000 </r>
       <r>   -4.6401    1.0000 </r>
       <r>   -4.3768    1.0000 </r>
       <r>   -4.2965    1.0000 </r>
       <r>   -4.2155    1.0000 </r>
       <r>   -3.9793    1.0000 </r>
       <r>   -3.8481    1.0000 </r>
       <r>   -3.6927    1.0000 </r>
       <r>   -3.5864    1.0000 </r>
       <r>   -3.5210    1.0000 </r>
       <r>   -3.2750    1.0000 </r>
       <r>   -3.0659    1.0000 </r>
       <r>   -3.0326    1.0000 </r>
       <r>   -2.9597    1.0000 </r>
       <r>   -2.8192    1.0000 </r>
       <r>   -2.7734    1.0000 </r>
       <r>   -2.6539    1.0000 </r>
       <r>   -2.5996    1.0000 </r>
       <r>   -2.4464    1.0000 </r>
       <r>   -2.3203    1.0000 </r>
       <r>   -2.2487    1.0000 </r>
       <r>   -1.9690    1.0000 </r>
       <r>   -1.8882    1.0000 </r>
       <r>   -1.4990    1.0000 </r>
       <r>   -1.3172    1.0000 </r>
       <r>   -1.1362    1.0000 </r>
       <r>   -1.0512    1.0000 </r>
       <r>   -0.8997    1.0000 </r>
       <r>   -0.1350    1.0000 </r>
       <r>    0.1203    0.8790 </r>
       <r>    0.5310    0.0000 </r>
       <r>    0.6654    0.0000 </r>
       <r>    0.9902    0.0000 </r>
       <r>    1.3223    0.0000 </r>
       <r>    1.4832    0.0000 </r>
       <r>    1.6870    0.0000 </r>
       <r>    2.0713    0.0000 </r>
       <r>    2.1240    0.0000 </r>
       <r>    2.3164    0.0000 </r>
       <r>    2.3907    0.0000 </r>
       <r>    2.7024    0.0000 </r>
       <r>    2.7704    0.0000 </r>
       <r>    2.9356    0.0000 </r>
       <r>    3.0663    0.0000 </r>
       <r>    3.1012    0.0000 </r>
      </set>
      <set comment="kpoint 11">
       <r>  -14.6196    1.0000 </r>
       <r>  -12.8937    1.0000 </r>
       <r>  -12.5682    1.0000 </r>
       <r>  -12.4215    1.0000 </r>
       <r>  -11.9852    1.0000 </r>
       <r>  -11.8324    1.0000 </r>
       <r>  -11.6096    1.0000 </r>
       <r>  -11.2918    1.0000 </r>
       <r>  -11.0708    1.0000 </r>
       <r>  -11.0094    1.0000 </r>
       <r>  -10.5936    1.0000 </r>
       <r>   -9.7650    1.0000 </r>
       <r>   -8.7683    1.0000 </r>
       <r>   -8.5797    1.0000 </r>
       <r>   -7.8569    1.0000 </r>
       <r>   -7.3813    1.0000 </r>
       <r>   -7.0769    1.0000 </r>
       <r>   -6.6896    1.0000 </r>
       <r>   -6.6441    1.0000 </r>
       <r>   -6.3863    1.0000 </r>
       <r>   -6.0733    1.0000 </r>
       <r>   -5.8205    1.0000 </r>
       <r>   -5.6425    1.0000 </r>
       <r>   -5.1994    1.0000 </r>
       <r>   -5.0281    1.0000 </r>
       <r>   -4.8566    1.0000 </r>
       <r>   -4.6625    1.0000 </r>
       <r>   -4.5569    1.0000 </r>
       <r>   -4.5067    1.0000 </r>
       <r>   -4.3907    1.0000 </r>
       <r>   -4.0910    1.0000 </r>
       <r>   -4.0043    1.0000 </r>
       <r>   -3.7457    1.0000 </r>
       <r>   -3.6010    1.0000 </r>
       <r>   -3.3994    1.0000 </r>
       <r>   -3.2470    1.0000 </r>
       <r>   -3.1953    1.0000 </r>
       <r>   -3.0884    1.0000 </r>
       <r>   -2.9540    1.0000 </r>
       <r>   -2.6880    1.0000 </r>
       <r>   -2.5688    1.0000 </r>
       <r>   -2.5277    1.0000 </r>
       <r>   -2.4876    1.0000 </r>
       <r>   -2.3329    1.0000 </r>
       <r>   -1.9912    1.0000 </r>
       <r>   -1.9117    1.0000 </r>
       <r>   -1.7723    1.0000 </r>
       <r>   -1.4118    1.0000 </r>
       <r>   -1.3566    1.0000 </r>
       <r>   -1.2089    1.0000 </r>
       <r>   -1.0322    1.0000 </r>
       <r>   -0.6091    1.0000 </r>
       <r>   -0.1597    1.0000 </r>
       <r>   -0.0015    0.9981 </r>
       <r>    0.4311    0.0006 </r>
       <r>    0.8448    0.0000 </r>
       <r>    1.1830    0.0000 </r>
       <r>    1.4515    0.0000 </r>
       <r>    1.5312    0.0000 </r>
       <r>    1.6809    0.0000 </r>
       <r>    2.0119    0.0000 </r>
       <r>    2.2181    0.0000 </r>
       <r>    2.4860    0.0000 </r>
       <r>    2.5966    0.0000 </r>
       <r>    2.7147    0.0000 </r>
       <r>    2.8715    0.0000 </r>
       <r>    3.0439    0.0000 </r>
       <r>    3.1174    0.0000 </r>
      </set>
      <set comment="kpoint 12">
       <r>  -14.3019    1.0000 </r>
       <r>  -12.4765    1.0000 </r>
       <r>  -12.2097    1.0000 </r>
       <r>  -12.1169    1.0000 </r>
       <r>  -11.6333    1.0000 </r>
       <r>  -11.5428    1.0000 </r>
       <r>  -11.3001    1.0000 </r>
       <r>  -10.9792    1.0000 </r>
       <r>  -10.8070    1.0000 </r>
       <r>  -10.7757    1.0000 </r>
       <r>  -10.3879    1.0000 </r>
       <r>   -9.7116    1.0000 </r>
       <r>   -8.9663    1.0000 </r>
       <r>   -8.6372    1.0000 </r>
       <r>   -7.9448    1.0000 </r>
       <r>   -7.6979    1.0000 </r>
       <r>   -7.5273    1.0000 </r>
       <r>   -7.1106    1.0000 </r>
       <r>   -6.9529    1.0000 </r>
       <r>   -6.6898    1.0000 </r>
       <r>   -6.3596    1.0000 </r>
       <r>   -6.2044    1.0000 </r>
       <r>   -6.1614    1.0000 </r>
       <r>   -5.9068    1.0000 </r>
       <r>   -5.3801    1.0000 </r>
       <r>   -5.1282    1.0000 </r>
       <r>   -4.9370    1.0000 </r>
       <r>   -4.8317    1.0000 </r>
       <r>   -4.5134    1.0000 </r>
       <r>   -4.4177    1.0000 </r>
       <r>   -4.3385    1.0000 </r>
       <r>   -4.2552    1.0000 </r>
       <r>   -4.0112    1.0000 </r>
       <r>   -3.6415    1.0000 </r>
       <r>   -3.4753    1.0000 </r>
       <r>   -3.3381    1.0000 </r>
       <r>   -3.1367    1.0000 </r>
       <r>   -3.0024    1.0000 </r>
       <r>   -2.9390    1.0000 </r>
       <r>   -2.8655    1.0000 </r>
       <r>   -2.6758    1.0000 </r>
       <r>   -2.5590    1.0000 </r>
       <r>   -2.4326    1.0000 </r>
       <r>   -2.3461    1.0000 </r>
       <r>   -2.2478    1.0000 </r>
       <r>   -1.9615    1.0000 </r>
       <r>   -1.8923    1.0000 </r>
       <r>   -1.7533    1.0000 </r>
       <r>   -1.6374    1.0000 </r>
       <r>   -1.3536    1.0000 </r>
       <r>   -1.2840    1.0000 </r>
       <r>   -0.9378    1.0000 </r>
       <r>   -0.6625    1.0000 </r>
       <r>   -0.4012    1.0000 </r>
       <r>    0.1449    0.7943 </r>
       <r>    0.4929    0.0000 </r>
       <r>    1.0098    0.0000 </r>
       <r>    1.2114    0.0000 </r>
       <r>    1.3062    0.0000 </r>
       <r>    1.4812    0.0000 </r>
       <r>    1.8659    0.0000 </r>
       <r>    2.1700    0.0000 </r>
       <r>    2.3061    0.0000 </r>
       <r>    2.3502    0.0000 </r>
       <r>    2.4667    0.0000 </r>
       <r>    2.6224    0.0000 </r>
       <r>    2.8390    0.0000 </r>
       <r>    2.9686    0.0000 </r>
      </set>
      <set comment="kpoint 13">
       <r>  -13.9673    1.0000 </r>
       <r>  -11.9727    1.0000 </r>
       <r>  -11.8543    1.0000 </r>
       <r>  -11.7601    1.0000 </r>
       <r>  -11.2592    1.0000 </r>
       <r>  -11.2356    1.0000 </r>
       <r>  -10.9542    1.0000 </r>
       <r>  -10.7226    1.0000 </r>
       <r>  -10.5978    1.0000 </r>
       <r>  -10.5932    1.0000 </r>
       <r>  -10.4642    1.0000 </r>
       <r>   -9.7128    1.0000 </r>
       <r>   -8.9567    1.0000 </r>
       <r>   -8.9082    1.0000 </r>
       <r>   -8.1039    1.0000 </r>
       <r>   -7.9926    1.0000 </r>
       <r>   -7.7787    1.0000 </r>
       <r>   -7.7409    1.0000 </r>
       <r>   -7.3470    1.0000 </r>
       <r>   -7.1003    1.0000 </r>
       <r>   -6.9077    1.0000 </r>
       <r>   -6.6895    1.0000 </r>
       <r>   -6.6640    1.0000 </r>
       <r>   -6.6160    1.0000 </r>
       <r>   -5.3440    1.0000 </r>
       <r>   -5.2306    1.0000 </r>
       <r>   -4.7904    1.0000 </r>
       <r>   -4.7592    1.0000 </r>
       <r>   -4.5143    1.0000 </r>
       <r>   -4.4153    1.0000 </r>
       <r>   -4.1473    1.0000 </r>
       <r>   -4.1040    1.0000 </r>
       <r>   -3.8566    1.0000 </r>
       <r>   -3.7093    1.0000 </r>
       <r>   -3.5142    1.0000 </r>
       <r>   -3.3526    1.0000 </r>
       <r>   -3.2802    1.0000 </r>
       <r>   -3.1983    1.0000 </r>
       <r>   -3.1290    1.0000 </r>
       <r>   -2.9571    1.0000 </r>
       <r>   -2.9027    1.0000 </r>
       <r>   -2.7526    1.0000 </r>
       <r>   -2.5320    1.0000 </r>
       <r>   -2.3068    1.0000 </r>
       <r>   -2.2720    1.0000 </r>
       <r>   -2.0936    1.0000 </r>
       <r>   -2.0595    1.0000 </r>
       <r>   -1.8674    1.0000 </r>
       <r>   -1.7489    1.0000 </r>
       <r>   -1.5573    1.0000 </r>
       <r>   -1.4389    1.0000 </r>
       <r>   -1.1413    1.0000 </r>
       <r>   -0.9888    1.0000 </r>
       <r>   -0.7033    1.0000 </r>
       <r>   -0.0466    0.9998 </r>
       <r>    0.2827    0.1298 </r>
       <r>    0.8152    0.0000 </r>
       <r>    1.1833    0.0000 </r>
       <r>    1.3408    0.0000 </r>
       <r>    1.5144    0.0000 </r>
       <r>    1.7151    0.0000 </r>
       <r>    1.8291    0.0000 </r>
       <r>    2.0467    0.0000 </r>
       <r>    2.1644    0.0000 </r>
       <r>    2.2242    0.0000 </r>
       <r>    2.5387    0.0000 </r>
       <r>    2.6470    0.0000 </r>
       <r>    2.7226    0.0000 </r>
      </set>
      <set comment="kpoint 14">
       <r>  -13.7258    1.0000 </r>
       <r>  -11.7788    1.0000 </r>
       <r>  -11.4225    1.0000 </r>
       <r>  -11.2658    1.0000 </r>
       <r>  -10.9584    1.0000 </r>
       <r>  -10.9447    1.0000 </r>
       <r>  -10.8615    1.0000 </r>
       <r>  -10.7005    1.0000 </r>
       <r>  -10.6688    1.0000 </r>
       <r>  -10.5909    1.0000 </r>
       <r>  -10.5727    1.0000 </r>
       <r>   -9.7394    1.0000 </r>
       <r>   -9.0854    1.0000 </r>
       <r>   -8.5521    1.0000 </r>
       <r>   -8.3956    1.0000 </r>
       <r>   -8.3205    1.0000 </r>
       <r>   -8.1851    1.0000 </r>
       <r>   -7.7293    1.0000 </r>
       <r>   -7.5056    1.0000 </r>
       <r>   -7.4026    1.0000 </r>
       <r>   -7.3085    1.0000 </r>
       <r>   -7.2747    1.0000 </r>
       <r>   -7.1444    1.0000 </r>
       <r>   -6.8346    1.0000 </r>
       <r>   -5.0906    1.0000 </r>
       <r>   -5.0174    1.0000 </r>
       <r>   -4.6593    1.0000 </r>
       <r>   -4.4686    1.0000 </r>
       <r>   -4.4150    1.0000 </r>
       <r>   -4.1924    1.0000 </r>
       <r>   -4.1505    1.0000 </r>
       <r>   -4.1195    1.0000 </r>
       <r>   -3.9248    1.0000 </r>
       <r>   -3.7654    1.0000 </r>
       <r>   -3.6637    1.0000 </r>
       <r>   -3.5553    1.0000 </r>
       <r>   -3.4858    1.0000 </r>
       <r>   -3.3492    1.0000 </r>
       <r>   -3.2617    1.0000 </r>
       <r>   -3.1663    1.0000 </r>
       <r>   -2.9849    1.0000 </r>
       <r>   -2.6833    1.0000 </r>
       <r>   -2.6149    1.0000 </r>
       <r>   -2.5465    1.0000 </r>
       <r>   -2.3486    1.0000 </r>
       <r>   -2.1245    1.0000 </r>
       <r>   -2.1077    1.0000 </r>
       <r>   -1.8705    1.0000 </r>
       <r>   -1.7043    1.0000 </r>
       <r>   -1.6286    1.0000 </r>
       <r>   -1.5007    1.0000 </r>
       <r>   -1.3102    1.0000 </r>
       <r>   -0.9362    1.0000 </r>
       <r>   -0.8358    1.0000 </r>
       <r>   -0.0749    1.0000 </r>
       <r>    0.1951    0.5445 </r>
       <r>    0.8405    0.0000 </r>
       <r>    1.3860    0.0000 </r>
       <r>    1.5031    0.0000 </r>
       <r>    1.5123    0.0000 </r>
       <r>    1.5736    0.0000 </r>
       <r>    1.6788    0.0000 </r>
       <r>    1.8040    0.0000 </r>
       <r>    2.0635    0.0000 </r>
       <r>    2.1998    0.0000 </r>
       <r>    2.3985    0.0000 </r>
       <r>    2.4562    0.0000 </r>
       <r>    2.5155    0.0000 </r>
      </set>
      <set comment="kpoint 15">
       <r>  -13.7262    1.0000 </r>
       <r>  -11.7774    1.0000 </r>
       <r>  -11.5297    1.0000 </r>
       <r>  -11.0720    1.0000 </r>
       <r>  -10.9444    1.0000 </r>
       <r>  -10.9177    1.0000 </r>
       <r>  -10.8073    1.0000 </r>
       <r>  -10.7499    1.0000 </r>
       <r>  -10.7037    1.0000 </r>
       <r>  -10.6616    1.0000 </r>
       <r>  -10.6111    1.0000 </r>
       <r>   -9.7306    1.0000 </r>
       <r>   -9.1070    1.0000 </r>
       <r>   -8.7545    1.0000 </r>
       <r>   -8.4252    1.0000 </r>
       <r>   -8.1649    1.0000 </r>
       <r>   -7.9391    1.0000 </r>
       <r>   -7.7388    1.0000 </r>
       <r>   -7.5935    1.0000 </r>
       <r>   -7.5168    1.0000 </r>
       <r>   -7.2789    1.0000 </r>
       <r>   -7.2652    1.0000 </r>
       <r>   -7.2144    1.0000 </r>
       <r>   -6.6635    1.0000 </r>
       <r>   -5.0437    1.0000 </r>
       <r>   -4.7370    1.0000 </r>
       <r>   -4.6198    1.0000 </r>
       <r>   -4.5742    1.0000 </r>
       <r>   -4.4735    1.0000 </r>
       <r>   -4.3541    1.0000 </r>
       <r>   -4.2516    1.0000 </r>
       <r>   -4.0050    1.0000 </r>
       <r>   -3.9923    1.0000 </r>
       <r>   -3.8842    1.0000 </r>
       <r>   -3.7654    1.0000 </r>
       <r>   -3.6464    1.0000 </r>
       <r>   -3.5365    1.0000 </r>
       <r>   -3.3821    1.0000 </r>
       <r>   -3.3372    1.0000 </r>
       <r>   -3.1898    1.0000 </r>
       <r>   -2.8097    1.0000 </r>
       <r>   -2.7018    1.0000 </r>
       <r>   -2.6447    1.0000 </r>
       <r>   -2.3849    1.0000 </r>
       <r>   -2.3659    1.0000 </r>
       <r>   -2.1671    1.0000 </r>
       <r>   -2.1133    1.0000 </r>
       <r>   -1.9056    1.0000 </r>
       <r>   -1.7550    1.0000 </r>
       <r>   -1.6096    1.0000 </r>
       <r>   -1.4709    1.0000 </r>
       <r>   -1.2897    1.0000 </r>
       <r>   -0.8231    1.0000 </r>
       <r>   -0.6713    1.0000 </r>
       <r>   -0.0009    0.9980 </r>
       <r>    0.2903    0.1083 </r>
       <r>    1.0321    0.0000 </r>
       <r>    1.3466    0.0000 </r>
       <r>    1.4478    0.0000 </r>
       <r>    1.6679    0.0000 </r>
       <r>    1.7146    0.0000 </r>
       <r>    1.7903    0.0000 </r>
       <r>    1.8013    0.0000 </r>
       <r>    2.0871    0.0000 </r>
       <r>    2.2322    0.0000 </r>
       <r>    2.2837    0.0000 </r>
       <r>    2.3648    0.0000 </r>
       <r>    2.5908    0.0000 </r>
      </set>
      <set comment="kpoint 16">
       <r>  -13.9685    1.0000 </r>
       <r>  -12.0965    1.0000 </r>
       <r>  -11.8260    1.0000 </r>
       <r>  -11.4856    1.0000 </r>
       <r>  -11.3029    1.0000 </r>
       <r>  -11.2345    1.0000 </r>
       <r>  -10.9615    1.0000 </r>
       <r>  -10.9029    1.0000 </r>
       <r>  -10.6294    1.0000 </r>
       <r>  -10.5968    1.0000 </r>
       <r>  -10.4465    1.0000 </r>
       <r>   -9.6827    1.0000 </r>
       <r>   -8.9732    1.0000 </r>
       <r>   -8.7385    1.0000 </r>
       <r>   -8.4829    1.0000 </r>
       <r>   -8.0402    1.0000 </r>
       <r>   -7.6079    1.0000 </r>
       <r>   -7.4299    1.0000 </r>
       <r>   -7.3482    1.0000 </r>
       <r>   -7.3222    1.0000 </r>
       <r>   -6.8328    1.0000 </r>
       <r>   -6.8136    1.0000 </r>
       <r>   -6.6530    1.0000 </r>
       <r>   -6.3295    1.0000 </r>
       <r>   -5.2063    1.0000 </r>
       <r>   -5.0514    1.0000 </r>
       <r>   -4.8518    1.0000 </r>
       <r>   -4.8240    1.0000 </r>
       <r>   -4.4953    1.0000 </r>
       <r>   -4.3954    1.0000 </r>
       <r>   -4.2677    1.0000 </r>
       <r>   -4.1205    1.0000 </r>
       <r>   -4.0647    1.0000 </r>
       <r>   -3.8063    1.0000 </r>
       <r>   -3.7217    1.0000 </r>
       <r>   -3.6364    1.0000 </r>
       <r>   -3.4038    1.0000 </r>
       <r>   -3.2613    1.0000 </r>
       <r>   -3.1710    1.0000 </r>
       <r>   -3.0889    1.0000 </r>
       <r>   -2.7698    1.0000 </r>
       <r>   -2.6326    1.0000 </r>
       <r>   -2.4722    1.0000 </r>
       <r>   -2.4122    1.0000 </r>
       <r>   -2.2396    1.0000 </r>
       <r>   -2.0771    1.0000 </r>
       <r>   -1.9477    1.0000 </r>
       <r>   -1.8320    1.0000 </r>
       <r>   -1.7791    1.0000 </r>
       <r>   -1.6506    1.0000 </r>
       <r>   -1.3674    1.0000 </r>
       <r>   -1.1338    1.0000 </r>
       <r>   -0.6489    1.0000 </r>
       <r>   -0.3681    1.0000 </r>
       <r>    0.0910    0.9434 </r>
       <r>    0.5191    0.0000 </r>
       <r>    1.2006    0.0000 </r>
       <r>    1.3299    0.0000 </r>
       <r>    1.4831    0.0000 </r>
       <r>    1.7466    0.0000 </r>
       <r>    1.8530    0.0000 </r>
       <r>    1.9111    0.0000 </r>
       <r>    2.0862    0.0000 </r>
       <r>    2.1288    0.0000 </r>
       <r>    2.1971    0.0000 </r>
       <r>    2.2764    0.0000 </r>
       <r>    2.4347    0.0000 </r>
       <r>    2.6121    0.0000 </r>
      </set>
      <set comment="kpoint 17">
       <r>  -14.3037    1.0000 </r>
       <r>  -12.5905    1.0000 </r>
       <r>  -12.0576    1.0000 </r>
       <r>  -11.9470    1.0000 </r>
       <r>  -11.6398    1.0000 </r>
       <r>  -11.6204    1.0000 </r>
       <r>  -11.3228    1.0000 </r>
       <r>  -11.2201    1.0000 </r>
       <r>  -10.7709    1.0000 </r>
       <r>  -10.7514    1.0000 </r>
       <r>  -10.4181    1.0000 </r>
       <r>   -9.6943    1.0000 </r>
       <r>   -8.7166    1.0000 </r>
       <r>   -8.5497    1.0000 </r>
       <r>   -8.1800    1.0000 </r>
       <r>   -7.9039    1.0000 </r>
       <r>   -7.3662    1.0000 </r>
       <r>   -6.9940    1.0000 </r>
       <r>   -6.9439    1.0000 </r>
       <r>   -6.8626    1.0000 </r>
       <r>   -6.3005    1.0000 </r>
       <r>   -6.1594    1.0000 </r>
       <r>   -5.9746    1.0000 </r>
       <r>   -5.9437    1.0000 </r>
       <r>   -5.1638    1.0000 </r>
       <r>   -5.1353    1.0000 </r>
       <r>   -4.9255    1.0000 </r>
       <r>   -4.8725    1.0000 </r>
       <r>   -4.6425    1.0000 </r>
       <r>   -4.5048    1.0000 </r>
       <r>   -4.3073    1.0000 </r>
       <r>   -4.2418    1.0000 </r>
       <r>   -4.0966    1.0000 </r>
       <r>   -3.8137    1.0000 </r>
       <r>   -3.5216    1.0000 </r>
       <r>   -3.4552    1.0000 </r>
       <r>   -3.2695    1.0000 </r>
       <r>   -3.0964    1.0000 </r>
       <r>   -3.0367    1.0000 </r>
       <r>   -2.8343    1.0000 </r>
       <r>   -2.8121    1.0000 </r>
       <r>   -2.6426    1.0000 </r>
       <r>   -2.4768    1.0000 </r>
       <r>   -2.3535    1.0000 </r>
       <r>   -2.0234    1.0000 </r>
       <r>   -1.8823    1.0000 </r>
       <r>   -1.8689    1.0000 </r>
       <r>   -1.7204    1.0000 </r>
       <r>   -1.5828    1.0000 </r>
       <r>   -1.3557    1.0000 </r>
       <r>   -1.2720    1.0000 </r>
       <r>   -0.8701    1.0000 </r>
       <r>   -0.4575    1.0000 </r>
       <r>   -0.0928    1.0000 </r>
       <r>    0.2743    0.1567 </r>
       <r>    0.7423    0.0000 </r>
       <r>    1.1495    0.0000 </r>
       <r>    1.4849    0.0000 </r>
       <r>    1.6497    0.0000 </r>
       <r>    1.9184    0.0000 </r>
       <r>    1.9597    0.0000 </r>
       <r>    2.0339    0.0000 </r>
       <r>    2.1731    0.0000 </r>
       <r>    2.2797    0.0000 </r>
       <r>    2.3884    0.0000 </r>
       <r>    2.4328    0.0000 </r>
       <r>    2.6859    0.0000 </r>
       <r>    2.7535    0.0000 </r>
      </set>
      <set comment="kpoint 18">
       <r>  -14.6213    1.0000 </r>
       <r>  -12.9857    1.0000 </r>
       <r>  -12.3654    1.0000 </r>
       <r>  -12.3509    1.0000 </r>
       <r>  -11.9904    1.0000 </r>
       <r>  -11.8928    1.0000 </r>
       <r>  -11.6491    1.0000 </r>
       <r>  -11.5180    1.0000 </r>
       <r>  -11.0260    1.0000 </r>
       <r>  -10.9822    1.0000 </r>
       <r>  -10.5969    1.0000 </r>
       <r>   -9.7772    1.0000 </r>
       <r>   -8.6072    1.0000 </r>
       <r>   -8.3938    1.0000 </r>
       <r>   -7.7744    1.0000 </r>
       <r>   -7.6368    1.0000 </r>
       <r>   -7.1369    1.0000 </r>
       <r>   -6.6988    1.0000 </r>
       <r>   -6.6298    1.0000 </r>
       <r>   -6.5825    1.0000 </r>
       <r>   -6.0428    1.0000 </r>
       <r>   -5.7395    1.0000 </r>
       <r>   -5.5548    1.0000 </r>
       <r>   -5.3283    1.0000 </r>
       <r>   -4.9476    1.0000 </r>
       <r>   -4.8246    1.0000 </r>
       <r>   -4.5909    1.0000 </r>
       <r>   -4.5206    1.0000 </r>
       <r>   -4.4771    1.0000 </r>
       <r>   -4.2281    1.0000 </r>
       <r>   -4.1709    1.0000 </r>
       <r>   -4.1210    1.0000 </r>
       <r>   -3.7926    1.0000 </r>
       <r>   -3.6866    1.0000 </r>
       <r>   -3.4478    1.0000 </r>
       <r>   -3.4291    1.0000 </r>
       <r>   -3.2400    1.0000 </r>
       <r>   -3.1041    1.0000 </r>
       <r>   -2.9859    1.0000 </r>
       <r>   -2.7051    1.0000 </r>
       <r>   -2.5974    1.0000 </r>
       <r>   -2.5310    1.0000 </r>
       <r>   -2.4331    1.0000 </r>
       <r>   -2.3202    1.0000 </r>
       <r>   -1.9046    1.0000 </r>
       <r>   -1.8355    1.0000 </r>
       <r>   -1.7472    1.0000 </r>
       <r>   -1.4647    1.0000 </r>
       <r>   -1.3399    1.0000 </r>
       <r>   -1.0919    1.0000 </r>
       <r>   -1.0432    1.0000 </r>
       <r>   -0.4826    1.0000 </r>
       <r>   -0.2110    1.0000 </r>
       <r>    0.0898    0.9452 </r>
       <r>    0.5973    0.0000 </r>
       <r>    0.9487    0.0000 </r>
       <r>    1.1614    0.0000 </r>
       <r>    1.5023    0.0000 </r>
       <r>    1.8312    0.0000 </r>
       <r>    1.9847    0.0000 </r>
       <r>    2.1056    0.0000 </r>
       <r>    2.2470    0.0000 </r>
       <r>    2.3654    0.0000 </r>
       <r>    2.4838    0.0000 </r>
       <r>    2.7085    0.0000 </r>
       <r>    2.7875    0.0000 </r>
       <r>    2.9150    0.0000 </r>
       <r>    2.9771    0.0000 </r>
      </set>
      <set comment="kpoint 19">
       <r>  -14.8696    1.0000 </r>
       <r>  -13.2694    1.0000 </r>
       <r>  -12.6663    1.0000 </r>
       <r>  -12.6251    1.0000 </r>
       <r>  -12.2574    1.0000 </r>
       <r>  -12.1099    1.0000 </r>
       <r>  -11.8930    1.0000 </r>
       <r>  -11.7369    1.0000 </r>
       <r>  -11.2578    1.0000 </r>
       <r>  -11.1935    1.0000 </r>
       <r>  -10.7994    1.0000 </r>
       <r>   -9.8792    1.0000 </r>
       <r>   -8.6836    1.0000 </r>
[...]
       <r>    2.5922    0.0000 </r>
      </set>
      <set comment="kpoint 54">
       <r>  -13.7260    1.0000 </r>
       <r>  -11.7785    1.0000 </r>
       <r>  -11.4840    1.0000 </r>
       <r>  -11.1698    1.0000 </r>
       <r>  -10.9486    1.0000 </r>
       <r>  -10.9340    1.0000 </r>
       <r>  -10.8477    1.0000 </r>
       <r>  -10.7222    1.0000 </r>
       <r>  -10.6754    1.0000 </r>
       <r>  -10.6147    1.0000 </r>
       <r>  -10.5934    1.0000 </r>
       <r>   -9.7360    1.0000 </r>
       <r>   -9.0902    1.0000 </r>
       <r>   -8.6633    1.0000 </r>
       <r>   -8.4321    1.0000 </r>
       <r>   -8.1888    1.0000 </r>
       <r>   -8.1142    1.0000 </r>
       <r>   -7.7464    1.0000 </r>
       <r>   -7.5497    1.0000 </r>
       <r>   -7.4917    1.0000 </r>
       <r>   -7.2822    1.0000 </r>
       <r>   -7.2318    1.0000 </r>
       <r>   -7.1734    1.0000 </r>
       <r>   -6.7158    1.0000 </r>
       <r>   -5.0402    1.0000 </r>
       <r>   -4.9449    1.0000 </r>
       <r>   -4.7039    1.0000 </r>
       <r>   -4.4812    1.0000 </r>
       <r>   -4.4125    1.0000 </r>
       <r>   -4.2624    1.0000 </r>
       <r>   -4.2288    1.0000 </r>
       <r>   -4.0700    1.0000 </r>
       <r>   -3.9433    1.0000 </r>
       <r>   -3.8072    1.0000 </r>
       <r>   -3.7703    1.0000 </r>
       <r>   -3.5794    1.0000 </r>
       <r>   -3.5330    1.0000 </r>
       <r>   -3.3430    1.0000 </r>
       <r>   -3.2599    1.0000 </r>
       <r>   -3.1477    1.0000 </r>
       <r>   -3.0179    1.0000 </r>
       <r>   -2.7050    1.0000 </r>
       <r>   -2.5965    1.0000 </r>
       <r>   -2.3804    1.0000 </r>
       <r>   -2.3278    1.0000 </r>
       <r>   -2.1677    1.0000 </r>
       <r>   -2.1043    1.0000 </r>
       <r>   -1.8802    1.0000 </r>
       <r>   -1.7188    1.0000 </r>
       <r>   -1.5903    1.0000 </r>
       <r>   -1.5234    1.0000 </r>
       <r>   -1.3635    1.0000 </r>
       <r>   -0.9171    1.0000 </r>
       <r>   -0.7135    1.0000 </r>
       <r>   -0.0269    0.9994 </r>
       <r>    0.3162    0.0547 </r>
       <r>    0.9926    0.0000 </r>
       <r>    1.3376    0.0000 </r>
       <r>    1.4179    0.0000 </r>
       <r>    1.6098    0.0000 </r>
       <r>    1.6551    0.0000 </r>
       <r>    1.7029    0.0000 </r>
       <r>    1.8808    0.0000 </r>
       <r>    2.0119    0.0000 </r>
       <r>    2.0640    0.0000 </r>
       <r>    2.3209    0.0000 </r>
       <r>    2.3793    0.0000 </r>
       <r>    2.4532    0.0000 </r>
      </set>
     </set>
    </set>
   </array>
  </eigenvalues>
  <separator name="orbital magnetization" >
   <v name="MAGDIPOLOUT">      0.00000000      0.00000000      0.00000000</v>
  </separator>
  <dos>
   <i name="efermi">      0.20298391 </i>
   <total>
    <array>
     <dimension dim="1">gridpoints</dimension>
     <dimension dim="2">spin</dimension>
     <field>energy</field>
     <field>total</field>
     <field>integrated</field>
     <set>
      <set comment="spin 1">
       <r>   -16.0792     0.0000     0.0000 </r>
       <r>   -16.0116     0.0000     0.0000 </r>
       <r>   -15.9441     0.0000     0.0000 </r>
       <r>   -15.8765     0.0000     0.0000 </r>
       <r>   -15.8089     0.0000     0.0000 </r>
       <r>   -15.7413     0.0000     0.0000 </r>
       <r>   -15.6737     0.0000     0.0000 </r>
       <r>   -15.6061     0.0000     0.0000 </r>
       <r>   -15.5385     0.0000     0.0000 </r>
       <r>   -15.4709     0.0000     0.0000 </r>
       <r>   -15.4033     0.0000     0.0000 </r>
       <r>   -15.3357     0.0003     0.0000 </r>
       <r>   -15.2681     0.0090     0.0006 </r>
       <r>   -15.2006     0.1137     0.0083 </r>
       <r>   -15.1330     0.6584     0.0528 </r>
       <r>   -15.0654     1.8138     0.1754 </r>
       <r>   -14.9978     2.4945     0.3440 </r>
       <r>   -14.9302     2.1629     0.4902 </r>
       <r>   -14.8626     1.9623     0.6228 </r>
       <r>   -14.7950     1.5199     0.7256 </r>
       <r>   -14.7274     0.8389     0.7823 </r>
       <r>   -14.6598     1.1140     0.8576 </r>
       <r>   -14.5922     1.6741     0.9707 </r>
       <r>   -14.5247     1.1753     1.0502 </r>
       <r>   -14.4571     0.4147     1.0782 </r>
       <r>   -14.3895     0.4801     1.1106 </r>
       <r>   -14.3219     1.2928     1.1980 </r>
       <r>   -14.2543     1.6390     1.3088 </r>
       <r>   -14.1867     0.8970     1.3694 </r>
       <r>   -14.1191     0.2772     1.3882 </r>
       <r>   -14.0515     0.4861     1.4210 </r>
       <r>   -13.9839     1.3300     1.5109 </r>
       <r>   -13.9163     1.6395     1.6217 </r>
       <r>   -13.8487     1.0229     1.6909 </r>
       <r>   -13.7812     0.9940     1.7581 </r>
       <r>   -13.7136     1.6253     1.8679 </r>
       <r>   -13.6460     1.4226     1.9641 </r>
       <r>   -13.5784     0.8078     2.0187 </r>
       <r>   -13.5108     1.0563     2.0901 </r>
       <r>   -13.4432     1.7595     2.2090 </r>
       <r>   -13.3756     2.0091     2.3448 </r>
       <r>   -13.3080     1.9257     2.4749 </r>
       <r>   -13.2404     1.8477     2.5998 </r>
       <r>   -13.1728     1.7130     2.7156 </r>
       <r>   -13.1053     1.5341     2.8193 </r>
       <r>   -13.0377     1.6384     2.9300 </r>
       <r>   -12.9701     2.5368     3.1015 </r>
       <r>   -12.9025     3.8561     3.3621 </r>
       <r>   -12.8349     4.6748     3.6781 </r>
       <r>   -12.7673     4.3274     3.9706 </r>
       <r>   -12.6997     3.5976     4.2137 </r>
       <r>   -12.6321     3.8079     4.4711 </r>
       <r>   -12.5645     4.3551     4.7655 </r>
       <r>   -12.4969     4.5252     5.0714 </r>
       <r>   -12.4293     5.0839     5.4150 </r>
       <r>   -12.3618     5.5324     5.7889 </r>
       <r>   -12.2942     5.6680     6.1720 </r>
       <r>   -12.2266     5.9288     6.5727 </r>
       <r>   -12.1590     6.0838     6.9840 </r>
       <r>   -12.0914     7.3311     7.4795 </r>
       <r>   -12.0238     8.8815     8.0798 </r>
       <r>   -11.9562     8.7344     8.6701 </r>
       <r>   -11.8886     8.1421     9.2205 </r>
       <r>   -11.8210     8.3634     9.7858 </r>
       <r>   -11.7534     7.6125    10.3003 </r>
       <r>   -11.6859     6.5471    10.7428 </r>
       <r>   -11.6183     7.2281    11.2314 </r>
       <r>   -11.5507     7.9297    11.7673 </r>
       <r>   -11.4831     7.6611    12.2852 </r>
       <r>   -11.4155     7.4048    12.7856 </r>
       <r>   -11.3479     8.4168    13.3545 </r>
       <r>   -11.2803    10.5178    14.0654 </r>
       <r>   -11.2127    10.5156    14.7762 </r>
       <r>   -11.1451     7.5878    15.2891 </r>
       <r>   -11.0775     5.9061    15.6883 </r>
       <r>   -11.0099     8.3374    16.2518 </r>
       <r>   -10.9424    11.4239    17.0239 </r>
       <r>   -10.8748    11.0120    17.7682 </r>
       <r>   -10.8072     9.9587    18.4414 </r>
       <r>   -10.7396    10.1307    19.1261 </r>
       <r>   -10.6720    10.3375    19.8248 </r>
       <r>   -10.6044    10.8091    20.5554 </r>
       <r>   -10.5368     8.8779    21.1555 </r>
       <r>   -10.4692     5.3952    21.5201 </r>
       <r>   -10.4016     3.7475    21.7734 </r>
       <r>   -10.3340     2.3665    21.9334 </r>
       <r>   -10.2665     0.8334    21.9897 </r>
       <r>   -10.1989     0.1456    21.9996 </r>
       <r>   -10.1313     0.0769    22.0048 </r>
       <r>   -10.0637     0.4631    22.0360 </r>
       <r>    -9.9961     1.6345    22.1465 </r>
       <r>    -9.9285     3.1505    22.3595 </r>
       <r>    -9.8609     3.9698    22.6278 </r>
       <r>    -9.7933     4.8183    22.9535 </r>
       <r>    -9.7257     6.3206    23.3807 </r>
       <r>    -9.6581     5.7506    23.7694 </r>
       <r>    -9.5905     2.7314    23.9540 </r>
       <r>    -9.5230     0.6153    23.9956 </r>
       <r>    -9.4554     0.0629    23.9998 </r>
       <r>    -9.3878     0.0029    24.0000 </r>
       <r>    -9.3202     0.0037    24.0003 </r>
       <r>    -9.2526     0.0601    24.0043 </r>
       <r>    -9.1850     0.4227    24.0329 </r>
       <r>    -9.1174     1.3294    24.1227 </r>
       <r>    -9.0498     2.1947    24.2711 </r>
       <r>    -8.9822     2.9585    24.4711 </r>
       <r>    -8.9146     4.0602    24.7455 </r>
       <r>    -8.8471     4.8850    25.0757 </r>
       <r>    -8.7795     6.2186    25.4960 </r>
       <r>    -8.7119     8.0835    26.0423 </r>
       <r>    -8.6443     8.4743    26.6151 </r>
       <r>    -8.5767     6.9891    27.0875 </r>
       <r>    -8.5091     5.1729    27.4372 </r>
       <r>    -8.4415     4.4470    27.7377 </r>
       <r>    -8.3739     4.3750    28.0334 </r>
       <r>    -8.3063     3.4764    28.2684 </r>
       <r>    -8.2387     2.8036    28.4579 </r>
       <r>    -8.1711     3.6192    28.7025 </r>
       <r>    -8.1036     4.5796    29.0121 </r>
       <r>    -8.0360     4.7371    29.3323 </r>
       <r>    -7.9684     4.4184    29.6309 </r>
       <r>    -7.9008     4.3203    29.9229 </r>
       <r>    -7.8332     5.4756    30.2930 </r>
       <r>    -7.7656     7.8207    30.8216 </r>
       <r>    -7.6980     8.6676    31.4075 </r>
       <r>    -7.6304     7.3791    31.9062 </r>
       <r>    -7.5628     6.8971    32.3724 </r>
       <r>    -7.4952     7.1623    32.8565 </r>
       <r>    -7.4277     7.2110    33.3439 </r>
       <r>    -7.3601     8.0755    33.8897 </r>
       <r>    -7.2925     8.9351    34.4936 </r>
       <r>    -7.2249     8.3895    35.0607 </r>
       <r>    -7.1573     6.7204    35.5149 </r>
       <r>    -7.0897     4.9981    35.8528 </r>
       <r>    -7.0221     4.0315    36.1252 </r>
       <r>    -6.9545     4.7408    36.4457 </r>
       <r>    -6.8869     6.4979    36.8849 </r>
       <r>    -6.8193     7.9808    37.4243 </r>
       <r>    -6.7517    10.3277    38.1224 </r>
       <r>    -6.6842    13.9691    39.0665 </r>
       <r>    -6.6166    14.0567    40.0166 </r>
       <r>    -6.5490     9.4198    40.6533 </r>
       <r>    -6.4814     6.0001    41.0589 </r>
       <r>    -6.4138     5.6752    41.4425 </r>
       <r>    -6.3462     6.3795    41.8737 </r>
       <r>    -6.2786     6.2148    42.2937 </r>
       <r>    -6.2110     5.3068    42.6524 </r>
       <r>    -6.1434     4.7651    42.9745 </r>
       <r>    -6.0758     4.3514    43.2686 </r>
       <r>    -6.0083     4.1597    43.5497 </r>
       <r>    -5.9407     4.2915    43.8398 </r>
       <r>    -5.8731     4.2042    44.1240 </r>
       <r>    -5.8055     4.3167    44.4157 </r>
       <r>    -5.7379     5.2114    44.7680 </r>
       <r>    -5.6703     5.8319    45.1622 </r>
       <r>    -5.6027     5.4420    45.5300 </r>
       <r>    -5.5351     4.3389    45.8233 </r>
       <r>    -5.4675     3.0557    46.0298 </r>
       <r>    -5.3999     3.1565    46.2431 </r>
       <r>    -5.3323     4.7204    46.5622 </r>
       <r>    -5.2648     5.6075    46.9412 </r>
       <r>    -5.1972     5.9231    47.3416 </r>
       <r>    -5.1296     6.0933    47.7534 </r>
       <r>    -5.0620     6.2539    48.1761 </r>
       <r>    -4.9944     7.2326    48.6650 </r>
       <r>    -4.9268     8.7164    49.2541 </r>
       <r>    -4.8592     9.9663    49.9277 </r>
       <r>    -4.7916    10.1870    50.6163 </r>
       <r>    -4.7240     9.8320    51.2808 </r>
       <r>    -4.6564    10.6775    52.0025 </r>
       <r>    -4.5889    11.8470    52.8033 </r>
       <r>    -4.5213    13.0438    53.6849 </r>
       <r>    -4.4537    13.8454    54.6207 </r>
       <r>    -4.3861    12.4523    55.4624 </r>
       <r>    -4.3185    10.7675    56.1902 </r>
       <r>    -4.2509    11.6080    56.9748 </r>
       <r>    -4.1833    14.2084    57.9351 </r>
       <r>    -4.1157    15.7301    58.9983 </r>
       <r>    -4.0481    14.7953    59.9983 </r>
       <r>    -3.9805    12.0940    60.8158 </r>
       <r>    -3.9129     9.2430    61.4405 </r>
       <r>    -3.8454     8.6018    62.0219 </r>
       <r>    -3.7778    11.5143    62.8002 </r>
       <r>    -3.7102    14.7153    63.7948 </r>
       <r>    -3.6426    15.3032    64.8291 </r>
       <r>    -3.5750    14.5199    65.8105 </r>
       <r>    -3.5074    13.9872    66.7559 </r>
       <r>    -3.4398    13.1609    67.6455 </r>
       <r>    -3.3722    12.2140    68.4710 </r>
       <r>    -3.3046    12.4315    69.3113 </r>
       <r>    -3.2370    14.0524    70.2611 </r>
       <r>    -3.1695    15.6891    71.3215 </r>
       <r>    -3.1019    16.8087    72.4577 </r>
       <r>    -3.0343    17.2255    73.6219 </r>
       <r>    -2.9667    16.2710    74.7217 </r>
       <r>    -2.8991    13.7395    75.6504 </r>
       <r>    -2.8315    11.8597    76.4520 </r>
       <r>    -2.7639    12.6482    77.3069 </r>
       <r>    -2.6963    14.9794    78.3193 </r>
       <r>    -2.6287    16.4275    79.4297 </r>
       <r>    -2.5611    16.3733    80.5363 </r>
       <r>    -2.4935    16.4423    81.6477 </r>
       <r>    -2.4260    17.8196    82.8521 </r>
       <r>    -2.3584    19.5556    84.1739 </r>
       <r>    -2.2908    18.7799    85.4432 </r>
       <r>    -2.2232    15.4087    86.4847 </r>
       <r>    -2.1556    12.7368    87.3456 </r>
       <r>    -2.0880    12.1702    88.1682 </r>
       <r>    -2.0204    12.7897    89.0326 </r>
       <r>    -1.9528    15.1099    90.0539 </r>
       <r>    -1.8852    17.4953    91.2364 </r>
       <r>    -1.8176    16.8210    92.3734 </r>
       <r>    -1.7501    14.6818    93.3657 </r>
       <r>    -1.6825    12.7621    94.2283 </r>
       <r>    -1.6149    11.2055    94.9857 </r>
       <r>    -1.5473    10.1530    95.6720 </r>
       <r>    -1.4797     9.8945    96.3407 </r>
       <r>    -1.4121    10.8384    97.0733 </r>
       <r>    -1.3445    12.1181    97.8924 </r>
       <r>    -1.2769    11.9413    98.6995 </r>
       <r>    -1.2093     9.8196    99.3632 </r>
       <r>    -1.1417     9.0949    99.9779 </r>
       <r>    -1.0741    10.0713   100.6587 </r>
       <r>    -1.0066    10.8297   101.3906 </r>
       <r>    -0.9390    11.3661   102.1589 </r>
       <r>    -0.8714    10.2332   102.8506 </r>
       <r>    -0.8038     6.7187   103.3047 </r>
       <r>    -0.7362     3.9946   103.5747 </r>
       <r>    -0.6686     3.8594   103.8355 </r>
       <r>    -0.6010     4.2800   104.1248 </r>
       <r>    -0.5334     3.7696   104.3796 </r>
       <r>    -0.4658     3.1847   104.5949 </r>
       <r>    -0.3982     3.1497   104.8077 </r>
       <r>    -0.3307     2.8282   104.9989 </r>
       <r>    -0.2631     2.3377   105.1569 </r>
       <r>    -0.1955     3.0279   105.3616 </r>
       <r>    -0.1279     4.7871   105.6851 </r>
       <r>    -0.0603     6.7713   106.1428 </r>
       <r>     0.0073     7.7384   106.6658 </r>
       <r>     0.0749     7.6146   107.1805 </r>
       <r>     0.1425     6.9495   107.6502 </r>
       <r>     0.2101     5.7188   108.0368 </r>
       <r>     0.2777     4.8240   108.3628 </r>
       <r>     0.3453     4.5824   108.6726 </r>
       <r>     0.4128     5.0128   109.0114 </r>
       <r>     0.4804     5.7803   109.4021 </r>
       <r>     0.5480     5.2663   109.7580 </r>
       <r>     0.6156     3.7881   110.0141 </r>
       <r>     0.6832     3.1287   110.2255 </r>
       <r>     0.7508     3.7074   110.4761 </r>
       <r>     0.8184     5.0346   110.8164 </r>
       <r>     0.8860     5.9148   111.2162 </r>
       <r>     0.9536     6.8039   111.6761 </r>
       <r>     1.0212     7.2351   112.1651 </r>
       <r>     1.0887     5.8020   112.5573 </r>
       <r>     1.1563     5.6105   112.9365 </r>
       <r>     1.2239     7.1524   113.4199 </r>
       <r>     1.2915     8.7570   114.0118 </r>
       <r>     1.3591    10.4985   114.7214 </r>
       <r>     1.4267    11.1435   115.4746 </r>
       <r>     1.4943    11.6725   116.2635 </r>
       <r>     1.5619    12.0915   117.0808 </r>
       <r>     1.6295    12.3296   117.9142 </r>
       <r>     1.6971    13.2753   118.8115 </r>
       <r>     1.7647    13.3115   119.7112 </r>
       <r>     1.8322    12.5045   120.5564 </r>
       <r>     1.8998    12.4165   121.3956 </r>
       <r>     1.9674    13.0358   122.2767 </r>
       <r>     2.0350    13.7280   123.2046 </r>
       <r>     2.1026    14.2888   124.1704 </r>
       <r>     2.1702    14.6943   125.1636 </r>
       <r>     2.2378    15.4039   126.2047 </r>
       <r>     2.3054    15.4415   127.2484 </r>
       <r>     2.3730    14.9162   128.2566 </r>
       <r>     2.4406    15.2649   129.2884 </r>
       <r>     2.5081    14.7051   130.2823 </r>
       <r>     2.5757    12.8327   131.1497 </r>
       <r>     2.6433    12.1023   131.9677 </r>
       <r>     2.7109    12.1571   132.7894 </r>
       <r>     2.7785    11.0756   133.5380 </r>
       <r>     2.8461     8.8542   134.1364 </r>
       <r>     2.9137     6.9910   134.6090 </r>
       <r>     2.9813     5.9582   135.0117 </r>
       <r>     3.0489     5.2152   135.3642 </r>
       <r>     3.1165     4.5140   135.6693 </r>
       <r>     3.1840     3.0969   135.8786 </r>
       <r>     3.2516     1.3671   135.9710 </r>
       <r>     3.3192     0.3678   135.9959 </r>
       <r>     3.3868     0.0567   135.9997 </r>
       <r>     3.4544     0.0044   136.0000 </r>
       <r>     3.5220     0.0002   136.0000 </r>
       <r>     3.5896     0.0000   136.0000 </r>
       <r>     3.6572     0.0000   136.0000 </r>
       <r>     3.7248     0.0000   136.0000 </r>
       <r>     3.7924     0.0000   136.0000 </r>
       <r>     3.8600     0.0000   136.0000 </r>
       <r>     3.9275     0.0000   136.0000 </r>
       <r>     3.9951     0.0000   136.0000 </r>
       <r>     4.0627     0.0000   136.0000 </r>
       <r>     4.1303     0.0000   136.0000 </r>
       <r>     4.1979     0.0000   136.0000 </r>
      </set>
     </set>
    </array>
   </total>
  </dos>
 </calculation>
 <structure name="finalpos" >
  <crystal>
   <varray name="basis" >
    <v>       3.54040000       0.00000000       0.00000000 </v>
    <v>      -1.77020000      10.29434800       0.00000000 </v>
    <v>       0.00000000       0.00000000      27.50142900 </v>
   </varray>
   <i name="volume">   1002.32009712 </i>
   <varray name="rec_basis" >
    <v>       0.28245396       0.04857034       0.00000000 </v>
    <v>       0.00000000       0.09714068       0.00000000 </v>
    <v>       0.00000000       0.00000000       0.03636175 </v>
   </varray>
  </crystal>
  <varray name="positions" >
   <v>       0.11402300       0.22804500       0.23316207 </v>
   <v>       0.11402300       0.42804500       0.51499159 </v>
   <v>       0.45808900       0.91617900       0.20939482 </v>
   <v>       0.45808900       0.11617900       0.49122434 </v>
   <v>       0.31085400       0.62170900       0.08414979 </v>
   <v>       0.31085400       0.62170900       0.36597930 </v>
   <v>       0.99923000       0.99846000       0.08631254 </v>
   <v>       0.99923000       0.99846000       0.36814206 </v>
   <v>       0.65492700       0.30985400       0.06041748 </v>
   <v>       0.65492700       0.30985400       0.34224700 </v>
   <v>       0.76973800       0.53947500       0.20725292 </v>
   <v>       0.76973800       0.73947500       0.48908244 </v>
   <v>       0.93971600       0.87943300       0.15783749 </v>
   <v>       0.93971600       0.07943300       0.43966701 </v>
   <v>       0.20515200       0.41030300       0.18578822 </v>
   <v>       0.20515200       0.61030300       0.46761774 </v>
   <v>       0.20184900       0.40369900       0.09969156 </v>
   <v>       0.20184900       0.40369900       0.38152107 </v>
   <v>       0.56380500       0.12761000       0.10779021 </v>
   <v>       0.56380500       0.12761000       0.38961973 </v>
   <v>       0.56710600       0.13421200       0.19387616 </v>
   <v>       0.56710600       0.33421200       0.47570568 </v>
   <v>       0.82923400       0.65846800       0.13571444 </v>
   <v>       0.82923400       0.85846800       0.41754396 </v>
  </varray>
 </structure>
</modeling>
