<?xml version="1.0" encoding="ISO-8859-1"?>
<modeling>
 <generator>
  <i name="program" type="string">vasp </i>
  <i name="version" type="string">5.3.5  </i>
  <i name="subversion" type="string">31Mar14 (build Oct 29 2014 16:16:03) complex                          parallel </i>
  <i name="platform" type="string">Linux-UFHPC </i>
  <i name="date" type="string">2016 02 09 </i>
  <i name="time" type="string">18:23:29 </i>
 </generator>
 <incar>
  <i type="string" name="PREC">accurate</i>
  <i type="int" name="IBRION">     2</i>
  <i name="EDIFF">      0.00000100</i>
  <i type="int" name="NSW">     0</i>
  <i type="int" name="ISIF">     3</i>
  <i name="ENCUT">    300.00000000</i>
  <i type="string" name="LREAL"> Auto</i>
  <i type="int" name="ISMEAR">     0</i>
  <i name="SIGMA">      0.10000000</i>
  <i type="logical" name="LWAVE"> F  </i>
  <i type="logical" name="LCHARG"> F  </i>
  <i type="logical" name="LAECHG"> F  </i>
  <i type="string" name="GGA"> Bo</i>
  <i name="PARAM1">      0.18333333</i>
  <i name="PARAM2">      0.22000000</i>
  <i type="logical" name="LUSE_VDW"> T  </i>
  <i name="AGGAC">      0.00000000</i>
 </incar>
 <kpoints>
  <generation param="Gamma">
   <v type="int" name="divisions">      13        4        2 </v>
   <v name="usershift">      0.00000000       0.00000000       0.00000000 </v>
   <v name="genvec1">      0.07692308      -0.00000000       0.00000000 </v>
   <v name="genvec2">      0.00000000       0.25000000       0.00000000 </v>
   <v name="genvec3">      0.00000000       0.00000000       0.50000000 </v>
   <v name="shift">      0.00000000       0.00000000       0.00000000 </v>
  </generation>
  <varray name="kpointlist" >
   <v>       0.00000000       0.00000000       0.00000000 </v>
   <v>       0.07692308      -0.00000000       0.00000000 </v>
   <v>       0.15384615      -0.00000000       0.00000000 </v>
   <v>       0.23076923      -0.00000000       0.00000000 </v>
   <v>       0.30769231      -0.00000000       0.00000000 </v>
   <v>       0.38461538      -0.00000000       0.00000000 </v>
   <v>       0.46153846      -0.00000000       0.00000000 </v>
   <v>       0.00000000       0.25000000       0.00000000 </v>
   <v>       0.07692308       0.25000000       0.00000000 </v>
   <v>       0.15384615       0.25000000       0.00000000 </v>
   <v>       0.23076923       0.25000000       0.00000000 </v>
   <v>       0.30769231       0.25000000       0.00000000 </v>
   <v>       0.38461538       0.25000000       0.00000000 </v>
   <v>       0.46153846       0.25000000       0.00000000 </v>
   <v>      -0.46153846       0.25000000       0.00000000 </v>
   <v>      -0.38461538       0.25000000       0.00000000 </v>
   <v>      -0.30769231       0.25000000       0.00000000 </v>
   <v>      -0.23076923       0.25000000       0.00000000 </v>
   <v>      -0.15384615       0.25000000       0.00000000 </v>
   <v>      -0.07692308       0.25000000       0.00000000 </v>
   <v>       0.00000000       0.50000000       0.00000000 </v>
   <v>       0.07692308       0.50000000       0.00000000 </v>
   <v>       0.15384615       0.50000000       0.00000000 </v>
   <v>       0.23076923       0.50000000       0.00000000 </v>
   <v>       0.30769231       0.50000000       0.00000000 </v>
   <v>       0.38461538       0.50000000       0.00000000 </v>
   <v>       0.46153846       0.50000000       0.00000000 </v>
   <v>       0.00000000       0.00000000       0.50000000 </v>
   <v>       0.07692308      -0.00000000       0.50000000 </v>
   <v>       0.15384615      -0.00000000       0.50000000 </v>
   <v>       0.23076923      -0.00000000       0.50000000 </v>
   <v>       0.30769231      -0.00000000       0.50000000 </v>
   <v>       0.38461538      -0.00000000       0.50000000 </v>
   <v>       0.46153846      -0.00000000       0.50000000 </v>
   <v>       0.00000000       0.25000000       0.50000000 </v>
   <v>       0.07692308       0.25000000       0.50000000 </v>
   <v>       0.15384615       0.25000000       0.50000000 </v>
   <v>       0.23076923       0.25000000       0.50000000 </v>
   <v>       0.30769231       0.25000000       0.50000000 </v>
   <v>       0.38461538       0.25000000       0.50000000 </v>
   <v>       0.46153846       0.25000000       0.50000000 </v>
   <v>      -0.46153846       0.25000000       0.50000000 </v>
   <v>      -0.38461538       0.25000000       0.50000000 </v>
   <v>      -0.30769231       0.25000000       0.50000000 </v>
   <v>      -0.23076923       0.25000000       0.50000000 </v>
   <v>      -0.15384615       0.25000000       0.50000000 </v>
   <v>      -0.07692308       0.25000000       0.50000000 </v>
   <v>       0.00000000       0.50000000       0.50000000 </v>
   <v>       0.07692308       0.50000000       0.50000000 </v>
   <v>       0.15384615       0.50000000       0.50000000 </v>
   <v>       0.23076923       0.50000000       0.50000000 </v>
   <v>       0.30769231       0.50000000       0.50000000 </v>
   <v>       0.38461538       0.50000000       0.50000000 </v>
   <v>       0.46153846       0.50000000       0.50000000 </v>
  </varray>
  <varray name="weights" >
   <v>       0.00961538 </v>
   <v>       0.01923077 </v>
   <v>       0.01923077 </v>
   <v>       0.01923077 </v>
   <v>       0.01923077 </v>
   <v>       0.01923077 </v>
   <v>       0.01923077 </v>
   <v>       0.01923077 </v>
   <v>       0.01923077 </v>
   <v>       0.01923077 </v>
   <v>       0.01923077 </v>
   <v>       0.01923077 </v>
   <v>       0.01923077 </v>
   <v>       0.01923077 </v>
   <v>       0.01923077 </v>
   <v>       0.01923077 </v>
   <v>       0.01923077 </v>
   <v>       0.01923077 </v>
   <v>       0.01923077 </v>
   <v>       0.01923077 </v>
   <v>       0.00961538 </v>
   <v>       0.01923077 </v>
   <v>       0.01923077 </v>
   <v>       0.01923077 </v>
   <v>       0.01923077 </v>
   <v>       0.01923077 </v>
   <v>       0.01923077 </v>
   <v>       0.00961538 </v>
   <v>       0.01923077 </v>
   <v>       0.01923077 </v>
   <v>       0.01923077 </v>
   <v>       0.01923077 </v>
   <v>       0.01923077 </v>
   <v>       0.01923077 </v>
   <v>       0.01923077 </v>
   <v>       0.01923077 </v>
   <v>       0.01923077 </v>
   <v>       0.01923077 </v>
   <v>       0.01923077 </v>
   <v>       0.01923077 </v>
   <v>       0.01923077 </v>
   <v>       0.01923077 </v>
   <v>       0.01923077 </v>
   <v>       0.01923077 </v>
   <v>       0.01923077 </v>
   <v>       0.01923077 </v>
   <v>       0.01923077 </v>
   <v>       0.00961538 </v>
   <v>       0.01923077 </v>
   <v>       0.01923077 </v>
   <v>       0.01923077 </v>
   <v>       0.01923077 </v>
   <v>       0.01923077 </v>
   <v>       0.01923077 </v>
  </varray>
 </kpoints>
 <parameters>
  <separator name="general" >
   <i type="string" name="SYSTEM">unknown system</i>
   <i type="logical" name="LCOMPAT"> F  </i>
  </separator>
  <separator name="electronic" >
   <i type="string" name="PREC">accura</i>
   <i name="ENMAX">    300.00000000</i>
   <i name="ENAUG">    342.92400000</i>
   <i name="EDIFF">      0.00000100</i>
   <i type="int" name="IALGO">    38</i>
   <i type="int" name="IWAVPR">    10</i>
   <i type="int" name="NBANDS">    68</i>
   <i name="NELECT">    108.00000000</i>
   <i type="int" name="TURBO">     0</i>
   <i type="int" name="IRESTART">     0</i>
   <i type="int" name="NREBOOT">     0</i>
   <i type="int" name="NMIN">     0</i>
   <i name="EREF">      0.00000000</i>
   <separator name="electronic smearing" >
    <i type="int" name="ISMEAR">     0</i>
    <i name="SIGMA">      0.10000000</i>
    <i name="KSPACING">      0.50000000</i>
    <i type="logical" name="KGAMMA"> T  </i>
   </separator>
   <separator name="electronic projectors" >
    <i type="logical" name="LREAL"> T  </i>
    <v name="ROPT">     -0.00025000     -0.00025000</v>
    <i type="int" name="LMAXPAW">  -100</i>
    <i type="int" name="LMAXMIX">     2</i>
    <i type="logical" name="NLSPLINE"> F  </i>
   </separator>
   <separator name="electronic startup" >
    <i type="int" name="ISTART">     0</i>
    <i type="int" name="ICHARG">     2</i>
    <i type="int" name="INIWAV">     1</i>
   </separator>
   <separator name="electronic spin" >
    <i type="int" name="ISPIN">     1</i>
    <i type="logical" name="LNONCOLLINEAR"> F  </i>
    <v name="MAGMOM">      1.00000000      1.00000000      1.00000000      1.00000000      1.00000000      1.00000000      1.00000000      1.00000000      1.00000000      1.00000000      1.00000000      1.00000000      1.00000000      1.00000000      1.00000000      1.00000000      1.00000000      1.00000000      1.00000000      1.00000000
      1.00000000      1.00000000      1.00000000      1.00000000</v>
    <i name="NUPDOWN">     -1.00000000</i>
    <i type="logical" name="LSORBIT"> F  </i>
    <v name="SAXIS">      0.00000000      0.00000000      1.00000000</v>
    <i type="logical" name="LSPIRAL"> F  </i>
    <v name="QSPIRAL">      0.00000000      0.00000000      0.00000000</v>
    <i type="logical" name="LZEROZ"> F  </i>
   </separator>
   <separator name="electronic exchange-correlation" >
    <i type="logical" name="LASPH"> F  </i>
    <i type="logical" name="LMETAGGA"> F  </i>
   </separator>
   <separator name="electronic convergence" >
    <i type="int" name="NELM">    60</i>
    <i type="int" name="NELMDL">    -5</i>
    <i type="int" name="NELMIN">     2</i>
    <i name="ENINI">    300.00000000</i>
    <separator name="electronic convergence detail" >
     <i type="logical" name="LDIAG"> T  </i>
     <i type="logical" name="LSUBROT"> F  </i>
     <i name="WEIMIN">      0.00000000</i>
     <i name="EBREAK">      0.00000000</i>
     <i name="DEPER">      0.30000000</i>
     <i type="int" name="NRMM">     4</i>
     <i name="TIME">      0.40000000</i>
    </separator>
   </separator>
   <separator name="electronic mixer" >
    <i name="AMIX">      0.40000000</i>
    <i name="BMIX">      1.00000000</i>
    <i name="AMIN">      0.10000000</i>
    <i name="AMIX_MAG">      1.60000000</i>
    <i name="BMIX_MAG">      1.00000000</i>
    <separator name="electronic mixer details" >
     <i type="int" name="IMIX">     4</i>
     <i type="int" name="MAXMIX">   -45</i>
     <i name="WC">    100.00000000</i>
     <i type="int" name="INIMIX">     1</i>
     <i type="int" name="MIXPRE">     1</i>
     <i type="int" name="MREMOVE">     5</i>
    </separator>
   </separator>
   <separator name="electronic dipolcorrection" >
    <i type="logical" name="LDIPOL"> F  </i>
    <i type="logical" name="LMONO"> F  </i>
    <i type="int" name="IDIPOL">     0</i>
    <i name="EPSILON">      1.00000000</i>
    <v name="DIPOL">   -100.00000000   -100.00000000   -100.00000000</v>
    <i name="EFIELD">      0.00000000</i>
   </separator>
  </separator>
  <separator name="grids" >
   <i type="int" name="NGX">    20</i>
   <i type="int" name="NGY">    60</i>
   <i type="int" name="NGZ">   160</i>
   <i type="int" name="NGXF">    40</i>
   <i type="int" name="NGYF">   120</i>
   <i type="int" name="NGZF">   320</i>
   <i type="logical" name="ADDGRID"> F  </i>
  </separator>
  <separator name="ionic" >
   <i type="int" name="NSW">     0</i>
   <i type="int" name="IBRION">    -1</i>
   <i type="int" name="ISIF">     3</i>
   <i name="PSTRESS">      0.00000000</i>
   <i name="EDIFFG">      0.00001000</i>
   <i type="int" name="NFREE">     1</i>
   <i name="POTIM">      0.50000000</i>
   <i name="SMASS">     -3.00000000</i>
   <i name="SCALEE">      1.00000000</i>
  </separator>
  <separator name="ionic md" >
   <i name="TEBEG">      0.00010000</i>
   <i name="TEEND">      0.00010000</i>
   <i type="int" name="NBLOCK">     1</i>
   <i type="int" name="KBLOCK">     1</i>
   <i type="int" name="NPACO">   256</i>
   <i name="APACO">     16.00000000</i>
  </separator>
  <separator name="symmetry" >
   <i type="int" name="ISYM">     2</i>
   <i name="SYMPREC">      0.00001000</i>
  </separator>
  <separator name="dos" >
   <i type="logical" name="LORBIT"> F  </i>
   <v name="RWIGS">     -1.00000000     -1.00000000</v>
   <i type="int" name="NEDOS">   301</i>
   <i name="EMIN">     10.00000000</i>
   <i name="EMAX">    -10.00000000</i>
   <i name="EFERMI">      0.00000000</i>
  </separator>
  <separator name="writing" >
   <i type="int" name="NWRITE">     2</i>
   <i type="logical" name="LWAVE"> F  </i>
   <i type="logical" name="LCHARG"> F  </i>
   <i type="logical" name="LPARD"> F  </i>
   <i type="logical" name="LVTOT"> F  </i>
   <i type="logical" name="LVHAR"> F  </i>
   <i type="logical" name="LELF"> F  </i>
   <i type="logical" name="LOPTICS"> F  </i>
   <v name="STM">      0.00000000      0.00000000      0.00000000      0.00000000      0.00000000      0.00000000      0.00000000</v>
  </separator>
  <separator name="performance" >
   <i type="int" name="NPAR">     4</i>
   <i type="int" name="NSIM">     4</i>
   <i type="int" name="NBLK">    -1</i>
   <i type="logical" name="LPLANE"> T  </i>
   <i type="logical" name="LSCALAPACK"> T  </i>
   <i type="logical" name="LSCAAWARE"> F  </i>
   <i type="logical" name="LSCALU"> F  </i>
   <i type="logical" name="LASYNC"> F  </i>
   <i type="logical" name="LORBITALREAL"> F  </i>
  </separator>
  <separator name="miscellaneous" >
   <i type="int" name="IDIOT">     3</i>
   <i type="logical" name="LMUSIC"> F  </i>
   <v name="POMASS">     30.97400000     28.08500000</v>
   <v name="DARWINR">      0.00000000      0.00000000</v>
   <v name="DARWINV">      1.00000000      1.00000000</v>
   <i type="logical" name="LCORR"> T  </i>
  </separator>
  <i type="logical" name="GGA_COMPAT"> T  </i>
  <i type="logical" name="LBERRY"> F  </i>
  <i type="int" name="ICORELEVEL">     0</i>
  <i type="logical" name="LDAU"> F  </i>
  <i type="int" name="I_CONSTRAINED_M">     0</i>
  <separator name="electronic exchange-correlation" >
   <i type="string" name="GGA">BO</i>
   <i type="int" name="VOSKOWN">     0</i>
   <i type="logical" name="LHFCALC"> F  </i>
   <i type="string" name="PRECFOCK"></i>
   <i type="logical" name="LSYMGRAD"> F  </i>
   <i type="logical" name="LHFONE"> F  </i>
   <i type="logical" name="LRHFCALC"> F  </i>
   <i type="logical" name="LTHOMAS"> F  </i>
   <i type="logical" name="LMODELHF"> F  </i>
   <i name="ENCUT4O">     -1.00000000</i>
   <i type="int" name="EXXOEP">     0</i>
   <i type="int" name="FOURORBIT">     0</i>
   <i name="AEXX">      0.00000000</i>
   <i name="HFALPHA">      0.00000000</i>
   <i name="MCALPHA">      0.00000000</i>
   <i name="ALDAX">      1.00000000</i>
   <i name="AGGAX">      1.00000000</i>
   <i name="ALDAC">      1.00000000</i>
   <i name="AGGAC">      0.00000000</i>
   <i type="int" name="NKREDX">     1</i>
   <i type="int" name="NKREDY">     1</i>
   <i type="int" name="NKREDZ">     1</i>
   <i type="logical" name="SHIFTRED"> F  </i>
   <i type="logical" name="ODDONLY"> F  </i>
   <i type="logical" name="EVENONLY"> F  </i>
   <i type="int" name="LMAXFOCK">     0</i>
   <i type="int" name="NMAXFOCKAE">     0</i>
   <i type="logical" name="LFOCKAEDFT"> F  </i>
   <i name="HFSCREEN">      0.00000000</i>
   <i name="HFSCREENC">      0.00000000</i>
   <i type="int" name="NBANDSGWLOW">     0</i>
  </separator>
  <separator name="vdW DFT" >
   <i type="logical" name="LUSE_VDW"> T  </i>
   <i name="Zab_VDW">     -0.84910000</i>
   <i name="PARAM1">      0.18333333</i>
   <i name="PARAM2">      0.22000000</i>
   <i name="PARAM3">      0.00000000</i>
  </separator>
  <separator name="model GW" >
   <i type="int" name="MODEL_GW">     0</i>
   <i name="MODEL_EPS0">     25.05800243</i>
   <i name="MODEL_ALPHA">      1.00000000</i>
  </separator>
  <separator name="linear response parameters" >
   <i type="logical" name="LEPSILON"> F  </i>
   <i type="logical" name="LRPA"> F  </i>
   <i type="logical" name="LNABLA"> F  </i>
   <i type="logical" name="LVEL"> F  </i>
   <i type="int" name="KINTER">     0</i>
   <i name="CSHIFT">      0.10000000</i>
   <i name="OMEGAMAX">     -1.00000000</i>
   <i name="DEG_THRESHOLD">      0.00200000</i>
  </separator>
  <separator name="orbital magnetization" >
   <i type="logical" name="NUCIND"> F  </i>
   <v name="MAGPOS">      0.00000000      0.00000000      0.00000000</v>
   <i type="logical" name="LNICSALL"> T  </i>
   <i type="logical" name="ORBITALMAG"> F  </i>
   <i type="logical" name="LMAGBLOCH"> F  </i>
   <i type="logical" name="LCHIMAG"> F  </i>
   <i type="logical" name="LGAUGE"> T  </i>
   <i type="int" name="MAGATOM">     0</i>
   <v name="MAGDIPOL">      0.00000000      0.00000000      0.00000000</v>
   <v name="AVECCONST">      0.00000000      0.00000000      0.00000000</v>
  </separator>
  <separator name="response functions" >
   <i type="logical" name="LADDER"> F  </i>
   <i type="logical" name="LFXC"> F  </i>
   <i type="logical" name="LHARTREE"> T  </i>
   <i type="int" name="IBSE">     0</i>
   <i type="logical" name="LTCTE"> F  </i>
   <i type="logical" name="LTETE"> F  </i>
   <i type="logical" name="LTRIPLET"> F  </i>
   <i type="logical" name="LFXCEPS"> F  </i>
   <i type="logical" name="LFXHEG"> F  </i>
   <i type="logical" name="L2ORDER"> F  </i>
   <i type="logical" name="LUSEW"> F  </i>
   <i name="ENCUTGW">     -2.00000000</i>
   <i name="ENCUTGWSOFT">     -2.00000000</i>
   <i name="ENCUTLF">     -1.00000000</i>
   <i type="int" name="LMAXMP2">    -1</i>
   <i name="SCISSOR">      0.00000000</i>
   <i type="int" name="NOMEGA">     0</i>
   <i type="int" name="NOMEGAR">     0</i>
   <i type="int" name="NBANDSGW">    -1</i>
   <i type="int" name="NBANDSO">    -1</i>
   <i type="int" name="NBANDSV">    -1</i>
   <i type="int" name="NELM">     1</i>
   <i type="int" name="DIM">     3</i>
   <i type="int" name="ANTIRES">     0</i>
   <i name="OMEGAMAX">    -30.00000000</i>
   <i name="OMEGAMIN">    -30.00000000</i>
   <i name="OMEGATL">   -200.00000000</i>
   <i type="int" name="OMEGAGRID">     0</i>
   <i name="CSHIFT">     -0.10000000</i>
   <i type="logical" name="SELFENERGY"> F  </i>
   <i type="logical" name="LSPECTRAL"> F  </i>
   <i type="logical" name="ODDONLYGW"> F  </i>
   <i type="logical" name="EVENONLYGW"> F  </i>
   <i type="int" name="NKREDLFX">     1</i>
   <i type="int" name="NKREDLFY">     1</i>
   <i type="int" name="NKREDLFZ">     1</i>
   <i type="int" name="MAXMEM">  1800</i>
   <i type="int" name="TELESCOPE">     0</i>
   <i type="int" name="TAUPAR">     1</i>
  </separator>
  <separator name="External order field" >
   <i name="OFIELD_KAPPA">      0.00000000</i>
   <v name="OFIELD_K">      0.00000000      0.00000000      0.00000000</v>
   <i name="OFIELD_Q6_NEAR">      0.00000000</i>
   <i name="OFIELD_Q6_FAR">      0.00000000</i>
   <i name="OFIELD_A">      0.00000000</i>
  </separator>
 </parameters>
 <atominfo>
  <atoms>      24 </atoms>
  <types>       2 </types>
  <array name="atoms" >
   <dimension dim="1">ion</dimension>
   <field type="string">element</field>
   <field type="int">atomtype</field>
   <set>
    <rc><c>P </c><c>   1</c></rc>
    <rc><c>P </c><c>   1</c></rc>
    <rc><c>P </c><c>   1</c></rc>
    <rc><c>P </c><c>   1</c></rc>
    <rc><c>P </c><c>   1</c></rc>
    <rc><c>P </c><c>   1</c></rc>
    <rc><c>P </c><c>   1</c></rc>
    <rc><c>P </c><c>   1</c></rc>
    <rc><c>P </c><c>   1</c></rc>
    <rc><c>P </c><c>   1</c></rc>
    <rc><c>P </c><c>   1</c></rc>
    <rc><c>P </c><c>   1</c></rc>
    <rc><c>Si</c><c>   2</c></rc>
    <rc><c>Si</c><c>   2</c></rc>
    <rc><c>Si</c><c>   2</c></rc>
    <rc><c>Si</c><c>   2</c></rc>
    <rc><c>Si</c><c>   2</c></rc>
    <rc><c>Si</c><c>   2</c></rc>
    <rc><c>Si</c><c>   2</c></rc>
    <rc><c>Si</c><c>   2</c></rc>
    <rc><c>Si</c><c>   2</c></rc>
    <rc><c>Si</c><c>   2</c></rc>
    <rc><c>Si</c><c>   2</c></rc>
    <rc><c>Si</c><c>   2</c></rc>
   </set>
  </array>
  <array name="atomtypes" >
   <dimension dim="1">type</dimension>
   <field type="int">atomspertype</field>
   <field type="string">element</field>
   <field>mass</field>
   <field>valence</field>
   <field type="string">pseudopotential</field>
   <set>
    <rc><c>  12</c><c>P </c><c>     30.97400000</c><c>      5.00000000</c><c>  PAW_PBE P 17Jan2003                   </c></rc>
    <rc><c>  12</c><c>Si</c><c>     28.08500000</c><c>      4.00000000</c><c> PAW_PBE Si 05Jan2001                   </c></rc>
   </set>
  </array>
 </atominfo>
 <structure name="initialpos" >
  <crystal>
   <varray name="basis" >
    <v>       3.54040000       0.00000000       0.00000000 </v>
    <v>      -1.77020000      10.29434800       0.00000000 </v>
    <v>       0.00000000       0.00000000      27.50142900 </v>
   </varray>
   <i name="volume">   1002.32009712 </i>
   <varray name="rec_basis" >
    <v>       0.28245396       0.04857034       0.00000000 </v>
    <v>       0.00000000       0.09714068       0.00000000 </v>
    <v>       0.00000000       0.00000000       0.03636175 </v>
   </varray>
  </crystal>
  <varray name="positions" >
   <v>       0.11402300       0.22804500       0.23316207 </v>
   <v>       0.81402300       0.52804500       0.51499159 </v>
   <v>       0.45808900       0.91617900       0.20939482 </v>
   <v>       0.15808900       0.21617900       0.49122434 </v>
   <v>       0.31085400       0.62170900       0.08414979 </v>
   <v>       0.31085400       0.62170900       0.36597930 </v>
   <v>       0.99923000       0.99846000       0.08631254 </v>
   <v>       0.99923000       0.99846000       0.36814206 </v>
   <v>       0.65492700       0.30985400       0.06041748 </v>
   <v>       0.65492700       0.30985400       0.34224700 </v>
   <v>       0.76973800       0.53947500       0.20725292 </v>
   <v>       0.46973800       0.83947500       0.48908244 </v>
   <v>       0.93971600       0.87943300       0.15783749 </v>
   <v>       0.63971600       0.17943300       0.43966701 </v>
   <v>       0.20515200       0.41030300       0.18578822 </v>
   <v>       0.90515200       0.71030300       0.46761774 </v>
   <v>       0.20184900       0.40369900       0.09969156 </v>
   <v>       0.20184900       0.40369900       0.38152107 </v>
   <v>       0.56380500       0.12761000       0.10779021 </v>
   <v>       0.56380500       0.12761000       0.38961973 </v>
   <v>       0.56710600       0.13421200       0.19387616 </v>
   <v>       0.26710600       0.43421200       0.47570568 </v>
   <v>       0.82923400       0.65846800       0.13571444 </v>
   <v>       0.52923400       0.95846800       0.41754396 </v>
  </varray>
 </structure>
 <calculation>
  <scstep>
   <time name="dav">   70.81   70.82</time>
   <time name="total">   87.16   87.18</time>
   <energy>
    <i name="alphaZ">     36.80884744 </i>
    <i name="ewald">  11988.55130123 </i>
    <i name="hartreedc"> -15011.82755071 </i>
    <i name="XCdc">    -87.39515135 </i>
    <i name="pawpsdc">   1056.43050070 </i>
    <i name="pawaedc">   -732.41190547 </i>
    <i name="eentropy">     -0.05195933 </i>
    <i name="bandstr">    -95.68460000 </i>
    <i name="atom">   3354.04126044 </i>
    <i name="e_fr_energy">    508.46074296 </i>
    <i name="e_wo_entrp">    508.51270228 </i>
    <i name="e_0_energy">    508.48672262 </i>
   </energy>
  </scstep>
  <scstep>
   <time name="dav">   87.48   87.49</time>
   <time name="total">   87.49   87.51</time>
   <energy>
    <i name="e_fr_energy">    -56.60334711 </i>
    <i name="e_wo_entrp">    -56.58394973 </i>
    <i name="e_0_energy">    -56.59364842 </i>
   </energy>
  </scstep>
  <scstep>
   <time name="dav">   80.94   80.96</time>
   <time name="total">   80.96   80.97</time>
   <energy>
    <i name="e_fr_energy">   -114.60326058 </i>
    <i name="e_wo_entrp">   -114.57851616 </i>
    <i name="e_0_energy">   -114.59088837 </i>
   </energy>
  </scstep>
  <scstep>
   <time name="dav">   98.69   98.71</time>
   <time name="total">   98.70   98.72</time>
   <energy>
    <i name="e_fr_energy">   -117.35176534 </i>
    <i name="e_wo_entrp">   -117.31992685 </i>
    <i name="e_0_energy">   -117.33584610 </i>
   </energy>
  </scstep>
  <scstep>
   <time name="dav">   89.94   89.96</time>
   <time name="total">   94.56   94.58</time>
   <energy>
    <i name="e_fr_energy">   -117.40874625 </i>
    <i name="e_wo_entrp">   -117.37691852 </i>
    <i name="e_0_energy">   -117.39283238 </i>
   </energy>
  </scstep>
  <scstep>
   <time name="dav">   80.59   80.60</time>
   <time name="total">   99.85   99.87</time>
   <energy>
    <i name="e_fr_energy">   -112.62716745 </i>
    <i name="e_wo_entrp">   -112.59623766 </i>
    <i name="e_0_energy">   -112.61170256 </i>
   </energy>
  </scstep>
  <scstep>
   <time name="dav">   79.71   79.72</time>
   <time name="total">   99.04   99.06</time>
   <energy>
    <i name="e_fr_energy">   -112.49200120 </i>
    <i name="e_wo_entrp">   -112.46132044 </i>
    <i name="e_0_energy">   -112.47666082 </i>
   </energy>
  </scstep>
  <scstep>
   <time name="dav">   85.64   85.66</time>
   <time name="total">  104.94  104.96</time>
   <energy>
    <i name="e_fr_energy">   -112.28759053 </i>
    <i name="e_wo_entrp">   -112.25765926 </i>
    <i name="e_0_energy">   -112.27262489 </i>
   </energy>
  </scstep>
  <scstep>
   <time name="dav">   80.98   81.00</time>
   <time name="total">  100.26  100.28</time>
   <energy>
    <i name="e_fr_energy">   -112.25783167 </i>
    <i name="e_wo_entrp">   -112.22141439 </i>
    <i name="e_0_energy">   -112.23962303 </i>
   </energy>
  </scstep>
  <scstep>
   <time name="dav">   78.41   78.42</time>
   <time name="total">   97.63   97.65</time>
   <energy>
    <i name="e_fr_energy">   -112.26897926 </i>
    <i name="e_wo_entrp">   -112.23149298 </i>
    <i name="e_0_energy">   -112.25023612 </i>
   </energy>
  </scstep>
  <scstep>
   <time name="dav">   81.16   81.17</time>
   <time name="total">  100.50  100.52</time>
   <energy>
    <i name="e_fr_energy">   -112.25861756 </i>
    <i name="e_wo_entrp">   -112.22386442 </i>
    <i name="e_0_energy">   -112.24124099 </i>
   </energy>
  </scstep>
  <scstep>
   <time name="dav">   79.05   79.06</time>
   <time name="total">   98.42   98.44</time>
   <energy>
    <i name="e_fr_energy">   -112.25136899 </i>
    <i name="e_wo_entrp">   -112.21572898 </i>
    <i name="e_0_energy">   -112.23354899 </i>
   </energy>
  </scstep>
  <scstep>
   <time name="dav">   83.52   83.54</time>
   <time name="total">  102.79  102.81</time>
   <energy>
    <i name="e_fr_energy">   -112.24541538 </i>
    <i name="e_wo_entrp">   -112.20988752 </i>
    <i name="e_0_energy">   -112.22765145 </i>
   </energy>
  </scstep>
  <scstep>
   <time name="dav">   82.60   82.62</time>
   <time name="total">  101.90  101.92</time>
   <energy>
    <i name="e_fr_energy">   -112.24294058 </i>
    <i name="e_wo_entrp">   -112.20740396 </i>
    <i name="e_0_energy">   -112.22517227 </i>
   </energy>
  </scstep>
  <scstep>
   <time name="dav">   84.18   84.19</time>
   <time name="total">  103.47  103.49</time>
   <energy>
    <i name="e_fr_energy">   -112.24150594 </i>
    <i name="e_wo_entrp">   -112.20601152 </i>
    <i name="e_0_energy">   -112.22375873 </i>
   </energy>
  </scstep>
  <scstep>
   <time name="dav">   74.61   74.62</time>
   <time name="total">   93.96   93.98</time>
   <energy>
    <i name="e_fr_energy">   -112.24109834 </i>
    <i name="e_wo_entrp">   -112.20559862 </i>
    <i name="e_0_energy">   -112.22334848 </i>
   </energy>
  </scstep>
  <scstep>
   <time name="dav">   75.37   75.39</time>
   <time name="total">   94.76   94.78</time>
   <energy>
    <i name="e_fr_energy">   -112.24161715 </i>
    <i name="e_wo_entrp">   -112.20610913 </i>
    <i name="e_0_energy">   -112.22386314 </i>
   </energy>
  </scstep>
  <scstep>
   <time name="dav">   73.81   73.82</time>
   <time name="total">   93.27   93.29</time>
   <energy>
    <i name="e_fr_energy">   -112.24191932 </i>
    <i name="e_wo_entrp">   -112.20642216 </i>
    <i name="e_0_energy">   -112.22417074 </i>
   </energy>
  </scstep>
  <scstep>
   <time name="dav">   69.66   69.68</time>
   <time name="total">   88.85   88.87</time>
   <energy>
    <i name="e_fr_energy">   -112.24203349 </i>
    <i name="e_wo_entrp">   -112.20652306 </i>
    <i name="e_0_energy">   -112.22427827 </i>
   </energy>
  </scstep>
  <scstep>
   <time name="dav">   61.10   61.11</time>
   <time name="total">   80.56   80.58</time>
   <energy>
    <i name="e_fr_energy">   -112.24206151 </i>
    <i name="e_wo_entrp">   -112.20655969 </i>
    <i name="e_0_energy">   -112.22431060 </i>
   </energy>
  </scstep>
  <scstep>
   <time name="dav">   70.09   70.10</time>
   <time name="total">   89.60   89.62</time>
   <energy>
    <i name="e_fr_energy">   -112.24206606 </i>
    <i name="e_wo_entrp">   -112.20656221 </i>
    <i name="e_0_energy">   -112.22431413 </i>
   </energy>
  </scstep>
  <scstep>
   <time name="dav">   66.89   66.91</time>
   <time name="total">   86.38   86.40</time>
   <energy>
    <i name="e_fr_energy">   -112.24205677 </i>
    <i name="e_wo_entrp">   -112.20655213 </i>
    <i name="e_0_energy">   -112.22430445 </i>
   </energy>
  </scstep>
  <scstep>
   <time name="dav">   72.64   72.65</time>
   <time name="total">   92.25   92.27</time>
   <energy>
    <i name="e_fr_energy">   -112.24198110 </i>
    <i name="e_wo_entrp">   -112.20647864 </i>
    <i name="e_0_energy">   -112.22422987 </i>
   </energy>
  </scstep>
  <scstep>
   <time name="dav">   68.40   68.41</time>
   <time name="total">   87.89   87.91</time>
   <energy>
    <i name="e_fr_energy">   -112.24196605 </i>
    <i name="e_wo_entrp">   -112.20646220 </i>
    <i name="e_0_energy">   -112.22421412 </i>
   </energy>
  </scstep>
  <scstep>
   <time name="dav">   66.43   66.44</time>
   <time name="total">   85.93   85.94</time>
   <energy>
    <i name="e_fr_energy">   -112.24194609 </i>
    <i name="e_wo_entrp">   -112.20644261 </i>
    <i name="e_0_energy">   -112.22419435 </i>
   </energy>
  </scstep>
  <scstep>
   <time name="dav">   63.96   63.97</time>
   <time name="total">   83.43   83.45</time>
   <energy>
    <i name="e_fr_energy">   -112.24194482 </i>
    <i name="e_wo_entrp">   -112.20644114 </i>
    <i name="e_0_energy">   -112.22419298 </i>
   </energy>
  </scstep>
  <scstep>
   <time name="dav">   58.28   58.29</time>
   <time name="total">   77.76   77.78</time>
   <energy>
    <i name="e_fr_energy">   -112.24194222 </i>
    <i name="e_wo_entrp">   -112.20643837 </i>
    <i name="e_0_energy">   -112.22419029 </i>
   </energy>
  </scstep>
  <scstep>
   <time name="dav">   64.88   64.89</time>
   <time name="total">   79.69   79.71</time>
   <energy>
    <i name="alphaZ">     36.80884744 </i>
    <i name="ewald">  11988.55130123 </i>
    <i name="hartreedc"> -15115.16466838 </i>
    <i name="XCdc">    -79.38328418 </i>
    <i name="pawpsdc">   1186.35179264 </i>
    <i name="pawaedc">   -866.27116463 </i>
    <i name="eentropy">     -0.03550382 </i>
    <i name="bandstr">   -617.14052268 </i>
    <i name="atom">   3354.04126044 </i>
    <i name="e_fr_energy">   -112.24194193 </i>
    <i name="e_wo_entrp">   -112.20643811 </i>
    <i name="e_0_energy">   -112.22419002 </i>
   </energy>
  </scstep>
  <structure>
   <crystal>
    <varray name="basis" >
     <v>       3.54040000       0.00000000       0.00000000 </v>
     <v>      -1.77020000      10.29434800       0.00000000 </v>
     <v>       0.00000000       0.00000000      27.50142900 </v>
    </varray>
    <i name="volume">   1002.32009712 </i>
    <varray name="rec_basis" >
     <v>       0.28245396       0.04857034       0.00000000 </v>
     <v>       0.00000000       0.09714068       0.00000000 </v>
     <v>       0.00000000       0.00000000       0.03636175 </v>
    </varray>
   </crystal>
   <varray name="positions" >
    <v>       0.11402300       0.22804500       0.23316207 </v>
    <v>       0.81402300       0.52804500       0.51499159 </v>
    <v>       0.45808900       0.91617900       0.20939482 </v>
    <v>       0.15808900       0.21617900       0.49122434 </v>
    <v>       0.31085400       0.62170900       0.08414979 </v>
    <v>       0.31085400       0.62170900       0.36597930 </v>
    <v>       0.99923000       0.99846000       0.08631254 </v>
    <v>       0.99923000       0.99846000       0.36814206 </v>
    <v>       0.65492700       0.30985400       0.06041748 </v>
    <v>       0.65492700       0.30985400       0.34224700 </v>
    <v>       0.76973800       0.53947500       0.20725292 </v>
    <v>       0.46973800       0.83947500       0.48908244 </v>
    <v>       0.93971600       0.87943300       0.15783749 </v>
    <v>       0.63971600       0.17943300       0.43966701 </v>
    <v>       0.20515200       0.41030300       0.18578822 </v>
    <v>       0.90515200       0.71030300       0.46761774 </v>
    <v>       0.20184900       0.40369900       0.09969156 </v>
    <v>       0.20184900       0.40369900       0.38152107 </v>
    <v>       0.56380500       0.12761000       0.10779021 </v>
    <v>       0.56380500       0.12761000       0.38961973 </v>
    <v>       0.56710600       0.13421200       0.19387616 </v>
    <v>       0.26710600       0.43421200       0.47570568 </v>
    <v>       0.82923400       0.65846800       0.13571444 </v>
    <v>       0.52923400       0.95846800       0.41754396 </v>
   </varray>
  </structure>
  <varray name="forces" >
   <v>       0.00223314      -0.03687669       0.04702297 </v>
   <v>      -0.03658202      -0.01738599      -0.22039864 </v>
   <v>      -0.00039052      -0.01254557       0.07324744 </v>
   <v>      -0.04355410      -0.52232124       0.81056045 </v>
   <v>      -0.00026621      -0.00348857      -0.00037922 </v>
   <v>      -0.31598172      -0.06183094       0.56311759 </v>
   <v>      -0.00115955      -0.00306935      -0.00016052 </v>
   <v>       0.92644972      -1.10040544      -2.01050059 </v>
   <v>       0.00076923      -0.00120609       0.01087538 </v>
   <v>      -0.32163419       0.83641179      -1.40532166 </v>
   <v>      -0.00019488       0.01099100       0.09597729 </v>
   <v>       0.09541837       0.06383445       0.10627632 </v>
   <v>       0.00265941      -0.00511761       0.01098345 </v>
   <v>       5.51360510      15.54719746      44.05358312 </v>
   <v>      -0.00193192       0.04041575       0.08884789 </v>
   <v>       0.19975527      -0.29445968      -1.06820391 </v>
   <v>      -0.00082539      -0.00345988      -0.02291136 </v>
   <v>       0.23391252       1.76625186       0.40929401 </v>
   <v>      -0.00272634      -0.00755850      -0.01484472 </v>
   <v>      -6.02980142      -7.00699378     -45.46226424 </v>
   <v>       0.00006329      -0.03229419      -0.00315356 </v>
   <v>      -0.20483421      -0.47631675      -1.10859204 </v>
   <v>       0.00124212      -0.00847822       0.00150137 </v>
   <v>      -0.01622572      -8.67129381       5.04544318 </v>
  </varray>
  <varray name="stress" >
   <v>       2.90266555       2.49263644      12.10232380 </v>
   <v>       2.49263621      41.59870120      17.93942850 </v>
   <v>      12.10232380      17.93942868      98.21390685 </v>
  </varray>
  <energy>
   <i name="e_fr_energy">   -112.24194193 </i>
   <i name="e_wo_entrp">   -112.22419002 </i>
   <i name="e_0_energy">     -0.03550382 </i>
  </energy>
  <time name="totalsc"> 2707.76 2708.32</time>
  <eigenvalues>
   <array>
    <dimension dim="1">band</dimension>
    <dimension dim="2">kpoint</dimension>
    <dimension dim="3">spin</dimension>
    <field>eigene</field>
    <field>occ</field>
    <set>
     <set comment="spin 1">
      <set comment="kpoint 1">
       <r>  -15.2636    1.0000 </r>
       <r>  -13.4192    1.0000 </r>
       <r>  -13.0724    1.0000 </r>
       <r>  -12.6806    1.0000 </r>
       <r>  -12.6551    1.0000 </r>
       <r>  -12.3641    1.0000 </r>
       <r>  -12.0567    1.0000 </r>
       <r>  -11.9512    1.0000 </r>
       <r>  -11.6245    1.0000 </r>
       <r>  -11.3092    1.0000 </r>
       <r>  -10.8699    1.0000 </r>
       <r>   -9.9513    1.0000 </r>
       <r>   -9.2095    1.0000 </r>
       <r>   -7.9149    1.0000 </r>
       <r>   -7.7427    1.0000 </r>
       <r>   -7.7039    1.0000 </r>
       <r>   -7.0157    1.0000 </r>
       <r>   -6.7062    1.0000 </r>
       <r>   -6.3694    1.0000 </r>
       <r>   -6.2965    1.0000 </r>
       <r>   -5.7032    1.0000 </r>
       <r>   -5.4229    1.0000 </r>
       <r>   -5.2029    1.0000 </r>
       <r>   -5.0754    1.0000 </r>
       <r>   -4.6113    1.0000 </r>
       <r>   -4.1428    1.0000 </r>
       <r>   -3.7281    1.0000 </r>
       <r>   -3.5777    1.0000 </r>
       <r>   -3.3818    1.0000 </r>
       <r>   -3.0640    1.0000 </r>
       <r>   -2.9870    1.0000 </r>
       <r>   -2.9342    1.0000 </r>
       <r>   -2.9031    1.0000 </r>
       <r>   -2.7224    1.0000 </r>
       <r>   -2.5259    1.0000 </r>
       <r>   -2.4175    1.0000 </r>
       <r>   -2.3141    1.0000 </r>
       <r>   -2.2744    1.0000 </r>
       <r>   -2.1460    1.0000 </r>
       <r>   -2.0481    1.0000 </r>
       <r>   -1.9142    1.0000 </r>
       <r>   -1.8676    1.0000 </r>
       <r>   -1.7489    1.0000 </r>
       <r>   -1.6442    1.0000 </r>
       <r>   -1.6280    1.0000 </r>
       <r>   -1.6074    1.0000 </r>
       <r>   -1.5186    1.0000 </r>
       <r>   -1.4256    1.0000 </r>
       <r>   -1.3099    1.0000 </r>
       <r>   -1.1442    1.0000 </r>
       <r>   -0.9866    1.0000 </r>
       <r>   -0.8793    1.0000 </r>
       <r>   -0.6289    1.0000 </r>
       <r>   -0.0803    0.9961 </r>
       <r>    0.8115    0.0000 </r>
       <r>    0.9262    0.0000 </r>
       <r>    1.2683    0.0000 </r>
       <r>    1.3105    0.0000 </r>
       <r>    1.3780    0.0000 </r>
       <r>    1.4445    0.0000 </r>
       <r>    1.6733    0.0000 </r>
       <r>    1.8599    0.0000 </r>
       <r>    2.0010    0.0000 </r>
       <r>    2.0885    0.0000 </r>
       <r>    2.1402    0.0000 </r>
       <r>    2.2708    0.0000 </r>
       <r>    2.5506    0.0000 </r>
       <r>    2.6321    0.0000 </r>
      </set>
      <set comment="kpoint 2">
       <r>  -15.2049    1.0000 </r>
       <r>  -13.3578    1.0000 </r>
       <r>  -13.0164    1.0000 </r>
       <r>  -12.6282    1.0000 </r>
       <r>  -12.5961    1.0000 </r>
       <r>  -12.3085    1.0000 </r>
       <r>  -12.0019    1.0000 </r>
       <r>  -11.8902    1.0000 </r>
       <r>  -11.5744    1.0000 </r>
       <r>  -11.2603    1.0000 </r>
       <r>  -10.8215    1.0000 </r>
       <r>   -9.9298    1.0000 </r>
       <r>   -9.2229    1.0000 </r>
       <r>   -7.9510    1.0000 </r>
       <r>   -7.7294    1.0000 </r>
       <r>   -7.6689    1.0000 </r>
       <r>   -6.9921    1.0000 </r>
       <r>   -6.6746    1.0000 </r>
       <r>   -6.3637    1.0000 </r>
       <r>   -6.2925    1.0000 </r>
       <r>   -5.7049    1.0000 </r>
       <r>   -5.6674    1.0000 </r>
       <r>   -5.3840    1.0000 </r>
       <r>   -4.9403    1.0000 </r>
       <r>   -4.6122    1.0000 </r>
       <r>   -4.1000    1.0000 </r>
       <r>   -3.7536    1.0000 </r>
       <r>   -3.6243    1.0000 </r>
       <r>   -3.5113    1.0000 </r>
       <r>   -3.3574    1.0000 </r>
       <r>   -3.2777    1.0000 </r>
       <r>   -3.1444    1.0000 </r>
       <r>   -3.0750    1.0000 </r>
       <r>   -3.0118    1.0000 </r>
       <r>   -2.7114    1.0000 </r>
       <r>   -2.6290    1.0000 </r>
       <r>   -2.5326    1.0000 </r>
       <r>   -2.3748    1.0000 </r>
       <r>   -2.3423    1.0000 </r>
       <r>   -2.2720    1.0000 </r>
       <r>   -2.0831    1.0000 </r>
       <r>   -2.0163    1.0000 </r>
       <r>   -1.8985    1.0000 </r>
       <r>   -1.8427    1.0000 </r>
       <r>   -1.7550    1.0000 </r>
       <r>   -1.7170    1.0000 </r>
       <r>   -1.5666    1.0000 </r>
       <r>   -1.5308    1.0000 </r>
       <r>   -1.3709    1.0000 </r>
       <r>   -1.0559    1.0000 </r>
       <r>   -0.8773    1.0000 </r>
       <r>   -0.7936    1.0000 </r>
       <r>   -0.4256    1.0000 </r>
       <r>   -0.0459    0.9852 </r>
       <r>    0.7639    0.0000 </r>
       <r>    0.9211    0.0000 </r>
       <r>    1.1678    0.0000 </r>
       <r>    1.6287    0.0000 </r>
       <r>    1.7092    0.0000 </r>
       <r>    1.8863    0.0000 </r>
       <r>    2.0112    0.0000 </r>
       <r>    2.1871    0.0000 </r>
       <r>    2.2522    0.0000 </r>
       <r>    2.3449    0.0000 </r>
       <r>    2.3874    0.0000 </r>
       <r>    2.4315    0.0000 </r>
       <r>    2.6516    0.0000 </r>
       <r>    2.7333    0.0000 </r>
      </set>
      <set comment="kpoint 3">
       <r>  -15.0303    1.0000 </r>
       <r>  -13.1748    1.0000 </r>
       <r>  -12.8496    1.0000 </r>
       <r>  -12.4721    1.0000 </r>
       <r>  -12.4216    1.0000 </r>
       <r>  -12.1438    1.0000 </r>
       <r>  -11.8413    1.0000 </r>
       <r>  -11.7106    1.0000 </r>
       <r>  -11.4292    1.0000 </r>
       <r>  -11.1183    1.0000 </r>
       <r>  -10.6826    1.0000 </r>
       <r>   -9.8893    1.0000 </r>
       <r>   -9.2927    1.0000 </r>
       <r>   -8.0468    1.0000 </r>
       <r>   -7.7337    1.0000 </r>
       <r>   -7.6284    1.0000 </r>
       <r>   -6.9523    1.0000 </r>
       <r>   -6.6090    1.0000 </r>
       <r>   -6.4814    1.0000 </r>
       <r>   -6.3756    1.0000 </r>
       <r>   -6.1529    1.0000 </r>
       <r>   -5.5934    1.0000 </r>
       <r>   -5.3558    1.0000 </r>
       <r>   -5.0132    1.0000 </r>
       <r>   -4.7394    1.0000 </r>
       <r>   -4.2620    1.0000 </r>
       <r>   -4.0853    1.0000 </r>
       <r>   -4.0465    1.0000 </r>
       <r>   -3.9661    1.0000 </r>
       <r>   -3.8654    1.0000 </r>
       <r>   -3.8293    1.0000 </r>
       <r>   -3.5825    1.0000 </r>
       <r>   -3.4401    1.0000 </r>
       <r>   -3.2838    1.0000 </r>
       <r>   -3.1506    1.0000 </r>
       <r>   -3.0669    1.0000 </r>
       <r>   -2.9315    1.0000 </r>
       <r>   -2.8454    1.0000 </r>
       <r>   -2.7057    1.0000 </r>
       <r>   -2.6235    1.0000 </r>
       <r>   -2.3909    1.0000 </r>
       <r>   -2.2569    1.0000 </r>
       <r>   -2.1017    1.0000 </r>
       <r>   -2.0217    1.0000 </r>
       <r>   -1.8928    1.0000 </r>
       <r>   -1.7756    1.0000 </r>
       <r>   -1.6604    1.0000 </r>
       <r>   -1.6049    1.0000 </r>
       <r>   -1.4914    1.0000 </r>
       <r>   -1.0955    1.0000 </r>
       <r>   -0.8604    1.0000 </r>
       <r>   -0.6990    1.0000 </r>
       <r>   -0.0874    0.9971 </r>
       <r>    0.2158    0.0637 </r>
       <r>    0.3513    0.0003 </r>
       <r>    0.8909    0.0000 </r>
       <r>    1.2013    0.0000 </r>
       <r>    1.9361    0.0000 </r>
       <r>    2.0037    0.0000 </r>
       <r>    2.1311    0.0000 </r>
       <r>    2.3310    0.0000 </r>
       <r>    2.3731    0.0000 </r>
       <r>    2.5440    0.0000 </r>
       <r>    2.6182    0.0000 </r>
       <r>    2.7632    0.0000 </r>
       <r>    2.8077    0.0000 </r>
       <r>    2.9889    0.0000 </r>
       <r>    3.0979    0.0000 </r>
      </set>
      <set comment="kpoint 4">
       <r>  -14.7453    1.0000 </r>
       <r>  -12.8738    1.0000 </r>
       <r>  -12.5765    1.0000 </r>
       <r>  -12.2156    1.0000 </r>
       <r>  -12.1408    1.0000 </r>
       <r>  -11.8772    1.0000 </r>
       <r>  -11.5878    1.0000 </r>
       <r>  -11.4258    1.0000 </r>
       <r>  -11.2079    1.0000 </r>
       <r>  -10.9015    1.0000 </r>
       <r>  -10.4794    1.0000 </r>
       <r>   -9.9667    1.0000 </r>
       <r>   -9.4289    1.0000 </r>
       <r>   -8.2378    1.0000 </r>
       <r>   -7.8690    1.0000 </r>
       <r>   -7.7027    1.0000 </r>
       <r>   -7.0415    1.0000 </r>
       <r>   -6.7901    1.0000 </r>
       <r>   -6.5709    1.0000 </r>
       <r>   -6.5095    1.0000 </r>
       <r>   -6.2768    1.0000 </r>
       <r>   -5.6158    1.0000 </r>
       <r>   -5.5679    1.0000 </r>
       <r>   -5.3722    1.0000 </r>
       <r>   -5.2174    1.0000 </r>
       <r>   -4.7811    1.0000 </r>
       <r>   -4.6831    1.0000 </r>
       <r>   -4.4847    1.0000 </r>
       <r>   -4.3947    1.0000 </r>
       <r>   -4.3469    1.0000 </r>
       <r>   -4.0952    1.0000 </r>
       <r>   -4.0220    1.0000 </r>
       <r>   -3.8273    1.0000 </r>
       <r>   -3.6473    1.0000 </r>
       <r>   -3.4538    1.0000 </r>
       <r>   -3.3435    1.0000 </r>
       <r>   -3.1332    1.0000 </r>
       <r>   -2.9009    1.0000 </r>
       <r>   -2.8756    1.0000 </r>
       <r>   -2.6962    1.0000 </r>
       <r>   -2.5384    1.0000 </r>
       <r>   -2.4574    1.0000 </r>
       <r>   -2.3332    1.0000 </r>
       <r>   -2.2972    1.0000 </r>
       <r>   -2.0610    1.0000 </r>
       <r>   -1.7924    1.0000 </r>
       <r>   -1.7106    1.0000 </r>
       <r>   -1.6938    1.0000 </r>
       <r>   -1.5821    1.0000 </r>
       <r>   -1.3424    1.0000 </r>
       <r>   -1.0026    1.0000 </r>
       <r>   -0.7426    1.0000 </r>
       <r>   -0.2814    1.0000 </r>
       <r>   -0.0849    0.9968 </r>
       <r>    0.2726    0.0100 </r>
       <r>    0.9301    0.0000 </r>
       <r>    1.4745    0.0000 </r>
       <r>    1.7369    0.0000 </r>
       <r>    1.9773    0.0000 </r>
       <r>    2.0965    0.0000 </r>
       <r>    2.1650    0.0000 </r>
       <r>    2.3196    0.0000 </r>
       <r>    2.3726    0.0000 </r>
       <r>    2.5200    0.0000 </r>
       <r>    2.6702    0.0000 </r>
       <r>    2.7936    0.0000 </r>
       <r>    2.9188    0.0000 </r>
       <r>    3.0156    0.0000 </r>
      </set>
      <set comment="kpoint 5">
       <r>  -14.3637    1.0000 </r>
       <r>  -12.4620    1.0000 </r>
       <r>  -12.2078    1.0000 </r>
       <r>  -11.8672    1.0000 </r>
       <r>  -11.7781    1.0000 </r>
       <r>  -11.5257    1.0000 </r>
       <r>  -11.2782    1.0000 </r>
       <r>  -11.0717    1.0000 </r>
       <r>  -10.9697    1.0000 </r>
       <r>  -10.6571    1.0000 </r>
       <r>  -10.3740    1.0000 </r>
       <r>  -10.2927    1.0000 </r>
       <r>   -9.4804    1.0000 </r>
       <r>   -8.5325    1.0000 </r>
       <r>   -8.1346    1.0000 </r>
       <r>   -7.9633    1.0000 </r>
       <r>   -7.3515    1.0000 </r>
       <r>   -6.9005    1.0000 </r>
       <r>   -6.8686    1.0000 </r>
       <r>   -6.7771    1.0000 </r>
       <r>   -6.6016    1.0000 </r>
       <r>   -6.0745    1.0000 </r>
       <r>   -6.0394    1.0000 </r>
       <r>   -5.8415    1.0000 </r>
       <r>   -5.6674    1.0000 </r>
       <r>   -5.0913    1.0000 </r>
       <r>   -4.9141    1.0000 </r>
       <r>   -4.6764    1.0000 </r>
       <r>   -4.5878    1.0000 </r>
       <r>   -4.5239    1.0000 </r>
       <r>   -4.2249    1.0000 </r>
       <r>   -4.1644    1.0000 </r>
       <r>   -4.0937    1.0000 </r>
       <r>   -3.7360    1.0000 </r>
       <r>   -3.4446    1.0000 </r>
       <r>   -3.3447    1.0000 </r>
       <r>   -3.2577    1.0000 </r>
       <r>   -2.9861    1.0000 </r>
       <r>   -2.9375    1.0000 </r>
       <r>   -2.8776    1.0000 </r>
       <r>   -2.7613    1.0000 </r>
       <r>   -2.5880    1.0000 </r>
       <r>   -2.5058    1.0000 </r>
       <r>   -2.3865    1.0000 </r>
       <r>   -2.2522    1.0000 </r>
       <r>   -1.9406    1.0000 </r>
       <r>   -1.7803    1.0000 </r>
       <r>   -1.7528    1.0000 </r>
       <r>   -1.6436    1.0000 </r>
       <r>   -1.5786    1.0000 </r>
       <r>   -1.2551    1.0000 </r>
       <r>   -1.1433    1.0000 </r>
       <r>   -0.3844    1.0000 </r>
       <r>   -0.2050    1.0000 </r>
       <r>    0.1900    0.1231 </r>
       <r>    0.6310    0.0000 </r>
       <r>    1.2028    0.0000 </r>
       <r>    1.4410    0.0000 </r>
       <r>    1.7177    0.0000 </r>
       <r>    1.8257    0.0000 </r>
       <r>    2.0077    0.0000 </r>
       <r>    2.1282    0.0000 </r>
       <r>    2.2565    0.0000 </r>
       <r>    2.3800    0.0000 </r>
       <r>    2.4896    0.0000 </r>
       <r>    2.6071    0.0000 </r>
       <r>    2.8232    0.0000 </r>
       <r>    2.9516    0.0000 </r>
      </set>
      <set comment="kpoint 6">
       <r>  -13.9219    1.0000 </r>
       <r>  -11.9537    1.0000 </r>
       <r>  -11.7720    1.0000 </r>
       <r>  -11.4557    1.0000 </r>
       <r>  -11.4459    1.0000 </r>
       <r>  -11.1703    1.0000 </r>
       <r>  -11.1275    1.0000 </r>
       <r>  -10.8789    1.0000 </r>
       <r>  -10.7299    1.0000 </r>
       <r>  -10.5805    1.0000 </r>
       <r>  -10.5024    1.0000 </r>
       <r>  -10.3322    1.0000 </r>
       <r>   -9.5462    1.0000 </r>
       <r>   -8.7088    1.0000 </r>
       <r>   -8.4243    1.0000 </r>
       <r>   -8.2556    1.0000 </r>
       <r>   -7.7991    1.0000 </r>
       <r>   -7.3381    1.0000 </r>
       <r>   -7.2953    1.0000 </r>
       <r>   -7.2303    1.0000 </r>
       <r>   -7.0239    1.0000 </r>
       <r>   -6.6378    1.0000 </r>
       <r>   -6.5387    1.0000 </r>
       <r>   -6.2634    1.0000 </r>
       <r>   -5.6390    1.0000 </r>
       <r>   -5.0922    1.0000 </r>
       <r>   -4.7554    1.0000 </r>
       <r>   -4.5531    1.0000 </r>
       <r>   -4.4604    1.0000 </r>
       <r>   -4.4022    1.0000 </r>
       <r>   -4.3020    1.0000 </r>
       <r>   -4.1129    1.0000 </r>
       <r>   -3.9634    1.0000 </r>
       <r>   -3.8964    1.0000 </r>
       <r>   -3.5989    1.0000 </r>
       <r>   -3.5290    1.0000 </r>
       <r>   -3.2985    1.0000 </r>
       <r>   -3.1809    1.0000 </r>
       <r>   -3.1354    1.0000 </r>
       <r>   -3.0311    1.0000 </r>
       <r>   -2.8979    1.0000 </r>
       <r>   -2.6675    1.0000 </r>
       <r>   -2.5617    1.0000 </r>
       <r>   -2.3929    1.0000 </r>
       <r>   -2.2937    1.0000 </r>
       <r>   -2.1607    1.0000 </r>
       <r>   -1.9948    1.0000 </r>
       <r>   -1.9019    1.0000 </r>
       <r>   -1.7286    1.0000 </r>
       <r>   -1.6627    1.0000 </r>
       <r>   -1.4711    1.0000 </r>
       <r>   -1.2967    1.0000 </r>
       <r>   -0.4436    1.0000 </r>
       <r>   -0.3145    1.0000 </r>
       <r>    0.1309    0.3730 </r>
       <r>    0.4152    0.0000 </r>
       <r>    0.8931    0.0000 </r>
       <r>    1.1738    0.0000 </r>
       <r>    1.4946    0.0000 </r>
       <r>    1.7073    0.0000 </r>
       <r>    1.8171    0.0000 </r>
       <r>    1.8680    0.0000 </r>
       <r>    2.0449    0.0000 </r>
       <r>    2.1852    0.0000 </r>
       <r>    2.3172    0.0000 </r>
       <r>    2.4026    0.0000 </r>
       <r>    2.4778    0.0000 </r>
       <r>    2.8159    0.0000 </r>
      </set>
      <set comment="kpoint 7">
       <r>  -13.5433    1.0000 </r>
       <r>  -11.7692    1.0000 </r>
       <r>  -11.3801    1.0000 </r>
       <r>  -11.2846    1.0000 </r>
       <r>  -11.0261    1.0000 </r>
       <r>  -10.9968    1.0000 </r>
       <r>  -10.9056    1.0000 </r>
       <r>  -10.8256    1.0000 </r>
       <r>  -10.7194    1.0000 </r>
       <r>  -10.6099    1.0000 </r>
       <r>  -10.5093    1.0000 </r>
       <r>  -10.4270    1.0000 </r>
       <r>   -9.6657    1.0000 </r>
       <r>   -8.6256    1.0000 </r>
       <r>   -8.5649    1.0000 </r>
       <r>   -8.3188    1.0000 </r>
       <r>   -8.0170    1.0000 </r>
       <r>   -7.9575    1.0000 </r>
       <r>   -7.7149    1.0000 </r>
       <r>   -7.4486    1.0000 </r>
       <r>   -7.3079    1.0000 </r>
       <r>   -7.1624    1.0000 </r>
       <r>   -7.0568    1.0000 </r>
       <r>   -6.1034    1.0000 </r>
       <r>   -5.4428    1.0000 </r>
       <r>   -4.8507    1.0000 </r>
       <r>   -4.7961    1.0000 </r>
       <r>   -4.4509    1.0000 </r>
       <r>   -4.3878    1.0000 </r>
       <r>   -4.2909    1.0000 </r>
       <r>   -4.1370    1.0000 </r>
       <r>   -3.9920    1.0000 </r>
       <r>   -3.9378    1.0000 </r>
       <r>   -3.8357    1.0000 </r>
       <r>   -3.7144    1.0000 </r>
       <r>   -3.6650    1.0000 </r>
       <r>   -3.4978    1.0000 </r>
       <r>   -3.4376    1.0000 </r>
       <r>   -3.1497    1.0000 </r>
       <r>   -3.1273    1.0000 </r>
       <r>   -2.9351    1.0000 </r>
       <r>   -2.8774    1.0000 </r>
       <r>   -2.6993    1.0000 </r>
       <r>   -2.5658    1.0000 </r>
       <r>   -2.2906    1.0000 </r>
       <r>   -2.2257    1.0000 </r>
       <r>   -2.0778    1.0000 </r>
       <r>   -1.9838    1.0000 </r>
       <r>   -1.8204    1.0000 </r>
       <r>   -1.5990    1.0000 </r>
       <r>   -1.4066    1.0000 </r>
       <r>   -1.3401    1.0000 </r>
       <r>   -0.6014    1.0000 </r>
       <r>   -0.3389    1.0000 </r>
       <r>    0.1223    0.4198 </r>
       <r>    0.2732    0.0097 </r>
       <r>    0.5793    0.0000 </r>
       <r>    1.1456    0.0000 </r>
       <r>    1.4826    0.0000 </r>
       <r>    1.5478    0.0000 </r>
       <r>    1.7003    0.0000 </r>
       <r>    1.8285    0.0000 </r>
       <r>    1.8981    0.0000 </r>
       <r>    1.9851    0.0000 </r>
       <r>    2.1846    0.0000 </r>
       <r>    2.2751    0.0000 </r>
       <r>    2.4936    0.0000 </r>
       <r>    2.5318    0.0000 </r>
      </set>
      <set comment="kpoint 8">
       <r>  -15.2620    1.0000 </r>
       <r>  -13.3639    1.0000 </r>
       <r>  -13.1351    1.0000 </r>
       <r>  -12.8531    1.0000 </r>
       <r>  -12.5402    1.0000 </r>
       <r>  -12.3633    1.0000 </r>
       <r>  -12.0979    1.0000 </r>
       <r>  -11.7500    1.0000 </r>
       <r>  -11.6247    1.0000 </r>
       <r>  -11.3544    1.0000 </r>
       <r>  -10.8784    1.0000 </r>
       <r>   -9.9006    1.0000 </r>
       <r>   -9.2839    1.0000 </r>
       <r>   -8.3951    1.0000 </r>
       <r>   -7.7711    1.0000 </r>
       <r>   -7.2739    1.0000 </r>
       <r>   -6.9895    1.0000 </r>
       <r>   -6.5486    1.0000 </r>
       <r>   -6.4855    1.0000 </r>
       <r>   -6.2801    1.0000 </r>
       <r>   -5.6264    1.0000 </r>
       <r>   -5.3500    1.0000 </r>
       <r>   -5.2030    1.0000 </r>
       <r>   -5.0604    1.0000 </r>
       <r>   -4.5145    1.0000 </r>
       <r>   -3.9956    1.0000 </r>
       <r>   -3.9119    1.0000 </r>
       <r>   -3.6369    1.0000 </r>
       <r>   -3.3924    1.0000 </r>
       <r>   -3.2273    1.0000 </r>
       <r>   -3.0066    1.0000 </r>
       <r>   -2.9776    1.0000 </r>
       <r>   -2.9347    1.0000 </r>
       <r>   -2.5882    1.0000 </r>
       <r>   -2.5823    1.0000 </r>
       <r>   -2.4573    1.0000 </r>
       <r>   -2.2761    1.0000 </r>
       <r>   -2.2639    1.0000 </r>
       <r>   -2.1931    1.0000 </r>
       <r>   -2.0810    1.0000 </r>
       <r>   -2.0416    1.0000 </r>
       <r>   -1.9222    1.0000 </r>
       <r>   -1.8491    1.0000 </r>
       <r>   -1.8021    1.0000 </r>
       <r>   -1.7597    1.0000 </r>
       <r>   -1.5190    1.0000 </r>
       <r>   -1.5039    1.0000 </r>
       <r>   -1.3234    1.0000 </r>
       <r>   -1.2411    1.0000 </r>
       <r>   -1.0788    1.0000 </r>
       <r>   -0.9694    1.0000 </r>
       <r>   -0.8479    1.0000 </r>
       <r>   -0.5684    1.0000 </r>
       <r>   -0.0071    0.9482 </r>
       <r>    0.8586    0.0000 </r>
       <r>    0.8863    0.0000 </r>
       <r>    1.2710    0.0000 </r>
       <r>    1.3197    0.0000 </r>
       <r>    1.3999    0.0000 </r>
       <r>    1.4917    0.0000 </r>
       <r>    1.7287    0.0000 </r>
       <r>    1.8833    0.0000 </r>
       <r>    1.9357    0.0000 </r>
       <r>    2.0804    0.0000 </r>
       <r>    2.3334    0.0000 </r>
       <r>    2.3920    0.0000 </r>
       <r>    2.6354    0.0000 </r>
       <r>    2.6920    0.0000 </r>
      </set>
      <set comment="kpoint 9">
       <r>  -15.2031    1.0000 </r>
       <r>  -13.2870    1.0000 </r>
       <r>  -13.0892    1.0000 </r>
       <r>  -12.8339    1.0000 </r>
       <r>  -12.4557    1.0000 </r>
       <r>  -12.3063    1.0000 </r>
       <r>  -12.0603    1.0000 </r>
       <r>  -11.6514    1.0000 </r>
       <r>  -11.5720    1.0000 </r>
       <r>  -11.3130    1.0000 </r>
       <r>  -10.8340    1.0000 </r>
       <r>   -9.8691    1.0000 </r>
       <r>   -9.3104    1.0000 </r>
       <r>   -8.4535    1.0000 </r>
       <r>   -7.7590    1.0000 </r>
       <r>   -7.2262    1.0000 </r>
       <r>   -6.9755    1.0000 </r>
       <r>   -6.5567    1.0000 </r>
       <r>   -6.4149    1.0000 </r>
       <r>   -6.2552    1.0000 </r>
       <r>   -5.7491    1.0000 </r>
       <r>   -5.5757    1.0000 </r>
       <r>   -5.2236    1.0000 </r>
       <r>   -4.9552    1.0000 </r>
       <r>   -4.5603    1.0000 </r>
       <r>   -4.0226    1.0000 </r>
       <r>   -3.9521    1.0000 </r>
       <r>   -3.6706    1.0000 </r>
       <r>   -3.5165    1.0000 </r>
       <r>   -3.3945    1.0000 </r>
       <r>   -3.2731    1.0000 </r>
       <r>   -3.2419    1.0000 </r>
       <r>   -3.0202    1.0000 </r>
       <r>   -2.9068    1.0000 </r>
       <r>   -2.7846    1.0000 </r>
       <r>   -2.6192    1.0000 </r>
       <r>   -2.5696    1.0000 </r>
       <r>   -2.4415    1.0000 </r>
       <r>   -2.3733    1.0000 </r>
       <r>   -2.2896    1.0000 </r>
       <r>   -2.1933    1.0000 </r>
       <r>   -2.0773    1.0000 </r>
       <r>   -1.9537    1.0000 </r>
       <r>   -1.9237    1.0000 </r>
       <r>   -1.8315    1.0000 </r>
       <r>   -1.7222    1.0000 </r>
       <r>   -1.6254    1.0000 </r>
       <r>   -1.4541    1.0000 </r>
       <r>   -1.2367    1.0000 </r>
       <r>   -0.9869    1.0000 </r>
       <r>   -0.8909    1.0000 </r>
       <r>   -0.7952    1.0000 </r>
       <r>   -0.4306    1.0000 </r>
       <r>    0.0369    0.8427 </r>
       <r>    0.7590    0.0000 </r>
       <r>    0.9636    0.0000 </r>
       <r>    1.2320    0.0000 </r>
       <r>    1.6583    0.0000 </r>
       <r>    1.7205    0.0000 </r>
       <r>    1.8969    0.0000 </r>
       <r>    2.0241    0.0000 </r>
       <r>    2.0827    0.0000 </r>
       <r>    2.2615    0.0000 </r>
       <r>    2.3537    0.0000 </r>
       <r>    2.5062    0.0000 </r>
       <r>    2.6397    0.0000 </r>
       <r>    2.7622    0.0000 </r>
       <r>    2.8039    0.0000 </r>
      </set>
      <set comment="kpoint 10">
       <r>  -15.0283    1.0000 </r>
       <r>  -13.0905    1.0000 </r>
       <r>  -12.9268    1.0000 </r>
       <r>  -12.6974    1.0000 </r>
       <r>  -12.2630    1.0000 </r>
       <r>  -12.1401    1.0000 </r>
       <r>  -11.9195    1.0000 </r>
       <r>  -11.4567    1.0000 </r>
       <r>  -11.4174    1.0000 </r>
       <r>  -11.1735    1.0000 </r>
       <r>  -10.6926    1.0000 </r>
       <r>   -9.8231    1.0000 </r>
       <r>   -9.3926    1.0000 </r>
       <r>   -8.5190    1.0000 </r>
       <r>   -7.6998    1.0000 </r>
       <r>   -7.1939    1.0000 </r>
       <r>   -7.0244    1.0000 </r>
       <r>   -6.5390    1.0000 </r>
       <r>   -6.5342    1.0000 </r>
       <r>   -6.3732    1.0000 </r>
       <r>   -6.0492    1.0000 </r>
       <r>   -5.5292    1.0000 </r>
       <r>   -5.2463    1.0000 </r>
       <r>   -5.0072    1.0000 </r>
       <r>   -4.7193    1.0000 </r>
       <r>   -4.4050    1.0000 </r>
       <r>   -4.2571    1.0000 </r>
       <r>   -4.1744    1.0000 </r>
       <r>   -3.9836    1.0000 </r>
       <r>   -3.8585    1.0000 </r>
       <r>   -3.6284    1.0000 </r>
       <r>   -3.5397    1.0000 </r>
       <r>   -3.4017    1.0000 </r>
       <r>   -3.2827    1.0000 </r>
       <r>   -3.1093    1.0000 </r>
       <r>   -2.9941    1.0000 </r>
       <r>   -2.8623    1.0000 </r>
       <r>   -2.8398    1.0000 </r>
       <r>   -2.7112    1.0000 </r>
       <r>   -2.5825    1.0000 </r>
       <r>   -2.4843    1.0000 </r>
       <r>   -2.4628    1.0000 </r>
       <r>   -2.2111    1.0000 </r>
       <r>   -2.0525    1.0000 </r>
       <r>   -1.9541    1.0000 </r>
       <r>   -1.8136    1.0000 </r>
       <r>   -1.7490    1.0000 </r>
       <r>   -1.5827    1.0000 </r>
       <r>   -1.3603    1.0000 </r>
       <r>   -1.0296    1.0000 </r>
       <r>   -0.8465    1.0000 </r>
       <r>   -0.8001    1.0000 </r>
       <r>   -0.0956    0.9980 </r>
       <r>    0.1966    0.1051 </r>
       <r>    0.3805    0.0001 </r>
       <r>    1.0161    0.0000 </r>
       <r>    1.2257    0.0000 </r>
       <r>    1.7421    0.0000 </r>
       <r>    1.7630    0.0000 </r>
       <r>    2.1395    0.0000 </r>
       <r>    2.2479    0.0000 </r>
       <r>    2.4376    0.0000 </r>
       <r>    2.5275    0.0000 </r>
       <r>    2.7549    0.0000 </r>
       <r>    2.8768    0.0000 </r>
       <r>    2.9692    0.0000 </r>
       <r>    3.0463    0.0000 </r>
       <r>    3.3084    0.0000 </r>
      </set>
      <set comment="kpoint 11">
       <r>  -14.7433    1.0000 </r>
       <r>  -12.7792    1.0000 </r>
       <r>  -12.6526    1.0000 </r>
       <r>  -12.4459    1.0000 </r>
       <r>  -11.9733    1.0000 </r>
       <r>  -11.8730    1.0000 </r>
       <r>  -11.6866    1.0000 </r>
       <r>  -11.1951    1.0000 </r>
       <r>  -11.1655    1.0000 </r>
       <r>  -10.9516    1.0000 </r>
       <r>  -10.4751    1.0000 </r>
       <r>   -9.9390    1.0000 </r>
       <r>   -9.4953    1.0000 </r>
       <r>   -8.6500    1.0000 </r>
       <r>   -7.7294    1.0000 </r>
       <r>   -7.3185    1.0000 </r>
       <r>   -7.2618    1.0000 </r>
       <r>   -6.7486    1.0000 </r>
       <r>   -6.5732    1.0000 </r>
       <r>   -6.5213    1.0000 </r>
       <r>   -6.1378    1.0000 </r>
       <r>   -5.7005    1.0000 </r>
       <r>   -5.5734    1.0000 </r>
       <r>   -5.4263    1.0000 </r>
       <r>   -5.0877    1.0000 </r>
       <r>   -4.9084    1.0000 </r>
       <r>   -4.7157    1.0000 </r>
       <r>   -4.5460    1.0000 </r>
       <r>   -4.4397    1.0000 </r>
       <r>   -4.3248    1.0000 </r>
       <r>   -4.1764    1.0000 </r>
       <r>   -3.9105    1.0000 </r>
       <r>   -3.7367    1.0000 </r>
       <r>   -3.6077    1.0000 </r>
       <r>   -3.2744    1.0000 </r>
       <r>   -3.1007    1.0000 </r>
       <r>   -3.0815    1.0000 </r>
       <r>   -2.9718    1.0000 </r>
       <r>   -2.9490    1.0000 </r>
       <r>   -2.6595    1.0000 </r>
       <r>   -2.5843    1.0000 </r>
       <r>   -2.5003    1.0000 </r>
       <r>   -2.4101    1.0000 </r>
       <r>   -2.2430    1.0000 </r>
       <r>   -2.1249    1.0000 </r>
       <r>   -1.8643    1.0000 </r>
       <r>   -1.7817    1.0000 </r>
       <r>   -1.7132    1.0000 </r>
       <r>   -1.6452    1.0000 </r>
       <r>   -1.2717    1.0000 </r>
       <r>   -0.9864    1.0000 </r>
       <r>   -0.8413    1.0000 </r>
       <r>   -0.2593    1.0000 </r>
       <r>   -0.0747    0.9951 </r>
       <r>    0.2343    0.0370 </r>
       <r>    0.9748    0.0000 </r>
       <r>    1.2500    0.0000 </r>
       <r>    1.5421    0.0000 </r>
       <r>    1.6903    0.0000 </r>
       <r>    1.7656    0.0000 </r>
       <r>    1.9942    0.0000 </r>
       <r>    2.3199    0.0000 </r>
       <r>    2.3531    0.0000 </r>
       <r>    2.7093    0.0000 </r>
       <r>    2.8309    0.0000 </r>
       <r>    2.8462    0.0000 </r>
       <r>    2.8841    0.0000 </r>
       <r>    3.1688    0.0000 </r>
      </set>
      <set comment="kpoint 12">
       <r>  -14.3619    1.0000 </r>
       <r>  -12.3626    1.0000 </r>
       <r>  -12.2773    1.0000 </r>
       <r>  -12.0867    1.0000 </r>
       <r>  -11.6169    1.0000 </r>
       <r>  -11.5238    1.0000 </r>
       <r>  -11.3916    1.0000 </r>
       <r>  -10.9089    1.0000 </r>
       <r>  -10.8581    1.0000 </r>
       <r>  -10.6877    1.0000 </r>
       <r>  -10.4153    1.0000 </r>
       <r>  -10.2690    1.0000 </r>
       <r>   -9.4926    1.0000 </r>
       <r>   -8.8490    1.0000 </r>
       <r>   -8.0554    1.0000 </r>
       <r>   -7.5880    1.0000 </r>
       <r>   -7.5035    1.0000 </r>
       <r>   -6.9919    1.0000 </r>
       <r>   -6.8717    1.0000 </r>
       <r>   -6.8259    1.0000 </r>
       <r>   -6.4438    1.0000 </r>
       <r>   -6.1777    1.0000 </r>
       <r>   -6.0684    1.0000 </r>
       <r>   -5.7967    1.0000 </r>
       <r>   -5.7797    1.0000 </r>
       <r>   -5.2590    1.0000 </r>
       <r>   -4.8224    1.0000 </r>
       <r>   -4.7885    1.0000 </r>
       <r>   -4.5854    1.0000 </r>
       <r>   -4.3044    1.0000 </r>
       <r>   -4.2204    1.0000 </r>
       <r>   -4.1789    1.0000 </r>
       <r>   -3.8922    1.0000 </r>
       <r>   -3.8051    1.0000 </r>
       <r>   -3.4799    1.0000 </r>
       <r>   -3.2199    1.0000 </r>
       <r>   -3.0994    1.0000 </r>
       <r>   -2.8929    1.0000 </r>
       <r>   -2.8545    1.0000 </r>
       <r>   -2.8081    1.0000 </r>
       <r>   -2.7472    1.0000 </r>
       <r>   -2.6231    1.0000 </r>
       <r>   -2.4802    1.0000 </r>
       <r>   -2.3696    1.0000 </r>
       <r>   -2.3153    1.0000 </r>
       <r>   -2.1756    1.0000 </r>
       <r>   -1.8415    1.0000 </r>
       <r>   -1.7620    1.0000 </r>
       <r>   -1.6638    1.0000 </r>
       <r>   -1.6026    1.0000 </r>
       <r>   -1.2452    1.0000 </r>
       <r>   -1.0718    1.0000 </r>
       <r>   -0.5718    1.0000 </r>
       <r>   -0.1997    1.0000 </r>
       <r>    0.1287    0.3847 </r>
       <r>    0.6583    0.0000 </r>
       <r>    0.9925    0.0000 </r>
       <r>    1.3193    0.0000 </r>
       <r>    1.3763    0.0000 </r>
       <r>    1.4112    0.0000 </r>
       <r>    1.7451    0.0000 </r>
       <r>    2.1541    0.0000 </r>
       <r>    2.2955    0.0000 </r>
       <r>    2.4310    0.0000 </r>
       <r>    2.5833    0.0000 </r>
       <r>    2.7323    0.0000 </r>
       <r>    2.7671    0.0000 </r>
       <r>    2.9659    0.0000 </r>
      </set>
      <set comment="kpoint 13">
       <r>  -13.9206    1.0000 </r>
       <r>  -11.8599    1.0000 </r>
       <r>  -11.8282    1.0000 </r>
       <r>  -11.6366    1.0000 </r>
       <r>  -11.3926    1.0000 </r>
       <r>  -11.1412    1.0000 </r>
       <r>  -11.1099    1.0000 </r>
       <r>  -10.9174    1.0000 </r>
       <r>  -10.6145    1.0000 </r>
       <r>  -10.5758    1.0000 </r>
       <r>  -10.4756    1.0000 </r>
       <r>  -10.3451    1.0000 </r>
       <r>   -9.5505    1.0000 </r>
       <r>   -8.8391    1.0000 </r>
       <r>   -8.4304    1.0000 </r>
       <r>   -7.9911    1.0000 </r>
       <r>   -7.8349    1.0000 </r>
       <r>   -7.6574    1.0000 </r>
       <r>   -7.2418    1.0000 </r>
       <r>   -7.1937    1.0000 </r>
       <r>   -6.9609    1.0000 </r>
       <r>   -6.5734    1.0000 </r>
       <r>   -6.5372    1.0000 </r>
       <r>   -6.2774    1.0000 </r>
       <r>   -5.7938    1.0000 </r>
       <r>   -5.2226    1.0000 </r>
       <r>   -4.7061    1.0000 </r>
       <r>   -4.6628    1.0000 </r>
       <r>   -4.5202    1.0000 </r>
       <r>   -4.3256    1.0000 </r>
       <r>   -4.2587    1.0000 </r>
       <r>   -4.0013    1.0000 </r>
       <r>   -3.9025    1.0000 </r>
       <r>   -3.7401    1.0000 </r>
       <r>   -3.5777    1.0000 </r>
       <r>   -3.2684    1.0000 </r>
       <r>   -3.2234    1.0000 </r>
       <r>   -3.1583    1.0000 </r>
       <r>   -3.0672    1.0000 </r>
       <r>   -2.9998    1.0000 </r>
       <r>   -2.9718    1.0000 </r>
       <r>   -2.7927    1.0000 </r>
       <r>   -2.5701    1.0000 </r>
       <r>   -2.4917    1.0000 </r>
       <r>   -2.3154    1.0000 </r>
       <r>   -2.1793    1.0000 </r>
       <r>   -2.0307    1.0000 </r>
       <r>   -1.9435    1.0000 </r>
       <r>   -1.7376    1.0000 </r>
       <r>   -1.5297    1.0000 </r>
       <r>   -1.4400    1.0000 </r>
       <r>   -1.3464    1.0000 </r>
       <r>   -0.6311    1.0000 </r>
       <r>   -0.3482    1.0000 </r>
       <r>    0.0967    0.5634 </r>
       <r>    0.3977    0.0000 </r>
       <r>    0.7691    0.0000 </r>
       <r>    1.1282    0.0000 </r>
       <r>    1.3193    0.0000 </r>
       <r>    1.4394    0.0000 </r>
       <r>    1.5401    0.0000 </r>
       <r>    1.9050    0.0000 </r>
       <r>    1.9511    0.0000 </r>
       <r>    2.1407    0.0000 </r>
       <r>    2.2969    0.0000 </r>
       <r>    2.4134    0.0000 </r>
       <r>    2.7104    0.0000 </r>
       <r>    2.7865    0.0000 </r>
      </set>
      <set comment="kpoint 14">
       <r>  -13.5428    1.0000 </r>
       <r>  -11.7704    1.0000 </r>
       <r>  -11.3135    1.0000 </r>
       <r>  -11.3076    1.0000 </r>
       <r>  -11.1417    1.0000 </r>
       <r>  -10.9665    1.0000 </r>
       <r>  -10.9025    1.0000 </r>
       <r>  -10.8379    1.0000 </r>
       <r>  -10.7404    1.0000 </r>
       <r>  -10.5802    1.0000 </r>
       <r>  -10.4549    1.0000 </r>
       <r>  -10.4215    1.0000 </r>
       <r>   -9.6711    1.0000 </r>
       <r>   -8.6553    1.0000 </r>
       <r>   -8.4321    1.0000 </r>
       <r>   -8.2777    1.0000 </r>
       <r>   -8.2076    1.0000 </r>
       <r>   -8.0054    1.0000 </r>
       <r>   -7.6999    1.0000 </r>
       <r>   -7.3947    1.0000 </r>
       <r>   -7.3010    1.0000 </r>
       <r>   -7.1903    1.0000 </r>
       <r>   -7.0169    1.0000 </r>
       <r>   -6.0801    1.0000 </r>
       <r>   -5.5226    1.0000 </r>
       <r>   -4.8988    1.0000 </r>
       <r>   -4.8665    1.0000 </r>
       <r>   -4.3939    1.0000 </r>
       <r>   -4.3525    1.0000 </r>
       <r>   -4.3127    1.0000 </r>
       <r>   -4.0813    1.0000 </r>
       <r>   -4.0307    1.0000 </r>
       <r>   -3.9532    1.0000 </r>
       <r>   -3.8135    1.0000 </r>
       <r>   -3.6481    1.0000 </r>
       <r>   -3.5419    1.0000 </r>
       <r>   -3.4779    1.0000 </r>
       <r>   -3.3655    1.0000 </r>
       <r>   -3.1801    1.0000 </r>
       <r>   -3.1378    1.0000 </r>
       <r>   -3.0034    1.0000 </r>
       <r>   -2.8623    1.0000 </r>
       <r>   -2.6343    1.0000 </r>
       <r>   -2.5215    1.0000 </r>
       <r>   -2.4796    1.0000 </r>
       <r>   -2.2535    1.0000 </r>
       <r>   -2.0492    1.0000 </r>
       <r>   -1.9958    1.0000 </r>
       <r>   -1.7648    1.0000 </r>
       <r>   -1.5821    1.0000 </r>
       <r>   -1.4340    1.0000 </r>
       <r>   -1.3325    1.0000 </r>
       <r>   -0.6293    1.0000 </r>
       <r>   -0.3902    1.0000 </r>
       <r>    0.1015    0.5364 </r>
       <r>    0.2682    0.0117 </r>
       <r>    0.5714    0.0000 </r>
       <r>    1.2168    0.0000 </r>
       <r>    1.4688    0.0000 </r>
       <r>    1.5679    0.0000 </r>
       <r>    1.6459    0.0000 </r>
       <r>    1.6961    0.0000 </r>
       <r>    1.7701    0.0000 </r>
       <r>    1.8926    0.0000 </r>
       <r>    2.0862    0.0000 </r>
       <r>    2.2977    0.0000 </r>
       <r>    2.5175    0.0000 </r>
       <r>    2.5762    0.0000 </r>
      </set>
      <set comment="kpoint 15">
       <r>  -13.5436    1.0000 </r>
       <r>  -11.7712    1.0000 </r>
       <r>  -11.4137    1.0000 </r>
       <r>  -11.2473    1.0000 </r>
       <r>  -11.0421    1.0000 </r>
       <r>  -10.9501    1.0000 </r>
       <r>  -10.8983    1.0000 </r>
       <r>  -10.8124    1.0000 </r>
       <r>  -10.6839    1.0000 </r>
       <r>  -10.6373    1.0000 </r>
       <r>  -10.5772    1.0000 </r>
       <r>  -10.4309    1.0000 </r>
       <r>   -9.6622    1.0000 </r>
       <r>   -8.6375    1.0000 </r>
       <r>   -8.6103    1.0000 </r>
       <r>   -8.3127    1.0000 </r>
       <r>   -8.0251    1.0000 </r>
       <r>   -7.8227    1.0000 </r>
       <r>   -7.7178    1.0000 </r>
       <r>   -7.4815    1.0000 </r>
       <r>   -7.3132    1.0000 </r>
       <r>   -7.1578    1.0000 </r>
       <r>   -7.0955    1.0000 </r>
       <r>   -6.1029    1.0000 </r>
       <r>   -5.3508    1.0000 </r>
       <r>   -4.9040    1.0000 </r>
       <r>   -4.6248    1.0000 </r>
       <r>   -4.4642    1.0000 </r>
       <r>   -4.4249    1.0000 </r>
       <r>   -4.2535    1.0000 </r>
       <r>   -4.2015    1.0000 </r>
       <r>   -4.1368    1.0000 </r>
       <r>   -3.9096    1.0000 </r>
       <r>   -3.8683    1.0000 </r>
       <r>   -3.7638    1.0000 </r>
       <r>   -3.6766    1.0000 </r>
       <r>   -3.5610    1.0000 </r>
       <r>   -3.5000    1.0000 </r>
       <r>   -3.2341    1.0000 </r>
       <r>   -2.9878    1.0000 </r>
       <r>   -2.8801    1.0000 </r>
       <r>   -2.8509    1.0000 </r>
       <r>   -2.6843    1.0000 </r>
       <r>   -2.5558    1.0000 </r>
       <r>   -2.2874    1.0000 </r>
       <r>   -2.2597    1.0000 </r>
       <r>   -2.0470    1.0000 </r>
       <r>   -2.0007    1.0000 </r>
       <r>   -1.8425    1.0000 </r>
       <r>   -1.5887    1.0000 </r>
       <r>   -1.3899    1.0000 </r>
       <r>   -1.3460    1.0000 </r>
       <r>   -0.5616    1.0000 </r>
       <r>   -0.2658    1.0000 </r>
       <r>    0.1088    0.4956 </r>
       <r>    0.2427    0.0284 </r>
       <r>    0.6305    0.0000 </r>
       <r>    1.2700    0.0000 </r>
       <r>    1.4809    0.0000 </r>
       <r>    1.6706    0.0000 </r>
       <r>    1.7821    0.0000 </r>
       <r>    1.8004    0.0000 </r>
       <r>    1.9103    0.0000 </r>
       <r>    1.9791    0.0000 </r>
       <r>    2.1184    0.0000 </r>
       <r>    2.3632    0.0000 </r>
       <r>    2.4093    0.0000 </r>
       <r>    2.5100    0.0000 </r>
      </set>
      <set comment="kpoint 16">
       <r>  -13.9224    1.0000 </r>
       <r>  -11.9802    1.0000 </r>
       <r>  -11.7421    1.0000 </r>
       <r>  -11.4854    1.0000 </r>
       <r>  -11.3634    1.0000 </r>
       <r>  -11.1940    1.0000 </r>
       <r>  -11.1243    1.0000 </r>
       <r>  -10.8433    1.0000 </r>
       <r>  -10.7998    1.0000 </r>
       <r>  -10.6053    1.0000 </r>
       <r>  -10.5056    1.0000 </r>
       <r>  -10.3276    1.0000 </r>
       <r>   -9.5488    1.0000 </r>
       <r>   -8.6206    1.0000 </r>
       <r>   -8.4197    1.0000 </r>
       <r>   -8.3681    1.0000 </r>
       <r>   -7.7855    1.0000 </r>
       <r>   -7.3190    1.0000 </r>
       <r>   -7.2380    1.0000 </r>
       <r>   -7.2081    1.0000 </r>
       <r>   -7.0480    1.0000 </r>
       <r>   -6.6870    1.0000 </r>
       <r>   -6.5428    1.0000 </r>
       <r>   -6.2463    1.0000 </r>
       <r>   -5.5931    1.0000 </r>
       <r>   -4.9464    1.0000 </r>
       <r>   -4.7917    1.0000 </r>
       <r>   -4.7051    1.0000 </r>
       <r>   -4.4556    1.0000 </r>
       <r>   -4.2851    1.0000 </r>
       <r>   -4.2464    1.0000 </r>
       <r>   -4.1456    1.0000 </r>
       <r>   -3.9810    1.0000 </r>
       <r>   -3.9310    1.0000 </r>
       <r>   -3.7452    1.0000 </r>
       <r>   -3.5993    1.0000 </r>
       <r>   -3.3415    1.0000 </r>
       <r>   -3.2830    1.0000 </r>
       <r>   -3.1099    1.0000 </r>
       <r>   -3.0192    1.0000 </r>
       <r>   -2.9455    1.0000 </r>
       <r>   -2.6150    1.0000 </r>
       <r>   -2.5144    1.0000 </r>
       <r>   -2.3859    1.0000 </r>
       <r>   -2.3384    1.0000 </r>
       <r>   -2.1221    1.0000 </r>
       <r>   -1.9851    1.0000 </r>
       <r>   -1.8225    1.0000 </r>
       <r>   -1.7103    1.0000 </r>
       <r>   -1.6833    1.0000 </r>
       <r>   -1.4743    1.0000 </r>
       <r>   -1.2803    1.0000 </r>
       <r>   -0.4108    1.0000 </r>
       <r>   -0.2095    1.0000 </r>
       <r>    0.1461    0.2950 </r>
       <r>    0.3690    0.0001 </r>
       <r>    0.9097    0.0000 </r>
       <r>    1.2858    0.0000 </r>
       <r>    1.5021    0.0000 </r>
       <r>    1.8302    0.0000 </r>
       <r>    1.9453    0.0000 </r>
       <r>    1.9852    0.0000 </r>
       <r>    2.1037    0.0000 </r>
       <r>    2.2002    0.0000 </r>
       <r>    2.2869    0.0000 </r>
       <r>    2.4091    0.0000 </r>
       <r>    2.5526    0.0000 </r>
       <r>    2.7257    0.0000 </r>
      </set>
      <set comment="kpoint 17">
       <r>  -14.3640    1.0000 </r>
       <r>  -12.4743    1.0000 </r>
       <r>  -12.1918    1.0000 </r>
       <r>  -11.8264    1.0000 </r>
       <r>  -11.8073    1.0000 </r>
       <r>  -11.5248    1.0000 </r>
       <r>  -11.2625    1.0000 </r>
       <r>  -11.1155    1.0000 </r>
       <r>  -10.9710    1.0000 </r>
       <r>  -10.6489    1.0000 </r>
       <r>  -10.3773    1.0000 </r>
       <r>  -10.2988    1.0000 </r>
       <r>   -9.4876    1.0000 </r>
       <r>   -8.4338    1.0000 </r>
       <r>   -8.1272    1.0000 </r>
       <r>   -8.0655    1.0000 </r>
       <r>   -7.3386    1.0000 </r>
       <r>   -6.8865    1.0000 </r>
       <r>   -6.8659    1.0000 </r>
       <r>   -6.7477    1.0000 </r>
       <r>   -6.6440    1.0000 </r>
       <r>   -6.0628    1.0000 </r>
       <r>   -6.0307    1.0000 </r>
       <r>   -5.8505    1.0000 </r>
       <r>   -5.6638    1.0000 </r>
       <r>   -5.0338    1.0000 </r>
       <r>   -4.9157    1.0000 </r>
       <r>   -4.7608    1.0000 </r>
       <r>   -4.5505    1.0000 </r>
       <r>   -4.4940    1.0000 </r>
       <r>   -4.2160    1.0000 </r>
       <r>   -4.1471    1.0000 </r>
       <r>   -4.1126    1.0000 </r>
       <r>   -3.8014    1.0000 </r>
       <r>   -3.4645    1.0000 </r>
       <r>   -3.3654    1.0000 </r>
       <r>   -3.3084    1.0000 </r>
       <r>   -2.9793    1.0000 </r>
       <r>   -2.9368    1.0000 </r>
       <r>   -2.9139    1.0000 </r>
       <r>   -2.7526    1.0000 </r>
       <r>   -2.5998    1.0000 </r>
       <r>   -2.5118    1.0000 </r>
       <r>   -2.3643    1.0000 </r>
       <r>   -2.2435    1.0000 </r>
       <r>   -1.9030    1.0000 </r>
       <r>   -1.7694    1.0000 </r>
       <r>   -1.7466    1.0000 </r>
       <r>   -1.6249    1.0000 </r>
       <r>   -1.5678    1.0000 </r>
       <r>   -1.2519    1.0000 </r>
       <r>   -1.1557    1.0000 </r>
       <r>   -0.3710    1.0000 </r>
       <r>   -0.1407    0.9998 </r>
       <r>    0.2229    0.0521 </r>
       <r>    0.6104    0.0000 </r>
       <r>    1.1672    0.0000 </r>
       <r>    1.4676    0.0000 </r>
       <r>    1.7771    0.0000 </r>
       <r>    1.9328    0.0000 </r>
       <r>    2.1063    0.0000 </r>
       <r>    2.1476    0.0000 </r>
       <r>    2.2595    0.0000 </r>
       <r>    2.3732    0.0000 </r>
       <r>    2.5054    0.0000 </r>
       <r>    2.5849    0.0000 </r>
       <r>    2.8117    0.0000 </r>
       <r>    2.8796    0.0000 </r>
      </set>
      <set comment="kpoint 18">
       <r>  -14.7452    1.0000 </r>
       <r>  -12.8695    1.0000 </r>
       <r>  -12.5822    1.0000 </r>
       <r>  -12.2302    1.0000 </r>
       <r>  -12.1331    1.0000 </r>
       <r>  -11.8773    1.0000 </r>
       <r>  -11.5894    1.0000 </r>
       <r>  -11.4093    1.0000 </r>
       <r>  -11.2041    1.0000 </r>
       <r>  -10.9052    1.0000 </r>
       <r>  -10.4779    1.0000 </r>
       <r>   -9.9639    1.0000 </r>
       <r>   -9.4481    1.0000 </r>
       <r>   -8.2780    1.0000 </r>
       <r>   -7.8245    1.0000 </r>
       <r>   -7.6612    1.0000 </r>
       <r>   -7.0951    1.0000 </r>
       <r>   -6.7846    1.0000 </r>
       <r>   -6.5674    1.0000 </r>
       <r>   -6.5133    1.0000 </r>
       <r>   -6.2618    1.0000 </r>
       <r>   -5.6174    1.0000 </r>
       <r>   -5.5526    1.0000 </r>
       <r>   -5.3919    1.0000 </r>
       <r>   -5.2129    1.0000 </r>
       <r>   -4.7596    1.0000 </r>
       <r>   -4.7006    1.0000 </r>
       <r>   -4.4778    1.0000 </r>
       <r>   -4.3978    1.0000 </r>
       <r>   -4.3428    1.0000 </r>
       <r>   -4.1305    1.0000 </r>
       <r>   -4.0467    1.0000 </r>
       <r>   -3.8030    1.0000 </r>
       <r>   -3.6440    1.0000 </r>
       <r>   -3.4439    1.0000 </r>
       <r>   -3.3260    1.0000 </r>
       <r>   -3.1119    1.0000 </r>
       <r>   -2.8982    1.0000 </r>
       <r>   -2.8718    1.0000 </r>
       <r>   -2.7092    1.0000 </r>
       <r>   -2.5370    1.0000 </r>
       <r>   -2.4865    1.0000 </r>
       <r>   -2.3521    1.0000 </r>
       <r>   -2.3035    1.0000 </r>
       <r>   -2.0721    1.0000 </r>
       <r>   -1.7825    1.0000 </r>
       <r>   -1.7019    1.0000 </r>
       <r>   -1.6753    1.0000 </r>
       <r>   -1.5832    1.0000 </r>
       <r>   -1.3360    1.0000 </r>
       <r>   -0.9976    1.0000 </r>
       <r>   -0.7478    1.0000 </r>
       <r>   -0.2675    1.0000 </r>
       <r>   -0.0470    0.9858 </r>
       <r>    0.2769    0.0085 </r>
       <r>    0.9336    0.0000 </r>
       <r>    1.3367    0.0000 </r>
       <r>    1.6952    0.0000 </r>
       <r>    1.9513    0.0000 </r>
[...]
       <r>    2.7618    0.0000 </r>
      </set>
      <set comment="kpoint 54">
       <r>  -13.5431    1.0000 </r>
       <r>  -11.7724    1.0000 </r>
       <r>  -11.3687    1.0000 </r>
       <r>  -11.2818    1.0000 </r>
       <r>  -11.0480    1.0000 </r>
       <r>  -11.0060    1.0000 </r>
       <r>  -10.8931    1.0000 </r>
       <r>  -10.8285    1.0000 </r>
       <r>  -10.7253    1.0000 </r>
       <r>  -10.6030    1.0000 </r>
       <r>  -10.4957    1.0000 </r>
       <r>  -10.4254    1.0000 </r>
       <r>   -9.6677    1.0000 </r>
       <r>   -8.6441    1.0000 </r>
       <r>   -8.5423    1.0000 </r>
       <r>   -8.3193    1.0000 </r>
       <r>   -8.0141    1.0000 </r>
       <r>   -7.9976    1.0000 </r>
       <r>   -7.7058    1.0000 </r>
       <r>   -7.4384    1.0000 </r>
       <r>   -7.3002    1.0000 </r>
       <r>   -7.1666    1.0000 </r>
       <r>   -7.0470    1.0000 </r>
       <r>   -6.0837    1.0000 </r>
       <r>   -5.4472    1.0000 </r>
       <r>   -4.9039    1.0000 </r>
       <r>   -4.8249    1.0000 </r>
       <r>   -4.4033    1.0000 </r>
       <r>   -4.3513    1.0000 </r>
       <r>   -4.2593    1.0000 </r>
       <r>   -4.1564    1.0000 </r>
       <r>   -4.0312    1.0000 </r>
       <r>   -3.9628    1.0000 </r>
       <r>   -3.8303    1.0000 </r>
       <r>   -3.6732    1.0000 </r>
       <r>   -3.6338    1.0000 </r>
       <r>   -3.5574    1.0000 </r>
       <r>   -3.4252    1.0000 </r>
       <r>   -3.1635    1.0000 </r>
       <r>   -3.1339    1.0000 </r>
       <r>   -2.9291    1.0000 </r>
       <r>   -2.8938    1.0000 </r>
       <r>   -2.7039    1.0000 </r>
       <r>   -2.5683    1.0000 </r>
       <r>   -2.2684    1.0000 </r>
       <r>   -2.2115    1.0000 </r>
       <r>   -2.0723    1.0000 </r>
       <r>   -1.9874    1.0000 </r>
       <r>   -1.7989    1.0000 </r>
       <r>   -1.5976    1.0000 </r>
       <r>   -1.4097    1.0000 </r>
       <r>   -1.3370    1.0000 </r>
       <r>   -0.5917    1.0000 </r>
       <r>   -0.3339    1.0000 </r>
       <r>    0.1151    0.4600 </r>
       <r>    0.1979    0.1017 </r>
       <r>    0.6153    0.0000 </r>
       <r>    1.2857    0.0000 </r>
       <r>    1.4698    0.0000 </r>
       <r>    1.5905    0.0000 </r>
       <r>    1.6982    0.0000 </r>
       <r>    1.7889    0.0000 </r>
       <r>    1.9011    0.0000 </r>
       <r>    1.9777    0.0000 </r>
       <r>    2.1199    0.0000 </r>
       <r>    2.2220    0.0000 </r>
       <r>    2.3901    0.0000 </r>
       <r>    2.5044    0.0000 </r>
      </set>
     </set>
    </set>
   </array>
  </eigenvalues>
  <separator name="orbital magnetization" >
   <v name="MAGDIPOLOUT">      0.00000000      0.00000000      0.00000000</v>
  </separator>
  <dos>
   <i name="efermi">      0.10799177 </i>
   <total>
    <array>
     <dimension dim="1">gridpoints</dimension>
     <dimension dim="2">spin</dimension>
     <field>energy</field>
     <field>total</field>
     <field>integrated</field>
     <set>
      <set comment="spin 1">
       <r>   -16.2636     0.0000     0.0000 </r>
       <r>   -16.1949     0.0000     0.0000 </r>
       <r>   -16.1263     0.0000     0.0000 </r>
       <r>   -16.0577     0.0000     0.0000 </r>
       <r>   -15.9890     0.0000     0.0000 </r>
       <r>   -15.9204     0.0000     0.0000 </r>
       <r>   -15.8517     0.0000     0.0000 </r>
       <r>   -15.7831     0.0000     0.0000 </r>
       <r>   -15.7144     0.0000     0.0000 </r>
       <r>   -15.6458     0.0000     0.0000 </r>
       <r>   -15.5772     0.0000     0.0000 </r>
       <r>   -15.5085     0.0006     0.0000 </r>
       <r>   -15.4399     0.0146     0.0010 </r>
       <r>   -15.3712     0.1618     0.0121 </r>
       <r>   -15.3026     0.8186     0.0683 </r>
       <r>   -15.2339     1.9724     0.2037 </r>
       <r>   -15.1653     2.3625     0.3659 </r>
       <r>   -15.0967     1.8362     0.4919 </r>
       <r>   -15.0280     1.7919     0.6149 </r>
       <r>   -14.9594     1.5230     0.7195 </r>
       <r>   -14.8907     0.6971     0.7673 </r>
       <r>   -14.8221     0.6276     0.8104 </r>
       <r>   -14.7534     1.4097     0.9072 </r>
       <r>   -14.6848     1.5754     1.0153 </r>
       <r>   -14.6162     0.7411     1.0662 </r>
       <r>   -14.5475     0.1644     1.0775 </r>
       <r>   -14.4789     0.2180     1.0925 </r>
       <r>   -14.4102     0.9025     1.1544 </r>
       <r>   -14.3416     1.6443     1.2673 </r>
       <r>   -14.2729     1.2542     1.3534 </r>
       <r>   -14.2043     0.3998     1.3808 </r>
       <r>   -14.1357     0.0582     1.3848 </r>
       <r>   -14.0670     0.0861     1.3907 </r>
       <r>   -13.9984     0.5319     1.4272 </r>
       <r>   -13.9297     1.4125     1.5242 </r>
       <r>   -13.8611     1.5684     1.6318 </r>
       <r>   -13.7924     0.7295     1.6819 </r>
       <r>   -13.7238     0.1638     1.6931 </r>
       <r>   -13.6552     0.2417     1.7097 </r>
       <r>   -13.5865     0.9634     1.7759 </r>
       <r>   -13.5179     1.7297     1.8946 </r>
       <r>   -13.4492     1.6010     2.0045 </r>
       <r>   -13.3806     1.5220     2.1090 </r>
       <r>   -13.3120     1.9521     2.2430 </r>
       <r>   -13.2433     2.2364     2.3965 </r>
       <r>   -13.1747     2.7756     2.5870 </r>
       <r>   -13.1060     3.6226     2.8357 </r>
       <r>   -13.0374     3.8276     3.0984 </r>
       <r>   -12.9687     3.4225     3.3333 </r>
       <r>   -12.9001     3.5264     3.5754 </r>
       <r>   -12.8315     4.0164     3.8511 </r>
       <r>   -12.7628     3.9006     4.1188 </r>
       <r>   -12.6942     3.5485     4.3624 </r>
       <r>   -12.6255     3.7192     4.6177 </r>
       <r>   -12.5569     4.1827     4.9048 </r>
       <r>   -12.4882     4.7981     5.2342 </r>
       <r>   -12.4196     5.5676     5.6164 </r>
       <r>   -12.3510     6.0846     6.0340 </r>
       <r>   -12.2823     6.2298     6.4617 </r>
       <r>   -12.2137     6.2536     6.8909 </r>
       <r>   -12.1450     6.4476     7.3335 </r>
       <r>   -12.0764     6.1684     7.7569 </r>
       <r>   -12.0077     5.6833     8.1470 </r>
       <r>   -11.9391     6.2679     8.5773 </r>
       <r>   -11.8705     7.6816     9.1046 </r>
       <r>   -11.8018     8.5904     9.6942 </r>
       <r>   -11.7332     8.1479    10.2535 </r>
       <r>   -11.6645     7.3788    10.7600 </r>
       <r>   -11.5959     7.7362    11.2911 </r>
       <r>   -11.5272     8.3207    11.8622 </r>
       <r>   -11.4586     8.8302    12.4683 </r>
       <r>   -11.3900     9.9446    13.1510 </r>
       <r>   -11.3213    10.0358    13.8398 </r>
       <r>   -11.2527     9.2020    14.4715 </r>
       <r>   -11.1840     9.3517    15.1134 </r>
       <r>   -11.1154     9.4264    15.7605 </r>
       <r>   -11.0467     7.9131    16.3037 </r>
       <r>   -10.9781     7.7356    16.8347 </r>
       <r>   -10.9095    10.0892    17.5272 </r>
       <r>   -10.8408    11.2390    18.2987 </r>
       <r>   -10.7722     9.3682    18.9417 </r>
       <r>   -10.7035     8.1417    19.5006 </r>
       <r>   -10.6349     8.6051    20.0913 </r>
       <r>   -10.5662     8.3879    20.6671 </r>
       <r>   -10.4976     8.1242    21.2247 </r>
       <r>   -10.4290     8.2116    21.7884 </r>
       <r>   -10.3603     7.1315    22.2779 </r>
       <r>   -10.2917     5.2261    22.6367 </r>
       <r>   -10.2230     2.9655    22.8402 </r>
       <r>   -10.1544     1.0300    22.9109 </r>
       <r>   -10.0857     0.3484    22.9348 </r>
       <r>   -10.0171     1.0536    23.0072 </r>
       <r>    -9.9485     3.0185    23.2143 </r>
       <r>    -9.8798     4.6217    23.5316 </r>
       <r>    -9.8112     4.1405    23.8158 </r>
       <r>    -9.7425     2.6480    23.9976 </r>
       <r>    -9.6739     2.2216    24.1501 </r>
       <r>    -9.6052     2.8350    24.3447 </r>
       <r>    -9.5366     4.0702    24.6241 </r>
       <r>    -9.4680     5.1166    24.9753 </r>
       <r>    -9.3993     4.6986    25.2978 </r>
       <r>    -9.3307     3.8911    25.5649 </r>
       <r>    -9.2620     3.2492    25.7879 </r>
       <r>    -9.1934     2.0694    25.9300 </r>
       <r>    -9.1247     0.8188    25.9862 </r>
       <r>    -9.0561     0.1837    25.9988 </r>
       <r>    -8.9875     0.0719    26.0037 </r>
       <r>    -8.9188     0.3618    26.0286 </r>
       <r>    -8.8502     1.1465    26.1073 </r>
       <r>    -8.7815     1.9443    26.2407 </r>
       <r>    -8.7129     2.7882    26.4321 </r>
       <r>    -8.6442     4.5183    26.7423 </r>
       <r>    -8.5756     5.4907    27.1192 </r>
       <r>    -8.5070     4.8096    27.4493 </r>
       <r>    -8.4383     4.6611    27.7693 </r>
       <r>    -8.3697     5.0544    28.1162 </r>
       <r>    -8.3010     4.9807    28.4581 </r>
       <r>    -8.2324     4.4070    28.7606 </r>
       <r>    -8.1637     3.5192    29.0022 </r>
       <r>    -8.0951     3.7297    29.2582 </r>
       <r>    -8.0265     5.0291    29.6034 </r>
       <r>    -7.9578     5.3244    29.9689 </r>
       <r>    -7.8892     4.4872    30.2769 </r>
       <r>    -7.8205     5.2188    30.6351 </r>
       <r>    -7.7519     7.7162    31.1648 </r>
       <r>    -7.6832     9.1508    31.7929 </r>
       <r>    -7.6146     7.3252    32.2958 </r>
       <r>    -7.5460     4.3663    32.5955 </r>
       <r>    -7.4773     3.6337    32.8449 </r>
       <r>    -7.4087     4.6440    33.1637 </r>
       <r>    -7.3400     6.5133    33.6108 </r>
       <r>    -7.2714     8.6341    34.2034 </r>
       <r>    -7.2027     9.1823    34.8337 </r>
       <r>    -7.1341     8.1298    35.3918 </r>
       <r>    -7.0655     7.6540    35.9172 </r>
       <r>    -6.9968     8.6512    36.5110 </r>
       <r>    -6.9282     8.4074    37.0881 </r>
       <r>    -6.8595     6.6812    37.5467 </r>
       <r>    -6.7909     5.5565    37.9281 </r>
       <r>    -6.7222     5.2622    38.2894 </r>
       <r>    -6.6536     6.4199    38.7300 </r>
       <r>    -6.5850     9.7588    39.3999 </r>
       <r>    -6.5163    12.0219    40.2251 </r>
       <r>    -6.4477     9.7064    40.8914 </r>
       <r>    -6.3790     6.3476    41.3271 </r>
       <r>    -6.3104     5.8450    41.7283 </r>
       <r>    -6.2417     6.7375    42.1908 </r>
       <r>    -6.1731     6.8451    42.6607 </r>
       <r>    -6.1045     7.1230    43.1496 </r>
       <r>    -6.0358     6.6391    43.6053 </r>
       <r>    -5.9672     4.0918    43.8862 </r>
       <r>    -5.8985     2.2182    44.0385 </r>
       <r>    -5.8299     2.9099    44.2382 </r>
       <r>    -5.7612     4.9484    44.5779 </r>
       <r>    -5.6926     6.6999    45.0378 </r>
       <r>    -5.6240     7.8048    45.5735 </r>
       <r>    -5.5553     7.8568    46.1129 </r>
       <r>    -5.4867     6.7162    46.5739 </r>
       <r>    -5.4180     5.8835    46.9777 </r>
       <r>    -5.3494     5.5195    47.3566 </r>
       <r>    -5.2807     5.5911    47.7404 </r>
       <r>    -5.2121     6.3461    48.1760 </r>
       <r>    -5.1435     5.8734    48.5792 </r>
       <r>    -5.0748     5.2440    48.9391 </r>
       <r>    -5.0062     5.9773    49.3494 </r>
       <r>    -4.9375     7.3127    49.8514 </r>
       <r>    -4.8689     8.2946    50.4208 </r>
       <r>    -4.8002     8.8966    51.0315 </r>
       <r>    -4.7316     9.5172    51.6847 </r>
       <r>    -4.6630     8.9290    52.2977 </r>
       <r>    -4.5943     8.2368    52.8631 </r>
       <r>    -4.5257     9.2419    53.4974 </r>
       <r>    -4.4570    10.5186    54.2195 </r>
       <r>    -4.3884    11.3244    54.9968 </r>
       <r>    -4.3197    11.9890    55.8198 </r>
       <r>    -4.2511    12.5578    56.6818 </r>
       <r>    -4.1825    12.8517    57.5639 </r>
       <r>    -4.1138    12.7127    58.4366 </r>
       <r>    -4.0452    12.8048    59.3155 </r>
       <r>    -3.9765    13.9299    60.2717 </r>
       <r>    -3.9079    14.5352    61.2695 </r>
       <r>    -3.8393    13.3954    62.1890 </r>
       <r>    -3.7706    11.5139    62.9793 </r>
       <r>    -3.7020    10.7805    63.7193 </r>
       <r>    -3.6333    11.5323    64.5109 </r>
       <r>    -3.5647    12.2287    65.3503 </r>
       <r>    -3.4960    12.1785    66.1863 </r>
       <r>    -3.4274    11.9658    67.0076 </r>
       <r>    -3.3588    12.2028    67.8453 </r>
       <r>    -3.2901    13.3342    68.7606 </r>
       <r>    -3.2215    14.2651    69.7398 </r>
       <r>    -3.1528    14.9019    70.7627 </r>
       <r>    -3.0842    16.1366    71.8703 </r>
       <r>    -3.0155    17.3162    73.0590 </r>
       <r>    -2.9469    18.9751    74.3615 </r>
       <r>    -2.8783    19.5083    75.7006 </r>
       <r>    -2.8096    16.9905    76.8669 </r>
       <r>    -2.7410    14.1859    77.8406 </r>
       <r>    -2.6723    13.7642    78.7854 </r>
       <r>    -2.6037    15.7166    79.8643 </r>
       <r>    -2.5350    17.7495    81.0826 </r>
       <r>    -2.4664    17.3905    82.2764 </r>
       <r>    -2.3978    16.3120    83.3961 </r>
       <r>    -2.3291    16.7050    84.5427 </r>
       <r>    -2.2605    17.1624    85.7208 </r>
       <r>    -2.1918    15.1123    86.7582 </r>
       <r>    -2.1232    13.4018    87.6781 </r>
       <r>    -2.0545    14.4624    88.6708 </r>
       <r>    -1.9859    15.2364    89.7167 </r>
       <r>    -1.9173    15.0011    90.7464 </r>
       <r>    -1.8486    16.0381    91.8473 </r>
       <r>    -1.7800    18.1933    93.0962 </r>
       <r>    -1.7113    18.6689    94.3777 </r>
       <r>    -1.6427    17.4004    95.5721 </r>
       <r>    -1.5740    15.8016    96.6567 </r>
       <r>    -1.5054    13.1190    97.5572 </r>
       <r>    -1.4368    10.7012    98.2918 </r>
       <r>    -1.3681    10.2382    98.9946 </r>
       <r>    -1.2995    10.4732    99.7135 </r>
       <r>    -1.2308     8.9365   100.3269 </r>
       <r>    -1.1622     6.4083   100.7668 </r>
       <r>    -1.0935     5.5930   101.1507 </r>
       <r>    -1.0249     6.4209   101.5915 </r>
       <r>    -0.9563     6.9498   102.0685 </r>
       <r>    -0.8876     7.2365   102.5653 </r>
       <r>    -0.8190     7.9949   103.1141 </r>
       <r>    -0.7503     7.2268   103.6101 </r>
       <r>    -0.6817     5.0931   103.9597 </r>
       <r>    -0.6130     4.2644   104.2525 </r>
       <r>    -0.5444     4.6047   104.5685 </r>
       <r>    -0.4758     4.5819   104.8830 </r>
       <r>    -0.4071     4.8633   105.2169 </r>
       <r>    -0.3385     5.4097   105.5882 </r>
       <r>    -0.2698     5.5195   105.9671 </r>
       <r>    -0.2012     5.0143   106.3113 </r>
       <r>    -0.1325     4.6164   106.6282 </r>
       <r>    -0.0639     5.2104   106.9858 </r>
       <r>     0.0047     5.6023   107.3704 </r>
       <r>     0.0734     5.7980   107.7684 </r>
       <r>     0.1420     7.0724   108.2538 </r>
       <r>     0.2107     7.9608   108.8003 </r>
       <r>     0.2793     7.2040   109.2948 </r>
       <r>     0.3480     5.6656   109.6837 </r>
       <r>     0.4166     4.1538   109.9688 </r>
       <r>     0.4852     2.4326   110.1358 </r>
       <r>     0.5539     1.9860   110.2721 </r>
       <r>     0.6225     3.0889   110.4842 </r>
       <r>     0.6912     3.7568   110.7420 </r>
       <r>     0.7598     4.1383   111.0261 </r>
       <r>     0.8285     5.0393   111.3720 </r>
       <r>     0.8971     6.4173   111.8125 </r>
       <r>     0.9657     7.0360   112.2955 </r>
       <r>     1.0344     5.2231   112.6540 </r>
       <r>     1.1030     3.7091   112.9086 </r>
       <r>     1.1717     5.1941   113.2651 </r>
       <r>     1.2403     8.1022   113.8213 </r>
       <r>     1.3090     9.3036   114.4599 </r>
       <r>     1.3776     8.5056   115.0438 </r>
       <r>     1.4462     8.3986   115.6203 </r>
       <r>     1.5149     8.8872   116.2303 </r>
       <r>     1.5835     8.3079   116.8006 </r>
       <r>     1.6522     9.1851   117.4311 </r>
       <r>     1.7208    12.4531   118.2859 </r>
       <r>     1.7895    13.9035   119.2403 </r>
       <r>     1.8581    13.0499   120.1360 </r>
       <r>     1.9267    13.0965   121.0350 </r>
       <r>     1.9954    13.5270   121.9636 </r>
       <r>     2.0640    13.2984   122.8764 </r>
       <r>     2.1327    13.4756   123.8014 </r>
       <r>     2.2013    13.5573   124.7320 </r>
       <r>     2.2700    14.5015   125.7274 </r>
       <r>     2.3386    16.7852   126.8796 </r>
       <r>     2.4072    17.2639   128.0647 </r>
       <r>     2.4759    15.0525   129.0979 </r>
       <r>     2.5445    13.4686   130.0224 </r>
       <r>     2.6132    12.7461   130.8973 </r>
       <r>     2.6818    11.7548   131.7042 </r>
       <r>     2.7505    11.9545   132.5248 </r>
       <r>     2.8191    12.6744   133.3948 </r>
       <r>     2.8877    11.5795   134.1897 </r>
       <r>     2.9564     8.9734   134.8056 </r>
       <r>     3.0250     6.5418   135.2547 </r>
       <r>     3.0937     4.3969   135.5565 </r>
       <r>     3.1623     2.7538   135.7455 </r>
       <r>     3.2310     1.7598   135.8663 </r>
       <r>     3.2996     1.0583   135.9390 </r>
       <r>     3.3682     0.5904   135.9795 </r>
       <r>     3.4369     0.2421   135.9961 </r>
       <r>     3.5055     0.0516   135.9997 </r>
       <r>     3.5742     0.0049   136.0000 </r>
       <r>     3.6428     0.0002   136.0000 </r>
       <r>     3.7115     0.0000   136.0000 </r>
       <r>     3.7801     0.0000   136.0000 </r>
       <r>     3.8487     0.0000   136.0000 </r>
       <r>     3.9174     0.0000   136.0000 </r>
       <r>     3.9860     0.0000   136.0000 </r>
       <r>     4.0547     0.0000   136.0000 </r>
       <r>     4.1233     0.0000   136.0000 </r>
       <r>     4.1920     0.0000   136.0000 </r>
       <r>     4.2606     0.0000   136.0000 </r>
       <r>     4.3292     0.0000   136.0000 </r>
      </set>
     </set>
    </array>
   </total>
  </dos>
 </calculation>
 <structure name="finalpos" >
  <crystal>
   <varray name="basis" >
    <v>       3.54040000       0.00000000       0.00000000 </v>
    <v>      -1.77020000      10.29434800       0.00000000 </v>
    <v>       0.00000000       0.00000000      27.50142900 </v>
   </varray>
   <i name="volume">   1002.32009712 </i>
   <varray name="rec_basis" >
    <v>       0.28245396       0.04857034       0.00000000 </v>
    <v>       0.00000000       0.09714068       0.00000000 </v>
    <v>       0.00000000       0.00000000       0.03636175 </v>
   </varray>
  </crystal>
  <varray name="positions" >
   <v>       0.11402300       0.22804500       0.23316207 </v>
   <v>       0.81402300       0.52804500       0.51499159 </v>
   <v>       0.45808900       0.91617900       0.20939482 </v>
   <v>       0.15808900       0.21617900       0.49122434 </v>
   <v>       0.31085400       0.62170900       0.08414979 </v>
   <v>       0.31085400       0.62170900       0.36597930 </v>
   <v>       0.99923000       0.99846000       0.08631254 </v>
   <v>       0.99923000       0.99846000       0.36814206 </v>
   <v>       0.65492700       0.30985400       0.06041748 </v>
   <v>       0.65492700       0.30985400       0.34224700 </v>
   <v>       0.76973800       0.53947500       0.20725292 </v>
   <v>       0.46973800       0.83947500       0.48908244 </v>
   <v>       0.93971600       0.87943300       0.15783749 </v>
   <v>       0.63971600       0.17943300       0.43966701 </v>
   <v>       0.20515200       0.41030300       0.18578822 </v>
   <v>       0.90515200       0.71030300       0.46761774 </v>
   <v>       0.20184900       0.40369900       0.09969156 </v>
   <v>       0.20184900       0.40369900       0.38152107 </v>
   <v>       0.56380500       0.12761000       0.10779021 </v>
   <v>       0.56380500       0.12761000       0.38961973 </v>
   <v>       0.56710600       0.13421200       0.19387616 </v>
   <v>       0.26710600       0.43421200       0.47570568 </v>
   <v>       0.82923400       0.65846800       0.13571444 </v>
   <v>       0.52923400       0.95846800       0.41754396 </v>
  </varray>
 </structure>
</modeling>
