 running on    8 total cores
 distrk:  each k-point on    8 cores,    1 groups
 distr:  one band on    2 cores,    4 groups
 using from now: INCAR     
 vasp.5.3.5 31Mar14 (build Oct 29 2014 16:16:03) complex                        
  
 POSCAR found type information on POSCAR  P  Si
 POSCAR found :  2 types and      24 ions
 scaLAPACK will be used

 ----------------------------------------------------------------------------- 
|                                                                             |
|  ADVICE TO THIS USER RUNNING 'VASP/VAMP'   (HEAR YOUR MASTER'S VOICE ...):  |
|                                                                             |
|      You have switched on vdW-DFT.                                          |
|      This routine was written and supplied by Jiri Klimes.                  |
|      We recommed that you carefully read and cite the following             |
|      publication                                                            |
|      J. Klimes, D.R. Bowler, A. Michelides                                  |
|        J. Phys.: Cond Matt. 22 022201 (2010)                                |
|      J. Klimes, D.R. Bowler, A. Michelides                                  |
|        Phys. Rev. B. 83, 195131 (2011)                                      |
|      and references therein.                                                |
|                                                                             |
 ----------------------------------------------------------------------------- 


 ----------------------------------------------------------------------------- 
|                                                                             |
|  ADVICE TO THIS USER RUNNING 'VASP/VAMP'   (HEAR YOUR MASTER'S VOICE ...):  |
|                                                                             |
|      You enforced a specific xc-type in the INCAR file,                     |
|      a different type was found on the POTCAR file                          |
|          I HOPE YOU KNOW, WHAT YOU ARE  DOING                               |
|                                                                             |
 ----------------------------------------------------------------------------- 

 LDA part: xc-table for Pade appr. of Perdew


 VERY BAD NEWS! internal error in subroutine IBZKPT:
 Reciprocal lattice and k-lattice belong to different class of lattices. Often results are still useful...      96


 VERY BAD NEWS! internal error in subroutine IBZKPT:
 Reciprocal lattice and k-lattice belong to different class of lattices. Often results are still useful...      96


 VERY BAD NEWS! internal error in subroutine IBZKPT:
 Reciprocal lattice and k-lattice belong to different class of lattices. Often results are still useful...      96


 VERY BAD NEWS! internal error in subroutine IBZKPT:
 Reciprocal lattice and k-lattice belong to different class of lattices. Often results are still useful...      96


 VERY BAD NEWS! internal error in subroutine IBZKPT:
 Reciprocal lattice and k-lattice belong to different class of lattices. Often results are still useful...      96


 VERY BAD NEWS! internal error in subroutine IBZKPT:
 Reciprocal lattice and k-lattice belong to different class of lattices. Often results are still useful...      96


 VERY BAD NEWS! internal error in subroutine IBZKPT:
 Reciprocal lattice and k-lattice belong to different class of lattices. Often results are still useful...      96


 VERY BAD NEWS! internal error in subroutine IBZKPT:
 Reciprocal lattice and k-lattice belong to different class of lattices. Often results are still useful...      96
 POSCAR, INCAR and KPOINTS ok, starting setup
 WARNING: small aliasing (wrap around) errors must be expected
 FFT: planning ...
 WAVECAR not read
 entering main loop
       N       E                     dE             d eps       ncg     rms          rms(c)
Total vdW correction in eV:     15.9184203
DAV:   1     0.501238692757E+03    0.50124E+03   -0.28752E+04  7376   0.790E+02
DAV:   2    -0.616209877458E+02   -0.56286E+03   -0.54786E+03  9756   0.191E+02
DAV:   3    -0.118085427114E+03   -0.56464E+02   -0.55539E+02  8824   0.624E+01
DAV:   4    -0.120677119575E+03   -0.25917E+01   -0.25708E+01 10840   0.142E+01
DAV:   5    -0.120744301755E+03   -0.67182E-01   -0.67101E-01 10072   0.225E+00    0.108E+01
Total vdW correction in eV:     16.2677323
DAV:   6    -0.117718095644E+03    0.30262E+01   -0.11679E+01  8848   0.942E+00    0.599E+00
Total vdW correction in eV:     16.5527576
DAV:   7    -0.117596302393E+03    0.12179E+00   -0.11012E+01  9008   0.736E+00    0.380E+00
Total vdW correction in eV:     16.8290670
DAV:   8    -0.117345520172E+03    0.25078E+00   -0.28463E+00  8988   0.459E+00    0.146E+00
Total vdW correction in eV:     16.9177308
DAV:   9    -0.117369537903E+03   -0.24018E-01   -0.65337E-01  9096   0.211E+00    0.835E-01
Total vdW correction in eV:     16.9565546
DAV:  10    -0.117342987136E+03    0.26551E-01   -0.11287E-01  8904   0.954E-01    0.393E-01
Total vdW correction in eV:     16.9878522
DAV:  11    -0.117327812053E+03    0.15175E-01   -0.36617E-02  8928   0.536E-01    0.144E-01
Total vdW correction in eV:     16.9957779
DAV:  12    -0.117323883213E+03    0.39288E-02   -0.92355E-03  8952   0.266E-01    0.767E-02
Total vdW correction in eV:     17.0011921
DAV:  13    -0.117320017240E+03    0.38660E-02   -0.16976E-03  9216   0.116E-01    0.468E-02
Total vdW correction in eV:     17.0062986
DAV:  14    -0.117315827543E+03    0.41897E-02   -0.69306E-04  9032   0.695E-02    0.232E-02
Total vdW correction in eV:     17.0093840
DAV:  15    -0.117314333850E+03    0.14937E-02   -0.13965E-04  9464   0.336E-02    0.136E-02
Total vdW correction in eV:     17.0133548
DAV:  16    -0.117313546561E+03    0.78729E-03   -0.92972E-05  8952   0.244E-02    0.873E-03
Total vdW correction in eV:     17.0157671
DAV:  17    -0.117313664249E+03   -0.11769E-03   -0.63306E-05  8080   0.226E-02    0.557E-03
Total vdW correction in eV:     17.0167154
DAV:  18    -0.117314114405E+03   -0.45016E-03   -0.12054E-04  8288   0.222E-02    0.309E-03
Total vdW correction in eV:     17.0168130
DAV:  19    -0.117314361754E+03   -0.24735E-03   -0.74313E-05  7616   0.153E-02    0.190E-03
Total vdW correction in eV:     17.0165661
DAV:  20    -0.117314450935E+03   -0.89181E-04   -0.27845E-05  7200   0.112E-02    0.122E-03
Total vdW correction in eV:     17.0163378
DAV:  21    -0.117314485789E+03   -0.34854E-04   -0.11565E-05  6784   0.755E-03    0.773E-04
Total vdW correction in eV:     17.0161641
DAV:  22    -0.117314445908E+03    0.39881E-04   -0.27214E-05  7164   0.101E-02    0.628E-04
Total vdW correction in eV:     17.0161010
DAV:  23    -0.117314417604E+03    0.28305E-04   -0.11750E-05  6636   0.100E-02    0.345E-04
Total vdW correction in eV:     17.0160767
DAV:  24    -0.117314357697E+03    0.59906E-04   -0.60886E-06  6224   0.820E-03    0.142E-04
Total vdW correction in eV:     17.0160750
DAV:  25    -0.117314339563E+03    0.18134E-04   -0.42754E-06  6456   0.736E-03    0.957E-05
Total vdW correction in eV:     17.0160761
DAV:  26    -0.117314325883E+03    0.13680E-04   -0.58274E-06  6840   0.829E-03    0.362E-05
Total vdW correction in eV:     17.0160762
DAV:  27    -0.117314327466E+03   -0.15834E-05   -0.36700E-06  6728   0.651E-03    0.218E-05
Total vdW correction in eV:     17.0160765
DAV:  28    -0.117314331242E+03   -0.37756E-05   -0.38327E-06  6100   0.640E-03    0.146E-05
Total vdW correction in eV:     17.0160758
DAV:  29    -0.117314330446E+03    0.79584E-06   -0.10213E-06  5644   0.405E-03
Total vdW correction in eV:     17.0160749
Total vdW correction in eV:     17.0160757
   1 F= -.11731433E+03 E0= -.11729477E+03  d E =-.391167E-01
