<?xml version="1.0" encoding="ISO-8859-1"?>
<modeling>
 <generator>
  <i name="program" type="string">vasp </i>
  <i name="version" type="string">5.4.1  </i>
  <i name="subversion" type="string">24Jun15 (build May 10 2016 14:18:23) complex                          parallel </i>
  <i name="platform" type="string">IFC91_ompi </i>
  <i name="date" type="string">2016 12 09 </i>
  <i name="time" type="string">14:59:17 </i>
 </generator>
 <incar>
  <i type="string" name="PREC">accurate</i>
  <i type="string" name="ALGO"> Fast</i>
  <i type="int" name="ISPIN">     2</i>
  <i type="int" name="IBRION">     2</i>
  <i name="EDIFF">      0.00010000</i>
  <i type="int" name="NSW">     0</i>
  <i type="int" name="ISIF">     3</i>
  <i name="ENCUT">    500.00000000</i>
  <v name="MAGMOM">      6.00000000      0.50000000      0.50000000      6.00000000      0.50000000      0.50000000</v>
  <i type="string" name="LREAL"> Auto</i>
  <i type="int" name="ISMEAR">     1</i>
  <i name="SIGMA">      0.10000000</i>
  <i type="logical" name="LWAVE"> F  </i>
  <i type="logical" name="LCHARG"> F  </i>
  <i type="logical" name="LVTOT"> T  </i>
  <i type="logical" name="LVHAR"> T  </i>
  <i type="logical" name="LAECHG"> F  </i>
  <v type="int" name="KPOINT_BSE">    -1     0     0     0</v>
  <i type="string" name="GGA"> Bo</i>
  <i name="PARAM1">      0.18333333</i>
  <i name="PARAM2">      0.22000000</i>
  <i type="logical" name="LUSE_VDW"> T  </i>
  <i name="AGGAC">      0.00000000</i>
 </incar>
 <kpoints>
  <generation param="Gamma">
   <v type="int" name="divisions">      13       13        1 </v>
   <v name="usershift">      0.00000000       0.00000000       0.00000000 </v>
   <v name="genvec1">      0.07692308       0.00000000       0.00000000 </v>
   <v name="genvec2">      0.00000000       0.07692308       0.00000000 </v>
   <v name="genvec3">      0.00000000       0.00000000       1.00000000 </v>
   <v name="shift">      0.00000000       0.00000000       0.00000000 </v>
  </generation>
  <varray name="kpointlist" >
   <v>       0.00000000       0.00000000       0.00000000 </v>
   <v>       0.07692308      -0.00000000       0.00000000 </v>
   <v>       0.15384615       0.00000000       0.00000000 </v>
   <v>       0.23076923       0.00000000       0.00000000 </v>
   <v>       0.30769231      -0.00000000       0.00000000 </v>
   <v>       0.38461538       0.00000000       0.00000000 </v>
   <v>       0.46153846       0.00000000       0.00000000 </v>
   <v>       0.07692308       0.07692308       0.00000000 </v>
   <v>       0.15384615       0.07692308       0.00000000 </v>
   <v>       0.23076923       0.07692308       0.00000000 </v>
   <v>       0.30769231       0.07692308       0.00000000 </v>
   <v>       0.38461538       0.07692308       0.00000000 </v>
   <v>       0.46153846       0.07692308       0.00000000 </v>
   <v>      -0.46153846       0.07692308       0.00000000 </v>
   <v>      -0.38461538       0.07692308       0.00000000 </v>
   <v>      -0.30769231       0.07692308       0.00000000 </v>
   <v>      -0.23076923       0.07692308       0.00000000 </v>
   <v>      -0.15384615       0.07692308       0.00000000 </v>
   <v>      -0.07692308       0.07692308       0.00000000 </v>
   <v>       0.15384615       0.15384615       0.00000000 </v>
   <v>       0.23076923       0.15384615       0.00000000 </v>
   <v>       0.30769231       0.15384615       0.00000000 </v>
   <v>       0.38461538       0.15384615       0.00000000 </v>
   <v>       0.46153846       0.15384615       0.00000000 </v>
   <v>      -0.46153846       0.15384615       0.00000000 </v>
   <v>      -0.38461538       0.15384615       0.00000000 </v>
   <v>      -0.30769231       0.15384615       0.00000000 </v>
   <v>      -0.23076923       0.15384615       0.00000000 </v>
   <v>      -0.15384615       0.15384615       0.00000000 </v>
   <v>       0.23076923       0.23076923       0.00000000 </v>
   <v>       0.30769231       0.23076923       0.00000000 </v>
   <v>       0.38461538       0.23076923       0.00000000 </v>
   <v>       0.46153846       0.23076923       0.00000000 </v>
   <v>      -0.46153846       0.23076923       0.00000000 </v>
   <v>      -0.38461538       0.23076923       0.00000000 </v>
   <v>      -0.30769231       0.23076923       0.00000000 </v>
   <v>      -0.23076923       0.23076923       0.00000000 </v>
   <v>       0.30769231       0.30769231       0.00000000 </v>
   <v>       0.38461538       0.30769231       0.00000000 </v>
   <v>       0.46153846       0.30769231       0.00000000 </v>
   <v>      -0.46153846       0.30769231       0.00000000 </v>
   <v>      -0.38461538       0.30769231       0.00000000 </v>
   <v>      -0.30769231       0.30769231       0.00000000 </v>
   <v>       0.38461538       0.38461538       0.00000000 </v>
   <v>       0.46153846       0.38461538       0.00000000 </v>
   <v>      -0.46153846       0.38461538       0.00000000 </v>
   <v>      -0.38461538       0.38461538       0.00000000 </v>
   <v>       0.46153846       0.46153846       0.00000000 </v>
   <v>      -0.46153846       0.46153846       0.00000000 </v>
  </varray>
  <varray name="weights" >
   <v>       0.00591716 </v>
   <v>       0.02366864 </v>
   <v>       0.02366864 </v>
   <v>       0.02366864 </v>
   <v>       0.02366864 </v>
   <v>       0.02366864 </v>
   <v>       0.02366864 </v>
   <v>       0.01183432 </v>
   <v>       0.02366864 </v>
   <v>       0.02366864 </v>
   <v>       0.02366864 </v>
   <v>       0.02366864 </v>
   <v>       0.02366864 </v>
   <v>       0.02366864 </v>
   <v>       0.02366864 </v>
   <v>       0.02366864 </v>
   <v>       0.02366864 </v>
   <v>       0.02366864 </v>
   <v>       0.01183432 </v>
   <v>       0.01183432 </v>
   <v>       0.02366864 </v>
   <v>       0.02366864 </v>
   <v>       0.02366864 </v>
   <v>       0.02366864 </v>
   <v>       0.02366864 </v>
   <v>       0.02366864 </v>
   <v>       0.02366864 </v>
   <v>       0.02366864 </v>
   <v>       0.01183432 </v>
   <v>       0.01183432 </v>
   <v>       0.02366864 </v>
   <v>       0.02366864 </v>
   <v>       0.02366864 </v>
   <v>       0.02366864 </v>
   <v>       0.02366864 </v>
   <v>       0.02366864 </v>
   <v>       0.01183432 </v>
   <v>       0.01183432 </v>
   <v>       0.02366864 </v>
   <v>       0.02366864 </v>
   <v>       0.02366864 </v>
   <v>       0.02366864 </v>
   <v>       0.01183432 </v>
   <v>       0.01183432 </v>
   <v>       0.02366864 </v>
   <v>       0.02366864 </v>
   <v>       0.01183432 </v>
   <v>       0.01183432 </v>
   <v>       0.01183432 </v>
  </varray>
 </kpoints>
 <parameters>
  <separator name="general" >
   <i type="string" name="SYSTEM">unknown system</i>
   <i type="logical" name="LCOMPAT"> F  </i>
  </separator>
  <separator name="electronic" >
   <i type="string" name="PREC">accura</i>
   <i name="ENMAX">    500.00000000</i>
   <i name="ENAUG">    392.42700000</i>
   <i name="EDIFF">      0.00010000</i>
   <i type="int" name="IALGO">    68</i>
   <i type="int" name="IWAVPR">    10</i>
   <i type="int" name="NBANDS">    36</i>
   <i name="NELECT">     48.00000000</i>
   <i type="int" name="TURBO">     0</i>
   <i type="int" name="IRESTART">     0</i>
   <i type="int" name="NREBOOT">     0</i>
   <i type="int" name="NMIN">     0</i>
   <i name="EREF">      0.00000000</i>
   <separator name="electronic smearing" >
    <i type="int" name="ISMEAR">     1</i>
    <i name="SIGMA">      0.10000000</i>
    <i name="KSPACING">      0.50000000</i>
    <i type="logical" name="KGAMMA"> T  </i>
   </separator>
   <separator name="electronic projectors" >
    <i type="logical" name="LREAL"> T  </i>
    <v name="ROPT">     -0.00025000     -0.00025000     -0.00025000     -0.00025000</v>
    <i type="int" name="LMAXPAW">  -100</i>
    <i type="int" name="LMAXMIX">     2</i>
    <i type="logical" name="NLSPLINE"> F  </i>
   </separator>
   <separator name="electronic startup" >
    <i type="int" name="ISTART">     0</i>
    <i type="int" name="ICHARG">     2</i>
    <i type="int" name="INIWAV">     1</i>
   </separator>
   <separator name="electronic spin" >
    <i type="int" name="ISPIN">     2</i>
    <i type="logical" name="LNONCOLLINEAR"> F  </i>
    <v name="MAGMOM">      6.00000000      0.50000000      0.50000000      6.00000000      0.50000000      0.50000000</v>
    <i name="NUPDOWN">     -1.00000000</i>
    <i type="logical" name="LSORBIT"> F  </i>
    <v name="SAXIS">      0.00000000      0.00000000      1.00000000</v>
    <i type="logical" name="LSPIRAL"> F  </i>
    <v name="QSPIRAL">      0.00000000      0.00000000      0.00000000</v>
    <i type="logical" name="LZEROZ"> F  </i>
   </separator>
   <separator name="electronic exchange-correlation" >
    <i type="logical" name="LASPH"> F  </i>
    <i type="logical" name="LMETAGGA"> F  </i>
   </separator>
   <separator name="electronic convergence" >
    <i type="int" name="NELM">    60</i>
    <i type="int" name="NELMDL">     0</i>
    <i type="int" name="NELMIN">     2</i>
    <i name="ENINI">    500.00000000</i>
    <separator name="electronic convergence detail" >
     <i type="logical" name="LDIAG"> T  </i>
     <i type="logical" name="LSUBROT"> F  </i>
     <i name="WEIMIN">      0.00000000</i>
     <i name="EBREAK">      0.00000069</i>
     <i name="DEPER">      0.30000000</i>
     <i type="int" name="NRMM">     4</i>
     <i name="TIME">      0.40000000</i>
    </separator>
   </separator>
   <separator name="electronic mixer" >
    <i name="AMIX">      0.40000000</i>
    <i name="BMIX">      1.00000000</i>
    <i name="AMIN">      0.10000000</i>
    <i name="AMIX_MAG">      1.60000000</i>
    <i name="BMIX_MAG">      1.00000000</i>
    <separator name="electronic mixer details" >
     <i type="int" name="IMIX">     4</i>
     <i type="logical" name="MIXFIRST"> F  </i>
     <i type="int" name="MAXMIX">   -45</i>
     <i name="WC">    100.00000000</i>
     <i type="int" name="INIMIX">     1</i>
     <i type="int" name="MIXPRE">     1</i>
     <i type="int" name="MREMOVE">     5</i>
    </separator>
   </separator>
   <separator name="electronic dipolcorrection" >
    <i type="logical" name="LDIPOL"> F  </i>
    <i type="logical" name="LMONO"> F  </i>
    <i type="int" name="IDIPOL">     0</i>
    <i name="EPSILON">      1.00000000</i>
    <v name="DIPOL">   -100.00000000   -100.00000000   -100.00000000</v>
    <i name="EFIELD">      0.00000000</i>
   </separator>
  </separator>
  <separator name="grids" >
   <i type="int" name="NGX">    24</i>
   <i type="int" name="NGY">    24</i>
   <i type="int" name="NGZ">   180</i>
   <i type="int" name="NGXF">    48</i>
   <i type="int" name="NGYF">    48</i>
   <i type="int" name="NGZF">   360</i>
   <i type="logical" name="ADDGRID"> F  </i>
  </separator>
  <separator name="ionic" >
   <i type="int" name="NSW">     0</i>
   <i type="int" name="IBRION">    -1</i>
   <i type="int" name="ISIF">     3</i>
   <i name="PSTRESS">      0.00000000</i>
   <i name="EDIFFG">      0.00100000</i>
   <i type="int" name="NFREE">     1</i>
   <i name="POTIM">      0.50000000</i>
   <i name="SMASS">     -3.00000000</i>
   <i name="SCALEE">      1.00000000</i>
  </separator>
  <separator name="ionic md" >
   <i name="TEBEG">      0.00010000</i>
   <i name="TEEND">      0.00010000</i>
   <i type="int" name="NBLOCK">     1</i>
   <i type="int" name="KBLOCK">     1</i>
   <i type="int" name="NPACO">   256</i>
   <i name="APACO">     16.00000000</i>
  </separator>
  <separator name="symmetry" >
   <i type="int" name="ISYM">     2</i>
   <i name="SYMPREC">      0.00001000</i>
  </separator>
  <separator name="dos" >
   <i type="logical" name="LORBIT"> F  </i>
   <v name="RWIGS">     -1.00000000     -1.00000000     -1.00000000     -1.00000000</v>
   <i type="int" name="NEDOS">   301</i>
   <i name="EMIN">     10.00000000</i>
   <i name="EMAX">    -10.00000000</i>
   <i name="EFERMI">      0.00000000</i>
  </separator>
  <separator name="writing" >
   <i type="int" name="NWRITE">     2</i>
   <i type="logical" name="LWAVE"> F  </i>
   <i type="logical" name="LCHARG"> F  </i>
   <i type="logical" name="LPARD"> F  </i>
   <i type="logical" name="LVTOT"> F  </i>
   <i type="logical" name="LVHAR"> T  </i>
   <i type="logical" name="LELF"> F  </i>
   <i type="logical" name="LOPTICS"> F  </i>
   <v name="STM">      0.00000000      0.00000000      0.00000000      0.00000000      0.00000000      0.00000000      0.00000000</v>
  </separator>
  <separator name="performance" >
   <i type="int" name="NPAR">     4</i>
   <i type="int" name="NSIM">     4</i>
   <i type="int" name="NBLK">    -1</i>
   <i type="logical" name="LPLANE"> T  </i>
   <i type="logical" name="LSCALAPACK"> T  </i>
   <i type="logical" name="LSCAAWARE"> F  </i>
   <i type="logical" name="LSCALU"> F  </i>
   <i type="logical" name="LASYNC"> F  </i>
   <i type="logical" name="LORBITALREAL"> F  </i>
  </separator>
  <separator name="miscellaneous" >
   <i type="int" name="IDIOT">     3</i>
   <i type="logical" name="LMUSIC"> F  </i>
   <v name="POMASS">     95.94000000     32.06600000     95.94000000     32.06600000</v>
   <v name="DARWINR">      0.00000000      0.00000000      0.00000000      0.00000000</v>
   <v name="DARWINV">      1.00000000      1.00000000      1.00000000      1.00000000</v>
   <i type="logical" name="LCORR"> T  </i>
  </separator>
  <i type="logical" name="GGA_COMPAT"> T  </i>
  <i type="logical" name="LBERRY"> F  </i>
  <i type="int" name="ICORELEVEL">     0</i>
  <i type="logical" name="LDAU"> F  </i>
  <i type="int" name="I_CONSTRAINED_M">     0</i>
  <separator name="electronic exchange-correlation" >
   <i type="string" name="GGA">BO</i>
   <i type="int" name="VOSKOWN">     0</i>
   <i type="logical" name="LHFCALC"> F  </i>
   <i type="string" name="PRECFOCK"></i>
   <i type="logical" name="LSYMGRAD"> F  </i>
   <i type="logical" name="LHFONE"> F  </i>
   <i type="logical" name="LRHFCALC"> F  </i>
   <i type="logical" name="LTHOMAS"> F  </i>
   <i type="logical" name="LMODELHF"> F  </i>
   <i name="ENCUT4O">     -1.00000000</i>
   <i type="int" name="EXXOEP">     0</i>
   <i type="int" name="FOURORBIT">     0</i>
   <i name="AEXX">      0.00000000</i>
   <i name="HFALPHA">      0.00000000</i>
   <i name="MCALPHA">      0.00000000</i>
   <i name="ALDAX">      1.00000000</i>
   <i name="AGGAX">      1.00000000</i>
   <i name="ALDAC">      1.00000000</i>
   <i name="AGGAC">      0.00000000</i>
   <i type="int" name="NKREDX">     1</i>
   <i type="int" name="NKREDY">     1</i>
   <i type="int" name="NKREDZ">     1</i>
   <i type="logical" name="SHIFTRED"> F  </i>
   <i type="logical" name="ODDONLY"> F  </i>
   <i type="logical" name="EVENONLY"> F  </i>
   <i type="int" name="LMAXFOCK">     0</i>
   <i type="int" name="NMAXFOCKAE">     0</i>
   <i type="logical" name="LFOCKAEDFT"> F  </i>
   <i name="HFSCREEN">      0.00000000</i>
   <i name="HFSCREENC">      0.00000000</i>
   <i type="int" name="NBANDSGWLOW">     0</i>
  </separator>
  <separator name="vdW DFT" >
   <i type="logical" name="LUSE_VDW"> T  </i>
   <i name="Zab_VDW">     -0.84910000</i>
   <i name="PARAM1">      0.18333333</i>
   <i name="PARAM2">      0.22000000</i>
   <i name="PARAM3">      0.00000000</i>
  </separator>
  <separator name="model GW" >
   <i type="int" name="MODEL_GW">     0</i>
   <i name="MODEL_EPS0">     20.39722663</i>
   <i name="MODEL_ALPHA">      1.00000000</i>
  </separator>
  <separator name="linear response parameters" >
   <i type="logical" name="LEPSILON"> F  </i>
   <i type="logical" name="LRPA"> F  </i>
   <i type="logical" name="LNABLA"> F  </i>
   <i type="logical" name="LVEL"> F  </i>
   <i type="int" name="KINTER">     0</i>
   <i name="CSHIFT">      0.10000000</i>
   <i name="OMEGAMAX">     -1.00000000</i>
   <i name="DEG_THRESHOLD">      0.00200000</i>
  </separator>
  <separator name="orbital magnetization" >
   <i type="logical" name="NUCIND"> F  </i>
   <v name="MAGPOS">      0.00000000      0.00000000      0.00000000</v>
   <i type="logical" name="LNICSALL"> T  </i>
   <i type="logical" name="ORBITALMAG"> F  </i>
   <i type="logical" name="LMAGBLOCH"> F  </i>
   <i type="logical" name="LCHIMAG"> F  </i>
   <i type="logical" name="LGAUGE"> T  </i>
   <i type="int" name="MAGATOM">     0</i>
   <v name="MAGDIPOL">      0.00000000      0.00000000      0.00000000</v>
   <v name="AVECCONST">      0.00000000      0.00000000      0.00000000</v>
  </separator>
  <separator name="response functions" >
   <i type="logical" name="LADDER"> F  </i>
   <i type="logical" name="LFXC"> F  </i>
   <i type="logical" name="LHARTREE"> T  </i>
   <i type="int" name="IBSE">     0</i>
   <v type="int" name="KPOINT">    -1     0     0     0</v>
   <i type="logical" name="LTCTE"> F  </i>
   <i type="logical" name="LTETE"> F  </i>
   <i type="logical" name="LTRIPLET"> F  </i>
   <i type="logical" name="LFXCEPS"> F  </i>
   <i type="logical" name="LFXHEG"> F  </i>
   <i type="int" name="NATURALO">     0</i>
   <i type="logical" name="L2ORDER"> F  </i>
   <i type="logical" name="LUSEW"> F  </i>
   <i name="ENCUTGW">     -2.00000000</i>
   <i name="ENCUTGWSOFT">     -2.00000000</i>
   <i name="ENCUTLF">     -1.00000000</i>
   <i type="int" name="LMAXMP2">    -1</i>
   <i name="SCISSOR">      0.00000000</i>
   <i type="int" name="NOMEGA">     0</i>
   <i type="int" name="NOMEGAR">     0</i>
   <i type="int" name="NBANDSGW">    -1</i>
   <i type="int" name="NBANDSO">    -1</i>
   <i type="int" name="NBANDSV">    -1</i>
   <i type="int" name="NELM">     1</i>
   <i type="int" name="NELMHF">     1</i>
   <i type="int" name="DIM">     3</i>
   <i type="int" name="ANTIRES">     0</i>
   <i name="OMEGAMAX">    -30.00000000</i>
   <i name="OMEGAMIN">    -30.00000000</i>
   <i name="OMEGATL">   -200.00000000</i>
   <i type="int" name="OMEGAGRID">     0</i>
   <i name="CSHIFT">     -0.10000000</i>
   <i type="logical" name="SELFENERGY"> F  </i>
   <i type="logical" name="LSPECTRAL"> F  </i>
   <i type="logical" name="LSPECTRALGW"> F  </i>
   <i type="logical" name="LSINGLES"> F  </i>
   <i type="logical" name="LFERMIGW"> F  </i>
   <i type="logical" name="ODDONLYGW"> F  </i>
   <i type="logical" name="EVENONLYGW"> F  </i>
   <i type="int" name="NKREDLFX">     1</i>
   <i type="int" name="NKREDLFY">     1</i>
   <i type="int" name="NKREDLFZ">     1</i>
   <i type="int" name="MAXMEM">  1800</i>
   <i type="int" name="TELESCOPE">     0</i>
   <i type="int" name="TAUPAR">     1</i>
   <i type="int" name="OMEGAPAR">    -1</i>
   <i name="LAMBDA">      1.00000000</i>
  </separator>
  <separator name="External order field" >
   <i name="OFIELD_KAPPA">      0.00000000</i>
   <v name="OFIELD_K">      0.00000000      0.00000000      0.00000000</v>
   <i name="OFIELD_Q6_NEAR">      0.00000000</i>
   <i name="OFIELD_Q6_FAR">      0.00000000</i>
   <i name="OFIELD_A">      0.00000000</i>
  </separator>
 </parameters>
 <atominfo>
  <atoms>       6 </atoms>
  <types>       4 </types>
  <array name="atoms" >
   <dimension dim="1">ion</dimension>
   <field type="string">element</field>
   <field type="int">atomtype</field>
   <set>
    <rc><c>Mo</c><c>   1</c></rc>
    <rc><c>S </c><c>   2</c></rc>
    <rc><c>S </c><c>   2</c></rc>
    <rc><c>Mo</c><c>   3</c></rc>
    <rc><c>S </c><c>   4</c></rc>
    <rc><c>S </c><c>   4</c></rc>
   </set>
  </array>
  <array name="atomtypes" >
   <dimension dim="1">type</dimension>
   <field type="int">atomspertype</field>
   <field type="string">element</field>
   <field>mass</field>
   <field>valence</field>
   <field type="string">pseudopotential</field>
   <set>
    <rc><c>   1</c><c>Mo</c><c>     95.94000000</c><c>     12.00000000</c><c> PAW_PBE Mo_pv 08Apr2002                </c></rc>
    <rc><c>   2</c><c>S </c><c>     32.06600000</c><c>      6.00000000</c><c>  PAW_PBE S 17Jan2003                   </c></rc>
    <rc><c>   1</c><c>Mo</c><c>     95.94000000</c><c>     12.00000000</c><c> PAW_PBE Mo_pv 08Apr2002                </c></rc>
    <rc><c>   2</c><c>S </c><c>     32.06600000</c><c>      6.00000000</c><c>  PAW_PBE S 17Jan2003                   </c></rc>
   </set>
  </array>
 </atominfo>
 <structure name="initialpos" >
  <crystal>
   <varray name="basis" >
    <v>       3.19031700       0.00000000       0.00000000 </v>
    <v>      -1.59515800       2.76289700       0.00000000 </v>
    <v>       0.00000000       0.00000000      23.14049200 </v>
   </varray>
   <i name="volume">    203.97226633 </i>
   <varray name="rec_basis" >
    <v>       0.31344848       0.18096941       0.00000000 </v>
    <v>       0.00000000       0.36193894       0.00000000 </v>
    <v>       0.00000000       0.00000000       0.04321429 </v>
   </varray>
  </crystal>
  <varray name="positions" >
   <v>       0.66666700       0.33333300       0.06785900 </v>
   <v>       0.33333300       0.66666700       0.00000000 </v>
   <v>       0.33333300       0.66666700       0.13571500 </v>
   <v>       0.95238129       0.04761871       0.35482300 </v>
   <v>       0.61904729       0.38095271       0.28696500 </v>
   <v>       0.61904729       0.38095271       0.42267900 </v>
  </varray>
 </structure>
 <calculation>
  <scstep>
   <time name="dav">   35.28   35.41</time>
   <time name="total">   45.73   45.89</time>
   <energy>
    <i name="alphaZ">    104.15310261 </i>
    <i name="ewald">   7698.95527201 </i>
    <i name="hartreedc"> -11109.01428938 </i>
    <i name="XCdc">    128.46206249 </i>
    <i name="pawpsdc">   2252.92270536 </i>
    <i name="pawaedc">  -2205.68654582 </i>
    <i name="eentropy">      0.00017315 </i>
    <i name="bandstr">   -161.11946931 </i>
    <i name="atom">   3688.31848598 </i>
    <i name="e_fr_energy">    396.99149708 </i>
    <i name="e_wo_entrp">    396.99132393 </i>
    <i name="e_0_energy">    396.99143936 </i>
   </energy>
  </scstep>
  <scstep>
   <time name="dav">   37.18   37.23</time>
   <time name="total">   37.19   37.25</time>
   <energy>
    <i name="e_fr_energy">     -1.69530259 </i>
    <i name="e_wo_entrp">     -1.69555509 </i>
    <i name="e_0_energy">     -1.69538676 </i>
   </energy>
  </scstep>
  <scstep>
   <time name="dav">   39.19   39.23</time>
   <time name="total">   39.20   39.23</time>
   <energy>
    <i name="e_fr_energy">    -32.97632098 </i>
    <i name="e_wo_entrp">    -32.97745667 </i>
    <i name="e_0_energy">    -32.97669954 </i>
   </energy>
  </scstep>
  <scstep>
   <time name="dav">   36.79   36.82</time>
   <time name="total">   36.79   36.82</time>
   <energy>
    <i name="e_fr_energy">    -33.85124224 </i>
    <i name="e_wo_entrp">    -33.85266924 </i>
    <i name="e_0_energy">    -33.85171791 </i>
   </energy>
  </scstep>
  <scstep>
   <time name="dav">   38.48   38.51</time>
   <time name="total">   41.37   41.41</time>
   <energy>
    <i name="e_fr_energy">    -33.87813278 </i>
    <i name="e_wo_entrp">    -33.87959185 </i>
    <i name="e_0_energy">    -33.87861914 </i>
   </energy>
  </scstep>
  <scstep>
   <time name="diag">    6.83    6.83</time>
   <time name="diis">   24.25   24.27</time>
   <time name="orth">    0.26    0.26</time>
   <time name="total">   44.21   44.25</time>
   <energy>
    <i name="e_fr_energy">    -30.02098669 </i>
    <i name="e_wo_entrp">    -30.02046692 </i>
    <i name="e_0_energy">    -30.02081344 </i>
   </energy>
  </scstep>
  <scstep>
   <time name="diag">    6.78    6.79</time>
   <time name="diis">   24.77   24.78</time>
   <time name="orth">    0.26    0.26</time>
   <time name="total">   44.66   44.69</time>
   <energy>
    <i name="e_fr_energy">    -32.82643478 </i>
    <i name="e_wo_entrp">    -32.82700625 </i>
    <i name="e_0_energy">    -32.82662527 </i>
   </energy>
  </scstep>
  <scstep>
   <time name="diag">    6.75    6.75</time>
   <time name="diis">   26.11   26.13</time>
   <time name="orth">    0.27    0.27</time>
   <time name="total">   45.95   45.99</time>
   <energy>
    <i name="e_fr_energy">    -34.38467117 </i>
    <i name="e_wo_entrp">    -34.38483792 </i>
    <i name="e_0_energy">    -34.38472675 </i>
   </energy>
  </scstep>
  <scstep>
   <time name="diag">    6.81    6.82</time>
   <time name="diis">   24.05   24.06</time>
   <time name="orth">    0.26    0.26</time>
   <time name="total">   43.84   43.88</time>
   <energy>
    <i name="e_fr_energy">    -37.07413507 </i>
    <i name="e_wo_entrp">    -37.07430343 </i>
    <i name="e_0_energy">    -37.07419119 </i>
   </energy>
  </scstep>
  <scstep>
   <time name="diag">    6.74    6.74</time>
   <time name="diis">   22.71   22.73</time>
   <time name="orth">    0.27    0.27</time>
   <time name="total">   42.53   42.56</time>
   <energy>
    <i name="e_fr_energy">    -39.10787093 </i>
    <i name="e_wo_entrp">    -39.10803951 </i>
    <i name="e_0_energy">    -39.10792712 </i>
   </energy>
  </scstep>
  <scstep>
   <time name="diag">    6.77    6.78</time>
   <time name="diis">   23.67   23.69</time>
   <time name="orth">    0.26    0.26</time>
   <time name="total">   43.57   43.61</time>
   <energy>
    <i name="e_fr_energy">    -39.39214545 </i>
    <i name="e_wo_entrp">    -39.39248042 </i>
    <i name="e_0_energy">    -39.39225711 </i>
   </energy>
  </scstep>
  <scstep>
   <time name="diag">    6.80    6.80</time>
   <time name="diis">   24.18   24.20</time>
   <time name="orth">    0.27    0.27</time>
   <time name="total">   44.09   44.28</time>
   <energy>
    <i name="e_fr_energy">    -39.41426309 </i>
    <i name="e_wo_entrp">    -39.41459743 </i>
    <i name="e_0_energy">    -39.41437454 </i>
   </energy>
  </scstep>
  <scstep>
   <time name="diag">    6.84    6.84</time>
   <time name="diis">   26.63   26.65</time>
   <time name="orth">    0.27    0.27</time>
   <time name="total">   46.58   46.62</time>
   <energy>
    <i name="e_fr_energy">    -39.42474730 </i>
    <i name="e_wo_entrp">    -39.42508228 </i>
    <i name="e_0_energy">    -39.42485896 </i>
   </energy>
  </scstep>
  <scstep>
   <time name="diag">    6.83    6.83</time>
   <time name="diis">   25.10   25.12</time>
   <time name="orth">    0.27    0.27</time>
   <time name="total">   45.02   45.17</time>
   <energy>
    <i name="e_fr_energy">    -39.42863723 </i>
    <i name="e_wo_entrp">    -39.42897325 </i>
    <i name="e_0_energy">    -39.42874924 </i>
   </energy>
  </scstep>
  <scstep>
   <time name="diag">    6.81    6.81</time>
   <time name="diis">   20.55   20.56</time>
   <time name="orth">    0.27    0.27</time>
   <time name="total">   40.53   40.56</time>
   <energy>
    <i name="e_fr_energy">    -39.42823722 </i>
    <i name="e_wo_entrp">    -39.42857324 </i>
    <i name="e_0_energy">    -39.42834923 </i>
   </energy>
  </scstep>
  <scstep>
   <time name="diag">    6.77    6.77</time>
   <time name="diis">   17.42   17.43</time>
   <time name="orth">    0.28    0.28</time>
   <time name="total">   37.29   37.33</time>
   <energy>
    <i name="e_fr_energy">    -39.42852396 </i>
    <i name="e_wo_entrp">    -39.42886002 </i>
    <i name="e_0_energy">    -39.42863598 </i>
   </energy>
  </scstep>
  <scstep>
   <time name="diag">    6.83    6.84</time>
   <time name="diis">   16.86   16.87</time>
   <time name="orth">    0.26    0.27</time>
   <time name="total">   36.88   36.91</time>
   <energy>
    <i name="e_fr_energy">    -39.42871451 </i>
    <i name="e_wo_entrp">    -39.42905055 </i>
    <i name="e_0_energy">    -39.42882652 </i>
   </energy>
  </scstep>
  <scstep>
   <time name="diag">    6.82    6.83</time>
   <time name="diis">   16.11   16.13</time>
   <time name="orth">    0.27    0.27</time>
   <time name="total">   36.04   36.07</time>
   <energy>
    <i name="e_fr_energy">    -39.42912491 </i>
    <i name="e_wo_entrp">    -39.42946093 </i>
    <i name="e_0_energy">    -39.42923692 </i>
   </energy>
  </scstep>
  <scstep>
   <time name="diag">    6.85    6.85</time>
   <time name="diis">   15.97   15.98</time>
   <time name="orth">    0.28    0.28</time>
   <time name="total">   35.99   36.02</time>
   <energy>
    <i name="e_fr_energy">    -39.42958802 </i>
    <i name="e_wo_entrp">    -39.42992401 </i>
    <i name="e_0_energy">    -39.42970001 </i>
   </energy>
  </scstep>
  <scstep>
   <time name="diag">    6.85    6.85</time>
   <time name="diis">   16.20   16.22</time>
   <time name="orth">    0.27    0.27</time>
   <time name="total">   36.29   36.32</time>
   <energy>
    <i name="e_fr_energy">    -39.42979288 </i>
    <i name="e_wo_entrp">    -39.43012885 </i>
    <i name="e_0_energy">    -39.42990487 </i>
   </energy>
  </scstep>
  <scstep>
   <time name="diag">    6.81    6.81</time>
   <time name="diis">   15.53   15.54</time>
   <time name="orth">    0.27    0.28</time>
   <time name="total">   32.54   32.56</time>
   <energy>
    <i name="alphaZ">    104.15310261 </i>
    <i name="ewald">   7698.95527201 </i>
    <i name="hartreedc"> -11092.58189021 </i>
    <i name="XCdc">    122.65567614 </i>
    <i name="pawpsdc">   2399.25744753 </i>
    <i name="pawaedc">  -2361.44114903 </i>
    <i name="eentropy">      0.00033597 </i>
    <i name="bandstr">   -598.74710285 </i>
    <i name="atom">   3688.31848598 </i>
    <i name="e_fr_energy">    -39.42982185 </i>
    <i name="e_wo_entrp">    -39.43015782 </i>
    <i name="e_0_energy">    -39.42993384 </i>
   </energy>
  </scstep>
  <structure>
   <crystal>
    <varray name="basis" >
     <v>       3.19031700       0.00000000       0.00000000 </v>
     <v>      -1.59515800       2.76289700       0.00000000 </v>
     <v>       0.00000000       0.00000000      23.14049200 </v>
    </varray>
    <i name="volume">    203.97226633 </i>
    <varray name="rec_basis" >
     <v>       0.31344848       0.18096941       0.00000000 </v>
     <v>       0.00000000       0.36193894       0.00000000 </v>
     <v>       0.00000000       0.00000000       0.04321429 </v>
    </varray>
   </crystal>
   <varray name="positions" >
    <v>       0.66666700       0.33333300       0.06785900 </v>
    <v>       0.33333300       0.66666700       0.00000000 </v>
    <v>       0.33333300       0.66666700       0.13571500 </v>
    <v>       0.95238129       0.04761871       0.35482300 </v>
    <v>       0.61904729       0.38095271       0.28696500 </v>
    <v>       0.61904729       0.38095271       0.42267900 </v>
   </varray>
  </structure>
  <varray name="forces" >
   <v>      -0.00159375       0.00092015      -0.00428160 </v>
   <v>       0.00085527      -0.00049379      -0.05446170 </v>
   <v>      -0.00874161       0.00504697       0.13022935 </v>
   <v>       0.00260137      -0.00150190       0.00046727 </v>
   <v>       0.00670243      -0.00386965      -0.13212939 </v>
   <v>       0.00017629      -0.00010178       0.06017606 </v>
  </varray>
  <varray name="stress" >
   <v>       3.58346208      -0.11808801       0.32453515 </v>
   <v>      -0.11808801       3.44710875      -0.18737057 </v>
   <v>       0.32453517      -0.18737058      -0.51600011 </v>
  </varray>
  <energy>
   <i name="e_fr_energy">    -39.42982185 </i>
   <i name="e_wo_entrp">    -39.42993384 </i>
   <i name="e_0_energy">      0.00033597 </i>
  </energy>
  <time name="totalsc">  924.95  926.27</time>
  <eigenvalues>
   <array>
    <dimension dim="1">band</dimension>
    <dimension dim="2">kpoint</dimension>
    <dimension dim="3">spin</dimension>
    <field>eigene</field>
    <field>occ</field>
    <set>
     <set comment="spin 1">
      <set comment="kpoint 1">
       <r>  -35.0006    1.0000 </r>
       <r>  -34.9836    1.0000 </r>
       <r>  -34.8100    1.0000 </r>
       <r>  -34.8100    1.0000 </r>
       <r>  -34.7931    1.0000 </r>
       <r>  -34.7931    1.0000 </r>
       <r>  -13.9764    1.0000 </r>
       <r>  -13.9197    1.0000 </r>
       <r>  -12.7096    1.0000 </r>
       <r>  -12.6169    1.0000 </r>
       <r>   -5.6839    1.0000 </r>
       <r>   -5.4005    1.0000 </r>
       <r>   -2.6301    1.0000 </r>
       <r>   -2.6300    1.0000 </r>
       <r>   -2.6130    1.0000 </r>
       <r>   -2.6129    1.0000 </r>
       <r>   -2.1706    1.0000 </r>
       <r>   -1.5368    1.0000 </r>
       <r>   -1.5361    1.0000 </r>
       <r>   -1.5191    1.0000 </r>
       <r>   -1.5185    1.0000 </r>
       <r>   -1.4797    1.0000 </r>
       <r>   -0.2212    1.0000 </r>
       <r>    0.2060    0.7931 </r>
       <r>    2.6878   -0.0000 </r>
       <r>    2.6944   -0.0000 </r>
       <r>    2.7129   -0.0000 </r>
       <r>    2.7177   -0.0000 </r>
       <r>    2.8690   -0.0000 </r>
       <r>    2.8767   -0.0000 </r>
       <r>    2.8963   -0.0000 </r>
       <r>    2.9060   -0.0000 </r>
       <r>    5.2721    0.0000 </r>
       <r>    5.3888    0.0000 </r>
       <r>    6.3861    0.0000 </r>
       <r>    6.5391    0.0000 </r>
      </set>
      <set comment="kpoint 2">
       <r>  -34.9965    1.0000 </r>
       <r>  -34.9795    1.0000 </r>
       <r>  -34.8312    1.0000 </r>
       <r>  -34.8149    1.0000 </r>
       <r>  -34.8143    1.0000 </r>
       <r>  -34.7979    1.0000 </r>
       <r>  -13.8897    1.0000 </r>
       <r>  -13.8332    1.0000 </r>
       <r>  -12.6729    1.0000 </r>
       <r>  -12.5826    1.0000 </r>
       <r>   -5.5845    1.0000 </r>
       <r>   -5.3018    1.0000 </r>
       <r>   -2.8169    1.0000 </r>
       <r>   -2.7997    1.0000 </r>
       <r>   -2.5394    1.0000 </r>
       <r>   -2.5222    1.0000 </r>
       <r>   -2.4588    1.0000 </r>
       <r>   -2.0754    1.0000 </r>
       <r>   -1.6742    1.0000 </r>
       <r>   -1.6559    1.0000 </r>
       <r>   -1.3577    1.0000 </r>
       <r>   -1.0762    1.0000 </r>
       <r>   -0.2423    1.0000 </r>
       <r>    0.1298    1.0341 </r>
       <r>    2.5846   -0.0000 </r>
       <r>    2.6052   -0.0000 </r>
       <r>    2.6394   -0.0000 </r>
       <r>    2.7043   -0.0000 </r>
       <r>    2.7711   -0.0000 </r>
       <r>    2.8081   -0.0000 </r>
       <r>    2.8396   -0.0000 </r>
       <r>    2.8683   -0.0000 </r>
       <r>    5.4115    0.0000 </r>
       <r>    5.5259    0.0000 </r>
       <r>    6.7456    0.0000 </r>
       <r>    6.9220    0.0000 </r>
      </set>
      <set comment="kpoint 3">
       <r>  -34.9852    1.0000 </r>
       <r>  -34.9681    1.0000 </r>
       <r>  -34.8897    1.0000 </r>
       <r>  -34.8728    1.0000 </r>
       <r>  -34.8283    1.0000 </r>
       <r>  -34.8113    1.0000 </r>
       <r>  -13.6410    1.0000 </r>
       <r>  -13.5855    1.0000 </r>
       <r>  -12.5679    1.0000 </r>
       <r>  -12.4844    1.0000 </r>
       <r>   -5.3240    1.0000 </r>
       <r>   -5.0480    1.0000 </r>
       <r>   -3.2666    1.0000 </r>
       <r>   -3.2479    1.0000 </r>
       <r>   -2.9601    1.0000 </r>
       <r>   -2.6908    1.0000 </r>
       <r>   -2.2840    1.0000 </r>
       <r>   -2.2663    1.0000 </r>
       <r>   -2.0097    1.0000 </r>
       <r>   -1.9906    1.0000 </r>
       <r>   -1.2676    1.0000 </r>
       <r>   -0.9490    1.0000 </r>
       <r>   -0.3723    1.0000 </r>
       <r>   -0.1484    1.0000 </r>
       <r>    2.1743   -0.0000 </r>
       <r>    2.3560   -0.0000 </r>
       <r>    2.4942   -0.0000 </r>
       <r>    2.5429   -0.0000 </r>
       <r>    2.5837   -0.0000 </r>
       <r>    2.6152   -0.0000 </r>
       <r>    3.1828    0.0000 </r>
       <r>    3.2180    0.0000 </r>
       <r>    5.7666    0.0000 </r>
       <r>    5.8752    0.0000 </r>
       <r>    7.4193    0.0000 </r>
       <r>    7.8251    0.0000 </r>
      </set>
      <set comment="kpoint 4">
       <r>  -34.9712    1.0000 </r>
       <r>  -34.9691    1.0000 </r>
       <r>  -34.9543    1.0000 </r>
       <r>  -34.9520    1.0000 </r>
       <r>  -34.8471    1.0000 </r>
       <r>  -34.8301    1.0000 </r>
       <r>  -13.2655    1.0000 </r>
       <r>  -13.2125    1.0000 </r>
       <r>  -12.4101    1.0000 </r>
       <r>  -12.3374    1.0000 </r>
       <r>   -5.0606    1.0000 </r>
       <r>   -4.8310    1.0000 </r>
       <r>   -3.7269    1.0000 </r>
       <r>   -3.6794    1.0000 </r>
       <r>   -3.4912    1.0000 </r>
       <r>   -3.3101    1.0000 </r>
       <r>   -2.4052    1.0000 </r>
       <r>   -2.3852    1.0000 </r>
       <r>   -1.9153    1.0000 </r>
       <r>   -1.8959    1.0000 </r>
       <r>   -1.4360    1.0000 </r>
       <r>   -1.1415    1.0000 </r>
       <r>   -0.6903    1.0000 </r>
       <r>   -0.5963    1.0000 </r>
       <r>    1.9434   -0.0000 </r>
       <r>    2.2316   -0.0000 </r>
       <r>    2.2930   -0.0000 </r>
       <r>    2.3346   -0.0000 </r>
       <r>    2.6911   -0.0000 </r>
       <r>    2.8942   -0.0000 </r>
       <r>    3.5605    0.0000 </r>
       <r>    3.6079    0.0000 </r>
       <r>    6.2810    0.0000 </r>
       <r>    6.3841    0.0000 </r>
       <r>    7.8707    0.0000 </r>
       <r>    8.2872    0.0000 </r>
      </set>
      <set comment="kpoint 5">
       <r>  -35.0565    1.0000 </r>
       <r>  -35.0396    1.0000 </r>
       <r>  -34.9519    1.0000 </r>
       <r>  -34.9348    1.0000 </r>
       <r>  -34.8670    1.0000 </r>
       <r>  -34.8501    1.0000 </r>
       <r>  -12.8247    1.0000 </r>
       <r>  -12.7765    1.0000 </r>
       <r>  -12.2276    1.0000 </r>
       <r>  -12.1685    1.0000 </r>
       <r>   -5.1168    1.0000 </r>
       <r>   -5.0001    1.0000 </r>
       <r>   -4.0592    1.0000 </r>
       <r>   -3.9321    1.0000 </r>
       <r>   -3.8666    1.0000 </r>
       <r>   -3.7521    1.0000 </r>
       <r>   -2.7607    1.0000 </r>
       <r>   -2.7401    1.0000 </r>
       <r>   -1.7056    1.0000 </r>
       <r>   -1.5212    1.0000 </r>
       <r>   -1.4979    1.0000 </r>
       <r>   -1.4424    1.0000 </r>
       <r>   -0.9840    1.0000 </r>
       <r>   -0.9177    1.0000 </r>
       <r>    2.0381   -0.0000 </r>
       <r>    2.1269   -0.0000 </r>
       <r>    2.1625   -0.0000 </r>
       <r>    2.3126   -0.0000 </r>
       <r>    3.1010    0.0000 </r>
       <r>    3.3392    0.0000 </r>
       <r>    3.8582    0.0000 </r>
       <r>    3.9208    0.0000 </r>
       <r>    6.9094    0.0000 </r>
       <r>    6.9953    0.0000 </r>
       <r>    7.8803    0.0000 </r>
       <r>    8.0658    0.0000 </r>
      </set>
      <set comment="kpoint 6">
       <r>  -35.1262    1.0000 </r>
       <r>  -35.1093    1.0000 </r>
       <r>  -34.9377    1.0000 </r>
       <r>  -34.9206    1.0000 </r>
       <r>  -34.8835    1.0000 </r>
       <r>  -34.8665    1.0000 </r>
       <r>  -12.4125    1.0000 </r>
       <r>  -12.3721    1.0000 </r>
       <r>  -12.0615    1.0000 </r>
       <r>  -12.0167    1.0000 </r>
       <r>   -5.4329    1.0000 </r>
       <r>   -5.3730    1.0000 </r>
       <r>   -4.4779    1.0000 </r>
       <r>   -4.3900    1.0000 </r>
       <r>   -3.9526    1.0000 </r>
       <r>   -3.8274    1.0000 </r>
       <r>   -3.0208    1.0000 </r>
       <r>   -2.9998    1.0000 </r>
       <r>   -1.9124    1.0000 </r>
       <r>   -1.6781    1.0000 </r>
       <r>   -1.2066    1.0000 </r>
       <r>   -1.1758    1.0000 </r>
       <r>   -0.9405    1.0000 </r>
       <r>   -0.8540    1.0000 </r>
       <r>    2.0857   -0.0000 </r>
       <r>    2.1118   -0.0000 </r>
       <r>    2.3027   -0.0000 </r>
       <r>    2.4877   -0.0000 </r>
       <r>    3.4970    0.0000 </r>
       <r>    3.7222    0.0000 </r>
       <r>    4.0421    0.0000 </r>
       <r>    4.1186    0.0000 </r>
       <r>    6.8362    0.0000 </r>
       <r>    7.1130    0.0000 </r>
       <r>    7.5635    0.0000 </r>
       <r>    7.9030    0.0000 </r>
      </set>
      <set comment="kpoint 7">
       <r>  -35.1652    1.0000 </r>
       <r>  -35.1484    1.0000 </r>
       <r>  -34.9296    1.0000 </r>
       <r>  -34.9125    1.0000 </r>
       <r>  -34.8927    1.0000 </r>
       <r>  -34.8758    1.0000 </r>
       <r>  -12.1530    1.0000 </r>
       <r>  -12.1206    1.0000 </r>
       <r>  -11.9599    1.0000 </r>
       <r>  -11.9258    1.0000 </r>
       <r>   -5.6715    1.0000 </r>
       <r>   -5.6268    1.0000 </r>
       <r>   -4.7272    1.0000 </r>
       <r>   -4.6586    1.0000 </r>
       <r>   -4.0550    1.0000 </r>
       <r>   -3.9392    1.0000 </r>
       <r>   -3.1568    1.0000 </r>
       <r>   -3.1356    1.0000 </r>
       <r>   -2.0112    1.0000 </r>
       <r>   -1.7962    1.0000 </r>
       <r>   -1.0417    1.0000 </r>
       <r>   -1.0051    1.0000 </r>
       <r>   -0.7167    1.0000 </r>
       <r>   -0.6300    1.0000 </r>
       <r>    2.1141   -0.0000 </r>
       <r>    2.1338   -0.0000 </r>
       <r>    2.5553   -0.0000 </r>
       <r>    2.6368   -0.0000 </r>
       <r>    3.7132    0.0000 </r>
       <r>    3.9163    0.0000 </r>
       <r>    4.1251    0.0000 </r>
       <r>    4.2095    0.0000 </r>
       <r>    6.0694    0.0000 </r>
       <r>    6.4531    0.0000 </r>
       <r>    7.8976    0.0000 </r>
       <r>    7.9558    0.0000 </r>
      </set>
      <set comment="kpoint 8">
       <r>  -34.9888    1.0000 </r>
       <r>  -34.9717    1.0000 </r>
       <r>  -34.8702    1.0000 </r>
       <r>  -34.8533    1.0000 </r>
       <r>  -34.8249    1.0000 </r>
       <r>  -34.8080    1.0000 </r>
       <r>  -13.7220    1.0000 </r>
       <r>  -13.6660    1.0000 </r>
       <r>  -12.6021    1.0000 </r>
       <r>  -12.5162    1.0000 </r>
       <r>   -5.4028    1.0000 </r>
       <r>   -5.1229    1.0000 </r>
       <r>   -3.1300    1.0000 </r>
       <r>   -3.1132    1.0000 </r>
       <r>   -2.7976    1.0000 </r>
       <r>   -2.4891    1.0000 </r>
       <r>   -2.3713    1.0000 </r>
       <r>   -2.3540    1.0000 </r>
       <r>   -1.9869    1.0000 </r>
       <r>   -1.9693    1.0000 </r>
       <r>   -1.1980    1.0000 </r>
       <r>   -0.8936    1.0000 </r>
       <r>   -0.3175    1.0000 </r>
       <r>   -0.0461    1.0002 </r>
       <r>    2.2899   -0.0000 </r>
       <r>    2.4137   -0.0000 </r>
       <r>    2.4556   -0.0000 </r>
       <r>    2.5413   -0.0000 </r>
       <r>    2.6148   -0.0000 </r>
       <r>    2.6428   -0.0000 </r>
       <r>    3.1194    0.0000 </r>
       <r>    3.1437    0.0000 </r>
       <r>    5.6555    0.0000 </r>
       <r>    5.7668    0.0000 </r>
       <r>    7.2627    0.0000 </r>
       <r>    7.5843    0.0000 </r>
      </set>
      <set comment="kpoint 9">
       <r>  -34.9751    1.0000 </r>
       <r>  -34.9580    1.0000 </r>
       <r>  -34.9377    1.0000 </r>
       <r>  -34.9209    1.0000 </r>
       <r>  -34.8434    1.0000 </r>
       <r>  -34.8265    1.0000 </r>
       <r>  -13.4094    1.0000 </r>
       <r>  -13.3550    1.0000 </r>
       <r>  -12.4701    1.0000 </r>
       <r>  -12.3929    1.0000 </r>
       <r>   -5.1235    1.0000 </r>
       <r>   -4.8644    1.0000 </r>
       <r>   -3.5702    1.0000 </r>
       <r>   -3.5459    1.0000 </r>
       <r>   -3.2337    1.0000 </r>
       <r>   -3.0095    1.0000 </r>
       <r>   -2.4705    1.0000 </r>
       <r>   -2.4451    1.0000 </r>
       <r>   -2.0873    1.0000 </r>
       <r>   -2.0691    1.0000 </r>
       <r>   -1.1734    1.0000 </r>
       <r>   -0.9020    1.0000 </r>
       <r>   -0.5482    1.0000 </r>
       <r>   -0.4194    1.0000 </r>
       <r>    1.9510   -0.0000 </r>
       <r>    2.1777   -0.0000 </r>
       <r>    2.3944   -0.0000 </r>
       <r>    2.4082   -0.0000 </r>
       <r>    2.4655   -0.0000 </r>
       <r>    2.6242   -0.0000 </r>
       <r>    3.5327    0.0000 </r>
       <r>    3.5520    0.0000 </r>
       <r>    6.0886    0.0000 </r>
       <r>    6.1975    0.0000 </r>
       <r>    7.7948    0.0000 </r>
       <r>    8.2760    0.0000 </r>
      </set>
      <set comment="kpoint 10">
       <r>  -35.0181    1.0000 </r>
       <r>  -35.0012    1.0000 </r>
       <r>  -34.9584    1.0000 </r>
       <r>  -34.9414    1.0000 </r>
       <r>  -34.8658    1.0000 </r>
       <r>  -34.8488    1.0000 </r>
       <r>  -12.9991    1.0000 </r>
       <r>  -12.9484    1.0000 </r>
       <r>  -12.2981    1.0000 </r>
       <r>  -12.2329    1.0000 </r>
       <r>   -5.0009    1.0000 </r>
       <r>   -4.8337    1.0000 </r>
       <r>   -3.8733    1.0000 </r>
       <r>   -3.7782    1.0000 </r>
       <r>   -3.7198    1.0000 </r>
       <r>   -3.6026    1.0000 </r>
       <r>   -2.8641    1.0000 </r>
       <r>   -2.8092    1.0000 </r>
       <r>   -1.8047    1.0000 </r>
       <r>   -1.7846    1.0000 </r>
       <r>   -1.3805    1.0000 </r>
       <r>   -1.1547    1.0000 </r>
       <r>   -0.8517    1.0000 </r>
       <r>   -0.7993    1.0000 </r>
       <r>    1.8471   -0.0000 </r>
       <r>    2.0544   -0.0000 </r>
       <r>    2.2796   -0.0000 </r>
       <r>    2.3620   -0.0000 </r>
       <r>    2.7420   -0.0000 </r>
       <r>    2.9449   -0.0000 </r>
       <r>    3.8899    0.0000 </r>
       <r>    3.9109    0.0000 </r>
       <r>    6.6812    0.0000 </r>
       <r>    6.7744    0.0000 </r>
       <r>    8.1860    0.0000 </r>
       <r>    8.5293    0.0000 </r>
      </set>
      <set comment="kpoint 11">
       <r>  -35.0927    1.0000 </r>
       <r>  -35.0758    1.0000 </r>
       <r>  -34.9427    1.0000 </r>
       <r>  -34.9257    1.0000 </r>
       <r>  -34.8868    1.0000 </r>
       <r>  -34.8699    1.0000 </r>
       <r>  -12.5675    1.0000 </r>
       <r>  -12.5232    1.0000 </r>
       <r>  -12.1201    1.0000 </r>
       <r>  -12.0689    1.0000 </r>
       <r>   -5.2236    1.0000 </r>
       <r>   -5.1435    1.0000 </r>
       <r>   -4.2955    1.0000 </r>
       <r>   -4.2106    1.0000 </r>
       <r>   -3.8737    1.0000 </r>
       <r>   -3.7452    1.0000 </r>
       <r>   -3.0783    1.0000 </r>
       <r>   -3.0226    1.0000 </r>
       <r>   -1.6945    1.0000 </r>
       <r>   -1.6367    1.0000 </r>
       <r>   -1.6124    1.0000 </r>
       <r>   -1.4696    1.0000 </r>
       <r>   -0.8737    1.0000 </r>
       <r>   -0.8340    1.0000 </r>
       <r>    1.9546   -0.0000 </r>
       <r>    2.0882   -0.0000 </r>
       <r>    2.3176   -0.0000 </r>
       <r>    2.4278   -0.0000 </r>
       <r>    3.1679    0.0000 </r>
       <r>    3.3647    0.0000 </r>
       <r>    4.1014    0.0000 </r>
       <r>    4.1159    0.0000 </r>
       <r>    7.2645    0.0000 </r>
       <r>    7.3729    0.0000 </r>
       <r>    7.5625    0.0000 </r>
       <r>    8.0966    0.0000 </r>
      </set>
      <set comment="kpoint 12">
       <r>  -35.1451    1.0000 </r>
       <r>  -35.1282    1.0000 </r>
       <r>  -34.9316    1.0000 </r>
       <r>  -34.9145    1.0000 </r>
       <r>  -34.9017    1.0000 </r>
       <r>  -34.8847    1.0000 </r>
       <r>  -12.2235    1.0000 </r>
       <r>  -12.1879    1.0000 </r>
       <r>  -11.9816    1.0000 </r>
       <r>  -11.9435    1.0000 </r>
       <r>   -5.5034    1.0000 </r>
       <r>   -5.4535    1.0000 </r>
       <r>   -4.6800    1.0000 </r>
       <r>   -4.6193    1.0000 </r>
       <r>   -3.9753    1.0000 </r>
       <r>   -3.8553    1.0000 </r>
       <r>   -3.1653    1.0000 </r>
       <r>   -3.1295    1.0000 </r>
       <r>   -1.9102    1.0000 </r>
       <r>   -1.7208    1.0000 </r>
       <r>   -1.5077    1.0000 </r>
       <r>   -1.4605    1.0000 </r>
       <r>   -0.6596    1.0000 </r>
       <r>   -0.6077    1.0000 </r>
       <r>    2.1012   -0.0000 </r>
       <r>    2.1540   -0.0000 </r>
       <r>    2.4910   -0.0000 </r>
       <r>    2.5871   -0.0000 </r>
       <r>    3.5692    0.0000 </r>
       <r>    3.7228    0.0000 </r>
       <r>    4.1068    0.0000 </r>
       <r>    4.1493    0.0000 </r>
       <r>    6.4751    0.0000 </r>
       <r>    6.8537    0.0000 </r>
       <r>    7.9984    0.0000 </r>
       <r>    8.2919    0.0000 </r>
      </set>
      <set comment="kpoint 13">
       <r>  -35.1638    1.0000 </r>
       <r>  -35.1470    1.0000 </r>
       <r>  -34.9276    1.0000 </r>
       <r>  -34.9105    1.0000 </r>
       <r>  -34.9070    1.0000 </r>
       <r>  -34.8901    1.0000 </r>
       <r>  -12.0887    1.0000 </r>
       <r>  -12.0584    1.0000 </r>
       <r>  -11.9282    1.0000 </r>
       <r>  -11.8966    1.0000 </r>
       <r>   -5.6196    1.0000 </r>
       <r>   -5.5766    1.0000 </r>
       <r>   -4.8215    1.0000 </r>
       <r>   -4.7675    1.0000 </r>
       <r>   -4.0447    1.0000 </r>
       <r>   -3.9297    1.0000 </r>
       <r>   -3.1841    1.0000 </r>
       <r>   -3.1616    1.0000 </r>
       <r>   -1.9948    1.0000 </r>
       <r>   -1.8071    1.0000 </r>
       <r>   -1.4377    1.0000 </r>
       <r>   -1.3974    1.0000 </r>
       <r>   -0.5268    1.0000 </r>
       <r>   -0.4652    1.0000 </r>
       <r>    2.1368   -0.0000 </r>
       <r>    2.1553   -0.0000 </r>
       <r>    2.6420   -0.0000 </r>
       <r>    2.6983   -0.0000 </r>
       <r>    3.8280    0.0000 </r>
       <r>    3.8908    0.0000 </r>
       <r>    3.9940    0.0000 </r>
       <r>    4.0828    0.0000 </r>
       <r>    6.0486    0.0000 </r>
       <r>    6.4604    0.0000 </r>
       <r>    8.3117    0.0000 </r>
       <r>    8.4108    0.0000 </r>
      </set>
      <set comment="kpoint 14">
       <r>  -35.1451    1.0000 </r>
       <r>  -35.1282    1.0000 </r>
       <r>  -34.9316    1.0000 </r>
       <r>  -34.9145    1.0000 </r>
       <r>  -34.9017    1.0000 </r>
       <r>  -34.8847    1.0000 </r>
       <r>  -12.2231    1.0000 </r>
       <r>  -12.1883    1.0000 </r>
       <r>  -11.9812    1.0000 </r>
       <r>  -11.9440    1.0000 </r>
       <r>   -5.5033    1.0000 </r>
       <r>   -5.4537    1.0000 </r>
       <r>   -4.6794    1.0000 </r>
       <r>   -4.6198    1.0000 </r>
       <r>   -3.9752    1.0000 </r>
       <r>   -3.8557    1.0000 </r>
       <r>   -3.1657    1.0000 </r>
       <r>   -3.1286    1.0000 </r>
       <r>   -1.9066    1.0000 </r>
       <r>   -1.7214    1.0000 </r>
       <r>   -1.4993    1.0000 </r>
       <r>   -1.4731    1.0000 </r>
       <r>   -0.6608    1.0000 </r>
       <r>   -0.6063    1.0000 </r>
       <r>    2.0991   -0.0000 </r>
       <r>    2.1568   -0.0000 </r>
       <r>    2.4921   -0.0000 </r>
       <r>    2.5860   -0.0000 </r>
       <r>    3.5818    0.0000 </r>
       <r>    3.7107    0.0000 </r>
       <r>    4.0983    0.0000 </r>
       <r>    4.1561    0.0000 </r>
       <r>    6.4753    0.0000 </r>
       <r>    6.8536    0.0000 </r>
       <r>    8.0115    0.0000 </r>
       <r>    8.2265    0.0000 </r>
      </set>
      <set comment="kpoint 15">
       <r>  -35.0927    1.0000 </r>
       <r>  -35.0758    1.0000 </r>
       <r>  -34.9427    1.0000 </r>
       <r>  -34.9257    1.0000 </r>
       <r>  -34.8868    1.0000 </r>
       <r>  -34.8699    1.0000 </r>
       <r>  -12.5670    1.0000 </r>
       <r>  -12.5236    1.0000 </r>
       <r>  -12.1196    1.0000 </r>
       <r>  -12.0695    1.0000 </r>
       <r>   -5.2236    1.0000 </r>
       <r>   -5.1437    1.0000 </r>
       <r>   -4.2946    1.0000 </r>
       <r>   -4.2112    1.0000 </r>
       <r>   -3.8728    1.0000 </r>
       <r>   -3.7466    1.0000 </r>
       <r>   -3.0778    1.0000 </r>
       <r>   -3.0222    1.0000 </r>
       <r>   -1.6801    1.0000 </r>
       <r>   -1.6415    1.0000 </r>
       <r>   -1.6149    1.0000 </r>
       <r>   -1.4786    1.0000 </r>
       <r>   -0.8740    1.0000 </r>
       <r>   -0.8341    1.0000 </r>
       <r>    1.9557   -0.0000 </r>
       <r>    2.0887   -0.0000 </r>
       <r>    2.3179   -0.0000 </r>
       <r>    2.4266   -0.0000 </r>
       <r>    3.1780    0.0000 </r>
       <r>    3.3537    0.0000 </r>
       <r>    4.0998    0.0000 </r>
       <r>    4.1180    0.0000 </r>
       <r>    7.2646    0.0000 </r>
       <r>    7.3729    0.0000 </r>
       <r>    7.5595    0.0000 </r>
       <r>    8.1095    0.0000 </r>
      </set>
      <set comment="kpoint 16">
       <r>  -35.0181    1.0000 </r>
       <r>  -35.0012    1.0000 </r>
       <r>  -34.9584    1.0000 </r>
       <r>  -34.9414    1.0000 </r>
       <r>  -34.8658    1.0000 </r>
       <r>  -34.8489    1.0000 </r>
       <r>  -12.9988    1.0000 </r>
       <r>  -12.9487    1.0000 </r>
       <r>  -12.2976    1.0000 </r>
       <r>  -12.2334    1.0000 </r>
       <r>   -5.0009    1.0000 </r>
       <r>   -4.8337    1.0000 </r>
       <r>   -3.8709    1.0000 </r>
       <r>   -3.7804    1.0000 </r>
       <r>   -3.7193    1.0000 </r>
       <r>   -3.6036    1.0000 </r>
       <r>   -2.8628    1.0000 </r>
       <r>   -2.8098    1.0000 </r>
       <r>   -1.8046    1.0000 </r>
       <r>   -1.7839    1.0000 </r>
       <r>   -1.3756    1.0000 </r>
       <r>   -1.1605    1.0000 </r>
       <r>   -0.8513    1.0000 </r>
       <r>   -0.8023    1.0000 </r>
       <r>    1.8497   -0.0000 </r>
       <r>    2.0527   -0.0000 </r>
       <r>    2.2798   -0.0000 </r>
       <r>    2.3611   -0.0000 </r>
       <r>    2.7489   -0.0000 </r>
       <r>    2.9383   -0.0000 </r>
       <r>    3.8907    0.0000 </r>
       <r>    3.9112    0.0000 </r>
       <r>    6.6834    0.0000 </r>
       <r>    6.7743    0.0000 </r>
       <r>    8.2069    0.0000 </r>
       <r>    8.4814    0.0000 </r>
      </set>
      <set comment="kpoint 17">
       <r>  -34.9751    1.0000 </r>
       <r>  -34.9580    1.0000 </r>
       <r>  -34.9378    1.0000 </r>
       <r>  -34.9208    1.0000 </r>
       <r>  -34.8434    1.0000 </r>
       <r>  -34.8265    1.0000 </r>
       <r>  -13.4091    1.0000 </r>
       <r>  -13.3552    1.0000 </r>
       <r>  -12.4698    1.0000 </r>
       <r>  -12.3933    1.0000 </r>
       <r>   -5.1230    1.0000 </r>
       <r>   -4.8646    1.0000 </r>
       <r>   -3.5696    1.0000 </r>
       <r>   -3.5464    1.0000 </r>
       <r>   -3.2344    1.0000 </r>
       <r>   -3.0089    1.0000 </r>
       <r>   -2.4692    1.0000 </r>
       <r>   -2.4462    1.0000 </r>
       <r>   -2.0872    1.0000 </r>
       <r>   -2.0692    1.0000 </r>
       <r>   -1.1668    1.0000 </r>
       <r>   -0.9072    1.0000 </r>
       <r>   -0.5460    1.0000 </r>
       <r>   -0.4267    1.0000 </r>
       <r>    1.9542   -0.0000 </r>
       <r>    2.1782   -0.0000 </r>
       <r>    2.3946   -0.0000 </r>
       <r>    2.4055   -0.0000 </r>
       <r>    2.4699   -0.0000 </r>
       <r>    2.6214   -0.0000 </r>
       <r>    3.5329    0.0000 </r>
       <r>    3.5526    0.0000 </r>
       <r>    6.0923    0.0000 </r>
       <r>    6.1976    0.0000 </r>
       <r>    7.8086    0.0000 </r>
       <r>    8.4798    0.0000 </r>
      </set>
      <set comment="kpoint 18">
       <r>  -34.9888    1.0000 </r>
       <r>  -34.9717    1.0000 </r>
       <r>  -34.8702    1.0000 </r>
       <r>  -34.8533    1.0000 </r>
       <r>  -34.8249    1.0000 </r>
       <r>  -34.8080    1.0000 </r>
       <r>  -13.7219    1.0000 </r>
       <r>  -13.6661    1.0000 </r>
       <r>  -12.6019    1.0000 </r>
       <r>  -12.5164    1.0000 </r>
       <r>   -5.4024    1.0000 </r>
       <r>   -5.1232    1.0000 </r>
       <r>   -3.1302    1.0000 </r>
       <r>   -3.1129    1.0000 </r>
       <r>   -2.7985    1.0000 </r>
       <r>   -2.4884    1.0000 </r>
       <r>   -2.3712    1.0000 </r>
       <r>   -2.3540    1.0000 </r>
       <r>   -1.9868    1.0000 </r>
       <r>   -1.9693    1.0000 </r>
       <r>   -1.1916    1.0000 </r>
       <r>   -0.8989    1.0000 </r>
       <r>   -0.3157    1.0000 </r>
       <r>   -0.0533    1.0001 </r>
       <r>    2.2992   -0.0000 </r>
       <r>    2.4147   -0.0000 </r>
       <r>    2.4592   -0.0000 </r>
       <r>    2.5333   -0.0000 </r>
       <r>    2.6154   -0.0000 </r>
       <r>    2.6411   -0.0000 </r>
       <r>    3.1218    0.0000 </r>
       <r>    3.1413    0.0000 </r>
       <r>    5.6566    0.0000 </r>
       <r>    5.7664    0.0000 </r>
       <r>    7.2568    0.0000 </r>
       <r>    7.6130    0.0000 </r>
      </set>
      <set comment="kpoint 19">
       <r>  -34.9965    1.0000 </r>
       <r>  -34.9795    1.0000 </r>
       <r>  -34.8313    1.0000 </r>
       <r>  -34.8148    1.0000 </r>
       <r>  -34.8143    1.0000 </r>
       <r>  -34.7979    1.0000 </r>
       <r>  -13.8897    1.0000 </r>
       <r>  -13.8332    1.0000 </r>
       <r>  -12.6729    1.0000 </r>
       <r>  -12.5827    1.0000 </r>
       <r>   -5.5844    1.0000 </r>
       <r>   -5.3019    1.0000 </r>
       <r>   -2.8170    1.0000 </r>
       <r>   -2.7996    1.0000 </r>
       <r>   -2.5393    1.0000 </r>
       <r>   -2.5223    1.0000 </r>
       <r>   -2.4593    1.0000 </r>
       <r>   -2.0754    1.0000 </r>
       <r>   -1.6739    1.0000 </r>
       <r>   -1.6563    1.0000 </r>
       <r>   -1.3532    1.0000 </r>
       <r>   -1.0799    1.0000 </r>
       <r>   -0.2417    1.0000 </r>
       <r>    0.1269    1.0349 </r>
       <r>    2.5888   -0.0000 </r>
       <r>    2.6068   -0.0000 </r>
       <r>    2.6474   -0.0000 </r>
       <r>    2.6936   -0.0000 </r>
       <r>    2.7759   -0.0000 </r>
       <r>    2.8053   -0.0000 </r>
       <r>    2.8416   -0.0000 </r>
       <r>    2.8633   -0.0000 </r>
       <r>    5.4114    0.0000 </r>
       <r>    5.5258    0.0000 </r>
       <r>    6.7417    0.0000 </r>
       <r>    6.9228    0.0000 </r>
      </set>
      <set comment="kpoint 20">
       <r>  -34.9998    1.0000 </r>
       <r>  -34.9830    1.0000 </r>
       <r>  -34.9608    1.0000 </r>
       <r>  -34.9437    1.0000 </r>
       <r>  -34.8698    1.0000 </r>
       <r>  -34.8528    1.0000 </r>
       <r>  -13.0605    1.0000 </r>
       <r>  -13.0089    1.0000 </r>
       <r>  -12.3224    1.0000 </r>
       <r>  -12.2551    1.0000 </r>
       <r>   -4.9521    1.0000 </r>
       <r>   -4.7580    1.0000 </r>
       <r>   -3.8127    1.0000 </r>
       <r>   -3.7410    1.0000 </r>
       <r>   -3.5260    1.0000 </r>
       <r>   -3.4031    1.0000 </r>
       <r>   -3.0978    1.0000 </r>
       <r>   -3.0020    1.0000 </r>
       <r>   -1.9562    1.0000 </r>
       <r>   -1.9371    1.0000 </r>
       <r>   -1.1423    1.0000 </r>
       <r>   -0.9445    1.0000 </r>
       <r>   -0.7837    1.0000 </r>
       <r>   -0.7407    1.0000 </r>
       <r>    1.7558   -0.0000 </r>
       <r>    1.9809   -0.0000 </r>
       <r>    2.3204   -0.0000 </r>
       <r>    2.3925   -0.0000 </r>
       <r>    2.5143   -0.0000 </r>
       <r>    2.7064   -0.0000 </r>
       <r>    3.9327    0.0000 </r>
       <r>    3.9667    0.0000 </r>
       <r>    6.6067    0.0000 </r>
       <r>    6.7046    0.0000 </r>
       <r>    8.3150    0.0000 </r>
       <r>    8.6249    0.0000 </r>
      </set>
      <set comment="kpoint 21">
       <r>  -35.0627    1.0000 </r>
       <r>  -35.0458    1.0000 </r>
       <r>  -34.9456    1.0000 </r>
       <r>  -34.9285    1.0000 </r>
       <r>  -34.9001    1.0000 </r>
       <r>  -34.8831    1.0000 </r>
       <r>  -12.6538    1.0000 </r>
       <r>  -12.6075    1.0000 </r>
       <r>  -12.1504    1.0000 </r>
       <r>  -12.0956    1.0000 </r>
       <r>   -5.0298    1.0000 </r>
       <r>   -4.9258    1.0000 </r>
       <r>   -4.1051    1.0000 </r>
       <r>   -4.0580    1.0000 </r>
       <r>   -3.7835    1.0000 </r>
       <r>   -3.6607    1.0000 </r>
       <r>   -3.3158    1.0000 </r>
       <r>   -3.1721    1.0000 </r>
       <r>   -2.0820    1.0000 </r>
       <r>   -2.0588    1.0000 </r>
       <r>   -1.3489    1.0000 </r>
       <r>   -1.2061    1.0000 </r>
       <r>   -0.8410    1.0000 </r>
       <r>   -0.8240    1.0000 </r>
       <r>    1.7831   -0.0000 </r>
       <r>    2.0349   -0.0000 </r>
       <r>    2.3879   -0.0000 </r>
       <r>    2.4383   -0.0000 </r>
       <r>    2.7746   -0.0000 </r>
       <r>    2.9619   -0.0000 </r>
       <r>    4.1918    0.0000 </r>
       <r>    4.2444    0.0000 </r>
       <r>    7.2491    0.0000 </r>
       <r>    7.3327    0.0000 </r>
       <r>    8.2204    0.0000 </r>
       <r>    8.5789    0.0000 </r>
      </set>
      <set comment="kpoint 22">
       <r>  -35.1133    1.0000 </r>
       <r>  -35.0964    1.0000 </r>
       <r>  -34.9330    1.0000 </r>
       <r>  -34.9261    1.0000 </r>
       <r>  -34.9159    1.0000 </r>
       <r>  -34.9091    1.0000 </r>
       <r>  -12.2784    1.0000 </r>
       <r>  -12.2400    1.0000 </r>
       <r>  -11.9923    1.0000 </r>
       <r>  -11.9508    1.0000 </r>
       <r>   -5.2289    1.0000 </r>
       <r>   -5.1658    1.0000 </r>
       <r>   -4.6450    1.0000 </r>
       <r>   -4.6110    1.0000 </r>
       <r>   -3.8063    1.0000 </r>
       <r>   -3.6846    1.0000 </r>
       <r>   -3.2860    1.0000 </r>
       <r>   -3.1708    1.0000 </r>
       <r>   -2.2248    1.0000 </r>
       <r>   -2.1714    1.0000 </r>
       <r>   -1.6781    1.0000 </r>
       <r>   -1.5550    1.0000 </r>
       <r>   -0.6698    1.0000 </r>
       <r>   -0.6449    1.0000 </r>
       <r>    2.0062   -0.0000 </r>
       <r>    2.2060   -0.0000 </r>
       <r>    2.5046   -0.0000 </r>
       <r>    2.5472   -0.0000 </r>
       <r>    3.1274    0.0000 </r>
       <r>    3.2767    0.0000 </r>
       <r>    4.2631    0.0000 </r>
       <r>    4.3479    0.0000 </r>
       <r>    7.1143    0.0000 </r>
       <r>    7.4360    0.0000 </r>
       <r>    8.0739    0.0000 </r>
       <r>    8.3304    0.0000 </r>
      </set>
      <set comment="kpoint 23">
       <r>  -35.1414    1.0000 </r>
       <r>  -35.1246    1.0000 </r>
       <r>  -34.9409    1.0000 </r>
       <r>  -34.9259    1.0000 </r>
       <r>  -34.9240    1.0000 </r>
       <r>  -34.9088    1.0000 </r>
       <r>  -12.0452    1.0000 </r>
       <r>  -12.0151    1.0000 </r>
       <r>  -11.8947    1.0000 </r>
       <r>  -11.8638    1.0000 </r>
       <r>   -5.3570    1.0000 </r>
       <r>   -5.3121    1.0000 </r>
       <r>   -4.9523    1.0000 </r>
       <r>   -4.9199    1.0000 </r>
       <r>   -3.9467    1.0000 </r>
       <r>   -3.8312    1.0000 </r>
       <r>   -3.1913    1.0000 </r>
       <r>   -3.1224    1.0000 </r>
       <r>   -2.2251    1.0000 </r>
       <r>   -2.1585    1.0000 </r>
       <r>   -1.9358    1.0000 </r>
       <r>   -1.8054    1.0000 </r>
       <r>   -0.4441    1.0000 </r>
       <r>   -0.4018    1.0000 </r>
       <r>    2.0563   -0.0000 </r>
       <r>    2.1042   -0.0000 </r>
       <r>    2.7579   -0.0000 </r>
       <r>    2.8477   -0.0000 </r>
       <r>    3.3972    0.0000 </r>
       <r>    3.4894    0.0000 </r>
       <r>    4.1996    0.0000 </r>
       <r>    4.3435    0.0000 </r>
       <r>    6.3936    0.0000 </r>
       <r>    6.8300    0.0000 </r>
       <r>    8.7564    0.0000 </r>
       <r>    8.9624    0.0000 </r>
      </set>
      <set comment="kpoint 24">
       <r>  -35.1415    1.0000 </r>
       <r>  -35.1246    1.0000 </r>
       <r>  -34.9409    1.0000 </r>
       <r>  -34.9259    1.0000 </r>
       <r>  -34.9240    1.0000 </r>
       <r>  -34.9088    1.0000 </r>
       <r>  -12.0445    1.0000 </r>
       <r>  -12.0155    1.0000 </r>
       <r>  -11.8943    1.0000 </r>
       <r>  -11.8644    1.0000 </r>
       <r>   -5.3569    1.0000 </r>
       <r>   -5.3123    1.0000 </r>
       <r>   -4.9520    1.0000 </r>
       <r>   -4.9202    1.0000 </r>
       <r>   -3.9466    1.0000 </r>
       <r>   -3.8312    1.0000 </r>
       <r>   -3.1918    1.0000 </r>
       <r>   -3.1215    1.0000 </r>
       <r>   -2.2170    1.0000 </r>
       <r>   -2.1634    1.0000 </r>
       <r>   -1.9385    1.0000 </r>
       <r>   -1.8071    1.0000 </r>
       <r>   -0.4442    1.0000 </r>
       <r>   -0.4015    1.0000 </r>
       <r>    2.0552   -0.0000 </r>
       <r>    2.1053   -0.0000 </r>
       <r>    2.7578   -0.0000 </r>
       <r>    2.8480   -0.0000 </r>
       <r>    3.4243    0.0000 </r>
       <r>    3.4613    0.0000 </r>
       <r>    4.1989    0.0000 </r>
       <r>    4.3440    0.0000 </r>
       <r>    6.3942    0.0000 </r>
       <r>    6.8303    0.0000 </r>
       <r>    8.7278    0.0000 </r>
       <r>    8.9281    0.0000 </r>
      </set>
      <set comment="kpoint 25">
       <r>  -35.1133    1.0000 </r>
       <r>  -35.0964    1.0000 </r>
       <r>  -34.9330    1.0000 </r>
       <r>  -34.9261    1.0000 </r>
       <r>  -34.9159    1.0000 </r>
       <r>  -34.9091    1.0000 </r>
       <r>  -12.2772    1.0000 </r>
       <r>  -12.2409    1.0000 </r>
       <r>  -11.9913    1.0000 </r>
       <r>  -11.9521    1.0000 </r>
       <r>   -5.2289    1.0000 </r>
       <r>   -5.1662    1.0000 </r>
       <r>   -4.6442    1.0000 </r>
       <r>   -4.6118    1.0000 </r>
       <r>   -3.8045    1.0000 </r>
       <r>   -3.6858    1.0000 </r>
       <r>   -3.2852    1.0000 </r>
       <r>   -3.1705    1.0000 </r>
       <r>   -2.2149    1.0000 </r>
       <r>   -2.1791    1.0000 </r>
       <r>   -1.6779    1.0000 </r>
       <r>   -1.5608    1.0000 </r>
       <r>   -0.6705    1.0000 </r>
       <r>   -0.6436    1.0000 </r>
       <r>    2.0044   -0.0000 </r>
       <r>    2.2089   -0.0000 </r>
       <r>    2.5062   -0.0000 </r>
       <r>    2.5447   -0.0000 </r>
       <r>    3.1477    0.0000 </r>
       <r>    3.2544    0.0000 </r>
       <r>    4.2630    0.0000 </r>
       <r>    4.3487    0.0000 </r>
       <r>    7.1127    0.0000 </r>
       <r>    7.4374    0.0000 </r>
       <r>    8.0874    0.0000 </r>
       <r>    8.3239    0.0000 </r>
      </set>
      <set comment="kpoint 26">
       <r>  -35.0627    1.0000 </r>
       <r>  -35.0458    1.0000 </r>
       <r>  -34.9456    1.0000 </r>
       <r>  -34.9285    1.0000 </r>
       <r>  -34.9001    1.0000 </r>
       <r>  -34.8831    1.0000 </r>
       <r>  -12.6528    1.0000 </r>
       <r>  -12.6083    1.0000 </r>
       <r>  -12.1493    1.0000 </r>
       <r>  -12.0968    1.0000 </r>
       <r>   -5.0302    1.0000 </r>
       <r>   -4.9257    1.0000 </r>
       <r>   -4.1044    1.0000 </r>
       <r>   -4.0600    1.0000 </r>
       <r>   -3.7762    1.0000 </r>
       <r>   -3.6658    1.0000 </r>
       <r>   -3.3144    1.0000 </r>
       <r>   -3.1732    1.0000 </r>
       <r>   -2.0832    1.0000 </r>
       <r>   -2.0570    1.0000 </r>
       <r>   -1.3400    1.0000 </r>
       <r>   -1.2188    1.0000 </r>
       <r>   -0.8458    1.0000 </r>
       <r>   -0.8198    1.0000 </r>
       <r>    1.7840   -0.0000 </r>
       <r>    2.0349   -0.0000 </r>
       <r>    2.3886   -0.0000 </r>
       <r>    2.4362   -0.0000 </r>
       <r>    2.7840   -0.0000 </r>
       <r>    2.9530   -0.0000 </r>
       <r>    4.1949    0.0000 </r>
       <r>    4.2423    0.0000 </r>
       <r>    7.2488    0.0000 </r>
       <r>    7.3326    0.0000 </r>
       <r>    8.1739    0.0000 </r>
       <r>    8.5298    0.0000 </r>
      </set>
      <set comment="kpoint 27">
       <r>  -34.9999    1.0000 </r>
       <r>  -34.9830    1.0000 </r>
       <r>  -34.9608    1.0000 </r>
       <r>  -34.9437    1.0000 </r>
       <r>  -34.8697    1.0000 </r>
       <r>  -34.8528    1.0000 </r>
       <r>  -13.0598    1.0000 </r>
       <r>  -13.0095    1.0000 </r>
       <r>  -12.3215    1.0000 </r>
       <r>  -12.2561    1.0000 </r>
       <r>   -4.9522    1.0000 </r>
       <r>   -4.7577    1.0000 </r>
       <r>   -3.8061    1.0000 </r>
       <r>   -3.7485    1.0000 </r>
       <r>   -3.5252    1.0000 </r>
       <r>   -3.4028    1.0000 </r>
       <r>   -3.0948    1.0000 </r>
       <r>   -3.0045    1.0000 </r>
       <r>   -1.9571    1.0000 </r>
       <r>   -1.9360    1.0000 </r>
       <r>   -1.1266    1.0000 </r>
       <r>   -0.9572    1.0000 </r>
       <r>   -0.7820    1.0000 </r>
       <r>   -0.7510    1.0000 </r>
       <r>    1.7584   -0.0000 </r>
       <r>    1.9803   -0.0000 </r>
       <r>    2.3213   -0.0000 </r>
       <r>    2.3913   -0.0000 </r>
       <r>    2.5185   -0.0000 </r>
       <r>    2.7043   -0.0000 </r>
       <r>    3.9320    0.0000 </r>
       <r>    3.9679    0.0000 </r>
       <r>    6.6070    0.0000 </r>
       <r>    6.7038    0.0000 </r>
       <r>    8.3124    0.0000 </r>
       <r>    8.6210    0.0000 </r>
      </set>
      <set comment="kpoint 28">
       <r>  -34.9751    1.0000 </r>
       <r>  -34.9580    1.0000 </r>
       <r>  -34.9378    1.0000 </r>
       <r>  -34.9208    1.0000 </r>
       <r>  -34.8434    1.0000 </r>
       <r>  -34.8265    1.0000 </r>
       <r>  -13.4089    1.0000 </r>
       <r>  -13.3554    1.0000 </r>
       <r>  -12.4695    1.0000 </r>
       <r>  -12.3936    1.0000 </r>
       <r>   -5.1228    1.0000 </r>
       <r>   -4.8648    1.0000 </r>
       <r>   -3.5666    1.0000 </r>
       <r>   -3.5495    1.0000 </r>
       <r>   -3.2342    1.0000 </r>
       <r>   -3.0095    1.0000 </r>
       <r>   -2.4698    1.0000 </r>
       <r>   -2.4451    1.0000 </r>
       <r>   -2.0873    1.0000 </r>
       <r>   -2.0691    1.0000 </r>
       <r>   -1.1574    1.0000 </r>
       <r>   -0.9146    1.0000 </r>
       <r>   -0.5431    1.0000 </r>
       <r>   -0.4353    1.0000 </r>
       <r>    1.9586   -0.0000 </r>
       <r>    2.1783   -0.0000 </r>
       <r>    2.3901   -0.0000 </r>
       <r>    2.4137   -0.0000 </r>
       <r>    2.4679   -0.0000 </r>
       <r>    2.6197   -0.0000 </r>
       <r>    3.5285    0.0000 </r>
       <r>    3.5563    0.0000 </r>
       <r>    6.0889    0.0000 </r>
       <r>    6.1967    0.0000 </r>
       <r>    7.7986    0.0000 </r>
       <r>    8.3037    0.0000 </r>
      </set>
      <set comment="kpoint 29">
       <r>  -34.9852    1.0000 </r>
       <r>  -34.9681    1.0000 </r>
       <r>  -34.8898    1.0000 </r>
       <r>  -34.8728    1.0000 </r>
       <r>  -34.8282    1.0000 </r>
       <r>  -34.8113    1.0000 </r>
       <r>  -13.6408    1.0000 </r>
       <r>  -13.5857    1.0000 </r>
       <r>  -12.5676    1.0000 </r>
       <r>  -12.4847    1.0000 </r>
       <r>   -5.3235    1.0000 </r>
       <r>   -5.0484    1.0000 </r>
       <r>   -3.2656    1.0000 </r>
       <r>   -3.2487    1.0000 </r>
       <r>   -2.9606    1.0000 </r>
       <r>   -2.6911    1.0000 </r>
       <r>   -2.2840    1.0000 </r>
       <r>   -2.2663    1.0000 </r>
       <r>   -2.0096    1.0000 </r>
       <r>   -1.9907    1.0000 </r>
       <r>   -1.2551    1.0000 </r>
       <r>   -0.9589    1.0000 </r>
       <r>   -0.3692    1.0000 </r>
       <r>   -0.1594    1.0000 </r>
       <r>    2.1866   -0.0000 </r>
       <r>    2.3544   -0.0000 </r>
       <r>    2.4992   -0.0000 </r>
       <r>    2.5435   -0.0000 </r>
       <r>    2.5831   -0.0000 </r>
       <r>    2.6062   -0.0000 </r>
       <r>    3.1849    0.0000 </r>
       <r>    3.2156    0.0000 </r>
       <r>    5.7674    0.0000 </r>
       <r>    5.8746    0.0000 </r>
       <r>    7.4196    0.0000 </r>
       <r>    7.8290    0.0000 </r>
      </set>
      <set comment="kpoint 30">
       <r>  -35.0951    1.0000 </r>
       <r>  -35.0783    1.0000 </r>
       <r>  -34.9417    1.0000 </r>
       <r>  -34.9335    1.0000 </r>
       <r>  -34.9247    1.0000 </r>
       <r>  -34.9164    1.0000 </r>
       <r>  -12.2990    1.0000 </r>
       <r>  -12.2596    1.0000 </r>
       <r>  -11.9952    1.0000 </r>
       <r>  -11.9524    1.0000 </r>
       <r>   -5.0846    1.0000 </r>
       <r>   -5.0107    1.0000 </r>
       <r>   -4.6268    1.0000 </r>
       <r>   -4.6084    1.0000 </r>
       <r>   -3.6572    1.0000 </r>
       <r>   -3.5431    1.0000 </r>
       <r>   -3.3460    1.0000 </r>
       <r>   -3.1967    1.0000 </r>
       <r>   -2.6078    1.0000 </r>
       <r>   -2.5896    1.0000 </r>
       <r>   -1.5512    1.0000 </r>
       <r>   -1.4682    1.0000 </r>
       <r>   -0.6961    1.0000 </r>
       <r>   -0.6761    1.0000 </r>
       <r>    1.9512   -0.0000 </r>
       <r>    2.2169   -0.0000 </r>
       <r>    2.5193   -0.0000 </r>
       <r>    2.5423   -0.0000 </r>
       <r>    2.9145   -0.0000 </r>
       <r>    3.0619    0.0000 </r>
       <r>    4.3696    0.0000 </r>
       <r>    4.4493    0.0000 </r>
       <r>    7.5853    0.0000 </r>
       <r>    7.7229    0.0000 </r>
       <r>    8.1226    0.0000 </r>
       <r>    8.3095    0.0000 </r>
      </set>
      <set comment="kpoint 31">
       <r>  -35.1120    1.0000 </r>
       <r>  -35.0951    1.0000 </r>
       <r>  -34.9772    1.0000 </r>
       <r>  -34.9603    1.0000 </r>
       <r>  -34.9249    1.0000 </r>
       <r>  -34.9078    1.0000 </r>
       <r>  -12.0249    1.0000 </r>
       <r>  -11.9943    1.0000 </r>
       <r>  -11.8728    1.0000 </r>
       <r>  -11.8415    1.0000 </r>
       <r>   -5.0704    1.0000 </r>
       <r>   -5.0407    1.0000 </r>
       <r>   -5.0248    1.0000 </r>
       <r>   -4.9968    1.0000 </r>
       <r>   -3.7338    1.0000 </r>
       <r>   -3.6342    1.0000 </r>
       <r>   -3.1937    1.0000 </r>
       <r>   -3.0761    1.0000 </r>
       <r>   -2.9747    1.0000 </r>
       <r>   -2.9071    1.0000 </r>
       <r>   -1.8749    1.0000 </r>
       <r>   -1.8065    1.0000 </r>
       <r>   -0.4283    1.0000 </r>
       <r>   -0.4058    1.0000 </r>
       <r>    1.9402   -0.0000 </r>
       <r>    2.0173   -0.0000 </r>
       <r>    2.8304   -0.0000 </r>
       <r>    2.9608   -0.0000 </r>
       <r>    3.0636    0.0000 </r>
       <r>    3.1686    0.0000 </r>
       <r>    4.4724    0.0000 </r>
       <r>    4.5721    0.0000 </r>
       <r>    6.9660    0.0000 </r>
       <r>    7.3146    0.0000 </r>
       <r>    8.3082    0.0000 </r>
       <r>    8.5523    0.0000 </r>
      </set>
      <set comment="kpoint 32">
       <r>  -35.1164    1.0000 </r>
       <r>  -35.0995    1.0000 </r>
       <r>  -34.9917    1.0000 </r>
       <r>  -34.9747    1.0000 </r>
       <r>  -34.9218    1.0000 </r>
       <r>  -34.9047    1.0000 </r>
       <r>  -11.9194    1.0000 </r>
       <r>  -11.8949    1.0000 </r>
       <r>  -11.8248    1.0000 </r>
       <r>  -11.8003    1.0000 </r>
       <r>   -5.2033    1.0000 </r>
       <r>   -5.1836    1.0000 </r>
       <r>   -4.9964    1.0000 </r>
       <r>   -4.9604    1.0000 </r>
       <r>   -3.8999    1.0000 </r>
       <r>   -3.7931    1.0000 </r>
       <r>   -3.0742    1.0000 </r>
       <r>   -3.0420    1.0000 </r>
       <r>   -2.9779    1.0000 </r>
       <r>   -2.9478    1.0000 </r>
       <r>   -2.0629    1.0000 </r>
       <r>   -1.9787    1.0000 </r>
       <r>   -0.2576    1.0000 </r>
       <r>   -0.2265    1.0000 </r>
       <r>    1.8216   -0.0000 </r>
       <r>    1.8422   -0.0000 </r>
       <r>    3.0358    0.0000 </r>
       <r>    3.1130    0.0000 </r>
       <r>    3.1676    0.0000 </r>
       <r>    3.2612    0.0000 </r>
       <r>    4.5078    0.0000 </r>
       <r>    4.6154    0.0000 </r>
       <r>    6.6149    0.0000 </r>
       <r>    7.0596    0.0000 </r>
       <r>    8.2029    0.0000 </r>
       <r>    8.6842    0.0000 </r>
      </set>
      <set comment="kpoint 33">
       <r>  -35.1120    1.0000 </r>
       <r>  -35.0951    1.0000 </r>
       <r>  -34.9772    1.0000 </r>
       <r>  -34.9603    1.0000 </r>
       <r>  -34.9249    1.0000 </r>
       <r>  -34.9078    1.0000 </r>
       <r>  -12.0230    1.0000 </r>
       <r>  -11.9956    1.0000 </r>
       <r>  -11.8714    1.0000 </r>
       <r>  -11.8435    1.0000 </r>
       <r>   -5.0705    1.0000 </r>
       <r>   -5.0421    1.0000 </r>
       <r>   -5.0236    1.0000 </r>
       <r>   -4.9973    1.0000 </r>
       <r>   -3.7332    1.0000 </r>
       <r>   -3.6327    1.0000 </r>
       <r>   -3.1913    1.0000 </r>
       <r>   -3.0772    1.0000 </r>
       <r>   -2.9663    1.0000 </r>
       <r>   -2.9160    1.0000 </r>
       <r>   -1.8848    1.0000 </r>
       <r>   -1.8003    1.0000 </r>
       <r>   -0.4284    1.0000 </r>
       <r>   -0.4050    1.0000 </r>
       <r>    1.9392   -0.0000 </r>
       <r>    2.0177   -0.0000 </r>
       <r>    2.8344   -0.0000 </r>
       <r>    2.9563   -0.0000 </r>
       <r>    3.0837    0.0000 </r>
       <r>    3.1467    0.0000 </r>
       <r>    4.4761    0.0000 </r>
       <r>    4.5669    0.0000 </r>
       <r>    6.9727    0.0000 </r>
       <r>    7.3290    0.0000 </r>
       <r>    8.3315    0.0000 </r>
       <r>    8.5834    0.0000 </r>
      </set>
      <set comment="kpoint 34">
       <r>  -35.0952    1.0000 </r>
       <r>  -35.0783    1.0000 </r>
       <r>  -34.9416    1.0000 </r>
       <r>  -34.9335    1.0000 </r>
       <r>  -34.9247    1.0000 </r>
       <r>  -34.9164    1.0000 </r>
       <r>  -12.2969    1.0000 </r>
       <r>  -12.2611    1.0000 </r>
       <r>  -11.9933    1.0000 </r>
       <r>  -11.9548    1.0000 </r>
       <r>   -5.0847    1.0000 </r>
       <r>   -5.0113    1.0000 </r>
       <r>   -4.6265    1.0000 </r>
       <r>   -4.6101    1.0000 </r>
       <r>   -3.6373    1.0000 </r>
       <r>   -3.5559    1.0000 </r>
       <r>   -3.3458    1.0000 </r>
       <r>   -3.2004    1.0000 </r>
       <r>   -2.6130    1.0000 </r>
       <r>   -2.5847    1.0000 </r>
       <r>   -1.5414    1.0000 </r>
       <r>   -1.4821    1.0000 </r>
       <r>   -0.6997    1.0000 </r>
       <r>   -0.6718    1.0000 </r>
       <r>    1.9494   -0.0000 </r>
       <r>    2.2179   -0.0000 </r>
       <r>    2.5207   -0.0000 </r>
       <r>    2.5408   -0.0000 </r>
       <r>    2.9234   -0.0000 </r>
       <r>    3.0510    0.0000 </r>
       <r>    4.3817    0.0000 </r>
       <r>    4.4378    0.0000 </r>
       <r>    7.6137    0.0000 </r>
       <r>    7.7015    0.0000 </r>
       <r>    8.1277    0.0000 </r>
       <r>    8.2541    0.0000 </r>
      </set>
      <set comment="kpoint 35">
       <r>  -35.0627    1.0000 </r>
       <r>  -35.0458    1.0000 </r>
       <r>  -34.9456    1.0000 </r>
       <r>  -34.9285    1.0000 </r>
       <r>  -34.9000    1.0000 </r>
       <r>  -34.8832    1.0000 </r>
       <r>  -12.6523    1.0000 </r>
       <r>  -12.6087    1.0000 </r>
       <r>  -12.1486    1.0000 </r>
       <r>  -12.0976    1.0000 </r>
       <r>   -5.0303    1.0000 </r>
       <r>   -4.9259    1.0000 </r>
       <r>   -4.1038    1.0000 </r>
       <r>   -4.0640    1.0000 </r>
       <r>   -3.7583    1.0000 </r>
       <r>   -3.6767    1.0000 </r>
       <r>   -3.3157    1.0000 </r>
       <r>   -3.1753    1.0000 </r>
       <r>   -2.0840    1.0000 </r>
       <r>   -2.0566    1.0000 </r>
       <r>   -1.3213    1.0000 </r>
       <r>   -1.2363    1.0000 </r>
       <r>   -0.8456    1.0000 </r>
       <r>   -0.8221    1.0000 </r>
       <r>    1.7822   -0.0000 </r>
       <r>    2.0351   -0.0000 </r>
       <r>    2.3897   -0.0000 </r>
       <r>    2.4380   -0.0000 </r>
       <r>    2.7767   -0.0000 </r>
       <r>    2.9611   -0.0000 </r>
       <r>    4.1993    0.0000 </r>
       <r>    4.2367    0.0000 </r>
       <r>    7.2493    0.0000 </r>
       <r>    7.3316    0.0000 </r>
       <r>    8.2212    0.0000 </r>
       <r>    8.5010    0.0000 </r>
      </set>
      <set comment="kpoint 36">
       <r>  -35.0181    1.0000 </r>
       <r>  -35.0012    1.0000 </r>
       <r>  -34.9584    1.0000 </r>
       <r>  -34.9413    1.0000 </r>
       <r>  -34.8657    1.0000 </r>
       <r>  -34.8489    1.0000 </r>
       <r>  -12.9981    1.0000 </r>
       <r>  -12.9492    1.0000 </r>
       <r>  -12.2968    1.0000 </r>
       <r>  -12.2344    1.0000 </r>
       <r>   -5.0012    1.0000 </r>
       <r>   -4.8336    1.0000 </r>
       <r>   -3.8612    1.0000 </r>
       <r>   -3.7904    1.0000 </r>
       <r>   -3.7169    1.0000 </r>
       <r>   -3.6053    1.0000 </r>
       <r>   -2.8634    1.0000 </r>
       <r>   -2.8092    1.0000 </r>
       <r>   -1.8054    1.0000 </r>
       <r>   -1.7836    1.0000 </r>
       <r>   -1.3523    1.0000 </r>
       <r>   -1.1810    1.0000 </r>
       <r>   -0.8442    1.0000 </r>
       <r>   -0.8164    1.0000 </r>
       <r>    1.8496   -0.0000 </r>
       <r>    2.0561   -0.0000 </r>
       <r>    2.2784   -0.0000 </r>
       <r>    2.3647   -0.0000 </r>
       <r>    2.7454   -0.0000 </r>
       <r>    2.9427   -0.0000 </r>
       <r>    3.8809    0.0000 </r>
       <r>    3.9192    0.0000 </r>
       <r>    6.6848    0.0000 </r>
       <r>    6.7720    0.0000 </r>
       <r>    8.1768    0.0000 </r>
       <r>    8.5285    0.0000 </r>
      </set>
      <set comment="kpoint 37">
       <r>  -34.9713    1.0000 </r>
       <r>  -34.9691    1.0000 </r>
       <r>  -34.9543    1.0000 </r>
       <r>  -34.9519    1.0000 </r>
       <r>  -34.8470    1.0000 </r>
       <r>  -34.8302    1.0000 </r>
       <r>  -13.2650    1.0000 </r>
       <r>  -13.2129    1.0000 </r>
       <r>  -12.4093    1.0000 </r>
[...]
       <r>    -2.2197     1.4222    18.3856 </r>
       <r>    -2.0577     3.1133    18.8899 </r>
       <r>    -1.8957     3.7970    19.5051 </r>
       <r>    -1.7337     3.5055    20.0730 </r>
       <r>    -1.5717     2.9833    20.5563 </r>
       <r>    -1.4097     3.2099    21.0763 </r>
       <r>    -1.2477     1.6836    21.3490 </r>
       <r>    -1.0857     2.3243    21.7256 </r>
       <r>    -0.9237     1.6447    21.9920 </r>
       <r>    -0.7617     3.7098    22.5931 </r>
       <r>    -0.5996     2.9372    23.0689 </r>
       <r>    -0.4376     2.0833    23.4064 </r>
       <r>    -0.2756     2.0044    23.7311 </r>
       <r>    -0.1136     1.0761    23.9054 </r>
       <r>     0.0484     0.3404    23.9606 </r>
       <r>     0.2104     0.2252    23.9971 </r>
       <r>     0.3724     0.0192    24.0002 </r>
       <r>     0.5344    -0.0011    24.0000 </r>
       <r>     0.6964    -0.0000    24.0000 </r>
       <r>     0.8584    -0.0000    24.0000 </r>
       <r>     1.0204    -0.0000    24.0000 </r>
       <r>     1.1824    -0.0000    24.0000 </r>
       <r>     1.3444    -0.0000    24.0000 </r>
       <r>     1.5064    -0.0077    23.9987 </r>
       <r>     1.6684     0.1469    24.0225 </r>
       <r>     1.8304     1.1770    24.2132 </r>
       <r>     1.9924     2.6305    24.6394 </r>
       <r>     2.1544     5.3215    25.5015 </r>
       <r>     2.3164     3.5407    26.0751 </r>
       <r>     2.4784     4.8982    26.8686 </r>
       <r>     2.6404     5.0090    27.6801 </r>
       <r>     2.8024     3.3383    28.2209 </r>
       <r>     2.9644     2.9896    28.7052 </r>
       <r>     3.1264     2.5735    29.1221 </r>
       <r>     3.2884     2.6394    29.5497 </r>
       <r>     3.4504     1.5925    29.8077 </r>
       <r>     3.6124     2.0913    30.1465 </r>
       <r>     3.7744     1.0069    30.3097 </r>
       <r>     3.9365     1.8920    30.6162 </r>
       <r>     4.0985     1.9688    30.9351 </r>
       <r>     4.2605     3.0487    31.4290 </r>
       <r>     4.4225     1.6305    31.6932 </r>
       <r>     4.5845     1.1745    31.8835 </r>
       <r>     4.7465     0.6547    31.9895 </r>
       <r>     4.9085     0.0682    32.0006 </r>
       <r>     5.0705    -0.0037    32.0000 </r>
       <r>     5.2325     0.0031    32.0005 </r>
       <r>     5.3945     0.1259    32.0209 </r>
       <r>     5.5565     0.3264    32.0737 </r>
       <r>     5.7185     0.3182    32.1253 </r>
       <r>     5.8805     0.5240    32.2102 </r>
       <r>     6.0425     0.2495    32.2506 </r>
       <r>     6.2045     0.9203    32.3997 </r>
       <r>     6.3665     0.7379    32.5192 </r>
       <r>     6.5285     1.0459    32.6886 </r>
       <r>     6.6905     1.0499    32.8587 </r>
       <r>     6.8525     1.7417    33.1409 </r>
       <r>     7.0145     1.4310    33.3727 </r>
       <r>     7.1765     0.9829    33.5320 </r>
       <r>     7.3385     2.1479    33.8799 </r>
       <r>     7.5005     1.2886    34.0887 </r>
       <r>     7.6625     1.0486    34.2586 </r>
       <r>     7.8245     0.8716    34.3998 </r>
       <r>     7.9865     1.5455    34.6501 </r>
       <r>     8.1485     1.7836    34.9391 </r>
       <r>     8.3105     2.6500    35.3684 </r>
       <r>     8.4725     1.3450    35.5863 </r>
       <r>     8.6346     1.3620    35.8069 </r>
       <r>     8.7966     0.7203    35.9236 </r>
       <r>     8.9586     0.3633    35.9825 </r>
       <r>     9.1206     0.1131    36.0008 </r>
       <r>     9.2826    -0.0050    36.0000 </r>
       <r>     9.4446    -0.0000    36.0000 </r>
       <r>     9.6066    -0.0000    36.0000 </r>
       <r>     9.7686     0.0000    36.0000 </r>
       <r>     9.9306     0.0000    36.0000 </r>
       <r>    10.0926     0.0000    36.0000 </r>
       <r>    10.2546     0.0000    36.0000 </r>
       <r>    10.4166     0.0000    36.0000 </r>
       <r>    10.5786     0.0000    36.0000 </r>
       <r>    10.7406     0.0000    36.0000 </r>
       <r>    10.9026     0.0000    36.0000 </r>
       <r>    11.0646     0.0000    36.0000 </r>
       <r>    11.2266     0.0000    36.0000 </r>
      </set>
      <set comment="spin 2">
       <r>   -37.3745     0.0000     0.0000 </r>
       <r>   -37.2124     0.0000     0.0000 </r>
       <r>   -37.0504     0.0000     0.0000 </r>
       <r>   -36.8884     0.0000     0.0000 </r>
       <r>   -36.7264     0.0000     0.0000 </r>
       <r>   -36.5644     0.0000     0.0000 </r>
       <r>   -36.4024     0.0000     0.0000 </r>
       <r>   -36.2404     0.0000     0.0000 </r>
       <r>   -36.0784    -0.0000    -0.0000 </r>
       <r>   -35.9164    -0.0000    -0.0000 </r>
       <r>   -35.7544    -0.0000    -0.0000 </r>
       <r>   -35.5924    -0.0000    -0.0000 </r>
       <r>   -35.4304    -0.0007    -0.0001 </r>
       <r>   -35.2684    -0.1764    -0.0287 </r>
       <r>   -35.1064     3.8543     0.5957 </r>
       <r>   -34.9444    14.6494     2.9690 </r>
       <r>   -34.7824    18.5859     5.9800 </r>
       <r>   -34.6204     0.1568     6.0054 </r>
       <r>   -34.4584    -0.0331     6.0000 </r>
       <r>   -34.2964    -0.0000     6.0000 </r>
       <r>   -34.1344    -0.0000     6.0000 </r>
       <r>   -33.9724     0.0000     6.0000 </r>
       <r>   -33.8104     0.0000     6.0000 </r>
       <r>   -33.6484     0.0000     6.0000 </r>
       <r>   -33.4864     0.0000     6.0000 </r>
       <r>   -33.3244     0.0000     6.0000 </r>
       <r>   -33.1624     0.0000     6.0000 </r>
       <r>   -33.0004     0.0000     6.0000 </r>
       <r>   -32.8384     0.0000     6.0000 </r>
       <r>   -32.6764     0.0000     6.0000 </r>
       <r>   -32.5143     0.0000     6.0000 </r>
       <r>   -32.3523     0.0000     6.0000 </r>
       <r>   -32.1903     0.0000     6.0000 </r>
       <r>   -32.0283     0.0000     6.0000 </r>
       <r>   -31.8663     0.0000     6.0000 </r>
       <r>   -31.7043     0.0000     6.0000 </r>
       <r>   -31.5423     0.0000     6.0000 </r>
       <r>   -31.3803     0.0000     6.0000 </r>
       <r>   -31.2183     0.0000     6.0000 </r>
       <r>   -31.0563     0.0000     6.0000 </r>
       <r>   -30.8943     0.0000     6.0000 </r>
       <r>   -30.7323     0.0000     6.0000 </r>
       <r>   -30.5703     0.0000     6.0000 </r>
       <r>   -30.4083     0.0000     6.0000 </r>
       <r>   -30.2463     0.0000     6.0000 </r>
       <r>   -30.0843     0.0000     6.0000 </r>
       <r>   -29.9223     0.0000     6.0000 </r>
       <r>   -29.7603     0.0000     6.0000 </r>
       <r>   -29.5983     0.0000     6.0000 </r>
       <r>   -29.4363     0.0000     6.0000 </r>
       <r>   -29.2743     0.0000     6.0000 </r>
       <r>   -29.1123     0.0000     6.0000 </r>
       <r>   -28.9503     0.0000     6.0000 </r>
       <r>   -28.7883     0.0000     6.0000 </r>
       <r>   -28.6263     0.0000     6.0000 </r>
       <r>   -28.4643     0.0000     6.0000 </r>
       <r>   -28.3023     0.0000     6.0000 </r>
       <r>   -28.1403     0.0000     6.0000 </r>
       <r>   -27.9782     0.0000     6.0000 </r>
       <r>   -27.8162     0.0000     6.0000 </r>
       <r>   -27.6542     0.0000     6.0000 </r>
       <r>   -27.4922     0.0000     6.0000 </r>
       <r>   -27.3302     0.0000     6.0000 </r>
       <r>   -27.1682     0.0000     6.0000 </r>
       <r>   -27.0062     0.0000     6.0000 </r>
       <r>   -26.8442     0.0000     6.0000 </r>
       <r>   -26.6822     0.0000     6.0000 </r>
       <r>   -26.5202     0.0000     6.0000 </r>
       <r>   -26.3582     0.0000     6.0000 </r>
       <r>   -26.1962     0.0000     6.0000 </r>
       <r>   -26.0342     0.0000     6.0000 </r>
       <r>   -25.8722     0.0000     6.0000 </r>
       <r>   -25.7102     0.0000     6.0000 </r>
       <r>   -25.5482     0.0000     6.0000 </r>
       <r>   -25.3862     0.0000     6.0000 </r>
       <r>   -25.2242     0.0000     6.0000 </r>
       <r>   -25.0622     0.0000     6.0000 </r>
       <r>   -24.9002     0.0000     6.0000 </r>
       <r>   -24.7382     0.0000     6.0000 </r>
       <r>   -24.5762     0.0000     6.0000 </r>
       <r>   -24.4142     0.0000     6.0000 </r>
       <r>   -24.2522     0.0000     6.0000 </r>
       <r>   -24.0902     0.0000     6.0000 </r>
       <r>   -23.9282     0.0000     6.0000 </r>
       <r>   -23.7662     0.0000     6.0000 </r>
       <r>   -23.6042     0.0000     6.0000 </r>
       <r>   -23.4421     0.0000     6.0000 </r>
       <r>   -23.2801     0.0000     6.0000 </r>
       <r>   -23.1181     0.0000     6.0000 </r>
       <r>   -22.9561     0.0000     6.0000 </r>
       <r>   -22.7941     0.0000     6.0000 </r>
       <r>   -22.6321     0.0000     6.0000 </r>
       <r>   -22.4701     0.0000     6.0000 </r>
       <r>   -22.3081     0.0000     6.0000 </r>
       <r>   -22.1461     0.0000     6.0000 </r>
       <r>   -21.9841     0.0000     6.0000 </r>
       <r>   -21.8221     0.0000     6.0000 </r>
       <r>   -21.6601     0.0000     6.0000 </r>
       <r>   -21.4981     0.0000     6.0000 </r>
       <r>   -21.3361     0.0000     6.0000 </r>
       <r>   -21.1741     0.0000     6.0000 </r>
       <r>   -21.0121     0.0000     6.0000 </r>
       <r>   -20.8501     0.0000     6.0000 </r>
       <r>   -20.6881     0.0000     6.0000 </r>
       <r>   -20.5261     0.0000     6.0000 </r>
       <r>   -20.3641     0.0000     6.0000 </r>
       <r>   -20.2021     0.0000     6.0000 </r>
       <r>   -20.0401     0.0000     6.0000 </r>
       <r>   -19.8781     0.0000     6.0000 </r>
       <r>   -19.7161     0.0000     6.0000 </r>
       <r>   -19.5541     0.0000     6.0000 </r>
       <r>   -19.3921     0.0000     6.0000 </r>
       <r>   -19.2301     0.0000     6.0000 </r>
       <r>   -19.0681     0.0000     6.0000 </r>
       <r>   -18.9060     0.0000     6.0000 </r>
       <r>   -18.7440     0.0000     6.0000 </r>
       <r>   -18.5820     0.0000     6.0000 </r>
       <r>   -18.4200     0.0000     6.0000 </r>
       <r>   -18.2580     0.0000     6.0000 </r>
       <r>   -18.0960     0.0000     6.0000 </r>
       <r>   -17.9340     0.0000     6.0000 </r>
       <r>   -17.7720     0.0000     6.0000 </r>
       <r>   -17.6100     0.0000     6.0000 </r>
       <r>   -17.4480     0.0000     6.0000 </r>
       <r>   -17.2860     0.0000     6.0000 </r>
       <r>   -17.1240     0.0000     6.0000 </r>
       <r>   -16.9620     0.0000     6.0000 </r>
       <r>   -16.8000     0.0000     6.0000 </r>
       <r>   -16.6380     0.0000     6.0000 </r>
       <r>   -16.4760     0.0000     6.0000 </r>
       <r>   -16.3140     0.0000     6.0000 </r>
       <r>   -16.1520     0.0000     6.0000 </r>
       <r>   -15.9900     0.0000     6.0000 </r>
       <r>   -15.8280     0.0000     6.0000 </r>
       <r>   -15.6660     0.0000     6.0000 </r>
       <r>   -15.5040     0.0000     6.0000 </r>
       <r>   -15.3420     0.0000     6.0000 </r>
       <r>   -15.1800     0.0000     6.0000 </r>
       <r>   -15.0180     0.0000     6.0000 </r>
       <r>   -14.8560    -0.0000     6.0000 </r>
       <r>   -14.6940    -0.0000     6.0000 </r>
       <r>   -14.5320    -0.0000     6.0000 </r>
       <r>   -14.3699    -0.0000     6.0000 </r>
       <r>   -14.2079    -0.0001     6.0000 </r>
       <r>   -14.0459    -0.0062     5.9990 </r>
       <r>   -13.8839     0.2137     6.0336 </r>
       <r>   -13.7219     0.4417     6.1051 </r>
       <r>   -13.5599     0.6703     6.2137 </r>
       <r>   -13.3979     0.3976     6.2781 </r>
       <r>   -13.2359     0.7948     6.4069 </r>
       <r>   -13.0739     0.2923     6.4543 </r>
       <r>   -12.9119     1.1250     6.6365 </r>
       <r>   -12.7499     0.4291     6.7060 </r>
       <r>   -12.5879     1.5417     6.9558 </r>
       <r>   -12.4259     2.3194     7.3316 </r>
       <r>   -12.2639     2.6478     7.7605 </r>
       <r>   -12.1019     3.8945     8.3914 </r>
       <r>   -11.9399     5.4825     9.2796 </r>
       <r>   -11.7779     4.2286     9.9647 </r>
       <r>   -11.6159     0.2332    10.0025 </r>
       <r>   -11.4539    -0.0152    10.0000 </r>
       <r>   -11.2919    -0.0000    10.0000 </r>
       <r>   -11.1299    -0.0000    10.0000 </r>
       <r>   -10.9679     0.0000    10.0000 </r>
       <r>   -10.8059     0.0000    10.0000 </r>
       <r>   -10.6439     0.0000    10.0000 </r>
       <r>   -10.4819     0.0000    10.0000 </r>
       <r>   -10.3199     0.0000    10.0000 </r>
       <r>   -10.1579     0.0000    10.0000 </r>
       <r>    -9.9959     0.0000    10.0000 </r>
       <r>    -9.8339     0.0000    10.0000 </r>
       <r>    -9.6718     0.0000    10.0000 </r>
       <r>    -9.5098     0.0000    10.0000 </r>
       <r>    -9.3478     0.0000    10.0000 </r>
       <r>    -9.1858     0.0000    10.0000 </r>
       <r>    -9.0238     0.0000    10.0000 </r>
       <r>    -8.8618     0.0000    10.0000 </r>
       <r>    -8.6998     0.0000    10.0000 </r>
       <r>    -8.5378     0.0000    10.0000 </r>
       <r>    -8.3758     0.0000    10.0000 </r>
       <r>    -8.2138     0.0000    10.0000 </r>
       <r>    -8.0518     0.0000    10.0000 </r>
       <r>    -7.8898     0.0000    10.0000 </r>
       <r>    -7.7278     0.0000    10.0000 </r>
       <r>    -7.5658     0.0000    10.0000 </r>
       <r>    -7.4038     0.0000    10.0000 </r>
       <r>    -7.2418     0.0000    10.0000 </r>
       <r>    -7.0798     0.0000    10.0000 </r>
       <r>    -6.9178     0.0000    10.0000 </r>
       <r>    -6.7558     0.0000    10.0000 </r>
       <r>    -6.5938    -0.0000    10.0000 </r>
       <r>    -6.4318    -0.0000    10.0000 </r>
       <r>    -6.2698    -0.0000    10.0000 </r>
       <r>    -6.1078    -0.0000    10.0000 </r>
       <r>    -5.9458    -0.0001    10.0000 </r>
       <r>    -5.7838    -0.0218     9.9964 </r>
       <r>    -5.6218     0.5245    10.0814 </r>
       <r>    -5.4598     1.2543    10.2846 </r>
       <r>    -5.2978     2.0957    10.6241 </r>
       <r>    -5.1357     2.7766    11.0739 </r>
       <r>    -4.9737     4.7115    11.8372 </r>
       <r>    -4.8117     2.9220    12.3106 </r>
       <r>    -4.6497     2.2708    12.6785 </r>
       <r>    -4.4877     1.6560    12.9468 </r>
       <r>    -4.3257     0.3761    13.0077 </r>
       <r>    -4.1637     0.7458    13.1285 </r>
       <r>    -4.0017     1.5415    13.3782 </r>
       <r>    -3.8397     3.7956    13.9931 </r>
       <r>    -3.6777     5.1529    14.8279 </r>
       <r>    -3.5157     2.7874    15.2795 </r>
       <r>    -3.3537     1.1730    15.4695 </r>
       <r>    -3.1917     3.1682    15.9828 </r>
       <r>    -3.0297     5.4672    16.8685 </r>
       <r>    -2.8677     3.2425    17.3938 </r>
       <r>    -2.7057     1.8036    17.6860 </r>
       <r>    -2.5437     0.9059    17.8327 </r>
       <r>    -2.3817     1.9904    18.1552 </r>
       <r>    -2.2197     1.4223    18.3856 </r>
       <r>    -2.0577     3.1136    18.8900 </r>
       <r>    -1.8957     3.7973    19.5052 </r>
       <r>    -1.7337     3.5053    20.0731 </r>
       <r>    -1.5717     2.9832    20.5564 </r>
       <r>    -1.4097     3.2098    21.0764 </r>
       <r>    -1.2477     1.6835    21.3491 </r>
       <r>    -1.0857     2.3243    21.7256 </r>
       <r>    -0.9237     1.6451    21.9922 </r>
       <r>    -0.7617     3.7094    22.5931 </r>
       <r>    -0.5996     2.9373    23.0689 </r>
       <r>    -0.4376     2.0832    23.4064 </r>
       <r>    -0.2756     2.0044    23.7311 </r>
       <r>    -0.1136     1.0760    23.9054 </r>
       <r>     0.0484     0.3404    23.9606 </r>
       <r>     0.2104     0.2252    23.9971 </r>
       <r>     0.3724     0.0192    24.0002 </r>
       <r>     0.5344    -0.0011    24.0000 </r>
       <r>     0.6964    -0.0000    24.0000 </r>
       <r>     0.8584    -0.0000    24.0000 </r>
       <r>     1.0204    -0.0000    24.0000 </r>
       <r>     1.1824    -0.0000    24.0000 </r>
       <r>     1.3444    -0.0000    24.0000 </r>
       <r>     1.5064    -0.0077    23.9987 </r>
       <r>     1.6684     0.1469    24.0226 </r>
       <r>     1.8304     1.1770    24.2132 </r>
       <r>     1.9924     2.6307    24.6394 </r>
       <r>     2.1544     5.3215    25.5015 </r>
       <r>     2.3164     3.5406    26.0751 </r>
       <r>     2.4784     4.8983    26.8687 </r>
       <r>     2.6404     5.0088    27.6801 </r>
       <r>     2.8024     3.3383    28.2209 </r>
       <r>     2.9644     2.9896    28.7053 </r>
       <r>     3.1264     2.5736    29.1222 </r>
       <r>     3.2884     2.6392    29.5498 </r>
       <r>     3.4504     1.5925    29.8078 </r>
       <r>     3.6124     2.0913    30.1465 </r>
       <r>     3.7744     1.0069    30.3097 </r>
       <r>     3.9365     1.8920    30.6162 </r>
       <r>     4.0985     1.9690    30.9352 </r>
       <r>     4.2605     3.0486    31.4291 </r>
       <r>     4.4225     1.6304    31.6932 </r>
       <r>     4.5845     1.1745    31.8835 </r>
       <r>     4.7465     0.6546    31.9895 </r>
       <r>     4.9085     0.0681    32.0006 </r>
       <r>     5.0705    -0.0035    32.0000 </r>
       <r>     5.2325    -0.0006    31.9999 </r>
       <r>     5.3945     0.0956    32.0154 </r>
       <r>     5.5565     0.3270    32.0684 </r>
       <r>     5.7185     0.3001    32.1170 </r>
       <r>     5.8805     0.5354    32.2037 </r>
       <r>     6.0425     0.2545    32.2449 </r>
       <r>     6.2045     0.8719    32.3862 </r>
       <r>     6.3665     0.7836    32.5131 </r>
       <r>     6.5285     1.0670    32.6860 </r>
       <r>     6.6905     0.8968    32.8313 </r>
       <r>     6.8525     1.8423    33.1297 </r>
       <r>     7.0145     1.2484    33.3320 </r>
       <r>     7.1765     1.0459    33.5014 </r>
       <r>     7.3385     2.2397    33.8643 </r>
       <r>     7.5005     1.3831    34.0883 </r>
       <r>     7.6625     0.9983    34.2501 </r>
       <r>     7.8245     0.9871    34.4100 </r>
       <r>     7.9865     1.4163    34.6394 </r>
       <r>     8.1485     1.6717    34.9102 </r>
       <r>     8.3105     2.8095    35.3654 </r>
       <r>     8.4725     1.2725    35.5715 </r>
       <r>     8.6346     1.0523    35.7420 </r>
       <r>     8.7966     0.7451    35.8627 </r>
       <r>     8.9586     0.6696    35.9712 </r>
       <r>     9.1206     0.1843    36.0010 </r>
       <r>     9.2826    -0.0064    36.0000 </r>
       <r>     9.4446    -0.0001    36.0000 </r>
       <r>     9.6066    -0.0000    36.0000 </r>
       <r>     9.7686    -0.0000    36.0000 </r>
       <r>     9.9306     0.0000    36.0000 </r>
       <r>    10.0926     0.0000    36.0000 </r>
       <r>    10.2546     0.0000    36.0000 </r>
       <r>    10.4166     0.0000    36.0000 </r>
       <r>    10.5786     0.0000    36.0000 </r>
       <r>    10.7406     0.0000    36.0000 </r>
       <r>    10.9026     0.0000    36.0000 </r>
       <r>    11.0646     0.0000    36.0000 </r>
       <r>    11.2266     0.0000    36.0000 </r>
      </set>
     </set>
    </array>
   </total>
  </dos>
 </calculation>
 <structure name="finalpos" >
  <crystal>
   <varray name="basis" >
    <v>       3.19031700       0.00000000       0.00000000 </v>
    <v>      -1.59515800       2.76289700       0.00000000 </v>
    <v>       0.00000000       0.00000000      23.14049200 </v>
   </varray>
   <i name="volume">    203.97226633 </i>
   <varray name="rec_basis" >
    <v>       0.31344848       0.18096941       0.00000000 </v>
    <v>       0.00000000       0.36193894       0.00000000 </v>
    <v>       0.00000000       0.00000000       0.04321429 </v>
   </varray>
  </crystal>
  <varray name="positions" >
   <v>       0.66666700       0.33333300       0.06785900 </v>
   <v>       0.33333300       0.66666700       0.00000000 </v>
   <v>       0.33333300       0.66666700       0.13571500 </v>
   <v>       0.95238129       0.04761871       0.35482300 </v>
   <v>       0.61904729       0.38095271       0.28696500 </v>
   <v>       0.61904729       0.38095271       0.42267900 </v>
  </varray>
 </structure>
</modeling>
