<?xml version="1.0" encoding="ISO-8859-1"?>
<modeling>
 <generator>
  <i name="program" type="string">vasp </i>
  <i name="version" type="string">5.4.1  </i>
  <i name="subversion" type="string">24Jun15 (build May 10 2016 14:18:23) complex                          parallel </i>
  <i name="platform" type="string">IFC91_ompi </i>
  <i name="date" type="string">2016 12 12 </i>
  <i name="time" type="string">06:32:50 </i>
 </generator>
 <incar>
  <i type="string" name="PREC">accurate</i>
  <i type="string" name="ALGO"> Fast</i>
  <i type="int" name="ISPIN">     2</i>
  <i type="int" name="IBRION">     2</i>
  <i name="EDIFF">      0.00010000</i>
  <i type="int" name="NSW">     0</i>
  <i type="int" name="ISIF">     3</i>
  <i name="ENCUT">    500.00000000</i>
  <v name="MAGMOM">      6.00000000      0.50000000      0.50000000      6.00000000      0.50000000      0.50000000</v>
  <i type="string" name="LREAL"> Auto</i>
  <i type="int" name="ISMEAR">     1</i>
  <i name="SIGMA">      0.10000000</i>
  <i type="logical" name="LWAVE"> F  </i>
  <i type="logical" name="LCHARG"> F  </i>
  <i type="logical" name="LVTOT"> T  </i>
  <i type="logical" name="LVHAR"> T  </i>
  <i type="logical" name="LAECHG"> F  </i>
  <v type="int" name="KPOINT_BSE">    -1     0     0     0</v>
  <i type="string" name="GGA"> Bo</i>
  <i name="PARAM1">      0.18333333</i>
  <i name="PARAM2">      0.22000000</i>
  <i type="logical" name="LUSE_VDW"> T  </i>
  <i name="AGGAC">      0.00000000</i>
 </incar>
 <kpoints>
  <generation param="Gamma">
   <v type="int" name="divisions">      13       13        1 </v>
   <v name="usershift">      0.00000000       0.00000000       0.00000000 </v>
   <v name="genvec1">      0.07692308       0.00000000       0.00000000 </v>
   <v name="genvec2">      0.00000000       0.07692308       0.00000000 </v>
   <v name="genvec3">      0.00000000       0.00000000       1.00000000 </v>
   <v name="shift">      0.00000000       0.00000000       0.00000000 </v>
  </generation>
  <varray name="kpointlist" >
   <v>       0.00000000       0.00000000       0.00000000 </v>
   <v>       0.07692308      -0.00000000       0.00000000 </v>
   <v>       0.15384615       0.00000000       0.00000000 </v>
   <v>       0.23076923       0.00000000       0.00000000 </v>
   <v>       0.30769231      -0.00000000       0.00000000 </v>
   <v>       0.38461538       0.00000000       0.00000000 </v>
   <v>       0.46153846       0.00000000       0.00000000 </v>
   <v>       0.07692308       0.07692308       0.00000000 </v>
   <v>       0.15384615       0.07692308       0.00000000 </v>
   <v>       0.23076923       0.07692308       0.00000000 </v>
   <v>       0.30769231       0.07692308       0.00000000 </v>
   <v>       0.38461538       0.07692308       0.00000000 </v>
   <v>       0.46153846       0.07692308       0.00000000 </v>
   <v>      -0.46153846       0.07692308       0.00000000 </v>
   <v>      -0.38461538       0.07692308       0.00000000 </v>
   <v>      -0.30769231       0.07692308       0.00000000 </v>
   <v>      -0.23076923       0.07692308       0.00000000 </v>
   <v>      -0.15384615       0.07692308       0.00000000 </v>
   <v>      -0.07692308       0.07692308       0.00000000 </v>
   <v>       0.15384615       0.15384615       0.00000000 </v>
   <v>       0.23076923       0.15384615       0.00000000 </v>
   <v>       0.30769231       0.15384615       0.00000000 </v>
   <v>       0.38461538       0.15384615       0.00000000 </v>
   <v>       0.46153846       0.15384615       0.00000000 </v>
   <v>      -0.46153846       0.15384615       0.00000000 </v>
   <v>      -0.38461538       0.15384615       0.00000000 </v>
   <v>      -0.30769231       0.15384615       0.00000000 </v>
   <v>      -0.23076923       0.15384615       0.00000000 </v>
   <v>      -0.15384615       0.15384615       0.00000000 </v>
   <v>       0.23076923       0.23076923       0.00000000 </v>
   <v>       0.30769231       0.23076923       0.00000000 </v>
   <v>       0.38461538       0.23076923       0.00000000 </v>
   <v>       0.46153846       0.23076923       0.00000000 </v>
   <v>      -0.46153846       0.23076923       0.00000000 </v>
   <v>      -0.38461538       0.23076923       0.00000000 </v>
   <v>      -0.30769231       0.23076923       0.00000000 </v>
   <v>      -0.23076923       0.23076923       0.00000000 </v>
   <v>       0.30769231       0.30769231       0.00000000 </v>
   <v>       0.38461538       0.30769231       0.00000000 </v>
   <v>       0.46153846       0.30769231       0.00000000 </v>
   <v>      -0.46153846       0.30769231       0.00000000 </v>
   <v>      -0.38461538       0.30769231       0.00000000 </v>
   <v>      -0.30769231       0.30769231       0.00000000 </v>
   <v>       0.38461538       0.38461538       0.00000000 </v>
   <v>       0.46153846       0.38461538       0.00000000 </v>
   <v>      -0.46153846       0.38461538       0.00000000 </v>
   <v>      -0.38461538       0.38461538       0.00000000 </v>
   <v>       0.46153846       0.46153846       0.00000000 </v>
   <v>      -0.46153846       0.46153846       0.00000000 </v>
  </varray>
  <varray name="weights" >
   <v>       0.00591716 </v>
   <v>       0.02366864 </v>
   <v>       0.02366864 </v>
   <v>       0.02366864 </v>
   <v>       0.02366864 </v>
   <v>       0.02366864 </v>
   <v>       0.02366864 </v>
   <v>       0.01183432 </v>
   <v>       0.02366864 </v>
   <v>       0.02366864 </v>
   <v>       0.02366864 </v>
   <v>       0.02366864 </v>
   <v>       0.02366864 </v>
   <v>       0.02366864 </v>
   <v>       0.02366864 </v>
   <v>       0.02366864 </v>
   <v>       0.02366864 </v>
   <v>       0.02366864 </v>
   <v>       0.01183432 </v>
   <v>       0.01183432 </v>
   <v>       0.02366864 </v>
   <v>       0.02366864 </v>
   <v>       0.02366864 </v>
   <v>       0.02366864 </v>
   <v>       0.02366864 </v>
   <v>       0.02366864 </v>
   <v>       0.02366864 </v>
   <v>       0.02366864 </v>
   <v>       0.01183432 </v>
   <v>       0.01183432 </v>
   <v>       0.02366864 </v>
   <v>       0.02366864 </v>
   <v>       0.02366864 </v>
   <v>       0.02366864 </v>
   <v>       0.02366864 </v>
   <v>       0.02366864 </v>
   <v>       0.01183432 </v>
   <v>       0.01183432 </v>
   <v>       0.02366864 </v>
   <v>       0.02366864 </v>
   <v>       0.02366864 </v>
   <v>       0.02366864 </v>
   <v>       0.01183432 </v>
   <v>       0.01183432 </v>
   <v>       0.02366864 </v>
   <v>       0.02366864 </v>
   <v>       0.01183432 </v>
   <v>       0.01183432 </v>
   <v>       0.01183432 </v>
  </varray>
 </kpoints>
 <parameters>
  <separator name="general" >
   <i type="string" name="SYSTEM">unknown system</i>
   <i type="logical" name="LCOMPAT"> F  </i>
  </separator>
  <separator name="electronic" >
   <i type="string" name="PREC">accura</i>
   <i name="ENMAX">    500.00000000</i>
   <i name="ENAUG">    392.42700000</i>
   <i name="EDIFF">      0.00010000</i>
   <i type="int" name="IALGO">    68</i>
   <i type="int" name="IWAVPR">    10</i>
   <i type="int" name="NBANDS">    36</i>
   <i name="NELECT">     48.00000000</i>
   <i type="int" name="TURBO">     0</i>
   <i type="int" name="IRESTART">     0</i>
   <i type="int" name="NREBOOT">     0</i>
   <i type="int" name="NMIN">     0</i>
   <i name="EREF">      0.00000000</i>
   <separator name="electronic smearing" >
    <i type="int" name="ISMEAR">     1</i>
    <i name="SIGMA">      0.10000000</i>
    <i name="KSPACING">      0.50000000</i>
    <i type="logical" name="KGAMMA"> T  </i>
   </separator>
   <separator name="electronic projectors" >
    <i type="logical" name="LREAL"> T  </i>
    <v name="ROPT">     -0.00025000     -0.00025000     -0.00025000     -0.00025000</v>
    <i type="int" name="LMAXPAW">  -100</i>
    <i type="int" name="LMAXMIX">     2</i>
    <i type="logical" name="NLSPLINE"> F  </i>
   </separator>
   <separator name="electronic startup" >
    <i type="int" name="ISTART">     0</i>
    <i type="int" name="ICHARG">     2</i>
    <i type="int" name="INIWAV">     1</i>
   </separator>
   <separator name="electronic spin" >
    <i type="int" name="ISPIN">     2</i>
    <i type="logical" name="LNONCOLLINEAR"> F  </i>
    <v name="MAGMOM">      6.00000000      0.50000000      0.50000000      6.00000000      0.50000000      0.50000000</v>
    <i name="NUPDOWN">     -1.00000000</i>
    <i type="logical" name="LSORBIT"> F  </i>
    <v name="SAXIS">      0.00000000      0.00000000      1.00000000</v>
    <i type="logical" name="LSPIRAL"> F  </i>
    <v name="QSPIRAL">      0.00000000      0.00000000      0.00000000</v>
    <i type="logical" name="LZEROZ"> F  </i>
   </separator>
   <separator name="electronic exchange-correlation" >
    <i type="logical" name="LASPH"> F  </i>
    <i type="logical" name="LMETAGGA"> F  </i>
   </separator>
   <separator name="electronic convergence" >
    <i type="int" name="NELM">    60</i>
    <i type="int" name="NELMDL">     0</i>
    <i type="int" name="NELMIN">     2</i>
    <i name="ENINI">    500.00000000</i>
    <separator name="electronic convergence detail" >
     <i type="logical" name="LDIAG"> T  </i>
     <i type="logical" name="LSUBROT"> F  </i>
     <i name="WEIMIN">      0.00000000</i>
     <i name="EBREAK">      0.00000069</i>
     <i name="DEPER">      0.30000000</i>
     <i type="int" name="NRMM">     4</i>
     <i name="TIME">      0.40000000</i>
    </separator>
   </separator>
   <separator name="electronic mixer" >
    <i name="AMIX">      0.40000000</i>
    <i name="BMIX">      1.00000000</i>
    <i name="AMIN">      0.10000000</i>
    <i name="AMIX_MAG">      1.60000000</i>
    <i name="BMIX_MAG">      1.00000000</i>
    <separator name="electronic mixer details" >
     <i type="int" name="IMIX">     4</i>
     <i type="logical" name="MIXFIRST"> F  </i>
     <i type="int" name="MAXMIX">   -45</i>
     <i name="WC">    100.00000000</i>
     <i type="int" name="INIMIX">     1</i>
     <i type="int" name="MIXPRE">     1</i>
     <i type="int" name="MREMOVE">     5</i>
    </separator>
   </separator>
   <separator name="electronic dipolcorrection" >
    <i type="logical" name="LDIPOL"> F  </i>
    <i type="logical" name="LMONO"> F  </i>
    <i type="int" name="IDIPOL">     0</i>
    <i name="EPSILON">      1.00000000</i>
    <v name="DIPOL">   -100.00000000   -100.00000000   -100.00000000</v>
    <i name="EFIELD">      0.00000000</i>
   </separator>
  </separator>
  <separator name="grids" >
   <i type="int" name="NGX">    24</i>
   <i type="int" name="NGY">    24</i>
   <i type="int" name="NGZ">   180</i>
   <i type="int" name="NGXF">    48</i>
   <i type="int" name="NGYF">    48</i>
   <i type="int" name="NGZF">   360</i>
   <i type="logical" name="ADDGRID"> F  </i>
  </separator>
  <separator name="ionic" >
   <i type="int" name="NSW">     0</i>
   <i type="int" name="IBRION">    -1</i>
   <i type="int" name="ISIF">     3</i>
   <i name="PSTRESS">      0.00000000</i>
   <i name="EDIFFG">      0.00100000</i>
   <i type="int" name="NFREE">     1</i>
   <i name="POTIM">      0.50000000</i>
   <i name="SMASS">     -3.00000000</i>
   <i name="SCALEE">      1.00000000</i>
  </separator>
  <separator name="ionic md" >
   <i name="TEBEG">      0.00010000</i>
   <i name="TEEND">      0.00010000</i>
   <i type="int" name="NBLOCK">     1</i>
   <i type="int" name="KBLOCK">     1</i>
   <i type="int" name="NPACO">   256</i>
   <i name="APACO">     16.00000000</i>
  </separator>
  <separator name="symmetry" >
   <i type="int" name="ISYM">     2</i>
   <i name="SYMPREC">      0.00001000</i>
  </separator>
  <separator name="dos" >
   <i type="logical" name="LORBIT"> F  </i>
   <v name="RWIGS">     -1.00000000     -1.00000000     -1.00000000     -1.00000000</v>
   <i type="int" name="NEDOS">   301</i>
   <i name="EMIN">     10.00000000</i>
   <i name="EMAX">    -10.00000000</i>
   <i name="EFERMI">      0.00000000</i>
  </separator>
  <separator name="writing" >
   <i type="int" name="NWRITE">     2</i>
   <i type="logical" name="LWAVE"> F  </i>
   <i type="logical" name="LCHARG"> F  </i>
   <i type="logical" name="LPARD"> F  </i>
   <i type="logical" name="LVTOT"> F  </i>
   <i type="logical" name="LVHAR"> T  </i>
   <i type="logical" name="LELF"> F  </i>
   <i type="logical" name="LOPTICS"> F  </i>
   <v name="STM">      0.00000000      0.00000000      0.00000000      0.00000000      0.00000000      0.00000000      0.00000000</v>
  </separator>
  <separator name="performance" >
   <i type="int" name="NPAR">     4</i>
   <i type="int" name="NSIM">     4</i>
   <i type="int" name="NBLK">    -1</i>
   <i type="logical" name="LPLANE"> T  </i>
   <i type="logical" name="LSCALAPACK"> T  </i>
   <i type="logical" name="LSCAAWARE"> F  </i>
   <i type="logical" name="LSCALU"> F  </i>
   <i type="logical" name="LASYNC"> F  </i>
   <i type="logical" name="LORBITALREAL"> F  </i>
  </separator>
  <separator name="miscellaneous" >
   <i type="int" name="IDIOT">     3</i>
   <i type="logical" name="LMUSIC"> F  </i>
   <v name="POMASS">     95.94000000     32.06600000     95.94000000     32.06600000</v>
   <v name="DARWINR">      0.00000000      0.00000000      0.00000000      0.00000000</v>
   <v name="DARWINV">      1.00000000      1.00000000      1.00000000      1.00000000</v>
   <i type="logical" name="LCORR"> T  </i>
  </separator>
  <i type="logical" name="GGA_COMPAT"> T  </i>
  <i type="logical" name="LBERRY"> F  </i>
  <i type="int" name="ICORELEVEL">     0</i>
  <i type="logical" name="LDAU"> F  </i>
  <i type="int" name="I_CONSTRAINED_M">     0</i>
  <separator name="electronic exchange-correlation" >
   <i type="string" name="GGA">BO</i>
   <i type="int" name="VOSKOWN">     0</i>
   <i type="logical" name="LHFCALC"> F  </i>
   <i type="string" name="PRECFOCK"></i>
   <i type="logical" name="LSYMGRAD"> F  </i>
   <i type="logical" name="LHFONE"> F  </i>
   <i type="logical" name="LRHFCALC"> F  </i>
   <i type="logical" name="LTHOMAS"> F  </i>
   <i type="logical" name="LMODELHF"> F  </i>
   <i name="ENCUT4O">     -1.00000000</i>
   <i type="int" name="EXXOEP">     0</i>
   <i type="int" name="FOURORBIT">     0</i>
   <i name="AEXX">      0.00000000</i>
   <i name="HFALPHA">      0.00000000</i>
   <i name="MCALPHA">      0.00000000</i>
   <i name="ALDAX">      1.00000000</i>
   <i name="AGGAX">      1.00000000</i>
   <i name="ALDAC">      1.00000000</i>
   <i name="AGGAC">      0.00000000</i>
   <i type="int" name="NKREDX">     1</i>
   <i type="int" name="NKREDY">     1</i>
   <i type="int" name="NKREDZ">     1</i>
   <i type="logical" name="SHIFTRED"> F  </i>
   <i type="logical" name="ODDONLY"> F  </i>
   <i type="logical" name="EVENONLY"> F  </i>
   <i type="int" name="LMAXFOCK">     0</i>
   <i type="int" name="NMAXFOCKAE">     0</i>
   <i type="logical" name="LFOCKAEDFT"> F  </i>
   <i name="HFSCREEN">      0.00000000</i>
   <i name="HFSCREENC">      0.00000000</i>
   <i type="int" name="NBANDSGWLOW">     0</i>
  </separator>
  <separator name="vdW DFT" >
   <i type="logical" name="LUSE_VDW"> T  </i>
   <i name="Zab_VDW">     -0.84910000</i>
   <i name="PARAM1">      0.18333333</i>
   <i name="PARAM2">      0.22000000</i>
   <i name="PARAM3">      0.00000000</i>
  </separator>
  <separator name="model GW" >
   <i type="int" name="MODEL_GW">     0</i>
   <i name="MODEL_EPS0">     20.39722663</i>
   <i name="MODEL_ALPHA">      1.00000000</i>
  </separator>
  <separator name="linear response parameters" >
   <i type="logical" name="LEPSILON"> F  </i>
   <i type="logical" name="LRPA"> F  </i>
   <i type="logical" name="LNABLA"> F  </i>
   <i type="logical" name="LVEL"> F  </i>
   <i type="int" name="KINTER">     0</i>
   <i name="CSHIFT">      0.10000000</i>
   <i name="OMEGAMAX">     -1.00000000</i>
   <i name="DEG_THRESHOLD">      0.00200000</i>
  </separator>
  <separator name="orbital magnetization" >
   <i type="logical" name="NUCIND"> F  </i>
   <v name="MAGPOS">      0.00000000      0.00000000      0.00000000</v>
   <i type="logical" name="LNICSALL"> T  </i>
   <i type="logical" name="ORBITALMAG"> F  </i>
   <i type="logical" name="LMAGBLOCH"> F  </i>
   <i type="logical" name="LCHIMAG"> F  </i>
   <i type="logical" name="LGAUGE"> T  </i>
   <i type="int" name="MAGATOM">     0</i>
   <v name="MAGDIPOL">      0.00000000      0.00000000      0.00000000</v>
   <v name="AVECCONST">      0.00000000      0.00000000      0.00000000</v>
  </separator>
  <separator name="response functions" >
   <i type="logical" name="LADDER"> F  </i>
   <i type="logical" name="LFXC"> F  </i>
   <i type="logical" name="LHARTREE"> T  </i>
   <i type="int" name="IBSE">     0</i>
   <v type="int" name="KPOINT">    -1     0     0     0</v>
   <i type="logical" name="LTCTE"> F  </i>
   <i type="logical" name="LTETE"> F  </i>
   <i type="logical" name="LTRIPLET"> F  </i>
   <i type="logical" name="LFXCEPS"> F  </i>
   <i type="logical" name="LFXHEG"> F  </i>
   <i type="int" name="NATURALO">     0</i>
   <i type="logical" name="L2ORDER"> F  </i>
   <i type="logical" name="LUSEW"> F  </i>
   <i name="ENCUTGW">     -2.00000000</i>
   <i name="ENCUTGWSOFT">     -2.00000000</i>
   <i name="ENCUTLF">     -1.00000000</i>
   <i type="int" name="LMAXMP2">    -1</i>
   <i name="SCISSOR">      0.00000000</i>
   <i type="int" name="NOMEGA">     0</i>
   <i type="int" name="NOMEGAR">     0</i>
   <i type="int" name="NBANDSGW">    -1</i>
   <i type="int" name="NBANDSO">    -1</i>
   <i type="int" name="NBANDSV">    -1</i>
   <i type="int" name="NELM">     1</i>
   <i type="int" name="NELMHF">     1</i>
   <i type="int" name="DIM">     3</i>
   <i type="int" name="ANTIRES">     0</i>
   <i name="OMEGAMAX">    -30.00000000</i>
   <i name="OMEGAMIN">    -30.00000000</i>
   <i name="OMEGATL">   -200.00000000</i>
   <i type="int" name="OMEGAGRID">     0</i>
   <i name="CSHIFT">     -0.10000000</i>
   <i type="logical" name="SELFENERGY"> F  </i>
   <i type="logical" name="LSPECTRAL"> F  </i>
   <i type="logical" name="LSPECTRALGW"> F  </i>
   <i type="logical" name="LSINGLES"> F  </i>
   <i type="logical" name="LFERMIGW"> F  </i>
   <i type="logical" name="ODDONLYGW"> F  </i>
   <i type="logical" name="EVENONLYGW"> F  </i>
   <i type="int" name="NKREDLFX">     1</i>
   <i type="int" name="NKREDLFY">     1</i>
   <i type="int" name="NKREDLFZ">     1</i>
   <i type="int" name="MAXMEM">  1800</i>
   <i type="int" name="TELESCOPE">     0</i>
   <i type="int" name="TAUPAR">     1</i>
   <i type="int" name="OMEGAPAR">    -1</i>
   <i name="LAMBDA">      1.00000000</i>
  </separator>
  <separator name="External order field" >
   <i name="OFIELD_KAPPA">      0.00000000</i>
   <v name="OFIELD_K">      0.00000000      0.00000000      0.00000000</v>
   <i name="OFIELD_Q6_NEAR">      0.00000000</i>
   <i name="OFIELD_Q6_FAR">      0.00000000</i>
   <i name="OFIELD_A">      0.00000000</i>
  </separator>
 </parameters>
 <atominfo>
  <atoms>       6 </atoms>
  <types>       4 </types>
  <array name="atoms" >
   <dimension dim="1">ion</dimension>
   <field type="string">element</field>
   <field type="int">atomtype</field>
   <set>
    <rc><c>Mo</c><c>   1</c></rc>
    <rc><c>S </c><c>   2</c></rc>
    <rc><c>S </c><c>   2</c></rc>
    <rc><c>Mo</c><c>   3</c></rc>
    <rc><c>S </c><c>   4</c></rc>
    <rc><c>S </c><c>   4</c></rc>
   </set>
  </array>
  <array name="atomtypes" >
   <dimension dim="1">type</dimension>
   <field type="int">atomspertype</field>
   <field type="string">element</field>
   <field>mass</field>
   <field>valence</field>
   <field type="string">pseudopotential</field>
   <set>
    <rc><c>   1</c><c>Mo</c><c>     95.94000000</c><c>     12.00000000</c><c> PAW_PBE Mo_pv 08Apr2002                </c></rc>
    <rc><c>   2</c><c>S </c><c>     32.06600000</c><c>      6.00000000</c><c>  PAW_PBE S 17Jan2003                   </c></rc>
    <rc><c>   1</c><c>Mo</c><c>     95.94000000</c><c>     12.00000000</c><c> PAW_PBE Mo_pv 08Apr2002                </c></rc>
    <rc><c>   2</c><c>S </c><c>     32.06600000</c><c>      6.00000000</c><c>  PAW_PBE S 17Jan2003                   </c></rc>
   </set>
  </array>
 </atominfo>
 <structure name="initialpos" >
  <crystal>
   <varray name="basis" >
    <v>       3.19031700       0.00000000       0.00000000 </v>
    <v>      -1.59515800       2.76289700       0.00000000 </v>
    <v>       0.00000000       0.00000000      23.14049200 </v>
   </varray>
   <i name="volume">    203.97226633 </i>
   <varray name="rec_basis" >
    <v>       0.31344848       0.18096941       0.00000000 </v>
    <v>       0.00000000       0.36193894       0.00000000 </v>
    <v>       0.00000000       0.00000000       0.04321429 </v>
   </varray>
  </crystal>
  <varray name="positions" >
   <v>       0.66666700       0.33333300       0.06785900 </v>
   <v>       0.33333300       0.66666700       0.00000000 </v>
   <v>       0.33333300       0.66666700       0.13571500 </v>
   <v>       0.95238100       0.04761900       0.30080500 </v>
   <v>       0.61904700       0.38095300       0.23294700 </v>
   <v>       0.61904700       0.38095300       0.36866100 </v>
  </varray>
 </structure>
 <calculation>
  <scstep>
   <time name="dav">   63.80   63.85</time>
   <time name="total">   83.38   83.47</time>
   <energy>
    <i name="alphaZ">    104.15310261 </i>
    <i name="ewald">  11244.74394515 </i>
    <i name="hartreedc"> -14652.55448677 </i>
    <i name="XCdc">    129.01041165 </i>
    <i name="pawpsdc">   2252.92270536 </i>
    <i name="pawaedc">  -2205.68654582 </i>
    <i name="eentropy">     -0.00127694 </i>
    <i name="bandstr">   -160.13229087 </i>
    <i name="atom">   3688.31848598 </i>
    <i name="e_fr_energy">    400.77405035 </i>
    <i name="e_wo_entrp">    400.77532729 </i>
    <i name="e_0_energy">    400.77447599 </i>
   </energy>
  </scstep>
  <scstep>
   <time name="dav">   67.64   67.69</time>
   <time name="total">   67.65   67.70</time>
   <energy>
    <i name="e_fr_energy">     -0.50598644 </i>
    <i name="e_wo_entrp">     -0.50638197 </i>
    <i name="e_0_energy">     -0.50611828 </i>
   </energy>
  </scstep>
  <scstep>
   <time name="dav">   69.67   69.73</time>
   <time name="total">   69.68   69.74</time>
   <energy>
    <i name="e_fr_energy">    -32.50893207 </i>
    <i name="e_wo_entrp">    -32.50916441 </i>
    <i name="e_0_energy">    -32.50900952 </i>
   </energy>
  </scstep>
  <scstep>
   <time name="dav">   67.41   67.93</time>
   <time name="total">   67.42   67.97</time>
   <energy>
    <i name="e_fr_energy">    -33.43748723 </i>
    <i name="e_wo_entrp">    -33.43717314 </i>
    <i name="e_0_energy">    -33.43738253 </i>
   </energy>
  </scstep>
  <scstep>
   <time name="dav">   69.39   69.44</time>
   <time name="total">   74.72   74.78</time>
   <energy>
    <i name="e_fr_energy">    -33.46590874 </i>
    <i name="e_wo_entrp">    -33.46556651 </i>
    <i name="e_0_energy">    -33.46579466 </i>
   </energy>
  </scstep>
  <scstep>
   <time name="diag">   12.80   12.81</time>
   <time name="diis">   46.23   46.27</time>
   <time name="orth">    0.41    0.41</time>
   <time name="total">   83.74   83.80</time>
   <energy>
    <i name="e_fr_energy">    -29.61438055 </i>
    <i name="e_wo_entrp">    -29.61506992 </i>
    <i name="e_0_energy">    -29.61461034 </i>
   </energy>
  </scstep>
  <scstep>
   <time name="diag">   12.72   12.73</time>
   <time name="diis">   46.41   46.45</time>
   <time name="orth">    0.42    0.42</time>
   <time name="total">   84.00   84.07</time>
   <energy>
    <i name="e_fr_energy">    -32.51799847 </i>
    <i name="e_wo_entrp">    -32.51776975 </i>
    <i name="e_0_energy">    -32.51792223 </i>
   </energy>
  </scstep>
  <scstep>
   <time name="diag">   12.83   12.84</time>
   <time name="diis">   49.18   49.22</time>
   <time name="orth">    0.42    0.42</time>
   <time name="total">   86.95   87.02</time>
   <energy>
    <i name="e_fr_energy">    -34.20760298 </i>
    <i name="e_wo_entrp">    -34.20741563 </i>
    <i name="e_0_energy">    -34.20754053 </i>
   </energy>
  </scstep>
  <scstep>
   <time name="diag">   12.82   12.83</time>
   <time name="diis">   48.55   48.59</time>
   <time name="orth">    0.41    0.42</time>
   <time name="total">   86.12   86.19</time>
   <energy>
    <i name="e_fr_energy">    -37.05256596 </i>
    <i name="e_wo_entrp">    -37.05310963 </i>
    <i name="e_0_energy">    -37.05274718 </i>
   </energy>
  </scstep>
  <scstep>
   <time name="diag">   12.76   12.77</time>
   <time name="diis">   41.89   41.92</time>
   <time name="orth">    0.41    0.41</time>
   <time name="total">   79.47   79.53</time>
   <energy>
    <i name="e_fr_energy">    -38.75958010 </i>
    <i name="e_wo_entrp">    -38.76046756 </i>
    <i name="e_0_energy">    -38.75987592 </i>
   </energy>
  </scstep>
  <scstep>
   <time name="diag">   12.78   12.79</time>
   <time name="diis">   48.51   48.54</time>
   <time name="orth">    0.42    0.42</time>
   <time name="total">   86.02   86.09</time>
   <energy>
    <i name="e_fr_energy">    -39.06580752 </i>
    <i name="e_wo_entrp">    -39.06665651 </i>
    <i name="e_0_energy">    -39.06609052 </i>
   </energy>
  </scstep>
  <scstep>
   <time name="diag">   12.79   12.80</time>
   <time name="diis">   46.63   46.67</time>
   <time name="orth">    0.42    0.42</time>
   <time name="total">   84.29   84.36</time>
   <energy>
    <i name="e_fr_energy">    -39.08297893 </i>
    <i name="e_wo_entrp">    -39.08463755 </i>
    <i name="e_0_energy">    -39.08353180 </i>
   </energy>
  </scstep>
  <scstep>
   <time name="diag">   12.90   12.91</time>
   <time name="diis">   45.57   45.60</time>
   <time name="orth">    0.42    0.43</time>
   <time name="total">   83.65   83.72</time>
   <energy>
    <i name="e_fr_energy">    -39.08272907 </i>
    <i name="e_wo_entrp">    -39.08428331 </i>
    <i name="e_0_energy">    -39.08324715 </i>
   </energy>
  </scstep>
  <scstep>
   <time name="diag">   12.83   12.84</time>
   <time name="diis">   46.29   46.33</time>
   <time name="orth">    0.42    0.42</time>
   <time name="total">   84.06   84.12</time>
   <energy>
    <i name="e_fr_energy">    -39.08544045 </i>
    <i name="e_wo_entrp">    -39.08706365 </i>
    <i name="e_0_energy">    -39.08598152 </i>
   </energy>
  </scstep>
  <scstep>
   <time name="diag">   12.91   12.92</time>
   <time name="diis">   37.10   37.13</time>
   <time name="orth">    0.42    0.42</time>
   <time name="total">   75.03   75.09</time>
   <energy>
    <i name="e_fr_energy">    -39.08499688 </i>
    <i name="e_wo_entrp">    -39.08661240 </i>
    <i name="e_0_energy">    -39.08553538 </i>
   </energy>
  </scstep>
  <scstep>
   <time name="diag">   12.72   12.73</time>
   <time name="diis">   32.89   32.91</time>
   <time name="orth">    0.42    0.42</time>
   <time name="total">   70.62   70.68</time>
   <energy>
    <i name="e_fr_energy">    -39.08556143 </i>
    <i name="e_wo_entrp">    -39.08717140 </i>
    <i name="e_0_energy">    -39.08609808 </i>
   </energy>
  </scstep>
  <scstep>
   <time name="diag">   12.68   12.68</time>
   <time name="diis">   31.79   31.82</time>
   <time name="orth">    0.41    0.41</time>
   <time name="total">   69.62   69.68</time>
   <energy>
    <i name="e_fr_energy">    -39.08581020 </i>
    <i name="e_wo_entrp">    -39.08741798 </i>
    <i name="e_0_energy">    -39.08634613 </i>
   </energy>
  </scstep>
  <scstep>
   <time name="diag">   12.86   12.87</time>
   <time name="diis">   30.69   30.71</time>
   <time name="orth">    0.42    0.42</time>
   <time name="total">   68.67   68.72</time>
   <energy>
    <i name="e_fr_energy">    -39.08617400 </i>
    <i name="e_wo_entrp">    -39.08778228 </i>
    <i name="e_0_energy">    -39.08671009 </i>
   </energy>
  </scstep>
  <scstep>
   <time name="diag">   12.73   12.74</time>
   <time name="diis">   30.45   30.47</time>
   <time name="orth">    0.41    0.42</time>
   <time name="total">   68.25   68.31</time>
   <energy>
    <i name="e_fr_energy">    -39.08646954 </i>
    <i name="e_wo_entrp">    -39.08807879 </i>
    <i name="e_0_energy">    -39.08700596 </i>
   </energy>
  </scstep>
  <scstep>
   <time name="diag">   12.71   12.72</time>
   <time name="diis">   30.73   30.75</time>
   <time name="orth">    0.42    0.42</time>
   <time name="total">   68.49   68.55</time>
   <energy>
    <i name="e_fr_energy">    -39.08671085 </i>
    <i name="e_wo_entrp">    -39.08832017 </i>
    <i name="e_0_energy">    -39.08724729 </i>
   </energy>
  </scstep>
  <scstep>
   <time name="diag">   12.71   12.72</time>
   <time name="diis">   30.75   30.78</time>
   <time name="orth">    0.42    0.42</time>
   <time name="total">   62.54   62.59</time>
   <energy>
    <i name="alphaZ">    104.15310261 </i>
    <i name="ewald">  11244.74394515 </i>
    <i name="hartreedc"> -14636.45801510 </i>
    <i name="XCdc">    123.15647096 </i>
    <i name="pawpsdc">   2403.26445991 </i>
    <i name="pawaedc">  -2365.36449293 </i>
    <i name="eentropy">      0.00160902 </i>
    <i name="bandstr">   -600.90237444 </i>
    <i name="atom">   3688.31848598 </i>
    <i name="e_fr_energy">    -39.08680885 </i>
    <i name="e_wo_entrp">    -39.08841786 </i>
    <i name="e_0_energy">    -39.08734519 </i>
   </energy>
  </scstep>
  <structure>
   <crystal>
    <varray name="basis" >
     <v>       3.19031700       0.00000000       0.00000000 </v>
     <v>      -1.59515800       2.76289700       0.00000000 </v>
     <v>       0.00000000       0.00000000      23.14049200 </v>
    </varray>
    <i name="volume">    203.97226633 </i>
    <varray name="rec_basis" >
     <v>       0.31344848       0.18096941       0.00000000 </v>
     <v>       0.00000000       0.36193894       0.00000000 </v>
     <v>       0.00000000       0.00000000       0.04321429 </v>
    </varray>
   </crystal>
   <varray name="positions" >
    <v>       0.66666700       0.33333300       0.06785900 </v>
    <v>       0.33333300       0.66666700       0.00000000 </v>
    <v>       0.33333300       0.66666700       0.13571500 </v>
    <v>       0.95238100       0.04761900       0.30080500 </v>
    <v>       0.61904700       0.38095300       0.23294700 </v>
    <v>       0.61904700       0.38095300       0.36866100 </v>
   </varray>
  </structure>
  <varray name="forces" >
   <v>      -0.05491117       0.03170300      -0.30263661 </v>
   <v>       0.01592512      -0.00919438      -0.01646580 </v>
   <v>      -0.23792902       0.13736847      -0.92199662 </v>
   <v>       0.02279163      -0.01315876       0.11796894 </v>
   <v>       0.24339320      -0.14052322       1.03844558 </v>
   <v>       0.01073024      -0.00619511       0.08468452 </v>
  </varray>
  <varray name="stress" >
   <v>      12.66198590      -2.15885433       5.74716139 </v>
   <v>      -2.15885433      10.16916614      -3.31812724 </v>
   <v>       5.74716154      -3.31812733      28.74696979 </v>
  </varray>
  <energy>
   <i name="e_fr_energy">    -39.08680885 </i>
   <i name="e_wo_entrp">    -39.08734519 </i>
   <i name="e_0_energy">      0.00160902 </i>
  </energy>
  <time name="totalsc"> 1732.33 1734.29</time>
  <eigenvalues>
   <array>
    <dimension dim="1">band</dimension>
    <dimension dim="2">kpoint</dimension>
    <dimension dim="3">spin</dimension>
    <field>eigene</field>
    <field>occ</field>
    <set>
     <set comment="spin 1">
      <set comment="kpoint 1">
       <r>  -35.0158    1.0000 </r>
       <r>  -34.8901    1.0000 </r>
       <r>  -34.8383    1.0000 </r>
       <r>  -34.8350    1.0000 </r>
       <r>  -34.6976    1.0000 </r>
       <r>  -34.6949    1.0000 </r>
       <r>  -14.5722    1.0000 </r>
       <r>  -13.7786    1.0000 </r>
       <r>  -13.0641    1.0000 </r>
       <r>  -12.3027    1.0000 </r>
       <r>   -6.3009    1.0000 </r>
       <r>   -4.9852    1.0000 </r>
       <r>   -2.7374    1.0000 </r>
       <r>   -2.7115    1.0000 </r>
       <r>   -2.5827    1.0000 </r>
       <r>   -2.5680    1.0000 </r>
       <r>   -2.5348    1.0000 </r>
       <r>   -1.6635    1.0000 </r>
       <r>   -1.6291    1.0000 </r>
       <r>   -1.4850    1.0000 </r>
       <r>   -1.4635    1.0000 </r>
       <r>   -0.9014    1.0000 </r>
       <r>   -0.2160    1.0000 </r>
       <r>    1.2003    1.0000 </r>
       <r>    2.2002   -0.0000 </r>
       <r>    2.4505   -0.0000 </r>
       <r>    2.6290   -0.0000 </r>
       <r>    2.6981   -0.0000 </r>
       <r>    2.8585   -0.0000 </r>
       <r>    2.8755   -0.0000 </r>
       <r>    2.9180   -0.0000 </r>
       <r>    3.0950   -0.0000 </r>
       <r>    5.3592    0.0000 </r>
       <r>    5.4873    0.0000 </r>
       <r>    6.4377    0.0000 </r>
       <r>    6.5741    0.0000 </r>
      </set>
      <set comment="kpoint 2">
       <r>  -35.0116    1.0000 </r>
       <r>  -34.8860    1.0000 </r>
       <r>  -34.8573    1.0000 </r>
       <r>  -34.8422    1.0000 </r>
       <r>  -34.7183    1.0000 </r>
       <r>  -34.7004    1.0000 </r>
       <r>  -14.4875    1.0000 </r>
       <r>  -13.6937    1.0000 </r>
       <r>  -13.0150    1.0000 </r>
       <r>  -12.2750    1.0000 </r>
       <r>   -6.2115    1.0000 </r>
       <r>   -4.8957    1.0000 </r>
       <r>   -2.9182    1.0000 </r>
       <r>   -2.7869    1.0000 </r>
       <r>   -2.7576    1.0000 </r>
       <r>   -2.6350    1.0000 </r>
       <r>   -2.4762    1.0000 </r>
       <r>   -1.8868    1.0000 </r>
       <r>   -1.7919    1.0000 </r>
       <r>   -1.6061    1.0000 </r>
       <r>   -1.4152    1.0000 </r>
       <r>   -0.7657    1.0000 </r>
       <r>   -0.2386    1.0000 </r>
       <r>    0.8113    1.0000 </r>
       <r>    2.2523   -0.0000 </r>
       <r>    2.4821   -0.0000 </r>
       <r>    2.5823   -0.0000 </r>
       <r>    2.6884   -0.0000 </r>
       <r>    2.7672   -0.0000 </r>
       <r>    2.8291   -0.0000 </r>
       <r>    2.9027   -0.0000 </r>
       <r>    3.0722   -0.0000 </r>
       <r>    5.4969    0.0000 </r>
       <r>    5.6195    0.0000 </r>
       <r>    6.7731    0.0000 </r>
       <r>    6.9223    0.0000 </r>
      </set>
      <set comment="kpoint 3">
       <r>  -35.0002    1.0000 </r>
       <r>  -34.9159    1.0000 </r>
       <r>  -34.8747    1.0000 </r>
       <r>  -34.8557    1.0000 </r>
       <r>  -34.7769    1.0000 </r>
       <r>  -34.7138    1.0000 </r>
       <r>  -14.2430    1.0000 </r>
       <r>  -13.4520    1.0000 </r>
       <r>  -12.8733    1.0000 </r>
       <r>  -12.1973    1.0000 </r>
       <r>   -5.9798    1.0000 </r>
       <r>   -4.6765    1.0000 </r>
       <r>   -3.4185    1.0000 </r>
       <r>   -3.2535    1.0000 </r>
       <r>   -3.1680    1.0000 </r>
       <r>   -2.4475    1.0000 </r>
       <r>   -2.4128    1.0000 </r>
       <r>   -2.2397    1.0000 </r>
       <r>   -2.0912    1.0000 </r>
       <r>   -1.9317    1.0000 </r>
       <r>   -1.3992    1.0000 </r>
       <r>   -0.7217    1.0000 </r>
       <r>   -0.3779    1.0000 </r>
       <r>    0.1287    1.0000 </r>
       <r>    2.1407   -0.0000 </r>
       <r>    2.2029   -0.0000 </r>
       <r>    2.3731   -0.0000 </r>
       <r>    2.5502   -0.0000 </r>
       <r>    2.7165   -0.0000 </r>
       <r>    3.0292   -0.0000 </r>
       <r>    3.0818   -0.0000 </r>
       <r>    3.3696   -0.0000 </r>
       <r>    5.8430    0.0000 </r>
       <r>    5.9651    0.0000 </r>
       <r>    7.3030    0.0000 </r>
       <r>    7.7761    0.0000 </r>
      </set>
      <set comment="kpoint 4">
       <r>  -34.9976    1.0000 </r>
       <r>  -34.9839    1.0000 </r>
       <r>  -34.8746    1.0000 </r>
       <r>  -34.8629    1.0000 </r>
       <r>  -34.8543    1.0000 </r>
       <r>  -34.7326    1.0000 </r>
       <r>  -13.8688    1.0000 </r>
       <r>  -13.0917    1.0000 </r>
       <r>  -12.6573    1.0000 </r>
       <r>  -12.0854    1.0000 </r>
       <r>   -5.7342    1.0000 </r>
       <r>   -4.5756    1.0000 </r>
       <r>   -3.9972    1.0000 </r>
       <r>   -3.7655    1.0000 </r>
       <r>   -3.5335    1.0000 </r>
       <r>   -3.0038    1.0000 </r>
       <r>   -2.6051    1.0000 </r>
       <r>   -2.3322    1.0000 </r>
       <r>   -2.0195    1.0000 </r>
       <r>   -1.8371    1.0000 </r>
       <r>   -1.6327    1.0000 </r>
       <r>   -0.9127    1.0000 </r>
       <r>   -0.7371    1.0000 </r>
       <r>   -0.4109    1.0000 </r>
       <r>    1.9430   -0.0000 </r>
       <r>    1.9745   -0.0000 </r>
       <r>    2.3803   -0.0000 </r>
       <r>    2.4803   -0.0000 </r>
       <r>    2.7272   -0.0000 </r>
       <r>    3.3430   -0.0000 </r>
       <r>    3.4275   -0.0000 </r>
       <r>    3.7871   -0.0000 </r>
       <r>    6.3515    0.0000 </r>
       <r>    6.4742    0.0000 </r>
       <r>    7.8346    0.0000 </r>
       <r>    8.1295    0.0000 </r>
      </set>
      <set comment="kpoint 5">
       <r>  -35.0832    1.0000 </r>
       <r>  -34.9667    1.0000 </r>
       <r>  -34.9445    1.0000 </r>
       <r>  -34.8946    1.0000 </r>
       <r>  -34.8412    1.0000 </r>
       <r>  -34.7524    1.0000 </r>
       <r>  -13.4184    1.0000 </r>
       <r>  -12.6799    1.0000 </r>
       <r>  -12.3997    1.0000 </r>
       <r>  -11.9674    1.0000 </r>
       <r>   -5.6858    1.0000 </r>
       <r>   -4.9911    1.0000 </r>
       <r>   -4.4758    1.0000 </r>
       <r>   -4.1232    1.0000 </r>
       <r>   -3.7792    1.0000 </r>
       <r>   -3.3867    1.0000 </r>
       <r>   -2.9518    1.0000 </r>
       <r>   -2.6796    1.0000 </r>
       <r>   -1.9556    1.0000 </r>
       <r>   -1.6822    1.0000 </r>
       <r>   -1.4365    1.0000 </r>
       <r>   -1.1522    1.0000 </r>
       <r>   -1.0435    1.0000 </r>
       <r>   -0.7054    1.0000 </r>
       <r>    1.8801   -0.0001 </r>
       <r>    2.0120   -0.0000 </r>
       <r>    2.2776   -0.0000 </r>
       <r>    2.5347   -0.0000 </r>
       <r>    3.1204   -0.0000 </r>
       <r>    3.5799   -0.0000 </r>
       <r>    3.7643   -0.0000 </r>
       <r>    4.1393   -0.0000 </r>
       <r>    6.9488    0.0000 </r>
       <r>    7.0403    0.0000 </r>
       <r>    7.5215    0.0000 </r>
       <r>    8.0148    0.0000 </r>
      </set>
      <set comment="kpoint 6">
       <r>  -35.1532    1.0000 </r>
       <r>  -35.0144    1.0000 </r>
       <r>  -34.9523    1.0000 </r>
       <r>  -34.9111    1.0000 </r>
       <r>  -34.8272    1.0000 </r>
       <r>  -34.7686    1.0000 </r>
       <r>  -12.9777    1.0000 </r>
       <r>  -12.3141    1.0000 </r>
       <r>  -12.1526    1.0000 </r>
       <r>  -11.8785    1.0000 </r>
       <r>   -5.8950    1.0000 </r>
       <r>   -5.4974    1.0000 </r>
       <r>   -4.8764    1.0000 </r>
       <r>   -4.4498    1.0000 </r>
       <r>   -4.0505    1.0000 </r>
       <r>   -3.5372    1.0000 </r>
       <r>   -3.2130    1.0000 </r>
       <r>   -2.9366    1.0000 </r>
       <r>   -2.1714    1.0000 </r>
       <r>   -1.4556    1.0000 </r>
       <r>   -1.3418    1.0000 </r>
       <r>   -1.0933    1.0000 </r>
       <r>   -0.9764    1.0000 </r>
       <r>   -0.6657    1.0000 </r>
       <r>    1.9405   -0.0000 </r>
       <r>    2.1950   -0.0000 </r>
       <r>    2.2571   -0.0000 </r>
       <r>    2.6758   -0.0000 </r>
       <r>    3.4866   -0.0000 </r>
       <r>    3.7108   -0.0000 </r>
       <r>    4.0422   -0.0000 </r>
       <r>    4.3586    0.0000 </r>
       <r>    6.6737    0.0000 </r>
       <r>    7.0439    0.0000 </r>
       <r>    7.5408    0.0000 </r>
       <r>    8.1241    0.0000 </r>
      </set>
      <set comment="kpoint 7">
       <r>  -35.1923    1.0000 </r>
       <r>  -35.0536    1.0000 </r>
       <r>  -34.9442    1.0000 </r>
       <r>  -34.9203    1.0000 </r>
       <r>  -34.8196    1.0000 </r>
       <r>  -34.7774    1.0000 </r>
       <r>  -12.6801    1.0000 </r>
       <r>  -12.1023    1.0000 </r>
       <r>  -11.9961    1.0000 </r>
       <r>  -11.8375    1.0000 </r>
       <r>   -6.1352    1.0000 </r>
       <r>   -5.7701    1.0000 </r>
       <r>   -5.1099    1.0000 </r>
       <r>   -4.6704    1.0000 </r>
       <r>   -4.2191    1.0000 </r>
       <r>   -3.6639    1.0000 </r>
       <r>   -3.3510    1.0000 </r>
       <r>   -3.0719    1.0000 </r>
       <r>   -2.2861    1.0000 </r>
       <r>   -1.4316    1.0000 </r>
       <r>   -1.3319    1.0000 </r>
       <r>   -0.9157    1.0000 </r>
       <r>   -0.7482    1.0000 </r>
       <r>   -0.4957    1.0000 </r>
       <r>    2.0346   -0.0000 </r>
       <r>    2.2131   -0.0000 </r>
       <r>    2.4853   -0.0000 </r>
       <r>    2.7778   -0.0000 </r>
       <r>    3.6694   -0.0000 </r>
       <r>    3.7541   -0.0000 </r>
       <r>    4.1804   -0.0000 </r>
       <r>    4.4491    0.0000 </r>
       <r>    6.1479    0.0000 </r>
       <r>    6.6480    0.0000 </r>
       <r>    7.4066    0.0000 </r>
       <r>    8.2619    0.0000 </r>
      </set>
      <set comment="kpoint 8">
       <r>  -35.0038    1.0000 </r>
       <r>  -34.8954    1.0000 </r>
       <r>  -34.8782    1.0000 </r>
       <r>  -34.8532    1.0000 </r>
       <r>  -34.7580    1.0000 </r>
       <r>  -34.7098    1.0000 </r>
       <r>  -14.3244    1.0000 </r>
       <r>  -13.5300    1.0000 </r>
       <r>  -12.9200    1.0000 </r>
       <r>  -12.2209    1.0000 </r>
       <r>   -6.0496    1.0000 </r>
       <r>   -4.7366    1.0000 </r>
       <r>   -3.2346    1.0000 </r>
       <r>   -3.1127    1.0000 </r>
       <r>   -3.0565    1.0000 </r>
       <r>   -2.5034    1.0000 </r>
       <r>   -2.3310    1.0000 </r>
       <r>   -2.2098    1.0000 </r>
       <r>   -2.0894    1.0000 </r>
       <r>   -1.9198    1.0000 </r>
       <r>   -1.2967    1.0000 </r>
       <r>   -0.6753    1.0000 </r>
       <r>   -0.3190    1.0000 </r>
       <r>    0.3401    1.0000 </r>
       <r>    2.0359   -0.0000 </r>
       <r>    2.3628   -0.0000 </r>
       <r>    2.4292   -0.0000 </r>
       <r>    2.5609   -0.0000 </r>
       <r>    2.7340   -0.0000 </r>
       <r>    2.9362   -0.0000 </r>
       <r>    3.0158   -0.0000 </r>
       <r>    3.3012   -0.0000 </r>
       <r>    5.7387    0.0000 </r>
       <r>    5.8613    0.0000 </r>
       <r>    7.1867    0.0000 </r>
       <r>    7.5555    0.0000 </r>
      </set>
      <set comment="kpoint 9">
       <r>  -34.9900    1.0000 </r>
       <r>  -34.9633    1.0000 </r>
       <r>  -34.8716    1.0000 </r>
       <r>  -34.8646    1.0000 </r>
       <r>  -34.8256    1.0000 </r>
       <r>  -34.7284    1.0000 </r>
       <r>  -14.0162    1.0000 </r>
       <r>  -13.2280    1.0000 </r>
       <r>  -12.7408    1.0000 </r>
       <r>  -12.1240    1.0000 </r>
       <r>   -5.8008    1.0000 </r>
       <r>   -4.5377    1.0000 </r>
       <r>   -3.7319    1.0000 </r>
       <r>   -3.5926    1.0000 </r>
       <r>   -3.4106    1.0000 </r>
       <r>   -2.7785    1.0000 </r>
       <r>   -2.5981    1.0000 </r>
       <r>   -2.3802    1.0000 </r>
       <r>   -2.1891    1.0000 </r>
       <r>   -2.0144    1.0000 </r>
       <r>   -1.2991    1.0000 </r>
       <r>   -0.7419    1.0000 </r>
       <r>   -0.5591    1.0000 </r>
       <r>   -0.2732    1.0000 </r>
       <r>    1.8181   -0.0016 </r>
       <r>    2.1737   -0.0000 </r>
       <r>    2.2789   -0.0000 </r>
       <r>    2.4834   -0.0000 </r>
       <r>    2.5702   -0.0000 </r>
       <r>    3.1332   -0.0000 </r>
       <r>    3.4614   -0.0000 </r>
       <r>    3.6992   -0.0000 </r>
       <r>    6.1653    0.0000 </r>
       <r>    6.2878    0.0000 </r>
       <r>    7.6508    0.0000 </r>
       <r>    8.4118    0.0000 </r>
      </set>
      <set comment="kpoint 10">
       <r>  -35.0441    1.0000 </r>
       <r>  -34.9732    1.0000 </r>
       <r>  -34.9063    1.0000 </r>
       <r>  -34.8939    1.0000 </r>
       <r>  -34.8478    1.0000 </r>
       <r>  -34.7508    1.0000 </r>
       <r>  -13.6037    1.0000 </r>
       <r>  -12.8396    1.0000 </r>
       <r>  -12.5017    1.0000 </r>
       <r>  -12.0056    1.0000 </r>
       <r>   -5.6389    1.0000 </r>
       <r>   -4.6957    1.0000 </r>
       <r>   -4.2232    1.0000 </r>
       <r>   -3.9757    1.0000 </r>
       <r>   -3.6592    1.0000 </r>
       <r>   -3.3504    1.0000 </r>
       <r>   -2.9635    1.0000 </r>
       <r>   -2.7036    1.0000 </r>
       <r>   -1.9793    1.0000 </r>
       <r>   -1.7842    1.0000 </r>
       <r>   -1.4942    1.0000 </r>
       <r>   -0.9780    1.0000 </r>
       <r>   -0.8697    1.0000 </r>
       <r>   -0.6586    1.0000 </r>
       <r>    1.7328   -0.0244 </r>
       <r>    2.0479   -0.0000 </r>
       <r>    2.3332   -0.0000 </r>
       <r>    2.4406   -0.0000 </r>
       <r>    2.7633   -0.0000 </r>
       <r>    3.3611   -0.0000 </r>
       <r>    3.8595   -0.0000 </r>
       <r>    4.0698   -0.0000 </r>
       <r>    6.7440    0.0000 </r>
       <r>    6.8604    0.0000 </r>
       <r>    7.9780    0.0000 </r>
       <r>    8.2895    0.0000 </r>
      </set>
      <set comment="kpoint 11">
       <r>  -35.1192    1.0000 </r>
       <r>  -34.9810    1.0000 </r>
       <r>  -34.9574    1.0000 </r>
       <r>  -34.9148    1.0000 </r>
       <r>  -34.8324    1.0000 </r>
       <r>  -34.7716    1.0000 </r>
       <r>  -13.1536    1.0000 </r>
       <r>  -12.4465    1.0000 </r>
       <r>  -12.2435    1.0000 </r>
       <r>  -11.8987    1.0000 </r>
       <r>   -5.7270    1.0000 </r>
       <r>   -5.1966    1.0000 </r>
       <r>   -4.6782    1.0000 </r>
       <r>   -4.3312    1.0000 </r>
       <r>   -3.9304    1.0000 </r>
       <r>   -3.5476    1.0000 </r>
       <r>   -3.1869    1.0000 </r>
       <r>   -2.9336    1.0000 </r>
       <r>   -1.9920    1.0000 </r>
       <r>   -1.7895    1.0000 </r>
       <r>   -1.5205    1.0000 </r>
       <r>   -1.1762    1.0000 </r>
       <r>   -0.8787    1.0000 </r>
       <r>   -0.7123    1.0000 </r>
       <r>    1.8462   -0.0004 </r>
       <r>    2.0960   -0.0000 </r>
       <r>    2.3518   -0.0000 </r>
       <r>    2.5789   -0.0000 </r>
       <r>    3.1158   -0.0000 </r>
       <r>    3.5734   -0.0000 </r>
       <r>    4.1321   -0.0000 </r>
       <r>    4.3036   -0.0000 </r>
       <r>    7.1423    0.0000 </r>
       <r>    7.3473    0.0000 </r>
       <r>    7.4577    0.0000 </r>
       <r>    7.9509    0.0000 </r>
      </set>
      <set comment="kpoint 12">
       <r>  -35.1719    1.0000 </r>
       <r>  -35.0334    1.0000 </r>
       <r>  -34.9462    1.0000 </r>
       <r>  -34.9295    1.0000 </r>
       <r>  -34.8219    1.0000 </r>
       <r>  -34.7860    1.0000 </r>
       <r>  -12.7700    1.0000 </r>
       <r>  -12.1556    1.0000 </r>
       <r>  -12.0310    1.0000 </r>
       <r>  -11.8364    1.0000 </r>
       <r>   -5.9691    1.0000 </r>
       <r>   -5.5904    1.0000 </r>
       <r>   -5.0159    1.0000 </r>
       <r>   -4.6523    1.0000 </r>
       <r>   -4.1763    1.0000 </r>
       <r>   -3.6375    1.0000 </r>
       <r>   -3.3033    1.0000 </r>
       <r>   -3.0853    1.0000 </r>
       <r>   -2.1844    1.0000 </r>
       <r>   -1.7724    1.0000 </r>
       <r>   -1.4606    1.0000 </r>
       <r>   -1.2255    1.0000 </r>
       <r>   -0.6892    1.0000 </r>
       <r>   -0.4900    1.0000 </r>
       <r>    2.0453   -0.0000 </r>
       <r>    2.1704   -0.0000 </r>
       <r>    2.4593   -0.0000 </r>
       <r>    2.7397   -0.0000 </r>
       <r>    3.3881   -0.0000 </r>
       <r>    3.7599   -0.0000 </r>
       <r>    4.2133   -0.0000 </r>
       <r>    4.3957    0.0000 </r>
       <r>    6.4762    0.0000 </r>
       <r>    6.9803    0.0000 </r>
       <r>    7.8173    0.0000 </r>
       <r>    8.3026    0.0000 </r>
      </set>
      <set comment="kpoint 13">
       <r>  -35.1909    1.0000 </r>
       <r>  -35.0522    1.0000 </r>
       <r>  -34.9422    1.0000 </r>
       <r>  -34.9346    1.0000 </r>
       <r>  -34.8184    1.0000 </r>
       <r>  -34.7909    1.0000 </r>
       <r>  -12.6016    1.0000 </r>
       <r>  -12.0510    1.0000 </r>
       <r>  -11.9543    1.0000 </r>
       <r>  -11.8197    1.0000 </r>
       <r>   -6.1006    1.0000 </r>
       <r>   -5.7292    1.0000 </r>
       <r>   -5.1382    1.0000 </r>
       <r>   -4.7767    1.0000 </r>
       <r>   -4.2690    1.0000 </r>
       <r>   -3.6998    1.0000 </r>
       <r>   -3.3328    1.0000 </r>
       <r>   -3.1345    1.0000 </r>
       <r>   -2.2592    1.0000 </r>
       <r>   -1.7547    1.0000 </r>
       <r>   -1.4694    1.0000 </r>
       <r>   -1.1991    1.0000 </r>
       <r>   -0.5928    1.0000 </r>
       <r>   -0.3357    1.0000 </r>
       <r>    2.0944   -0.0000 </r>
       <r>    2.2032   -0.0000 </r>
       <r>    2.5779   -0.0000 </r>
       <r>    2.8238   -0.0000 </r>
       <r>    3.5041   -0.0000 </r>
       <r>    3.8656   -0.0000 </r>
       <r>    4.1622   -0.0000 </r>
       <r>    4.3814    0.0000 </r>
       <r>    6.1823    0.0000 </r>
       <r>    6.7468    0.0000 </r>
       <r>    7.6801    0.0000 </r>
       <r>    8.6085    0.0000 </r>
      </set>
      <set comment="kpoint 14">
       <r>  -35.1722    1.0000 </r>
       <r>  -35.0332    1.0000 </r>
       <r>  -34.9462    1.0000 </r>
       <r>  -34.9292    1.0000 </r>
       <r>  -34.8217    1.0000 </r>
       <r>  -34.7864    1.0000 </r>
       <r>  -12.7553    1.0000 </r>
       <r>  -12.1573    1.0000 </r>
       <r>  -12.0341    1.0000 </r>
       <r>  -11.8460    1.0000 </r>
       <r>   -5.9736    1.0000 </r>
       <r>   -5.6061    1.0000 </r>
       <r>   -5.0083    1.0000 </r>
       <r>   -4.6505    1.0000 </r>
       <r>   -4.1796    1.0000 </r>
       <r>   -3.6404    1.0000 </r>
       <r>   -3.2919    1.0000 </r>
       <r>   -3.0779    1.0000 </r>
       <r>   -2.1508    1.0000 </r>
       <r>   -1.7764    1.0000 </r>
       <r>   -1.4049    1.0000 </r>
       <r>   -1.3222    1.0000 </r>
       <r>   -0.7238    1.0000 </r>
       <r>   -0.4662    1.0000 </r>
       <r>    2.0331   -0.0000 </r>
       <r>    2.2087   -0.0000 </r>
       <r>    2.4599   -0.0000 </r>
       <r>    2.7287   -0.0000 </r>
       <r>    3.4779   -0.0000 </r>
       <r>    3.7214   -0.0000 </r>
       <r>    4.1777   -0.0000 </r>
       <r>    4.3495    0.0000 </r>
       <r>    6.5163    0.0000 </r>
       <r>    6.9561    0.0000 </r>
       <r>    7.9024    0.0000 </r>
       <r>    8.2886    0.0000 </r>
      </set>
      <set comment="kpoint 15">
       <r>  -35.1199    1.0000 </r>
       <r>  -34.9807    1.0000 </r>
       <r>  -34.9574    1.0000 </r>
       <r>  -34.9141    1.0000 </r>
       <r>  -34.8321    1.0000 </r>
       <r>  -34.7723    1.0000 </r>
       <r>  -13.1371    1.0000 </r>
       <r>  -12.4495    1.0000 </r>
       <r>  -12.2435    1.0000 </r>
       <r>  -11.9115    1.0000 </r>
       <r>   -5.7345    1.0000 </r>
       <r>   -5.2236    1.0000 </r>
       <r>   -4.6678    1.0000 </r>
       <r>   -4.3317    1.0000 </r>
       <r>   -3.9315    1.0000 </r>
       <r>   -3.5513    1.0000 </r>
       <r>   -3.1688    1.0000 </r>
       <r>   -2.9134    1.0000 </r>
       <r>   -1.9077    1.0000 </r>
       <r>   -1.8417    1.0000 </r>
       <r>   -1.5263    1.0000 </r>
       <r>   -1.2146    1.0000 </r>
       <r>   -0.9382    1.0000 </r>
       <r>   -0.6807    1.0000 </r>
       <r>    1.8630   -0.0002 </r>
       <r>    2.1326   -0.0000 </r>
       <r>    2.3227   -0.0000 </r>
       <r>    2.5680   -0.0000 </r>
       <r>    3.2217   -0.0000 </r>
       <r>    3.5052   -0.0000 </r>
       <r>    4.1119   -0.0000 </r>
       <r>    4.2677   -0.0000 </r>
       <r>    7.1938    0.0000 </r>
       <r>    7.3431    0.0000 </r>
       <r>    7.4620    0.0000 </r>
       <r>    7.9508    0.0000 </r>
      </set>
      <set comment="kpoint 16">
       <r>  -35.0453    1.0000 </r>
       <r>  -34.9732    1.0000 </r>
       <r>  -34.9060    1.0000 </r>
       <r>  -34.8928    1.0000 </r>
       <r>  -34.8472    1.0000 </r>
       <r>  -34.7518    1.0000 </r>
       <r>  -13.5907    1.0000 </r>
       <r>  -12.8423    1.0000 </r>
       <r>  -12.4999    1.0000 </r>
       <r>  -12.0163    1.0000 </r>
       <r>   -5.6464    1.0000 </r>
       <r>   -4.7108    1.0000 </r>
       <r>   -4.2391    1.0000 </r>
       <r>   -3.9794    1.0000 </r>
       <r>   -3.6408    1.0000 </r>
       <r>   -3.3657    1.0000 </r>
       <r>   -2.9325    1.0000 </r>
       <r>   -2.6923    1.0000 </r>
       <r>   -1.9589    1.0000 </r>
       <r>   -1.7466    1.0000 </r>
       <r>   -1.5499    1.0000 </r>
       <r>   -0.9968    1.0000 </r>
       <r>   -0.9163    1.0000 </r>
       <r>   -0.6341    1.0000 </r>
       <r>    1.7614   -0.0124 </r>
       <r>    2.0675   -0.0000 </r>
       <r>    2.3048   -0.0000 </r>
       <r>    2.4258   -0.0000 </r>
       <r>    2.8296   -0.0000 </r>
       <r>    3.3185   -0.0000 </r>
       <r>    3.8483   -0.0000 </r>
       <r>    4.0720   -0.0000 </r>
       <r>    6.7446    0.0000 </r>
       <r>    6.8615    0.0000 </r>
       <r>    8.0276    0.0000 </r>
       <r>    8.2773    0.0000 </r>
      </set>
      <set comment="kpoint 17">
       <r>  -34.9900    1.0000 </r>
       <r>  -34.9650    1.0000 </r>
       <r>  -34.8699    1.0000 </r>
       <r>  -34.8652    1.0000 </r>
       <r>  -34.8236    1.0000 </r>
       <r>  -34.7298    1.0000 </r>
       <r>  -14.0074    1.0000 </r>
       <r>  -13.2300    1.0000 </r>
       <r>  -12.7387    1.0000 </r>
       <r>  -12.1314    1.0000 </r>
       <r>   -5.8036    1.0000 </r>
       <r>   -4.5391    1.0000 </r>
       <r>   -3.7906    1.0000 </r>
       <r>   -3.5655    1.0000 </r>
       <r>   -3.4095    1.0000 </r>
       <r>   -2.7762    1.0000 </r>
       <r>   -2.5677    1.0000 </r>
       <r>   -2.3849    1.0000 </r>
       <r>   -2.1748    1.0000 </r>
       <r>   -2.0158    1.0000 </r>
       <r>   -1.2852    1.0000 </r>
       <r>   -0.7616    1.0000 </r>
       <r>   -0.5795    1.0000 </r>
       <r>   -0.3134    1.0000 </r>
       <r>    1.8687   -0.0001 </r>
       <r>    2.2037   -0.0000 </r>
       <r>    2.2975   -0.0000 </r>
       <r>    2.4179   -0.0000 </r>
       <r>    2.6076   -0.0000 </r>
       <r>    3.1158   -0.0000 </r>
       <r>    3.4647   -0.0000 </r>
       <r>    3.7061   -0.0000 </r>
       <r>    6.1652    0.0000 </r>
       <r>    6.2870    0.0000 </r>
       <r>    7.6497    0.0000 </r>
       <r>    8.4164    0.0000 </r>
      </set>
      <set comment="kpoint 18">
       <r>  -35.0038    1.0000 </r>
       <r>  -34.8979    1.0000 </r>
       <r>  -34.8784    1.0000 </r>
       <r>  -34.8507    1.0000 </r>
       <r>  -34.7559    1.0000 </r>
       <r>  -34.7118    1.0000 </r>
       <r>  -14.3194    1.0000 </r>
       <r>  -13.5312    1.0000 </r>
       <r>  -12.9184    1.0000 </r>
       <r>  -12.2252    1.0000 </r>
       <r>   -6.0498    1.0000 </r>
       <r>   -4.7394    1.0000 </r>
       <r>   -3.2752    1.0000 </r>
       <r>   -3.0988    1.0000 </r>
       <r>   -3.0580    1.0000 </r>
       <r>   -2.4771    1.0000 </r>
       <r>   -2.3316    1.0000 </r>
       <r>   -2.2259    1.0000 </r>
       <r>   -2.0799    1.0000 </r>
       <r>   -1.9189    1.0000 </r>
       <r>   -1.2396    1.0000 </r>
       <r>   -0.7001    1.0000 </r>
       <r>   -0.3162    1.0000 </r>
       <r>    0.2033    1.0000 </r>
       <r>    2.1656   -0.0000 </r>
       <r>    2.3651   -0.0000 </r>
       <r>    2.4967   -0.0000 </r>
       <r>    2.5634   -0.0000 </r>
       <r>    2.6896   -0.0000 </r>
       <r>    2.9245   -0.0000 </r>
       <r>    3.0269   -0.0000 </r>
       <r>    3.2721   -0.0000 </r>
       <r>    5.7390    0.0000 </r>
       <r>    5.8584    0.0000 </r>
       <r>    7.1890    0.0000 </r>
       <r>    7.5476    0.0000 </r>
      </set>
      <set comment="kpoint 19">
       <r>  -35.0116    1.0000 </r>
       <r>  -34.8860    1.0000 </r>
       <r>  -34.8596    1.0000 </r>
       <r>  -34.8398    1.0000 </r>
       <r>  -34.7162    1.0000 </r>
       <r>  -34.7025    1.0000 </r>
       <r>  -14.4858    1.0000 </r>
       <r>  -13.6941    1.0000 </r>
       <r>  -13.0144    1.0000 </r>
       <r>  -12.2764    1.0000 </r>
       <r>   -6.2113    1.0000 </r>
       <r>   -4.8968    1.0000 </r>
       <r>   -2.9394    1.0000 </r>
       <r>   -2.7940    1.0000 </r>
       <r>   -2.7391    1.0000 </r>
       <r>   -2.6274    1.0000 </r>
       <r>   -2.4786    1.0000 </r>
       <r>   -1.9158    1.0000 </r>
       <r>   -1.7757    1.0000 </r>
       <r>   -1.6139    1.0000 </r>
       <r>   -1.3570    1.0000 </r>
       <r>   -0.7866    1.0000 </r>
       <r>   -0.2371    1.0000 </r>
       <r>    0.7133    1.0000 </r>
       <r>    2.4180   -0.0000 </r>
       <r>    2.4691   -0.0000 </r>
       <r>    2.5769   -0.0000 </r>
       <r>    2.7153   -0.0000 </r>
       <r>    2.7491   -0.0000 </r>
       <r>    2.8544   -0.0000 </r>
       <r>    2.9343   -0.0000 </r>
       <r>    2.9538   -0.0000 </r>
       <r>    5.4962    0.0000 </r>
       <r>    5.6180    0.0000 </r>
       <r>    6.7674    0.0000 </r>
       <r>    6.9303    0.0000 </r>
      </set>
      <set comment="kpoint 20">
       <r>  -35.0255    1.0000 </r>
       <r>  -34.9756    1.0000 </r>
       <r>  -34.8982    1.0000 </r>
       <r>  -34.8881    1.0000 </r>
       <r>  -34.8504    1.0000 </r>
       <r>  -34.7545    1.0000 </r>
       <r>  -13.6682    1.0000 </r>
       <r>  -12.8963    1.0000 </r>
       <r>  -12.5369    1.0000 </r>
       <r>  -12.0190    1.0000 </r>
       <r>   -5.6195    1.0000 </r>
       <r>   -4.5496    1.0000 </r>
       <r>   -4.0017    1.0000 </r>
       <r>   -3.9286    1.0000 </r>
       <r>   -3.6749    1.0000 </r>
       <r>   -3.3377    1.0000 </r>
       <r>   -3.1187    1.0000 </r>
       <r>   -2.7022    1.0000 </r>
       <r>   -2.1267    1.0000 </r>
       <r>   -1.9294    1.0000 </r>
       <r>   -1.2424    1.0000 </r>
       <r>   -0.8836    1.0000 </r>
       <r>   -0.7410    1.0000 </r>
       <r>   -0.6881    1.0000 </r>
       <r>    1.6486    0.0307 </r>
       <r>    2.0651   -0.0000 </r>
       <r>    2.2889   -0.0000 </r>
       <r>    2.4013   -0.0000 </r>
       <r>    2.5831   -0.0000 </r>
       <r>    3.2392   -0.0000 </r>
       <r>    3.9424   -0.0000 </r>
       <r>    4.0824   -0.0000 </r>
       <r>    6.6775    0.0000 </r>
       <r>    6.7949    0.0000 </r>
       <r>    8.1972    0.0000 </r>
       <r>    8.4696    0.0000 </r>
      </set>
      <set comment="kpoint 21">
       <r>  -35.0886    1.0000 </r>
       <r>  -34.9603    1.0000 </r>
       <r>  -34.9511    1.0000 </r>
       <r>  -34.9285    1.0000 </r>
       <r>  -34.8358    1.0000 </r>
       <r>  -34.7843    1.0000 </r>
       <r>  -13.2498    1.0000 </r>
       <r>  -12.5215    1.0000 </r>
       <r>  -12.2918    1.0000 </r>
       <r>  -11.9078    1.0000 </r>
       <r>   -5.5897    1.0000 </r>
       <r>   -4.8677    1.0000 </r>
       <r>   -4.4056    1.0000 </r>
       <r>   -4.2590    1.0000 </r>
       <r>   -3.9823    1.0000 </r>
       <r>   -3.6380    1.0000 </r>
       <r>   -3.3392    1.0000 </r>
       <r>   -2.8157    1.0000 </r>
       <r>   -2.2898    1.0000 </r>
       <r>   -2.0607    1.0000 </r>
       <r>   -1.4518    1.0000 </r>
       <r>   -1.0629    1.0000 </r>
       <r>   -0.8616    1.0000 </r>
       <r>   -0.7224    1.0000 </r>
       <r>    1.6824   -0.0307 </r>
       <r>    2.1574   -0.0000 </r>
       <r>    2.4081   -0.0000 </r>
       <r>    2.4530   -0.0000 </r>
       <r>    2.7915   -0.0000 </r>
       <r>    3.3510   -0.0000 </r>
       <r>    4.2690   -0.0000 </r>
       <r>    4.3498    0.0000 </r>
       <r>    7.3093    0.0000 </r>
       <r>    7.4183    0.0000 </r>
       <r>    7.9022    0.0000 </r>
       <r>    8.3237    0.0000 </r>
      </set>
      <set comment="kpoint 22">
       <r>  -35.1397    1.0000 </r>
       <r>  -35.0017    1.0000 </r>
       <r>  -34.9545    1.0000 </r>
       <r>  -34.9475    1.0000 </r>
       <r>  -34.8263    1.0000 </r>
       <r>  -34.8072    1.0000 </r>
       <r>  -12.8401    1.0000 </r>
       <r>  -12.1963    1.0000 </r>
       <r>  -12.0547    1.0000 </r>
       <r>  -11.8256    1.0000 </r>
       <r>   -5.7234    1.0000 </r>
       <r>   -5.2424    1.0000 </r>
       <r>   -4.8871    1.0000 </r>
       <r>   -4.6759    1.0000 </r>
       <r>   -4.1785    1.0000 </r>
       <r>   -3.6497    1.0000 </r>
       <r>   -3.3559    1.0000 </r>
       <r>   -2.9559    1.0000 </r>
       <r>   -2.5473    1.0000 </r>
       <r>   -2.1120    1.0000 </r>
       <r>   -1.7161    1.0000 </r>
       <r>   -1.2903    1.0000 </r>
       <r>   -0.7151    1.0000 </r>
       <r>   -0.5276    1.0000 </r>
       <r>    1.9069   -0.0000 </r>
       <r>    2.2939   -0.0000 </r>
       <r>    2.4862   -0.0000 </r>
       <r>    2.6647   -0.0000 </r>
       <r>    3.0335   -0.0000 </r>
       <r>    3.5078   -0.0000 </r>
       <r>    4.3428    0.0000 </r>
       <r>    4.5207    0.0000 </r>
       <r>    7.0780    0.0000 </r>
       <r>    7.5475    0.0000 </r>
       <r>    8.0405    0.0000 </r>
       <r>    8.3532    0.0000 </r>
      </set>
      <set comment="kpoint 23">
       <r>  -35.1683    1.0000 </r>
       <r>  -35.0298    1.0000 </r>
       <r>  -34.9690    1.0000 </r>
       <r>  -34.9404    1.0000 </r>
       <r>  -34.8308    1.0000 </r>
       <r>  -34.8107    1.0000 </r>
       <r>  -12.5542    1.0000 </r>
       <r>  -12.0124    1.0000 </r>
       <r>  -11.9119    1.0000 </r>
       <r>  -11.7909    1.0000 </r>
       <r>   -5.8761    1.0000 </r>
       <r>   -5.4859    1.0000 </r>
       <r>   -5.1407    1.0000 </r>
       <r>   -4.9268    1.0000 </r>
       <r>   -4.2993    1.0000 </r>
       <r>   -3.6805    1.0000 </r>
       <r>   -3.3187    1.0000 </r>
       <r>   -3.1122    1.0000 </r>
       <r>   -2.6507    1.0000 </r>
       <r>   -2.1356    1.0000 </r>
       <r>   -1.8309    1.0000 </r>
       <r>   -1.4602    1.0000 </r>
       <r>   -0.5054    1.0000 </r>
       <r>   -0.2667    1.0000 </r>
       <r>    2.0154   -0.0000 </r>
       <r>    2.1575   -0.0000 </r>
       <r>    2.6859   -0.0000 </r>
       <r>    2.9466   -0.0000 </r>
       <r>    3.1686   -0.0000 </r>
       <r>    3.6824   -0.0000 </r>
       <r>    4.2682   -0.0000 </r>
       <r>    4.5688    0.0000 </r>
       <r>    6.5182    0.0000 </r>
       <r>    7.1385    0.0000 </r>
       <r>    8.5283    0.0000 </r>
       <r>    8.8176    0.0000 </r>
      </set>
      <set comment="kpoint 24">
       <r>  -35.1687    1.0000 </r>
       <r>  -35.0296    1.0000 </r>
       <r>  -34.9686    1.0000 </r>
       <r>  -34.9404    1.0000 </r>
       <r>  -34.8306    1.0000 </r>
       <r>  -34.8111    1.0000 </r>
       <r>  -12.5339    1.0000 </r>
       <r>  -12.0144    1.0000 </r>
       <r>  -11.9214    1.0000 </r>
       <r>  -11.7998    1.0000 </r>
       <r>   -5.8830    1.0000 </r>
       <r>   -5.5087    1.0000 </r>
       <r>   -5.1327    1.0000 </r>
       <r>   -4.9198    1.0000 </r>
       <r>   -4.2935    1.0000 </r>
       <r>   -3.6762    1.0000 </r>
       <r>   -3.3084    1.0000 </r>
       <r>   -3.1274    1.0000 </r>
       <r>   -2.6004    1.0000 </r>
       <r>   -2.1249    1.0000 </r>
       <r>   -1.8873    1.0000 </r>
       <r>   -1.4719    1.0000 </r>
       <r>   -0.5070    1.0000 </r>
       <r>   -0.2589    1.0000 </r>
       <r>    2.0066   -0.0000 </r>
       <r>    2.1668   -0.0000 </r>
       <r>    2.6922   -0.0000 </r>
       <r>    2.9421   -0.0000 </r>
       <r>    3.2204   -0.0000 </r>
       <r>    3.6455   -0.0000 </r>
       <r>    4.2418   -0.0000 </r>
       <r>    4.5624    0.0000 </r>
       <r>    6.5396    0.0000 </r>
       <r>    7.1364    0.0000 </r>
       <r>    8.6429    0.0000 </r>
       <r>    8.8695    0.0000 </r>
      </set>
      <set comment="kpoint 25">
       <r>  -35.1409    1.0000 </r>
       <r>  -35.0011    1.0000 </r>
       <r>  -34.9533    1.0000 </r>
       <r>  -34.9475    1.0000 </r>
       <r>  -34.8250    1.0000 </r>
       <r>  -34.8092    1.0000 </r>
       <r>  -12.8027    1.0000 </r>
       <r>  -12.2018    1.0000 </r>
       <r>  -12.0596    1.0000 </r>
       <r>  -11.8521    1.0000 </r>
       <r>   -5.7397    1.0000 </r>
       <r>   -5.3029    1.0000 </r>
       <r>   -4.8754    1.0000 </r>
       <r>   -4.6619    1.0000 </r>
       <r>   -4.1496    1.0000 </r>
       <r>   -3.6260    1.0000 </r>
       <r>   -3.3618    1.0000 </r>
       <r>   -2.9500    1.0000 </r>
       <r>   -2.4668    1.0000 </r>
       <r>   -2.0878    1.0000 </r>
       <r>   -1.8532    1.0000 </r>
       <r>   -1.3009    1.0000 </r>
       <r>   -0.7339    1.0000 </r>
       <r>   -0.4937    1.0000 </r>
       <r>    1.9006   -0.0000 </r>
       <r>    2.3197   -0.0000 </r>
       <r>    2.4994   -0.0000 </r>
       <r>    2.6372   -0.0000 </r>
       <r>    3.1519   -0.0000 </r>
       <r>    3.4045   -0.0000 </r>
       <r>    4.2995   -0.0000 </r>
       <r>    4.5195    0.0000 </r>
       <r>    7.1233    0.0000 </r>
       <r>    7.5403    0.0000 </r>
       <r>    8.0728    0.0000 </r>
       <r>    8.4104    0.0000 </r>
      </set>
      <set comment="kpoint 26">
       <r>  -35.0905    1.0000 </r>
       <r>  -34.9603    1.0000 </r>
       <r>  -34.9502    1.0000 </r>
       <r>  -34.9266    1.0000 </r>
       <r>  -34.8346    1.0000 </r>
       <r>  -34.7863    1.0000 </r>
       <r>  -13.2165    1.0000 </r>
       <r>  -12.5281    1.0000 </r>
       <r>  -12.2903    1.0000 </r>
       <r>  -11.9344    1.0000 </r>
       <r>   -5.6109    1.0000 </r>
       <r>   -4.9217    1.0000 </r>
       <r>   -4.4407    1.0000 </r>
       <r>   -4.2573    1.0000 </r>
       <r>   -3.8886    1.0000 </r>
       <r>   -3.6203    1.0000 </r>
       <r>   -3.3508    1.0000 </r>
       <r>   -2.7898    1.0000 </r>
       <r>   -2.2957    1.0000 </r>
       <r>   -2.0101    1.0000 </r>
       <r>   -1.5566    1.0000 </r>
       <r>   -1.0587    1.0000 </r>
       <r>   -0.9322    1.0000 </r>
       <r>   -0.6525    1.0000 </r>
       <r>    1.6994   -0.0354 </r>
       <r>    2.1702   -0.0000 </r>
       <r>    2.3960   -0.0000 </r>
       <r>    2.4339   -0.0000 </r>
       <r>    2.8571   -0.0000 </r>
       <r>    3.3077   -0.0000 </r>
       <r>    4.2315   -0.0000 </r>
       <r>    4.3703    0.0000 </r>
       <r>    7.3075    0.0000 </r>
       <r>    7.4190    0.0000 </r>
       <r>    7.9050    0.0000 </r>
       <r>    8.8973    0.0000 </r>
      </set>
      <set comment="kpoint 27">
       <r>  -35.0281    1.0000 </r>
       <r>  -34.9756    1.0000 </r>
       <r>  -34.8957    1.0000 </r>
       <r>  -34.8879    1.0000 </r>
       <r>  -34.8483    1.0000 </r>
       <r>  -34.7567    1.0000 </r>
       <r>  -13.6440    1.0000 </r>
       <r>  -12.9016    1.0000 </r>
       <r>  -12.5331    1.0000 </r>
       <r>  -12.0391    1.0000 </r>
       <r>   -5.6349    1.0000 </r>
       <r>   -4.5546    1.0000 </r>
       <r>   -4.1178    1.0000 </r>
       <r>   -3.9041    1.0000 </r>
       <r>   -3.5971    1.0000 </r>
       <r>   -3.3406    1.0000 </r>
       <r>   -3.1006    1.0000 </r>
       <r>   -2.6951    1.0000 </r>
       <r>   -2.1215    1.0000 </r>
       <r>   -1.8979    1.0000 </r>
       <r>   -1.2575    1.0000 </r>
       <r>   -0.9286    1.0000 </r>
       <r>   -0.8255    1.0000 </r>
       <r>   -0.6337    1.0000 </r>
       <r>    1.6757   -0.0251 </r>
       <r>    2.0744   -0.0000 </r>
       <r>    2.3057   -0.0000 </r>
       <r>    2.3687   -0.0000 </r>
       <r>    2.6140   -0.0000 </r>
       <r>    3.2471   -0.0000 </r>
       <r>    3.9230   -0.0000 </r>
       <r>    4.1019   -0.0000 </r>
       <r>    6.6772    0.0000 </r>
       <r>    6.7919    0.0000 </r>
       <r>    8.2022    0.0000 </r>
       <r>    8.4072    0.0000 </r>
      </set>
      <set comment="kpoint 28">
       <r>  -34.9900    1.0000 </r>
       <r>  -34.9662    1.0000 </r>
       <r>  -34.8688    1.0000 </r>
       <r>  -34.8656    1.0000 </r>
       <r>  -34.8221    1.0000 </r>
       <r>  -34.7308    1.0000 </r>
       <r>  -14.0011    1.0000 </r>
       <r>  -13.2315    1.0000 </r>
       <r>  -12.7370    1.0000 </r>
       <r>  -12.1369    1.0000 </r>
       <r>   -5.8062    1.0000 </r>
       <r>   -4.5382    1.0000 </r>
       <r>   -3.7993    1.0000 </r>
       <r>   -3.5743    1.0000 </r>
       <r>   -3.4028    1.0000 </r>
       <r>   -2.8010    1.0000 </r>
       <r>   -2.5745    1.0000 </r>
       <r>   -2.3552    1.0000 </r>
       <r>   -2.1804    1.0000 </r>
       <r>   -2.0135    1.0000 </r>
       <r>   -1.1715    1.0000 </r>
       <r>   -0.8115    1.0000 </r>
       <r>   -0.5998    1.0000 </r>
       <r>   -0.4032    1.0000 </r>
       <r>    1.8888   -0.0000 </r>
       <r>    2.2079   -0.0000 </r>
       <r>    2.3080   -0.0000 </r>
       <r>    2.4593   -0.0000 </r>
       <r>    2.5919   -0.0000 </r>
       <r>    3.1552   -0.0000 </r>
       <r>    3.4626   -0.0000 </r>
       <r>    3.6891   -0.0000 </r>
       <r>    6.1668    0.0000 </r>
       <r>    6.2842    0.0000 </r>
       <r>    7.6584    0.0000 </r>
       <r>    8.4472    0.0000 </r>
      </set>
      <set comment="kpoint 29">
       <r>  -35.0002    1.0000 </r>
       <r>  -34.9183    1.0000 </r>
       <r>  -34.8749    1.0000 </r>
       <r>  -34.8533    1.0000 </r>
       <r>  -34.7746    1.0000 </r>
       <r>  -34.7159    1.0000 </r>
       <r>  -14.2357    1.0000 </r>
       <r>  -13.4536    1.0000 </r>
       <r>  -12.8712    1.0000 </r>
       <r>  -12.2036    1.0000 </r>
       <r>   -5.9807    1.0000 </r>
       <r>   -4.6793    1.0000 </r>
       <r>   -3.4431    1.0000 </r>
       <r>   -3.2610    1.0000 </r>
       <r>   -3.1598    1.0000 </r>
       <r>   -2.4572    1.0000 </r>
       <r>   -2.4164    1.0000 </r>
       <r>   -2.2396    1.0000 </r>
       <r>   -2.0891    1.0000 </r>
       <r>   -1.9319    1.0000 </r>
       <r>   -1.2528    1.0000 </r>
       <r>   -0.7826    1.0000 </r>
       <r>   -0.3739    1.0000 </r>
       <r>   -0.0569    1.0000 </r>
       <r>    2.2087   -0.0000 </r>
       <r>    2.2713   -0.0000 </r>
       <r>    2.4129   -0.0000 </r>
       <r>    2.5891   -0.0000 </r>
       <r>    2.6837   -0.0000 </r>
       <r>    3.0675   -0.0000 </r>
       <r>    3.1025   -0.0000 </r>
       <r>    3.2893   -0.0000 </r>
       <r>    5.8447    0.0000 </r>
       <r>    5.9622    0.0000 </r>
       <r>    7.3054    0.0000 </r>
       <r>    7.7709    0.0000 </r>
      </set>
      <set comment="kpoint 30">
       <r>  -35.1212    1.0000 </r>
       <r>  -34.9837    1.0000 </r>
       <r>  -34.9704    1.0000 </r>
       <r>  -34.9481    1.0000 </r>
       <r>  -34.8338    1.0000 </r>
       <r>  -34.8157    1.0000 </r>
       <r>  -12.8664    1.0000 </r>
       <r>  -12.2116    1.0000 </r>
       <r>  -12.0630    1.0000 </r>
       <r>  -11.8198    1.0000 </r>
       <r>   -5.6002    1.0000 </r>
       <r>   -5.0176    1.0000 </r>
       <r>   -4.8142    1.0000 </r>
       <r>   -4.6617    1.0000 </r>
       <r>   -4.2632    1.0000 </r>
       <r>   -3.6620    1.0000 </r>
       <r>   -3.3751    1.0000 </r>
       <r>   -2.8283    1.0000 </r>
       <r>   -2.7265    1.0000 </r>
       <r>   -2.5467    1.0000 </r>
       <r>   -1.6675    1.0000 </r>
       <r>   -1.2568    1.0000 </r>
       <r>   -0.7501    1.0000 </r>
       <r>   -0.5553    1.0000 </r>
       <r>    1.8279   -0.0011 </r>
       <r>    2.3576   -0.0000 </r>
       <r>    2.4774   -0.0000 </r>
       <r>    2.6431   -0.0000 </r>
       <r>    2.8877   -0.0000 </r>
       <r>    3.3505   -0.0000 </r>
       <r>    4.4598    0.0000 </r>
       <r>    4.5883    0.0000 </r>
       <r>    7.5475    0.0000 </r>
       <r>    7.8064    0.0000 </r>
       <r>    8.0201    0.0000 </r>
       <r>    8.1748    0.0000 </r>
      </set>
      <set comment="kpoint 31">
       <r>  -35.1382    1.0000 </r>
       <r>  -35.0058    1.0000 </r>
       <r>  -35.0005    1.0000 </r>
       <r>  -34.9394    1.0000 </r>
       <r>  -34.8646    1.0000 </r>
       <r>  -34.8121    1.0000 </r>
       <r>  -12.5356    1.0000 </r>
       <r>  -11.9921    1.0000 </r>
       <r>  -11.8840    1.0000 </r>
       <r>  -11.7691    1.0000 </r>
       <r>   -5.6274    1.0000 </r>
       <r>   -5.2455    1.0000 </r>
       <r>   -5.1659    1.0000 </r>
       <r>   -4.9078    1.0000 </r>
       <r>   -4.2921    1.0000 </r>
       <r>   -3.7332    1.0000 </r>
       <r>   -3.3842    1.0000 </r>
       <r>   -3.1882    1.0000 </r>
       <r>   -2.8362    1.0000 </r>
       <r>   -2.7088    1.0000 </r>
       <r>   -1.9325    1.0000 </r>
       <r>   -1.5038    1.0000 </r>
       <r>   -0.4815    1.0000 </r>
       <r>   -0.2832    1.0000 </r>
       <r>    1.8723   -0.0001 </r>
       <r>    2.0933   -0.0000 </r>
       <r>    2.7082   -0.0000 </r>
       <r>    2.9532   -0.0000 </r>
       <r>    3.0491   -0.0000 </r>
       <r>    3.4790   -0.0000 </r>
       <r>    4.5385    0.0000 </r>
       <r>    4.7353    0.0000 </r>
       <r>    6.9524    0.0000 </r>
       <r>    7.5316    0.0000 </r>
       <r>    8.2743    0.0000 </r>
       <r>    8.6905    0.0000 </r>
      </set>
      <set comment="kpoint 32">
       <r>  -35.1433    1.0000 </r>
       <r>  -35.0197    1.0000 </r>
       <r>  -35.0045    1.0000 </r>
       <r>  -34.9363    1.0000 </r>
       <r>  -34.8790    1.0000 </r>
       <r>  -34.8095    1.0000 </r>
       <r>  -12.3678    1.0000 </r>
       <r>  -11.9168    1.0000 </r>
       <r>  -11.8565    1.0000 </r>
       <r>  -11.7433    1.0000 </r>
       <r>   -5.6753    1.0000 </r>
       <r>   -5.3996    1.0000 </r>
       <r>   -5.1985    1.0000 </r>
       <r>   -5.0035    1.0000 </r>
       <r>   -4.2693    1.0000 </r>
       <r>   -3.6903    1.0000 </r>
       <r>   -3.6447    1.0000 </r>
       <r>   -3.1963    1.0000 </r>
       <r>   -2.8258    1.0000 </r>
       <r>   -2.7335    1.0000 </r>
       <r>   -2.0929    1.0000 </r>
       <r>   -1.6083    1.0000 </r>
       <r>   -0.3156    1.0000 </r>
       <r>   -0.0928    1.0000 </r>
       <r>    1.7792   -0.0072 </r>
       <r>    1.9065   -0.0000 </r>
       <r>    2.8360   -0.0000 </r>
       <r>    2.9820   -0.0000 </r>
       <r>    3.2586   -0.0000 </r>
       <r>    3.5666   -0.0000 </r>
       <r>    4.5502    0.0000 </r>
       <r>    4.7622    0.0000 </r>
       <r>    6.6942    0.0000 </r>
       <r>    7.3937    0.0000 </r>
       <r>    8.1635    0.0000 </r>
       <r>    9.0220    0.0000 </r>
      </set>
      <set comment="kpoint 33">
       <r>  -35.1399    1.0000 </r>
       <r>  -35.0042    1.0000 </r>
       <r>  -34.9996    1.0000 </r>
       <r>  -34.9394    1.0000 </r>
       <r>  -34.8649    1.0000 </r>
       <r>  -34.8126    1.0000 </r>
       <r>  -12.4753    1.0000 </r>
       <r>  -12.0008    1.0000 </r>
       <r>  -11.9121    1.0000 </r>
       <r>  -11.7931    1.0000 </r>
       <r>   -5.6539    1.0000 </r>
       <r>   -5.3346    1.0000 </r>
       <r>   -5.1271    1.0000 </r>
       <r>   -4.9071    1.0000 </r>
       <r>   -4.2195    1.0000 </r>
       <r>   -3.6735    1.0000 </r>
       <r>   -3.4025    1.0000 </r>
       <r>   -3.2140    1.0000 </r>
       <r>   -2.7555    1.0000 </r>
       <r>   -2.7397    1.0000 </r>
       <r>   -2.0647    1.0000 </r>
       <r>   -1.4607    1.0000 </r>
       <r>   -0.4806    1.0000 </r>
       <r>   -0.2662    1.0000 </r>
       <r>    1.8618   -0.0002 </r>
       <r>    2.0931   -0.0000 </r>
       <r>    2.7337   -0.0000 </r>
       <r>    2.9094   -0.0000 </r>
       <r>    3.1308   -0.0000 </r>
       <r>    3.4065   -0.0000 </r>
       <r>    4.5208    0.0000 </r>
       <r>    4.7198    0.0000 </r>
       <r>    7.0298    0.0000 </r>
       <r>    7.5822    0.0000 </r>
       <r>    8.2518    0.0000 </r>
       <r>    8.7513    0.0000 </r>
      </set>
      <set comment="kpoint 34">
       <r>  -35.1237    1.0000 </r>
       <r>  -34.9824    1.0000 </r>
       <r>  -34.9678    1.0000 </r>
       <r>  -34.9481    1.0000 </r>
       <r>  -34.8312    1.0000 </r>
       <r>  -34.8197    1.0000 </r>
       <r>  -12.8005    1.0000 </r>
       <r>  -12.2229    1.0000 </r>
       <r>  -12.0694    1.0000 </r>
       <r>  -11.8675    1.0000 </r>
       <r>   -5.6339    1.0000 </r>
       <r>   -5.1328    1.0000 </r>
       <r>   -4.8278    1.0000 </r>
       <r>   -4.6514    1.0000 </r>
       <r>   -4.0811    1.0000 </r>
       <r>   -3.6533    1.0000 </r>
       <r>   -3.3799    1.0000 </r>
       <r>   -2.8292    1.0000 </r>
       <r>   -2.7576    1.0000 </r>
       <r>   -2.5135    1.0000 </r>
       <r>   -1.7760    1.0000 </r>
       <r>   -1.2318    1.0000 </r>
       <r>   -0.7681    1.0000 </r>
       <r>   -0.5140    1.0000 </r>
       <r>    1.8137   -0.0020 </r>
       <r>    2.3465   -0.0000 </r>
       <r>    2.4999   -0.0000 </r>
       <r>    2.6330   -0.0000 </r>
       <r>    2.9382   -0.0000 </r>
       <r>    3.2910   -0.0000 </r>
       <r>    4.4529    0.0000 </r>
       <r>    4.5803    0.0000 </r>
       <r>    7.5854    0.0000 </r>
       <r>    7.8468    0.0000 </r>
       <r>    8.0233    0.0000 </r>
       <r>    8.3168    0.0000 </r>
      </set>
      <set comment="kpoint 35">
       <r>  -35.0915    1.0000 </r>
       <r>  -34.9603    1.0000 </r>
       <r>  -34.9497    1.0000 </r>
       <r>  -34.9257    1.0000 </r>
       <r>  -34.8340    1.0000 </r>
       <r>  -34.7875    1.0000 </r>
       <r>  -13.1983    1.0000 </r>
       <r>  -12.5322    1.0000 </r>
       <r>  -12.2888    1.0000 </r>
       <r>  -11.9494    1.0000 </r>
       <r>   -5.6244    1.0000 </r>
       <r>   -4.9360    1.0000 </r>
       <r>   -4.4087    1.0000 </r>
       <r>   -4.3016    1.0000 </r>
       <r>   -3.8186    1.0000 </r>
       <r>   -3.6154    1.0000 </r>
       <r>   -3.3774    1.0000 </r>
       <r>   -2.8466    1.0000 </r>
       <r>   -2.2891    1.0000 </r>
       <r>   -2.0128    1.0000 </r>
       <r>   -1.4602    1.0000 </r>
       <r>   -1.1049    1.0000 </r>
       <r>   -0.9285    1.0000 </r>
       <r>   -0.6807    1.0000 </r>
       <r>    1.6819   -0.0303 </r>
       <r>    2.1550   -0.0000 </r>
       <r>    2.3937   -0.0000 </r>
       <r>    2.4757   -0.0000 </r>
       <r>    2.8135   -0.0000 </r>
       <r>    3.3615   -0.0000 </r>
       <r>    4.2334   -0.0000 </r>
       <r>    4.3751    0.0000 </r>
       <r>    7.3062    0.0000 </r>
       <r>    7.4174    0.0000 </r>
       <r>    7.8912    0.0000 </r>
       <r>    8.8652    0.0000 </r>
      </set>
      <set comment="kpoint 36">
       <r>  -35.0470    1.0000 </r>
       <r>  -34.9732    1.0000 </r>
       <r>  -34.9055    1.0000 </r>
       <r>  -34.8910    1.0000 </r>
       <r>  -34.8460    1.0000 </r>
       <r>  -34.7534    1.0000 </r>
       <r>  -13.5690    1.0000 </r>
       <r>  -12.8473    1.0000 </r>
       <r>  -12.4962    1.0000 </r>
       <r>  -12.0348    1.0000 </r>
       <r>   -5.6631    1.0000 </r>
       <r>   -4.7216    1.0000 </r>
       <r>   -4.1674    1.0000 </r>
       <r>   -4.0537    1.0000 </r>
       <r>   -3.6357    1.0000 </r>
       <r>   -3.3710    1.0000 </r>
       <r>   -2.9587    1.0000 </r>
       <r>   -2.6831    1.0000 </r>
       <r>   -1.9648    1.0000 </r>
       <r>   -1.7366    1.0000 </r>
       <r>   -1.3345    1.0000 </r>
       <r>   -1.1516    1.0000 </r>
       <r>   -0.9110    1.0000 </r>
       <r>   -0.7310    1.0000 </r>
       <r>    1.7542   -0.0151 </r>
       <r>    2.0783   -0.0000 </r>
       <r>    2.3186   -0.0000 </r>
       <r>    2.4681   -0.0000 </r>
       <r>    2.7932   -0.0000 </r>
       <r>    3.4034   -0.0000 </r>
       <r>    3.8374   -0.0000 </r>
       <r>    4.0726   -0.0000 </r>
       <r>    6.7458    0.0000 </r>
       <r>    6.8532    0.0000 </r>
       <r>    7.9598    0.0000 </r>
       <r>    8.2738    0.0000 </r>
      </set>
      <set comment="kpoint 37">
       <r>  -35.0001    1.0000 </r>
       <r>  -34.9839    1.0000 </r>
       <r>  -34.8722    1.0000 </r>
       <r>  -34.8662    1.0000 </r>
       <r>  -34.8488    1.0000 </r>
       <r>  -34.7348    1.0000 </r>
       <r>  -13.8491    1.0000 </r>
       <r>  -13.0963    1.0000 </r>
       <r>  -12.6529    1.0000 </r>
[...]
       <r>    -2.1988     1.9795    18.6240 </r>
       <r>    -2.0365     2.9576    19.1038 </r>
       <r>    -1.8743     3.2747    19.6352 </r>
       <r>    -1.7120     2.6882    20.0713 </r>
       <r>    -1.5498     2.2839    20.4419 </r>
       <r>    -1.3875     3.1255    20.9490 </r>
       <r>    -1.2253     2.6284    21.3755 </r>
       <r>    -1.0630     1.6073    21.6363 </r>
       <r>    -0.9008     1.9938    21.9598 </r>
       <r>    -0.7385     2.9185    22.4333 </r>
       <r>    -0.5763     3.4132    22.9871 </r>
       <r>    -0.4140     2.4632    23.3868 </r>
       <r>    -0.2518     1.9754    23.7073 </r>
       <r>    -0.0895     0.8582    23.8465 </r>
       <r>     0.0727     0.3426    23.9021 </r>
       <r>     0.2350     0.2418    23.9413 </r>
       <r>     0.3972     0.1009    23.9577 </r>
       <r>     0.5595     0.0036    23.9583 </r>
       <r>     0.7217     0.0418    23.9651 </r>
       <r>     0.8840     0.1755    23.9936 </r>
       <r>     1.0462     0.0026    23.9940 </r>
       <r>     1.2085     0.0214    23.9975 </r>
       <r>     1.3707     0.0161    24.0001 </r>
       <r>     1.5330    -0.0253    23.9960 </r>
       <r>     1.6953     0.6598    24.1030 </r>
       <r>     1.8575     2.1160    24.4463 </r>
       <r>     2.0198     2.7437    24.8915 </r>
       <r>     2.1820     3.8401    25.5146 </r>
       <r>     2.3443     3.9944    26.1627 </r>
       <r>     2.5065     4.4749    26.8887 </r>
       <r>     2.6688     3.7299    27.4939 </r>
       <r>     2.8310     3.8541    28.1193 </r>
       <r>     2.9933     2.6492    28.5491 </r>
       <r>     3.1555     2.4655    28.9491 </r>
       <r>     3.3178     1.9412    29.2641 </r>
       <r>     3.4800     2.9005    29.7347 </r>
       <r>     3.6423     1.9489    30.0509 </r>
       <r>     3.8045     2.1875    30.4058 </r>
       <r>     3.9668     1.0108    30.5698 </r>
       <r>     4.1290     1.3875    30.7950 </r>
       <r>     4.2913     2.0358    31.1253 </r>
       <r>     4.4535     2.4418    31.5215 </r>
       <r>     4.6158     1.7028    31.7977 </r>
       <r>     4.7780     0.9931    31.9589 </r>
       <r>     4.9403     0.2652    32.0019 </r>
       <r>     5.1025    -0.0117    32.0000 </r>
       <r>     5.2648    -0.0014    31.9998 </r>
       <r>     5.4270     0.0458    32.0072 </r>
       <r>     5.5893     0.3025    32.0563 </r>
       <r>     5.7515     0.2927    32.1038 </r>
       <r>     5.9138     0.5262    32.1892 </r>
       <r>     6.0760     0.2212    32.2250 </r>
       <r>     6.2383     0.7741    32.3506 </r>
       <r>     6.4005     0.7204    32.4675 </r>
       <r>     6.5628     0.8143    32.5996 </r>
       <r>     6.7251     1.3044    32.8113 </r>
       <r>     6.8873     1.5960    33.0702 </r>
       <r>     7.0496     1.4717    33.3090 </r>
       <r>     7.2118     1.7059    33.5858 </r>
       <r>     7.3741     1.3762    33.8091 </r>
       <r>     7.5363     1.9220    34.1210 </r>
       <r>     7.6986     1.8593    34.4226 </r>
       <r>     7.8608     0.9708    34.5801 </r>
       <r>     8.0231     1.7836    34.8695 </r>
       <r>     8.1853     1.5870    35.1270 </r>
       <r>     8.3476     1.9174    35.4381 </r>
       <r>     8.5098     1.5185    35.6845 </r>
       <r>     8.6721     0.5334    35.7710 </r>
       <r>     8.8343     0.6746    35.8805 </r>
       <r>     8.9966     0.5888    35.9760 </r>
       <r>     9.1588     0.1550    36.0012 </r>
       <r>     9.3211    -0.0071    36.0000 </r>
       <r>     9.4833    -0.0001    36.0000 </r>
       <r>     9.6456    -0.0000    36.0000 </r>
       <r>     9.8078    -0.0000    36.0000 </r>
       <r>     9.9701     0.0000    36.0000 </r>
       <r>    10.1323     0.0000    36.0000 </r>
       <r>    10.2946     0.0000    36.0000 </r>
       <r>    10.4568     0.0000    36.0000 </r>
       <r>    10.6191     0.0000    36.0000 </r>
       <r>    10.7813     0.0000    36.0000 </r>
       <r>    10.9436     0.0000    36.0000 </r>
       <r>    11.1058     0.0000    36.0000 </r>
       <r>    11.2681     0.0000    36.0000 </r>
      </set>
      <set comment="spin 2">
       <r>   -37.4074     0.0000     0.0000 </r>
       <r>   -37.2451     0.0000     0.0000 </r>
       <r>   -37.0829     0.0000     0.0000 </r>
       <r>   -36.9206     0.0000     0.0000 </r>
       <r>   -36.7584     0.0000     0.0000 </r>
       <r>   -36.5961     0.0000     0.0000 </r>
       <r>   -36.4339     0.0000     0.0000 </r>
       <r>   -36.2716     0.0000     0.0000 </r>
       <r>   -36.1094    -0.0000    -0.0000 </r>
       <r>   -35.9471    -0.0000    -0.0000 </r>
       <r>   -35.7849    -0.0000    -0.0000 </r>
       <r>   -35.6226    -0.0000    -0.0000 </r>
       <r>   -35.4604    -0.0004    -0.0001 </r>
       <r>   -35.2981    -0.0966    -0.0157 </r>
       <r>   -35.1358     2.0437     0.3158 </r>
       <r>   -34.9736     9.7866     1.9037 </r>
       <r>   -34.8113    18.4357     4.8950 </r>
       <r>   -34.6491     6.9660     6.0252 </r>
       <r>   -34.4868    -0.1500     6.0009 </r>
       <r>   -34.3246    -0.0054     6.0000 </r>
       <r>   -34.1623    -0.0000     6.0000 </r>
       <r>   -34.0001    -0.0000     6.0000 </r>
       <r>   -33.8378     0.0000     6.0000 </r>
       <r>   -33.6756     0.0000     6.0000 </r>
       <r>   -33.5133     0.0000     6.0000 </r>
       <r>   -33.3511     0.0000     6.0000 </r>
       <r>   -33.1888     0.0000     6.0000 </r>
       <r>   -33.0266     0.0000     6.0000 </r>
       <r>   -32.8643     0.0000     6.0000 </r>
       <r>   -32.7021     0.0000     6.0000 </r>
       <r>   -32.5398     0.0000     6.0000 </r>
       <r>   -32.3776     0.0000     6.0000 </r>
       <r>   -32.2153     0.0000     6.0000 </r>
       <r>   -32.0531     0.0000     6.0000 </r>
       <r>   -31.8908     0.0000     6.0000 </r>
       <r>   -31.7286     0.0000     6.0000 </r>
       <r>   -31.5663     0.0000     6.0000 </r>
       <r>   -31.4041     0.0000     6.0000 </r>
       <r>   -31.2418     0.0000     6.0000 </r>
       <r>   -31.0796     0.0000     6.0000 </r>
       <r>   -30.9173     0.0000     6.0000 </r>
       <r>   -30.7551     0.0000     6.0000 </r>
       <r>   -30.5928     0.0000     6.0000 </r>
       <r>   -30.4306     0.0000     6.0000 </r>
       <r>   -30.2683     0.0000     6.0000 </r>
       <r>   -30.1060     0.0000     6.0000 </r>
       <r>   -29.9438     0.0000     6.0000 </r>
       <r>   -29.7815     0.0000     6.0000 </r>
       <r>   -29.6193     0.0000     6.0000 </r>
       <r>   -29.4570     0.0000     6.0000 </r>
       <r>   -29.2948     0.0000     6.0000 </r>
       <r>   -29.1325     0.0000     6.0000 </r>
       <r>   -28.9703     0.0000     6.0000 </r>
       <r>   -28.8080     0.0000     6.0000 </r>
       <r>   -28.6458     0.0000     6.0000 </r>
       <r>   -28.4835     0.0000     6.0000 </r>
       <r>   -28.3213     0.0000     6.0000 </r>
       <r>   -28.1590     0.0000     6.0000 </r>
       <r>   -27.9968     0.0000     6.0000 </r>
       <r>   -27.8345     0.0000     6.0000 </r>
       <r>   -27.6723     0.0000     6.0000 </r>
       <r>   -27.5100     0.0000     6.0000 </r>
       <r>   -27.3478     0.0000     6.0000 </r>
       <r>   -27.1855     0.0000     6.0000 </r>
       <r>   -27.0233     0.0000     6.0000 </r>
       <r>   -26.8610     0.0000     6.0000 </r>
       <r>   -26.6988     0.0000     6.0000 </r>
       <r>   -26.5365     0.0000     6.0000 </r>
       <r>   -26.3743     0.0000     6.0000 </r>
       <r>   -26.2120     0.0000     6.0000 </r>
       <r>   -26.0498     0.0000     6.0000 </r>
       <r>   -25.8875     0.0000     6.0000 </r>
       <r>   -25.7253     0.0000     6.0000 </r>
       <r>   -25.5630     0.0000     6.0000 </r>
       <r>   -25.4008     0.0000     6.0000 </r>
       <r>   -25.2385     0.0000     6.0000 </r>
       <r>   -25.0763     0.0000     6.0000 </r>
       <r>   -24.9140     0.0000     6.0000 </r>
       <r>   -24.7517     0.0000     6.0000 </r>
       <r>   -24.5895     0.0000     6.0000 </r>
       <r>   -24.4272     0.0000     6.0000 </r>
       <r>   -24.2650     0.0000     6.0000 </r>
       <r>   -24.1027     0.0000     6.0000 </r>
       <r>   -23.9405     0.0000     6.0000 </r>
       <r>   -23.7782     0.0000     6.0000 </r>
       <r>   -23.6160     0.0000     6.0000 </r>
       <r>   -23.4537     0.0000     6.0000 </r>
       <r>   -23.2915     0.0000     6.0000 </r>
       <r>   -23.1292     0.0000     6.0000 </r>
       <r>   -22.9670     0.0000     6.0000 </r>
       <r>   -22.8047     0.0000     6.0000 </r>
       <r>   -22.6425     0.0000     6.0000 </r>
       <r>   -22.4802     0.0000     6.0000 </r>
       <r>   -22.3180     0.0000     6.0000 </r>
       <r>   -22.1557     0.0000     6.0000 </r>
       <r>   -21.9935     0.0000     6.0000 </r>
       <r>   -21.8312     0.0000     6.0000 </r>
       <r>   -21.6690     0.0000     6.0000 </r>
       <r>   -21.5067     0.0000     6.0000 </r>
       <r>   -21.3445     0.0000     6.0000 </r>
       <r>   -21.1822     0.0000     6.0000 </r>
       <r>   -21.0200     0.0000     6.0000 </r>
       <r>   -20.8577     0.0000     6.0000 </r>
       <r>   -20.6955     0.0000     6.0000 </r>
       <r>   -20.5332     0.0000     6.0000 </r>
       <r>   -20.3710     0.0000     6.0000 </r>
       <r>   -20.2087     0.0000     6.0000 </r>
       <r>   -20.0465     0.0000     6.0000 </r>
       <r>   -19.8842     0.0000     6.0000 </r>
       <r>   -19.7220     0.0000     6.0000 </r>
       <r>   -19.5597     0.0000     6.0000 </r>
       <r>   -19.3974     0.0000     6.0000 </r>
       <r>   -19.2352     0.0000     6.0000 </r>
       <r>   -19.0729     0.0000     6.0000 </r>
       <r>   -18.9107     0.0000     6.0000 </r>
       <r>   -18.7484     0.0000     6.0000 </r>
       <r>   -18.5862     0.0000     6.0000 </r>
       <r>   -18.4239     0.0000     6.0000 </r>
       <r>   -18.2617     0.0000     6.0000 </r>
       <r>   -18.0994     0.0000     6.0000 </r>
       <r>   -17.9372     0.0000     6.0000 </r>
       <r>   -17.7749     0.0000     6.0000 </r>
       <r>   -17.6127     0.0000     6.0000 </r>
       <r>   -17.4504     0.0000     6.0000 </r>
       <r>   -17.2882     0.0000     6.0000 </r>
       <r>   -17.1259     0.0000     6.0000 </r>
       <r>   -16.9637     0.0000     6.0000 </r>
       <r>   -16.8014     0.0000     6.0000 </r>
       <r>   -16.6392     0.0000     6.0000 </r>
       <r>   -16.4769     0.0000     6.0000 </r>
       <r>   -16.3147     0.0000     6.0000 </r>
       <r>   -16.1524     0.0000     6.0000 </r>
       <r>   -15.9902     0.0000     6.0000 </r>
       <r>   -15.8279     0.0000     6.0000 </r>
       <r>   -15.6657     0.0000     6.0000 </r>
       <r>   -15.5034    -0.0000     6.0000 </r>
       <r>   -15.3412    -0.0000     6.0000 </r>
       <r>   -15.1789    -0.0000     6.0000 </r>
       <r>   -15.0167    -0.0000     6.0000 </r>
       <r>   -14.8544    -0.0000     6.0000 </r>
       <r>   -14.6922    -0.0028     5.9996 </r>
       <r>   -14.5299     0.0689     6.0107 </r>
       <r>   -14.3676     0.2221     6.0468 </r>
       <r>   -14.2054     0.3597     6.1051 </r>
       <r>   -14.0431     0.1423     6.1282 </r>
       <r>   -13.8809     0.4271     6.1975 </r>
       <r>   -13.7186     0.2333     6.2354 </r>
       <r>   -13.5564     0.7609     6.3588 </r>
       <r>   -13.3941     0.5879     6.4542 </r>
       <r>   -13.2319     0.5036     6.5359 </r>
       <r>   -13.0696     1.0560     6.7073 </r>
       <r>   -12.9074     0.8115     6.8389 </r>
       <r>   -12.7451     1.8181     7.1339 </r>
       <r>   -12.5829     1.3577     7.3542 </r>
       <r>   -12.4206     2.1381     7.7011 </r>
       <r>   -12.2584     1.8419     8.0000 </r>
       <r>   -12.0961     3.2447     8.5264 </r>
       <r>   -11.9339     4.4469     9.2479 </r>
       <r>   -11.7716     4.0466     9.9045 </r>
       <r>   -11.6094     0.6176    10.0047 </r>
       <r>   -11.4471    -0.0289    10.0000 </r>
       <r>   -11.2849    -0.0001    10.0000 </r>
       <r>   -11.1226    -0.0000    10.0000 </r>
       <r>   -10.9604    -0.0000    10.0000 </r>
       <r>   -10.7981     0.0000    10.0000 </r>
       <r>   -10.6359     0.0000    10.0000 </r>
       <r>   -10.4736     0.0000    10.0000 </r>
       <r>   -10.3114     0.0000    10.0000 </r>
       <r>   -10.1491     0.0000    10.0000 </r>
       <r>    -9.9869     0.0000    10.0000 </r>
       <r>    -9.8246     0.0000    10.0000 </r>
       <r>    -9.6624     0.0000    10.0000 </r>
       <r>    -9.5001     0.0000    10.0000 </r>
       <r>    -9.3379     0.0000    10.0000 </r>
       <r>    -9.1756     0.0000    10.0000 </r>
       <r>    -9.0133     0.0000    10.0000 </r>
       <r>    -8.8511     0.0000    10.0000 </r>
       <r>    -8.6888     0.0000    10.0000 </r>
       <r>    -8.5266     0.0000    10.0000 </r>
       <r>    -8.3643     0.0000    10.0000 </r>
       <r>    -8.2021     0.0000    10.0000 </r>
       <r>    -8.0398     0.0000    10.0000 </r>
       <r>    -7.8776     0.0000    10.0000 </r>
       <r>    -7.7153     0.0000    10.0000 </r>
       <r>    -7.5531     0.0000    10.0000 </r>
       <r>    -7.3908     0.0000    10.0000 </r>
       <r>    -7.2286    -0.0000    10.0000 </r>
       <r>    -7.0663    -0.0000    10.0000 </r>
       <r>    -6.9041    -0.0000    10.0000 </r>
       <r>    -6.7418    -0.0000    10.0000 </r>
       <r>    -6.5796    -0.0000    10.0000 </r>
       <r>    -6.4173    -0.0028     9.9996 </r>
       <r>    -6.2551     0.0553    10.0085 </r>
       <r>    -6.0928     0.5196    10.0928 </r>
       <r>    -5.9306     1.0064    10.2561 </r>
       <r>    -5.7683     1.5135    10.5017 </r>
       <r>    -5.6061     3.2446    11.0281 </r>
       <r>    -5.4438     1.6113    11.2896 </r>
       <r>    -5.2816     0.8096    11.4209 </r>
       <r>    -5.1193     1.8270    11.7174 </r>
       <r>    -4.9571     1.8041    12.0101 </r>
       <r>    -4.7948     2.4732    12.4114 </r>
       <r>    -4.6326     2.4678    12.8118 </r>
       <r>    -4.4703     1.6067    13.0725 </r>
       <r>    -4.3081     1.3632    13.2936 </r>
       <r>    -4.1458     2.3887    13.6812 </r>
       <r>    -3.9836     1.9043    13.9902 </r>
       <r>    -3.8213     1.8591    14.2918 </r>
       <r>    -3.6590     3.2420    14.8178 </r>
       <r>    -3.4968     2.8913    15.2870 </r>
       <r>    -3.3345     3.2203    15.8095 </r>
       <r>    -3.1723     3.0355    16.3020 </r>
       <r>    -3.0100     2.7457    16.7475 </r>
       <r>    -2.8478     2.5315    17.1582 </r>
       <r>    -2.6855     3.2982    17.6933 </r>
       <r>    -2.5233     2.1803    18.0471 </r>
       <r>    -2.3610     1.5759    18.3028 </r>
       <r>    -2.1988     1.9799    18.6240 </r>
       <r>    -2.0365     2.9575    19.1039 </r>
       <r>    -1.8743     3.2746    19.6352 </r>
       <r>    -1.7120     2.6884    20.0714 </r>
       <r>    -1.5498     2.2838    20.4420 </r>
       <r>    -1.3875     3.1256    20.9491 </r>
       <r>    -1.2253     2.6283    21.3756 </r>
       <r>    -1.0630     1.6071    21.6363 </r>
       <r>    -0.9008     1.9939    21.9598 </r>
       <r>    -0.7385     2.9187    22.4334 </r>
       <r>    -0.5763     3.4127    22.9871 </r>
       <r>    -0.4140     2.4632    23.3868 </r>
       <r>    -0.2518     1.9754    23.7073 </r>
       <r>    -0.0895     0.8582    23.8465 </r>
       <r>     0.0727     0.3426    23.9021 </r>
       <r>     0.2350     0.2418    23.9413 </r>
       <r>     0.3972     0.1009    23.9577 </r>
       <r>     0.5595     0.0036    23.9583 </r>
       <r>     0.7217     0.0418    23.9651 </r>
       <r>     0.8840     0.1755    23.9936 </r>
       <r>     1.0462     0.0026    23.9940 </r>
       <r>     1.2085     0.0214    23.9975 </r>
       <r>     1.3707     0.0161    24.0001 </r>
       <r>     1.5330    -0.0253    23.9960 </r>
       <r>     1.6953     0.6599    24.1030 </r>
       <r>     1.8575     2.1160    24.4464 </r>
       <r>     2.0198     2.7437    24.8915 </r>
       <r>     2.1820     3.8401    25.5146 </r>
       <r>     2.3443     3.9950    26.1628 </r>
       <r>     2.5065     4.4748    26.8888 </r>
       <r>     2.6688     3.7297    27.4940 </r>
       <r>     2.8310     3.8543    28.1193 </r>
       <r>     2.9933     2.6491    28.5491 </r>
       <r>     3.1555     2.4656    28.9492 </r>
       <r>     3.3178     1.9410    29.2641 </r>
       <r>     3.4800     2.9007    29.7348 </r>
       <r>     3.6423     1.9488    30.0510 </r>
       <r>     3.8045     2.1874    30.4059 </r>
       <r>     3.9668     1.0106    30.5698 </r>
       <r>     4.1290     1.3878    30.7950 </r>
       <r>     4.2913     2.0359    31.1253 </r>
       <r>     4.4535     2.4418    31.5215 </r>
       <r>     4.6158     1.7027    31.7978 </r>
       <r>     4.7780     0.9930    31.9589 </r>
       <r>     4.9403     0.2650    32.0019 </r>
       <r>     5.1025    -0.0117    32.0000 </r>
       <r>     5.2648    -0.0017    31.9997 </r>
       <r>     5.4270     0.0354    32.0055 </r>
       <r>     5.5893     0.2909    32.0527 </r>
       <r>     5.7515     0.2913    32.0999 </r>
       <r>     5.9138     0.5139    32.1833 </r>
       <r>     6.0760     0.2484    32.2236 </r>
       <r>     6.2383     0.7287    32.3418 </r>
       <r>     6.4005     0.7370    32.4614 </r>
       <r>     6.5628     0.8310    32.5963 </r>
       <r>     6.7251     1.2083    32.7923 </r>
       <r>     6.8873     1.5642    33.0461 </r>
       <r>     7.0496     1.5905    33.3042 </r>
       <r>     7.2118     1.8032    33.5967 </r>
       <r>     7.3741     1.2517    33.7998 </r>
       <r>     7.5363     2.0042    34.1250 </r>
       <r>     7.6986     1.9022    34.4336 </r>
       <r>     7.8608     0.8970    34.5792 </r>
       <r>     8.0231     1.4874    34.8205 </r>
       <r>     8.1853     1.8513    35.1209 </r>
       <r>     8.3476     1.5837    35.3778 </r>
       <r>     8.5098     1.4582    35.6144 </r>
       <r>     8.6721     0.8415    35.7510 </r>
       <r>     8.8343     0.6838    35.8619 </r>
       <r>     8.9966     0.7052    35.9763 </r>
       <r>     9.1588     0.1529    36.0012 </r>
       <r>     9.3211    -0.0070    36.0000 </r>
       <r>     9.4833    -0.0001    36.0000 </r>
       <r>     9.6456    -0.0000    36.0000 </r>
       <r>     9.8078    -0.0000    36.0000 </r>
       <r>     9.9701     0.0000    36.0000 </r>
       <r>    10.1323     0.0000    36.0000 </r>
       <r>    10.2946     0.0000    36.0000 </r>
       <r>    10.4568     0.0000    36.0000 </r>
       <r>    10.6191     0.0000    36.0000 </r>
       <r>    10.7813     0.0000    36.0000 </r>
       <r>    10.9436     0.0000    36.0000 </r>
       <r>    11.1058     0.0000    36.0000 </r>
       <r>    11.2681     0.0000    36.0000 </r>
      </set>
     </set>
    </array>
   </total>
  </dos>
 </calculation>
 <structure name="finalpos" >
  <crystal>
   <varray name="basis" >
    <v>       3.19031700       0.00000000       0.00000000 </v>
    <v>      -1.59515800       2.76289700       0.00000000 </v>
    <v>       0.00000000       0.00000000      23.14049200 </v>
   </varray>
   <i name="volume">    203.97226633 </i>
   <varray name="rec_basis" >
    <v>       0.31344848       0.18096941       0.00000000 </v>
    <v>       0.00000000       0.36193894       0.00000000 </v>
    <v>       0.00000000       0.00000000       0.04321429 </v>
   </varray>
  </crystal>
  <varray name="positions" >
   <v>       0.66666700       0.33333300       0.06785900 </v>
   <v>       0.33333300       0.66666700       0.00000000 </v>
   <v>       0.33333300       0.66666700       0.13571500 </v>
   <v>       0.95238100       0.04761900       0.30080500 </v>
   <v>       0.61904700       0.38095300       0.23294700 </v>
   <v>       0.61904700       0.38095300       0.36866100 </v>
  </varray>
 </structure>
</modeling>
