<?xml version="1.0" encoding="ISO-8859-1"?>
<modeling>
 <generator>
  <i name="program" type="string">vasp </i>
  <i name="version" type="string">5.3.5  </i>
  <i name="subversion" type="string">31Mar14 (build Oct 29 2014 16:16:03) complex                          parallel </i>
  <i name="platform" type="string">Linux-UFHPC </i>
  <i name="date" type="string">2016 02 09 </i>
  <i name="time" type="string">18:50:47 </i>
 </generator>
 <incar>
  <i type="string" name="PREC">accurate</i>
  <i type="int" name="IBRION">     2</i>
  <i name="EDIFF">      0.00000100</i>
  <i type="int" name="NSW">     0</i>
  <i type="int" name="ISIF">     3</i>
  <i name="ENCUT">    300.00000000</i>
  <i type="string" name="LREAL"> Auto</i>
  <i type="int" name="ISMEAR">     0</i>
  <i name="SIGMA">      0.10000000</i>
  <i type="logical" name="LWAVE"> F  </i>
  <i type="logical" name="LCHARG"> F  </i>
  <i type="logical" name="LAECHG"> F  </i>
  <i type="string" name="GGA"> Bo</i>
  <i name="PARAM1">      0.18333333</i>
  <i name="PARAM2">      0.22000000</i>
  <i type="logical" name="LUSE_VDW"> T  </i>
  <i name="AGGAC">      0.00000000</i>
 </incar>
 <kpoints>
  <generation param="Gamma">
   <v type="int" name="divisions">      13        4        2 </v>
   <v name="usershift">      0.00000000       0.00000000       0.00000000 </v>
   <v name="genvec1">      0.07692308      -0.00000000       0.00000000 </v>
   <v name="genvec2">      0.00000000       0.25000000       0.00000000 </v>
   <v name="genvec3">      0.00000000       0.00000000       0.50000000 </v>
   <v name="shift">      0.00000000       0.00000000       0.00000000 </v>
  </generation>
  <varray name="kpointlist" >
   <v>       0.00000000       0.00000000       0.00000000 </v>
   <v>       0.07692308      -0.00000000       0.00000000 </v>
   <v>       0.15384615      -0.00000000       0.00000000 </v>
   <v>       0.23076923      -0.00000000       0.00000000 </v>
   <v>       0.30769231      -0.00000000       0.00000000 </v>
   <v>       0.38461538      -0.00000000       0.00000000 </v>
   <v>       0.46153846      -0.00000000       0.00000000 </v>
   <v>       0.00000000       0.25000000       0.00000000 </v>
   <v>       0.07692308       0.25000000       0.00000000 </v>
   <v>       0.15384615       0.25000000       0.00000000 </v>
   <v>       0.23076923       0.25000000       0.00000000 </v>
   <v>       0.30769231       0.25000000       0.00000000 </v>
   <v>       0.38461538       0.25000000       0.00000000 </v>
   <v>       0.46153846       0.25000000       0.00000000 </v>
   <v>      -0.46153846       0.25000000       0.00000000 </v>
   <v>      -0.38461538       0.25000000       0.00000000 </v>
   <v>      -0.30769231       0.25000000       0.00000000 </v>
   <v>      -0.23076923       0.25000000       0.00000000 </v>
   <v>      -0.15384615       0.25000000       0.00000000 </v>
   <v>      -0.07692308       0.25000000       0.00000000 </v>
   <v>       0.00000000       0.50000000       0.00000000 </v>
   <v>       0.07692308       0.50000000       0.00000000 </v>
   <v>       0.15384615       0.50000000       0.00000000 </v>
   <v>       0.23076923       0.50000000       0.00000000 </v>
   <v>       0.30769231       0.50000000       0.00000000 </v>
   <v>       0.38461538       0.50000000       0.00000000 </v>
   <v>       0.46153846       0.50000000       0.00000000 </v>
   <v>       0.00000000       0.00000000       0.50000000 </v>
   <v>       0.07692308      -0.00000000       0.50000000 </v>
   <v>       0.15384615      -0.00000000       0.50000000 </v>
   <v>       0.23076923      -0.00000000       0.50000000 </v>
   <v>       0.30769231      -0.00000000       0.50000000 </v>
   <v>       0.38461538      -0.00000000       0.50000000 </v>
   <v>       0.46153846      -0.00000000       0.50000000 </v>
   <v>       0.00000000       0.25000000       0.50000000 </v>
   <v>       0.07692308       0.25000000       0.50000000 </v>
   <v>       0.15384615       0.25000000       0.50000000 </v>
   <v>       0.23076923       0.25000000       0.50000000 </v>
   <v>       0.30769231       0.25000000       0.50000000 </v>
   <v>       0.38461538       0.25000000       0.50000000 </v>
   <v>       0.46153846       0.25000000       0.50000000 </v>
   <v>      -0.46153846       0.25000000       0.50000000 </v>
   <v>      -0.38461538       0.25000000       0.50000000 </v>
   <v>      -0.30769231       0.25000000       0.50000000 </v>
   <v>      -0.23076923       0.25000000       0.50000000 </v>
   <v>      -0.15384615       0.25000000       0.50000000 </v>
   <v>      -0.07692308       0.25000000       0.50000000 </v>
   <v>       0.00000000       0.50000000       0.50000000 </v>
   <v>       0.07692308       0.50000000       0.50000000 </v>
   <v>       0.15384615       0.50000000       0.50000000 </v>
   <v>       0.23076923       0.50000000       0.50000000 </v>
   <v>       0.30769231       0.50000000       0.50000000 </v>
   <v>       0.38461538       0.50000000       0.50000000 </v>
   <v>       0.46153846       0.50000000       0.50000000 </v>
  </varray>
  <varray name="weights" >
   <v>       0.00961538 </v>
   <v>       0.01923077 </v>
   <v>       0.01923077 </v>
   <v>       0.01923077 </v>
   <v>       0.01923077 </v>
   <v>       0.01923077 </v>
   <v>       0.01923077 </v>
   <v>       0.01923077 </v>
   <v>       0.01923077 </v>
   <v>       0.01923077 </v>
   <v>       0.01923077 </v>
   <v>       0.01923077 </v>
   <v>       0.01923077 </v>
   <v>       0.01923077 </v>
   <v>       0.01923077 </v>
   <v>       0.01923077 </v>
   <v>       0.01923077 </v>
   <v>       0.01923077 </v>
   <v>       0.01923077 </v>
   <v>       0.01923077 </v>
   <v>       0.00961538 </v>
   <v>       0.01923077 </v>
   <v>       0.01923077 </v>
   <v>       0.01923077 </v>
   <v>       0.01923077 </v>
   <v>       0.01923077 </v>
   <v>       0.01923077 </v>
   <v>       0.00961538 </v>
   <v>       0.01923077 </v>
   <v>       0.01923077 </v>
   <v>       0.01923077 </v>
   <v>       0.01923077 </v>
   <v>       0.01923077 </v>
   <v>       0.01923077 </v>
   <v>       0.01923077 </v>
   <v>       0.01923077 </v>
   <v>       0.01923077 </v>
   <v>       0.01923077 </v>
   <v>       0.01923077 </v>
   <v>       0.01923077 </v>
   <v>       0.01923077 </v>
   <v>       0.01923077 </v>
   <v>       0.01923077 </v>
   <v>       0.01923077 </v>
   <v>       0.01923077 </v>
   <v>       0.01923077 </v>
   <v>       0.01923077 </v>
   <v>       0.00961538 </v>
   <v>       0.01923077 </v>
   <v>       0.01923077 </v>
   <v>       0.01923077 </v>
   <v>       0.01923077 </v>
   <v>       0.01923077 </v>
   <v>       0.01923077 </v>
  </varray>
 </kpoints>
 <parameters>
  <separator name="general" >
   <i type="string" name="SYSTEM">unknown system</i>
   <i type="logical" name="LCOMPAT"> F  </i>
  </separator>
  <separator name="electronic" >
   <i type="string" name="PREC">accura</i>
   <i name="ENMAX">    300.00000000</i>
   <i name="ENAUG">    342.92400000</i>
   <i name="EDIFF">      0.00000100</i>
   <i type="int" name="IALGO">    38</i>
   <i type="int" name="IWAVPR">    10</i>
   <i type="int" name="NBANDS">    68</i>
   <i name="NELECT">    108.00000000</i>
   <i type="int" name="TURBO">     0</i>
   <i type="int" name="IRESTART">     0</i>
   <i type="int" name="NREBOOT">     0</i>
   <i type="int" name="NMIN">     0</i>
   <i name="EREF">      0.00000000</i>
   <separator name="electronic smearing" >
    <i type="int" name="ISMEAR">     0</i>
    <i name="SIGMA">      0.10000000</i>
    <i name="KSPACING">      0.50000000</i>
    <i type="logical" name="KGAMMA"> T  </i>
   </separator>
   <separator name="electronic projectors" >
    <i type="logical" name="LREAL"> T  </i>
    <v name="ROPT">     -0.00025000     -0.00025000</v>
    <i type="int" name="LMAXPAW">  -100</i>
    <i type="int" name="LMAXMIX">     2</i>
    <i type="logical" name="NLSPLINE"> F  </i>
   </separator>
   <separator name="electronic startup" >
    <i type="int" name="ISTART">     0</i>
    <i type="int" name="ICHARG">     2</i>
    <i type="int" name="INIWAV">     1</i>
   </separator>
   <separator name="electronic spin" >
    <i type="int" name="ISPIN">     1</i>
    <i type="logical" name="LNONCOLLINEAR"> F  </i>
    <v name="MAGMOM">      1.00000000      1.00000000      1.00000000      1.00000000      1.00000000      1.00000000      1.00000000      1.00000000      1.00000000      1.00000000      1.00000000      1.00000000      1.00000000      1.00000000      1.00000000      1.00000000      1.00000000      1.00000000      1.00000000      1.00000000
      1.00000000      1.00000000      1.00000000      1.00000000</v>
    <i name="NUPDOWN">     -1.00000000</i>
    <i type="logical" name="LSORBIT"> F  </i>
    <v name="SAXIS">      0.00000000      0.00000000      1.00000000</v>
    <i type="logical" name="LSPIRAL"> F  </i>
    <v name="QSPIRAL">      0.00000000      0.00000000      0.00000000</v>
    <i type="logical" name="LZEROZ"> F  </i>
   </separator>
   <separator name="electronic exchange-correlation" >
    <i type="logical" name="LASPH"> F  </i>
    <i type="logical" name="LMETAGGA"> F  </i>
   </separator>
   <separator name="electronic convergence" >
    <i type="int" name="NELM">    60</i>
    <i type="int" name="NELMDL">    -5</i>
    <i type="int" name="NELMIN">     2</i>
    <i name="ENINI">    300.00000000</i>
    <separator name="electronic convergence detail" >
     <i type="logical" name="LDIAG"> T  </i>
     <i type="logical" name="LSUBROT"> F  </i>
     <i name="WEIMIN">      0.00000000</i>
     <i name="EBREAK">      0.00000000</i>
     <i name="DEPER">      0.30000000</i>
     <i type="int" name="NRMM">     4</i>
     <i name="TIME">      0.40000000</i>
    </separator>
   </separator>
   <separator name="electronic mixer" >
    <i name="AMIX">      0.40000000</i>
    <i name="BMIX">      1.00000000</i>
    <i name="AMIN">      0.10000000</i>
    <i name="AMIX_MAG">      1.60000000</i>
    <i name="BMIX_MAG">      1.00000000</i>
    <separator name="electronic mixer details" >
     <i type="int" name="IMIX">     4</i>
     <i type="int" name="MAXMIX">   -45</i>
     <i name="WC">    100.00000000</i>
     <i type="int" name="INIMIX">     1</i>
     <i type="int" name="MIXPRE">     1</i>
     <i type="int" name="MREMOVE">     5</i>
    </separator>
   </separator>
   <separator name="electronic dipolcorrection" >
    <i type="logical" name="LDIPOL"> F  </i>
    <i type="logical" name="LMONO"> F  </i>
    <i type="int" name="IDIPOL">     0</i>
    <i name="EPSILON">      1.00000000</i>
    <v name="DIPOL">   -100.00000000   -100.00000000   -100.00000000</v>
    <i name="EFIELD">      0.00000000</i>
   </separator>
  </separator>
  <separator name="grids" >
   <i type="int" name="NGX">    20</i>
   <i type="int" name="NGY">    60</i>
   <i type="int" name="NGZ">   160</i>
   <i type="int" name="NGXF">    40</i>
   <i type="int" name="NGYF">   120</i>
   <i type="int" name="NGZF">   320</i>
   <i type="logical" name="ADDGRID"> F  </i>
  </separator>
  <separator name="ionic" >
   <i type="int" name="NSW">     0</i>
   <i type="int" name="IBRION">    -1</i>
   <i type="int" name="ISIF">     3</i>
   <i name="PSTRESS">      0.00000000</i>
   <i name="EDIFFG">      0.00001000</i>
   <i type="int" name="NFREE">     1</i>
   <i name="POTIM">      0.50000000</i>
   <i name="SMASS">     -3.00000000</i>
   <i name="SCALEE">      1.00000000</i>
  </separator>
  <separator name="ionic md" >
   <i name="TEBEG">      0.00010000</i>
   <i name="TEEND">      0.00010000</i>
   <i type="int" name="NBLOCK">     1</i>
   <i type="int" name="KBLOCK">     1</i>
   <i type="int" name="NPACO">   256</i>
   <i name="APACO">     16.00000000</i>
  </separator>
  <separator name="symmetry" >
   <i type="int" name="ISYM">     2</i>
   <i name="SYMPREC">      0.00001000</i>
  </separator>
  <separator name="dos" >
   <i type="logical" name="LORBIT"> F  </i>
   <v name="RWIGS">     -1.00000000     -1.00000000</v>
   <i type="int" name="NEDOS">   301</i>
   <i name="EMIN">     10.00000000</i>
   <i name="EMAX">    -10.00000000</i>
   <i name="EFERMI">      0.00000000</i>
  </separator>
  <separator name="writing" >
   <i type="int" name="NWRITE">     2</i>
   <i type="logical" name="LWAVE"> F  </i>
   <i type="logical" name="LCHARG"> F  </i>
   <i type="logical" name="LPARD"> F  </i>
   <i type="logical" name="LVTOT"> F  </i>
   <i type="logical" name="LVHAR"> F  </i>
   <i type="logical" name="LELF"> F  </i>
   <i type="logical" name="LOPTICS"> F  </i>
   <v name="STM">      0.00000000      0.00000000      0.00000000      0.00000000      0.00000000      0.00000000      0.00000000</v>
  </separator>
  <separator name="performance" >
   <i type="int" name="NPAR">     4</i>
   <i type="int" name="NSIM">     4</i>
   <i type="int" name="NBLK">    -1</i>
   <i type="logical" name="LPLANE"> T  </i>
   <i type="logical" name="LSCALAPACK"> T  </i>
   <i type="logical" name="LSCAAWARE"> F  </i>
   <i type="logical" name="LSCALU"> F  </i>
   <i type="logical" name="LASYNC"> F  </i>
   <i type="logical" name="LORBITALREAL"> F  </i>
  </separator>
  <separator name="miscellaneous" >
   <i type="int" name="IDIOT">     3</i>
   <i type="logical" name="LMUSIC"> F  </i>
   <v name="POMASS">     30.97400000     28.08500000</v>
   <v name="DARWINR">      0.00000000      0.00000000</v>
   <v name="DARWINV">      1.00000000      1.00000000</v>
   <i type="logical" name="LCORR"> T  </i>
  </separator>
  <i type="logical" name="GGA_COMPAT"> T  </i>
  <i type="logical" name="LBERRY"> F  </i>
  <i type="int" name="ICORELEVEL">     0</i>
  <i type="logical" name="LDAU"> F  </i>
  <i type="int" name="I_CONSTRAINED_M">     0</i>
  <separator name="electronic exchange-correlation" >
   <i type="string" name="GGA">BO</i>
   <i type="int" name="VOSKOWN">     0</i>
   <i type="logical" name="LHFCALC"> F  </i>
   <i type="string" name="PRECFOCK"></i>
   <i type="logical" name="LSYMGRAD"> F  </i>
   <i type="logical" name="LHFONE"> F  </i>
   <i type="logical" name="LRHFCALC"> F  </i>
   <i type="logical" name="LTHOMAS"> F  </i>
   <i type="logical" name="LMODELHF"> F  </i>
   <i name="ENCUT4O">     -1.00000000</i>
   <i type="int" name="EXXOEP">     0</i>
   <i type="int" name="FOURORBIT">     0</i>
   <i name="AEXX">      0.00000000</i>
   <i name="HFALPHA">      0.00000000</i>
   <i name="MCALPHA">      0.00000000</i>
   <i name="ALDAX">      1.00000000</i>
   <i name="AGGAX">      1.00000000</i>
   <i name="ALDAC">      1.00000000</i>
   <i name="AGGAC">      0.00000000</i>
   <i type="int" name="NKREDX">     1</i>
   <i type="int" name="NKREDY">     1</i>
   <i type="int" name="NKREDZ">     1</i>
   <i type="logical" name="SHIFTRED"> F  </i>
   <i type="logical" name="ODDONLY"> F  </i>
   <i type="logical" name="EVENONLY"> F  </i>
   <i type="int" name="LMAXFOCK">     0</i>
   <i type="int" name="NMAXFOCKAE">     0</i>
   <i type="logical" name="LFOCKAEDFT"> F  </i>
   <i name="HFSCREEN">      0.00000000</i>
   <i name="HFSCREENC">      0.00000000</i>
   <i type="int" name="NBANDSGWLOW">     0</i>
  </separator>
  <separator name="vdW DFT" >
   <i type="logical" name="LUSE_VDW"> T  </i>
   <i name="Zab_VDW">     -0.84910000</i>
   <i name="PARAM1">      0.18333333</i>
   <i name="PARAM2">      0.22000000</i>
   <i name="PARAM3">      0.00000000</i>
  </separator>
  <separator name="model GW" >
   <i type="int" name="MODEL_GW">     0</i>
   <i name="MODEL_EPS0">     25.05800243</i>
   <i name="MODEL_ALPHA">      1.00000000</i>
  </separator>
  <separator name="linear response parameters" >
   <i type="logical" name="LEPSILON"> F  </i>
   <i type="logical" name="LRPA"> F  </i>
   <i type="logical" name="LNABLA"> F  </i>
   <i type="logical" name="LVEL"> F  </i>
   <i type="int" name="KINTER">     0</i>
   <i name="CSHIFT">      0.10000000</i>
   <i name="OMEGAMAX">     -1.00000000</i>
   <i name="DEG_THRESHOLD">      0.00200000</i>
  </separator>
  <separator name="orbital magnetization" >
   <i type="logical" name="NUCIND"> F  </i>
   <v name="MAGPOS">      0.00000000      0.00000000      0.00000000</v>
   <i type="logical" name="LNICSALL"> T  </i>
   <i type="logical" name="ORBITALMAG"> F  </i>
   <i type="logical" name="LMAGBLOCH"> F  </i>
   <i type="logical" name="LCHIMAG"> F  </i>
   <i type="logical" name="LGAUGE"> T  </i>
   <i type="int" name="MAGATOM">     0</i>
   <v name="MAGDIPOL">      0.00000000      0.00000000      0.00000000</v>
   <v name="AVECCONST">      0.00000000      0.00000000      0.00000000</v>
  </separator>
  <separator name="response functions" >
   <i type="logical" name="LADDER"> F  </i>
   <i type="logical" name="LFXC"> F  </i>
   <i type="logical" name="LHARTREE"> T  </i>
   <i type="int" name="IBSE">     0</i>
   <i type="logical" name="LTCTE"> F  </i>
   <i type="logical" name="LTETE"> F  </i>
   <i type="logical" name="LTRIPLET"> F  </i>
   <i type="logical" name="LFXCEPS"> F  </i>
   <i type="logical" name="LFXHEG"> F  </i>
   <i type="logical" name="L2ORDER"> F  </i>
   <i type="logical" name="LUSEW"> F  </i>
   <i name="ENCUTGW">     -2.00000000</i>
   <i name="ENCUTGWSOFT">     -2.00000000</i>
   <i name="ENCUTLF">     -1.00000000</i>
   <i type="int" name="LMAXMP2">    -1</i>
   <i name="SCISSOR">      0.00000000</i>
   <i type="int" name="NOMEGA">     0</i>
   <i type="int" name="NOMEGAR">     0</i>
   <i type="int" name="NBANDSGW">    -1</i>
   <i type="int" name="NBANDSO">    -1</i>
   <i type="int" name="NBANDSV">    -1</i>
   <i type="int" name="NELM">     1</i>
   <i type="int" name="DIM">     3</i>
   <i type="int" name="ANTIRES">     0</i>
   <i name="OMEGAMAX">    -30.00000000</i>
   <i name="OMEGAMIN">    -30.00000000</i>
   <i name="OMEGATL">   -200.00000000</i>
   <i type="int" name="OMEGAGRID">     0</i>
   <i name="CSHIFT">     -0.10000000</i>
   <i type="logical" name="SELFENERGY"> F  </i>
   <i type="logical" name="LSPECTRAL"> F  </i>
   <i type="logical" name="ODDONLYGW"> F  </i>
   <i type="logical" name="EVENONLYGW"> F  </i>
   <i type="int" name="NKREDLFX">     1</i>
   <i type="int" name="NKREDLFY">     1</i>
   <i type="int" name="NKREDLFZ">     1</i>
   <i type="int" name="MAXMEM">  1800</i>
   <i type="int" name="TELESCOPE">     0</i>
   <i type="int" name="TAUPAR">     1</i>
  </separator>
  <separator name="External order field" >
   <i name="OFIELD_KAPPA">      0.00000000</i>
   <v name="OFIELD_K">      0.00000000      0.00000000      0.00000000</v>
   <i name="OFIELD_Q6_NEAR">      0.00000000</i>
   <i name="OFIELD_Q6_FAR">      0.00000000</i>
   <i name="OFIELD_A">      0.00000000</i>
  </separator>
 </parameters>
 <atominfo>
  <atoms>      24 </atoms>
  <types>       2 </types>
  <array name="atoms" >
   <dimension dim="1">ion</dimension>
   <field type="string">element</field>
   <field type="int">atomtype</field>
   <set>
    <rc><c>P </c><c>   1</c></rc>
    <rc><c>P </c><c>   1</c></rc>
    <rc><c>P </c><c>   1</c></rc>
    <rc><c>P </c><c>   1</c></rc>
    <rc><c>P </c><c>   1</c></rc>
    <rc><c>P </c><c>   1</c></rc>
    <rc><c>P </c><c>   1</c></rc>
    <rc><c>P </c><c>   1</c></rc>
    <rc><c>P </c><c>   1</c></rc>
    <rc><c>P </c><c>   1</c></rc>
    <rc><c>P </c><c>   1</c></rc>
    <rc><c>P </c><c>   1</c></rc>
    <rc><c>Si</c><c>   2</c></rc>
    <rc><c>Si</c><c>   2</c></rc>
    <rc><c>Si</c><c>   2</c></rc>
    <rc><c>Si</c><c>   2</c></rc>
    <rc><c>Si</c><c>   2</c></rc>
    <rc><c>Si</c><c>   2</c></rc>
    <rc><c>Si</c><c>   2</c></rc>
    <rc><c>Si</c><c>   2</c></rc>
    <rc><c>Si</c><c>   2</c></rc>
    <rc><c>Si</c><c>   2</c></rc>
    <rc><c>Si</c><c>   2</c></rc>
    <rc><c>Si</c><c>   2</c></rc>
   </set>
  </array>
  <array name="atomtypes" >
   <dimension dim="1">type</dimension>
   <field type="int">atomspertype</field>
   <field type="string">element</field>
   <field>mass</field>
   <field>valence</field>
   <field type="string">pseudopotential</field>
   <set>
    <rc><c>  12</c><c>P </c><c>     30.97400000</c><c>      5.00000000</c><c>  PAW_PBE P 17Jan2003                   </c></rc>
    <rc><c>  12</c><c>Si</c><c>     28.08500000</c><c>      4.00000000</c><c> PAW_PBE Si 05Jan2001                   </c></rc>
   </set>
  </array>
 </atominfo>
 <structure name="initialpos" >
  <crystal>
   <varray name="basis" >
    <v>       3.54040000       0.00000000       0.00000000 </v>
    <v>      -1.77020000      10.29434800       0.00000000 </v>
    <v>       0.00000000       0.00000000      27.50142900 </v>
   </varray>
   <i name="volume">   1002.32009712 </i>
   <varray name="rec_basis" >
    <v>       0.28245396       0.04857034       0.00000000 </v>
    <v>       0.00000000       0.09714068       0.00000000 </v>
    <v>       0.00000000       0.00000000       0.03636175 </v>
   </varray>
  </crystal>
  <varray name="positions" >
   <v>       0.11402300       0.22804500       0.23316207 </v>
   <v>       0.01402300       0.52804500       0.51499159 </v>
   <v>       0.45808900       0.91617900       0.20939482 </v>
   <v>       0.35808900       0.21617900       0.49122434 </v>
   <v>       0.31085400       0.62170900       0.08414979 </v>
   <v>       0.31085400       0.62170900       0.36597930 </v>
   <v>       0.99923000       0.99846000       0.08631254 </v>
   <v>       0.99923000       0.99846000       0.36814206 </v>
   <v>       0.65492700       0.30985400       0.06041748 </v>
   <v>       0.65492700       0.30985400       0.34224700 </v>
   <v>       0.76973800       0.53947500       0.20725292 </v>
   <v>       0.66973800       0.83947500       0.48908244 </v>
   <v>       0.93971600       0.87943300       0.15783749 </v>
   <v>       0.83971600       0.17943300       0.43966701 </v>
   <v>       0.20515200       0.41030300       0.18578822 </v>
   <v>       0.10515200       0.71030300       0.46761774 </v>
   <v>       0.20184900       0.40369900       0.09969156 </v>
   <v>       0.20184900       0.40369900       0.38152107 </v>
   <v>       0.56380500       0.12761000       0.10779021 </v>
   <v>       0.56380500       0.12761000       0.38961973 </v>
   <v>       0.56710600       0.13421200       0.19387616 </v>
   <v>       0.46710600       0.43421200       0.47570568 </v>
   <v>       0.82923400       0.65846800       0.13571444 </v>
   <v>       0.72923400       0.95846800       0.41754396 </v>
  </varray>
 </structure>
 <calculation>
  <scstep>
   <time name="dav">   81.32   81.40</time>
   <time name="total">   98.82   98.93</time>
   <energy>
    <i name="alphaZ">     36.80884744 </i>
    <i name="ewald">  11986.34434198 </i>
    <i name="hartreedc"> -15013.19896946 </i>
    <i name="XCdc">    -87.25351999 </i>
    <i name="pawpsdc">   1056.43050070 </i>
    <i name="pawaedc">   -732.41190547 </i>
    <i name="eentropy">     -0.04184634 </i>
    <i name="bandstr">    -95.72149040 </i>
    <i name="atom">   3354.04126044 </i>
    <i name="e_fr_energy">    504.99721891 </i>
    <i name="e_wo_entrp">    505.03906524 </i>
    <i name="e_0_energy">    505.01814207 </i>
   </energy>
  </scstep>
  <scstep>
   <time name="dav">  100.43  100.54</time>
   <time name="total">  100.45  100.55</time>
   <energy>
    <i name="e_fr_energy">    -61.23307424 </i>
    <i name="e_wo_entrp">    -61.20813427 </i>
    <i name="e_0_energy">    -61.22060426 </i>
   </energy>
  </scstep>
  <scstep>
   <time name="dav">   92.43   92.51</time>
   <time name="total">   92.44   92.53</time>
   <energy>
    <i name="e_fr_energy">   -118.59435519 </i>
    <i name="e_wo_entrp">   -118.56293211 </i>
    <i name="e_0_energy">   -118.57864365 </i>
   </energy>
  </scstep>
  <scstep>
   <time name="dav">  112.30  112.40</time>
   <time name="total">  112.31  112.41</time>
   <energy>
    <i name="e_fr_energy">   -121.28988258 </i>
    <i name="e_wo_entrp">   -121.25559229 </i>
    <i name="e_0_energy">   -121.27273744 </i>
   </energy>
  </scstep>
  <scstep>
   <time name="dav">  102.89  102.97</time>
   <time name="total">  107.92  108.01</time>
   <energy>
    <i name="e_fr_energy">   -121.34799557 </i>
    <i name="e_wo_entrp">   -121.31368430 </i>
    <i name="e_0_energy">   -121.33083994 </i>
   </energy>
  </scstep>
  <scstep>
   <time name="dav">   95.68   95.76</time>
   <time name="total">  116.86  116.95</time>
   <energy>
    <i name="e_fr_energy">   -117.03935541 </i>
    <i name="e_wo_entrp">   -117.00972118 </i>
    <i name="e_0_energy">   -117.02453829 </i>
   </energy>
  </scstep>
  <scstep>
   <time name="dav">   95.86   95.94</time>
   <time name="total">  119.75  119.86</time>
   <energy>
    <i name="e_fr_energy">   -116.83134815 </i>
    <i name="e_wo_entrp">   -116.79590816 </i>
    <i name="e_0_energy">   -116.81362816 </i>
   </energy>
  </scstep>
  <scstep>
   <time name="dav">  100.92  101.02</time>
   <time name="total">  124.06  124.17</time>
   <energy>
    <i name="e_fr_energy">   -116.85659481 </i>
    <i name="e_wo_entrp">   -116.82233942 </i>
    <i name="e_0_energy">   -116.83946712 </i>
   </energy>
  </scstep>
  <scstep>
   <time name="dav">  103.86  104.12</time>
   <time name="total">  127.62  127.90</time>
   <energy>
    <i name="e_fr_energy">   -116.84060452 </i>
    <i name="e_wo_entrp">   -116.80570129 </i>
    <i name="e_0_energy">   -116.82315290 </i>
   </energy>
  </scstep>
  <scstep>
   <time name="dav">  102.85  103.07</time>
   <time name="total">  127.81  128.06</time>
   <energy>
    <i name="e_fr_energy">   -116.83971114 </i>
    <i name="e_wo_entrp">   -116.80528645 </i>
    <i name="e_0_energy">   -116.82249880 </i>
   </energy>
  </scstep>
  <scstep>
   <time name="dav">  104.79  105.03</time>
   <time name="total">  131.73  132.00</time>
   <energy>
    <i name="e_fr_energy">   -116.83497026 </i>
    <i name="e_wo_entrp">   -116.80052665 </i>
    <i name="e_0_energy">   -116.81774845 </i>
   </energy>
  </scstep>
  <scstep>
   <time name="dav">   98.99   99.02</time>
   <time name="total">  122.25  122.30</time>
   <energy>
    <i name="e_fr_energy">   -116.82877083 </i>
    <i name="e_wo_entrp">   -116.79436031 </i>
    <i name="e_0_energy">   -116.81156557 </i>
   </energy>
  </scstep>
  <scstep>
   <time name="dav">   95.19   95.22</time>
   <time name="total">  118.39  118.42</time>
   <energy>
    <i name="e_fr_energy">   -116.82387751 </i>
    <i name="e_wo_entrp">   -116.78947205 </i>
    <i name="e_0_energy">   -116.80667478 </i>
   </energy>
  </scstep>
  <scstep>
   <time name="dav">   90.85   90.88</time>
   <time name="total">  111.06  111.09</time>
   <energy>
    <i name="e_fr_energy">   -116.82152567 </i>
    <i name="e_wo_entrp">   -116.78713332 </i>
    <i name="e_0_energy">   -116.80432950 </i>
   </energy>
  </scstep>
  <scstep>
   <time name="dav">   91.13   91.16</time>
   <time name="total">  110.78  110.81</time>
   <energy>
    <i name="e_fr_energy">   -116.82102412 </i>
    <i name="e_wo_entrp">   -116.78663679 </i>
    <i name="e_0_energy">   -116.80383046 </i>
   </energy>
  </scstep>
  <scstep>
   <time name="dav">   82.83   82.88</time>
   <time name="total">  102.47  102.54</time>
   <energy>
    <i name="e_fr_energy">   -116.82100317 </i>
    <i name="e_wo_entrp">   -116.78661855 </i>
    <i name="e_0_energy">   -116.80381086 </i>
   </energy>
  </scstep>
  <scstep>
   <time name="dav">   85.01   85.04</time>
   <time name="total">  104.62  104.67</time>
   <energy>
    <i name="e_fr_energy">   -116.82141372 </i>
    <i name="e_wo_entrp">   -116.78703029 </i>
    <i name="e_0_energy">   -116.80422200 </i>
   </energy>
  </scstep>
  <scstep>
   <time name="dav">   79.28   79.31</time>
   <time name="total">   99.01   99.05</time>
   <energy>
    <i name="e_fr_energy">   -116.82169781 </i>
    <i name="e_wo_entrp">   -116.78731065 </i>
    <i name="e_0_energy">   -116.80450423 </i>
   </energy>
  </scstep>
  <scstep>
   <time name="dav">   77.01   77.03</time>
   <time name="total">   96.46   96.50</time>
   <energy>
    <i name="e_fr_energy">   -116.82175357 </i>
    <i name="e_wo_entrp">   -116.78736650 </i>
    <i name="e_0_energy">   -116.80456003 </i>
   </energy>
  </scstep>
  <scstep>
   <time name="dav">   72.63   72.66</time>
   <time name="total">   92.08   92.13</time>
   <energy>
    <i name="e_fr_energy">   -116.82177193 </i>
    <i name="e_wo_entrp">   -116.78738523 </i>
    <i name="e_0_energy">   -116.80457858 </i>
   </energy>
  </scstep>
  <scstep>
   <time name="dav">   74.15   74.17</time>
   <time name="total">   93.60   93.62</time>
   <energy>
    <i name="e_fr_energy">   -116.82178860 </i>
    <i name="e_wo_entrp">   -116.78740198 </i>
    <i name="e_0_energy">   -116.80459529 </i>
   </energy>
  </scstep>
  <scstep>
   <time name="dav">   74.17   74.20</time>
   <time name="total">   93.62   93.65</time>
   <energy>
    <i name="e_fr_energy">   -116.82171776 </i>
    <i name="e_wo_entrp">   -116.78733150 </i>
    <i name="e_0_energy">   -116.80452463 </i>
   </energy>
  </scstep>
  <scstep>
   <time name="dav">   69.66   69.68</time>
   <time name="total">   89.21   89.24</time>
   <energy>
    <i name="e_fr_energy">   -116.82167458 </i>
    <i name="e_wo_entrp">   -116.78728820 </i>
    <i name="e_0_energy">   -116.80448139 </i>
   </energy>
  </scstep>
  <scstep>
   <time name="dav">   69.99   70.00</time>
   <time name="total">   89.46   89.49</time>
   <energy>
    <i name="e_fr_energy">   -116.82164242 </i>
    <i name="e_wo_entrp">   -116.78725611 </i>
    <i name="e_0_energy">   -116.80444926 </i>
   </energy>
  </scstep>
  <scstep>
   <time name="dav">   64.48   64.50</time>
   <time name="total">   83.99   84.01</time>
   <energy>
    <i name="e_fr_energy">   -116.82163753 </i>
    <i name="e_wo_entrp">   -116.78725118 </i>
    <i name="e_0_energy">   -116.80444435 </i>
   </energy>
  </scstep>
  <scstep>
   <time name="dav">   66.59   66.60</time>
   <time name="total">   85.97   85.99</time>
   <energy>
    <i name="e_fr_energy">   -116.82163060 </i>
    <i name="e_wo_entrp">   -116.78724419 </i>
    <i name="e_0_energy">   -116.80443740 </i>
   </energy>
  </scstep>
  <scstep>
   <time name="dav">   58.63   58.65</time>
   <time name="total">   73.52   73.54</time>
   <energy>
    <i name="alphaZ">     36.80884744 </i>
    <i name="ewald">  11986.34434198 </i>
    <i name="hartreedc"> -15117.94888159 </i>
    <i name="XCdc">    -79.15105021 </i>
    <i name="pawpsdc">   1184.64366980 </i>
    <i name="pawaedc">   -864.36611183 </i>
    <i name="eentropy">     -0.03438640 </i>
    <i name="bandstr">   -617.15931942 </i>
    <i name="atom">   3354.04126044 </i>
    <i name="e_fr_energy">   -116.82162978 </i>
    <i name="e_wo_entrp">   -116.78724338 </i>
    <i name="e_0_energy">   -116.80443658 </i>
   </energy>
  </scstep>
  <structure>
   <crystal>
    <varray name="basis" >
     <v>       3.54040000       0.00000000       0.00000000 </v>
     <v>      -1.77020000      10.29434800       0.00000000 </v>
     <v>       0.00000000       0.00000000      27.50142900 </v>
    </varray>
    <i name="volume">   1002.32009712 </i>
    <varray name="rec_basis" >
     <v>       0.28245396       0.04857034       0.00000000 </v>
     <v>       0.00000000       0.09714068       0.00000000 </v>
     <v>       0.00000000       0.00000000       0.03636175 </v>
    </varray>
   </crystal>
   <varray name="positions" >
    <v>       0.11402300       0.22804500       0.23316207 </v>
    <v>       0.01402300       0.52804500       0.51499159 </v>
    <v>       0.45808900       0.91617900       0.20939482 </v>
    <v>       0.35808900       0.21617900       0.49122434 </v>
    <v>       0.31085400       0.62170900       0.08414979 </v>
    <v>       0.31085400       0.62170900       0.36597930 </v>
    <v>       0.99923000       0.99846000       0.08631254 </v>
    <v>       0.99923000       0.99846000       0.36814206 </v>
    <v>       0.65492700       0.30985400       0.06041748 </v>
    <v>       0.65492700       0.30985400       0.34224700 </v>
    <v>       0.76973800       0.53947500       0.20725292 </v>
    <v>       0.66973800       0.83947500       0.48908244 </v>
    <v>       0.93971600       0.87943300       0.15783749 </v>
    <v>       0.83971600       0.17943300       0.43966701 </v>
    <v>       0.20515200       0.41030300       0.18578822 </v>
    <v>       0.10515200       0.71030300       0.46761774 </v>
    <v>       0.20184900       0.40369900       0.09969156 </v>
    <v>       0.20184900       0.40369900       0.38152107 </v>
    <v>       0.56380500       0.12761000       0.10779021 </v>
    <v>       0.56380500       0.12761000       0.38961973 </v>
    <v>       0.56710600       0.13421200       0.19387616 </v>
    <v>       0.46710600       0.43421200       0.47570568 </v>
    <v>       0.82923400       0.65846800       0.13571444 </v>
    <v>       0.72923400       0.95846800       0.41754396 </v>
   </varray>
  </structure>
  <varray name="forces" >
   <v>       0.00078350      -0.02612274       0.02053799 </v>
   <v>      -0.07145603       0.05239819      -0.01283128 </v>
   <v>       0.00023798      -0.01577780       0.07804285 </v>
   <v>      -0.03307258      -0.24162240       0.65867608 </v>
   <v>      -0.00023072      -0.00429840       0.00408801 </v>
   <v>      -0.65359966       0.19809042       0.97104267 </v>
   <v>      -0.00247937       0.00003095       0.00233988 </v>
   <v>      10.97669109       3.85130383     -17.66128136 </v>
   <v>       0.00088653      -0.00022036       0.01158391 </v>
   <v>      -0.68934294       0.55814029      -0.99799058 </v>
   <v>       0.00036931       0.00595341       0.09802664 </v>
   <v>       0.21304852       0.01885929      -0.29188013 </v>
   <v>       0.00271066      -0.00273381       0.01280598 </v>
   <v>       9.37074161       6.15666000      16.80958735 </v>
   <v>      -0.00225786       0.02325432       0.06162093 </v>
   <v>       0.40503744      -0.50940825      -1.25889447 </v>
   <v>      -0.00050673      -0.00120729      -0.02091412 </v>
   <v>       0.65212503       1.28111866       0.41618643 </v>
   <v>      -0.00455323      -0.00748715      -0.02342176 </v>
   <v>      -9.98793507      -2.64466764     -16.46713574 </v>
   <v>      -0.00013846      -0.02423733       0.00468800 </v>
   <v>      -0.70296490      -0.36993541      -0.80014212 </v>
   <v>       0.00095188       0.00273580       0.00037718 </v>
   <v>      -9.47504602      -8.30082658      18.38488766 </v>
  </varray>
  <varray name="stress" >
   <v>      32.79820118       8.19981431      -0.33580131 </v>
   <v>       8.19981425      20.40674622      -5.51913701 </v>
   <v>      -0.33580117      -5.51913705      67.73432076 </v>
  </varray>
  <energy>
   <i name="e_fr_energy">   -116.82162978 </i>
   <i name="e_wo_entrp">   -116.80443658 </i>
   <i name="e_0_energy">     -0.03438640 </i>
  </energy>
  <time name="totalsc"> 2941.89 2944.08</time>
  <eigenvalues>
   <array>
    <dimension dim="1">band</dimension>
    <dimension dim="2">kpoint</dimension>
    <dimension dim="3">spin</dimension>
    <field>eigene</field>
    <field>occ</field>
    <set>
     <set comment="spin 1">
      <set comment="kpoint 1">
       <r>  -15.3055    1.0000 </r>
       <r>  -13.5047    1.0000 </r>
       <r>  -12.9902    1.0000 </r>
       <r>  -12.7651    1.0000 </r>
       <r>  -12.6158    1.0000 </r>
       <r>  -12.4464    1.0000 </r>
       <r>  -12.0730    1.0000 </r>
       <r>  -11.9960    1.0000 </r>
       <r>  -11.5194    1.0000 </r>
       <r>  -11.3963    1.0000 </r>
       <r>  -10.9548    1.0000 </r>
       <r>   -9.9170    1.0000 </r>
       <r>   -9.0934    1.0000 </r>
       <r>   -7.9984    1.0000 </r>
       <r>   -7.7935    1.0000 </r>
       <r>   -7.5309    1.0000 </r>
       <r>   -6.8822    1.0000 </r>
       <r>   -6.7633    1.0000 </r>
       <r>   -6.4547    1.0000 </r>
       <r>   -6.2874    1.0000 </r>
       <r>   -5.7877    1.0000 </r>
       <r>   -5.4044    1.0000 </r>
       <r>   -4.9948    1.0000 </r>
       <r>   -4.6924    1.0000 </r>
       <r>   -4.4917    1.0000 </r>
       <r>   -3.8145    1.0000 </r>
       <r>   -3.6599    1.0000 </r>
       <r>   -3.5764    1.0000 </r>
       <r>   -3.4191    1.0000 </r>
       <r>   -3.3007    1.0000 </r>
       <r>   -3.0368    1.0000 </r>
       <r>   -3.0188    1.0000 </r>
       <r>   -2.8709    1.0000 </r>
       <r>   -2.8077    1.0000 </r>
       <r>   -2.7310    1.0000 </r>
       <r>   -2.4420    1.0000 </r>
       <r>   -2.3841    1.0000 </r>
       <r>   -2.3584    1.0000 </r>
       <r>   -2.1780    1.0000 </r>
       <r>   -2.0684    1.0000 </r>
       <r>   -1.9599    1.0000 </r>
       <r>   -1.8416    1.0000 </r>
       <r>   -1.7626    1.0000 </r>
       <r>   -1.6934    1.0000 </r>
       <r>   -1.6146    1.0000 </r>
       <r>   -1.6037    1.0000 </r>
       <r>   -1.5477    1.0000 </r>
       <r>   -1.3958    1.0000 </r>
       <r>   -1.3426    1.0000 </r>
       <r>   -1.1741    1.0000 </r>
       <r>   -1.0596    1.0000 </r>
       <r>   -0.9206    1.0000 </r>
       <r>   -0.5837    1.0000 </r>
       <r>   -0.0548    0.9751 </r>
       <r>    0.7324    0.0000 </r>
       <r>    1.0782    0.0000 </r>
       <r>    1.2036    0.0000 </r>
       <r>    1.3569    0.0000 </r>
       <r>    1.5000    0.0000 </r>
       <r>    1.6169    0.0000 </r>
       <r>    1.7453    0.0000 </r>
       <r>    1.9351    0.0000 </r>
       <r>    1.9971    0.0000 </r>
       <r>    2.0503    0.0000 </r>
       <r>    2.1821    0.0000 </r>
       <r>    2.4677    0.0000 </r>
       <r>    2.5874    0.0000 </r>
       <r>    2.6806    0.0000 </r>
      </set>
      <set comment="kpoint 2">
       <r>  -15.2527    1.0000 </r>
       <r>  -13.4434    1.0000 </r>
       <r>  -12.9368    1.0000 </r>
       <r>  -12.7130    1.0000 </r>
       <r>  -12.5581    1.0000 </r>
       <r>  -12.3908    1.0000 </r>
       <r>  -12.0134    1.0000 </r>
       <r>  -11.9401    1.0000 </r>
       <r>  -11.4698    1.0000 </r>
       <r>  -11.3474    1.0000 </r>
       <r>  -10.9064    1.0000 </r>
       <r>   -9.8921    1.0000 </r>
       <r>   -9.0881    1.0000 </r>
       <r>   -8.0350    1.0000 </r>
       <r>   -7.7565    1.0000 </r>
       <r>   -7.5183    1.0000 </r>
       <r>   -6.8553    1.0000 </r>
       <r>   -6.7343    1.0000 </r>
       <r>   -6.4490    1.0000 </r>
       <r>   -6.2785    1.0000 </r>
       <r>   -5.7539    1.0000 </r>
       <r>   -5.4113    1.0000 </r>
       <r>   -5.1943    1.0000 </r>
       <r>   -4.7352    1.0000 </r>
       <r>   -4.6257    1.0000 </r>
       <r>   -3.9287    1.0000 </r>
       <r>   -3.7846    1.0000 </r>
       <r>   -3.6822    1.0000 </r>
       <r>   -3.5610    1.0000 </r>
       <r>   -3.4010    1.0000 </r>
       <r>   -3.2943    1.0000 </r>
       <r>   -3.2102    1.0000 </r>
       <r>   -3.0968    1.0000 </r>
       <r>   -3.0050    1.0000 </r>
       <r>   -2.7224    1.0000 </r>
       <r>   -2.6981    1.0000 </r>
       <r>   -2.5485    1.0000 </r>
       <r>   -2.4456    1.0000 </r>
       <r>   -2.3853    1.0000 </r>
       <r>   -2.2218    1.0000 </r>
       <r>   -2.1575    1.0000 </r>
       <r>   -2.0472    1.0000 </r>
       <r>   -1.9339    1.0000 </r>
       <r>   -1.9180    1.0000 </r>
       <r>   -1.8082    1.0000 </r>
       <r>   -1.6800    1.0000 </r>
       <r>   -1.5402    1.0000 </r>
       <r>   -1.4725    1.0000 </r>
       <r>   -1.3053    1.0000 </r>
       <r>   -1.1553    1.0000 </r>
       <r>   -1.0213    1.0000 </r>
       <r>   -0.8787    1.0000 </r>
       <r>   -0.4947    1.0000 </r>
       <r>   -0.0344    0.9529 </r>
       <r>    0.8918    0.0000 </r>
       <r>    1.1151    0.0000 </r>
       <r>    1.4838    0.0000 </r>
       <r>    1.5950    0.0000 </r>
       <r>    1.8010    0.0000 </r>
       <r>    1.8771    0.0000 </r>
       <r>    2.0304    0.0000 </r>
       <r>    2.1662    0.0000 </r>
       <r>    2.2538    0.0000 </r>
       <r>    2.3097    0.0000 </r>
       <r>    2.3432    0.0000 </r>
       <r>    2.6391    0.0000 </r>
       <r>    2.6543    0.0000 </r>
       <r>    2.8099    0.0000 </r>
      </set>
      <set comment="kpoint 3">
       <r>  -15.0972    1.0000 </r>
       <r>  -13.2604    1.0000 </r>
       <r>  -12.7786    1.0000 </r>
       <r>  -12.5572    1.0000 </r>
       <r>  -12.3886    1.0000 </r>
       <r>  -12.2261    1.0000 </r>
       <r>  -11.8412    1.0000 </r>
       <r>  -11.7728    1.0000 </r>
       <r>  -11.3256    1.0000 </r>
       <r>  -11.2054    1.0000 </r>
       <r>  -10.7676    1.0000 </r>
       <r>   -9.8327    1.0000 </r>
       <r>   -9.0941    1.0000 </r>
       <r>   -8.1313    1.0000 </r>
       <r>   -7.7143    1.0000 </r>
       <r>   -7.5148    1.0000 </r>
       <r>   -6.8122    1.0000 </r>
       <r>   -6.6702    1.0000 </r>
       <r>   -6.4617    1.0000 </r>
       <r>   -6.3409    1.0000 </r>
       <r>   -5.8526    1.0000 </r>
       <r>   -5.6790    1.0000 </r>
       <r>   -5.3411    1.0000 </r>
       <r>   -4.8698    1.0000 </r>
       <r>   -4.7934    1.0000 </r>
       <r>   -4.2625    1.0000 </r>
       <r>   -4.1701    1.0000 </r>
       <r>   -4.0527    1.0000 </r>
       <r>   -3.9807    1.0000 </r>
       <r>   -3.9310    1.0000 </r>
       <r>   -3.6812    1.0000 </r>
       <r>   -3.6205    1.0000 </r>
       <r>   -3.5162    1.0000 </r>
       <r>   -3.3752    1.0000 </r>
       <r>   -3.1379    1.0000 </r>
       <r>   -2.9865    1.0000 </r>
       <r>   -2.9514    1.0000 </r>
       <r>   -2.9295    1.0000 </r>
       <r>   -2.7705    1.0000 </r>
       <r>   -2.6397    1.0000 </r>
       <r>   -2.4271    1.0000 </r>
       <r>   -2.3356    1.0000 </r>
       <r>   -2.1284    1.0000 </r>
       <r>   -2.0137    1.0000 </r>
       <r>   -1.9134    1.0000 </r>
       <r>   -1.7148    1.0000 </r>
       <r>   -1.6340    1.0000 </r>
       <r>   -1.5442    1.0000 </r>
       <r>   -1.3045    1.0000 </r>
       <r>   -1.1436    1.0000 </r>
       <r>   -0.9356    1.0000 </r>
       <r>   -0.7538    1.0000 </r>
       <r>   -0.2729    1.0000 </r>
       <r>    0.0862    0.4871 </r>
       <r>    0.4558    0.0000 </r>
       <r>    1.0430    0.0000 </r>
       <r>    1.5765    0.0000 </r>
       <r>    1.7846    0.0000 </r>
       <r>    1.9860    0.0000 </r>
       <r>    2.2824    0.0000 </r>
       <r>    2.4647    0.0000 </r>
       <r>    2.5642    0.0000 </r>
       <r>    2.6419    0.0000 </r>
       <r>    2.7096    0.0000 </r>
       <r>    2.7196    0.0000 </r>
       <r>    2.7846    0.0000 </r>
       <r>    2.9789    0.0000 </r>
       <r>    3.0971    0.0000 </r>
      </set>
      <set comment="kpoint 4">
       <r>  -14.8491    1.0000 </r>
       <r>  -12.9594    1.0000 </r>
       <r>  -12.5239    1.0000 </r>
       <r>  -12.3009    1.0000 </r>
       <r>  -12.1197    1.0000 </r>
       <r>  -11.9596    1.0000 </r>
       <r>  -11.5765    1.0000 </r>
       <r>  -11.4995    1.0000 </r>
       <r>  -11.1043    1.0000 </r>
       <r>  -10.9886    1.0000 </r>
       <r>  -10.5645    1.0000 </r>
       <r>   -9.8033    1.0000 </r>
       <r>   -9.1612    1.0000 </r>
       <r>   -8.3228    1.0000 </r>
       <r>   -7.7878    1.0000 </r>
       <r>   -7.6406    1.0000 </r>
       <r>   -6.9368    1.0000 </r>
       <r>   -6.6548    1.0000 </r>
       <r>   -6.6150    1.0000 </r>
       <r>   -6.5847    1.0000 </r>
       <r>   -6.0984    1.0000 </r>
       <r>   -5.7013    1.0000 </r>
       <r>   -5.5366    1.0000 </r>
       <r>   -5.3021    1.0000 </r>
       <r>   -5.1942    1.0000 </r>
       <r>   -4.7834    1.0000 </r>
       <r>   -4.7206    1.0000 </r>
       <r>   -4.5678    1.0000 </r>
       <r>   -4.4780    1.0000 </r>
       <r>   -4.4050    1.0000 </r>
       <r>   -4.1535    1.0000 </r>
       <r>   -4.0253    1.0000 </r>
       <r>   -3.7628    1.0000 </r>
       <r>   -3.7205    1.0000 </r>
       <r>   -3.4343    1.0000 </r>
       <r>   -3.3241    1.0000 </r>
       <r>   -3.2187    1.0000 </r>
       <r>   -2.9654    1.0000 </r>
       <r>   -2.8867    1.0000 </r>
       <r>   -2.6987    1.0000 </r>
       <r>   -2.5513    1.0000 </r>
       <r>   -2.5113    1.0000 </r>
       <r>   -2.3920    1.0000 </r>
       <r>   -2.0793    1.0000 </r>
       <r>   -1.8820    1.0000 </r>
       <r>   -1.8094    1.0000 </r>
       <r>   -1.7398    1.0000 </r>
       <r>   -1.6859    1.0000 </r>
       <r>   -1.4498    1.0000 </r>
       <r>   -1.3293    1.0000 </r>
       <r>   -1.0683    1.0000 </r>
       <r>   -0.7885    1.0000 </r>
       <r>   -0.3947    1.0000 </r>
       <r>   -0.0910    0.9933 </r>
       <r>    0.3948    0.0000 </r>
       <r>    0.8661    0.0000 </r>
       <r>    1.5296    0.0000 </r>
       <r>    1.5669    0.0000 </r>
       <r>    1.8989    0.0000 </r>
       <r>    2.0587    0.0000 </r>
       <r>    2.2890    0.0000 </r>
       <r>    2.4107    0.0000 </r>
       <r>    2.5372    0.0000 </r>
       <r>    2.6827    0.0000 </r>
       <r>    2.7270    0.0000 </r>
       <r>    2.8625    0.0000 </r>
       <r>    2.9187    0.0000 </r>
       <r>    3.0366    0.0000 </r>
      </set>
      <set comment="kpoint 5">
       <r>  -14.5318    1.0000 </r>
       <r>  -12.5476    1.0000 </r>
       <r>  -12.1967    1.0000 </r>
       <r>  -11.9525    1.0000 </r>
       <r>  -11.7805    1.0000 </r>
       <r>  -11.6085    1.0000 </r>
       <r>  -11.2511    1.0000 </r>
       <r>  -11.1503    1.0000 </r>
       <r>  -10.8504    1.0000 </r>
       <r>  -10.7444    1.0000 </r>
       <r>  -10.3787    1.0000 </r>
       <r>   -9.9383    1.0000 </r>
       <r>   -9.2576    1.0000 </r>
       <r>   -8.6176    1.0000 </r>
       <r>   -8.0486    1.0000 </r>
       <r>   -7.9503    1.0000 </r>
       <r>   -7.3091    1.0000 </r>
       <r>   -6.9595    1.0000 </r>
       <r>   -6.8648    1.0000 </r>
       <r>   -6.7536    1.0000 </r>
       <r>   -6.4232    1.0000 </r>
       <r>   -6.1258    1.0000 </r>
       <r>   -5.9725    1.0000 </r>
       <r>   -5.9226    1.0000 </r>
       <r>   -5.5309    1.0000 </r>
       <r>   -5.1757    1.0000 </r>
       <r>   -4.9429    1.0000 </r>
       <r>   -4.7449    1.0000 </r>
       <r>   -4.6723    1.0000 </r>
       <r>   -4.6208    1.0000 </r>
       <r>   -4.2918    1.0000 </r>
       <r>   -4.2008    1.0000 </r>
       <r>   -4.1613    1.0000 </r>
       <r>   -3.7548    1.0000 </r>
       <r>   -3.3711    1.0000 </r>
       <r>   -3.2850    1.0000 </r>
       <r>   -3.1632    1.0000 </r>
       <r>   -3.0494    1.0000 </r>
       <r>   -2.9760    1.0000 </r>
       <r>   -2.8253    1.0000 </r>
       <r>   -2.7713    1.0000 </r>
       <r>   -2.6022    1.0000 </r>
       <r>   -2.4684    1.0000 </r>
       <r>   -2.1818    1.0000 </r>
       <r>   -2.0293    1.0000 </r>
       <r>   -1.9696    1.0000 </r>
       <r>   -1.8430    1.0000 </r>
       <r>   -1.8271    1.0000 </r>
       <r>   -1.6796    1.0000 </r>
       <r>   -1.4443    1.0000 </r>
       <r>   -1.2899    1.0000 </r>
       <r>   -1.1322    1.0000 </r>
       <r>   -0.5693    1.0000 </r>
       <r>   -0.3529    1.0000 </r>
       <r>    0.2581    0.0069 </r>
       <r>    0.6489    0.0000 </r>
       <r>    1.2664    0.0000 </r>
       <r>    1.3784    0.0000 </r>
       <r>    1.6342    0.0000 </r>
       <r>    1.8057    0.0000 </r>
       <r>    2.0241    0.0000 </r>
       <r>    2.2595    0.0000 </r>
       <r>    2.3225    0.0000 </r>
       <r>    2.3879    0.0000 </r>
       <r>    2.6540    0.0000 </r>
       <r>    2.7212    0.0000 </r>
       <r>    2.8573    0.0000 </r>
       <r>    2.9138    0.0000 </r>
      </set>
      <set comment="kpoint 6">
       <r>  -14.1973    1.0000 </r>
       <r>  -12.0395    1.0000 </r>
       <r>  -11.8774    1.0000 </r>
       <r>  -11.5333    1.0000 </r>
       <r>  -11.4260    1.0000 </r>
       <r>  -11.2116    1.0000 </r>
       <r>  -10.9328    1.0000 </r>
       <r>  -10.8135    1.0000 </r>
       <r>  -10.6701    1.0000 </r>
       <r>  -10.5897    1.0000 </r>
       <r>  -10.4188    1.0000 </r>
       <r>  -10.1323    1.0000 </r>
       <r>   -9.3615    1.0000 </r>
       <r>   -8.7939    1.0000 </r>
       <r>   -8.3420    1.0000 </r>
       <r>   -8.2945    1.0000 </r>
       <r>   -7.7405    1.0000 </r>
       <r>   -7.4226    1.0000 </r>
       <r>   -7.3785    1.0000 </r>
       <r>   -7.0813    1.0000 </r>
       <r>   -6.8578    1.0000 </r>
       <r>   -6.7228    1.0000 </r>
       <r>   -6.6230    1.0000 </r>
       <r>   -6.2443    1.0000 </r>
       <r>   -5.5453    1.0000 </r>
       <r>   -5.1785    1.0000 </r>
       <r>   -4.9413    1.0000 </r>
       <r>   -4.6031    1.0000 </r>
       <r>   -4.5247    1.0000 </r>
       <r>   -4.4806    1.0000 </r>
       <r>   -4.2571    1.0000 </r>
       <r>   -4.1828    1.0000 </r>
       <r>   -4.0387    1.0000 </r>
       <r>   -3.8275    1.0000 </r>
       <r>   -3.6207    1.0000 </r>
       <r>   -3.2839    1.0000 </r>
       <r>   -3.2290    1.0000 </r>
       <r>   -3.1765    1.0000 </r>
       <r>   -3.0861    1.0000 </r>
       <r>   -3.0047    1.0000 </r>
       <r>   -2.7916    1.0000 </r>
       <r>   -2.7019    1.0000 </r>
       <r>   -2.4414    1.0000 </r>
       <r>   -2.3417    1.0000 </r>
       <r>   -2.2450    1.0000 </r>
       <r>   -2.1359    1.0000 </r>
       <r>   -2.0025    1.0000 </r>
       <r>   -1.9412    1.0000 </r>
       <r>   -1.7970    1.0000 </r>
       <r>   -1.6078    1.0000 </r>
       <r>   -1.4341    1.0000 </r>
       <r>   -1.3456    1.0000 </r>
       <r>   -0.7340    1.0000 </r>
       <r>   -0.4483    1.0000 </r>
       <r>    0.1337    0.2409 </r>
       <r>    0.3962    0.0000 </r>
       <r>    1.0070    0.0000 </r>
       <r>    1.0836    0.0000 </r>
       <r>    1.4348    0.0000 </r>
       <r>    1.7271    0.0000 </r>
       <r>    1.7669    0.0000 </r>
       <r>    2.0469    0.0000 </r>
       <r>    2.1431    0.0000 </r>
       <r>    2.2938    0.0000 </r>
       <r>    2.3570    0.0000 </r>
       <r>    2.5172    0.0000 </r>
       <r>    2.6800    0.0000 </r>
       <r>    2.7755    0.0000 </r>
      </set>
      <set comment="kpoint 7">
       <r>  -13.9561    1.0000 </r>
       <r>  -11.7474    1.0000 </r>
       <r>  -11.4651    1.0000 </r>
       <r>  -11.1111    1.0000 </r>
       <r>  -11.0806    1.0000 </r>
       <r>  -10.9110    1.0000 </r>
       <r>  -10.8083    1.0000 </r>
       <r>  -10.7821    1.0000 </r>
       <r>  -10.6941    1.0000 </r>
       <r>  -10.6772    1.0000 </r>
       <r>  -10.5973    1.0000 </r>
       <r>  -10.0388    1.0000 </r>
       <r>   -9.5695    1.0000 </r>
       <r>   -8.6516    1.0000 </r>
       <r>   -8.5265    1.0000 </r>
       <r>   -8.4034    1.0000 </r>
       <r>   -8.0428    1.0000 </r>
       <r>   -7.8946    1.0000 </r>
       <r>   -7.5884    1.0000 </r>
       <r>   -7.5342    1.0000 </r>
       <r>   -7.2505    1.0000 </r>
       <r>   -7.1563    1.0000 </r>
       <r>   -7.1283    1.0000 </r>
       <r>   -6.1062    1.0000 </r>
       <r>   -5.5522    1.0000 </r>
       <r>   -4.9367    1.0000 </r>
       <r>   -4.8764    1.0000 </r>
       <r>   -4.4814    1.0000 </r>
       <r>   -4.4586    1.0000 </r>
       <r>   -4.2563    1.0000 </r>
       <r>   -4.1081    1.0000 </r>
       <r>   -4.0085    1.0000 </r>
       <r>   -3.9141    1.0000 </r>
       <r>   -3.7962    1.0000 </r>
       <r>   -3.7812    1.0000 </r>
       <r>   -3.5788    1.0000 </r>
       <r>   -3.4873    1.0000 </r>
       <r>   -3.2496    1.0000 </r>
       <r>   -3.2176    1.0000 </r>
       <r>   -2.9853    1.0000 </r>
       <r>   -2.9135    1.0000 </r>
       <r>   -2.7337    1.0000 </r>
       <r>   -2.6407    1.0000 </r>
       <r>   -2.4930    1.0000 </r>
       <r>   -2.3172    1.0000 </r>
       <r>   -2.1701    1.0000 </r>
       <r>   -2.0893    1.0000 </r>
       <r>   -1.9966    1.0000 </r>
       <r>   -1.7946    1.0000 </r>
       <r>   -1.6783    1.0000 </r>
       <r>   -1.4863    1.0000 </r>
       <r>   -1.3261    1.0000 </r>
       <r>   -0.8731    1.0000 </r>
       <r>   -0.4479    1.0000 </r>
       <r>    0.0590    0.6378 </r>
       <r>    0.1842    0.0781 </r>
       <r>    0.7742    0.0000 </r>
       <r>    0.9506    0.0000 </r>
       <r>    1.4087    0.0000 </r>
       <r>    1.5844    0.0000 </r>
       <r>    1.6873    0.0000 </r>
       <r>    1.8564    0.0000 </r>
       <r>    2.0597    0.0000 </r>
       <r>    2.1200    0.0000 </r>
       <r>    2.4048    0.0000 </r>
       <r>    2.4775    0.0000 </r>
       <r>    2.5421    0.0000 </r>
       <r>    2.5996    0.0000 </r>
      </set>
      <set comment="kpoint 8">
       <r>  -15.3043    1.0000 </r>
       <r>  -13.4494    1.0000 </r>
       <r>  -13.0509    1.0000 </r>
       <r>  -12.9385    1.0000 </r>
       <r>  -12.5132    1.0000 </r>
       <r>  -12.4398    1.0000 </r>
       <r>  -12.0701    1.0000 </r>
       <r>  -11.8321    1.0000 </r>
       <r>  -11.5221    1.0000 </r>
       <r>  -11.4414    1.0000 </r>
       <r>  -10.9636    1.0000 </r>
       <r>   -9.8703    1.0000 </r>
       <r>   -9.1459    1.0000 </r>
       <r>   -8.4801    1.0000 </r>
       <r>   -7.6291    1.0000 </r>
       <r>   -7.3522    1.0000 </r>
       <r>   -6.8554    1.0000 </r>
       <r>   -6.6330    1.0000 </r>
       <r>   -6.5644    1.0000 </r>
       <r>   -6.1742    1.0000 </r>
       <r>   -5.7108    1.0000 </r>
       <r>   -5.2789    1.0000 </r>
       <r>   -5.0156    1.0000 </r>
       <r>   -4.5982    1.0000 </r>
       <r>   -4.4053    1.0000 </r>
       <r>   -4.0042    1.0000 </r>
       <r>   -3.8153    1.0000 </r>
       <r>   -3.5325    1.0000 </r>
       <r>   -3.4160    1.0000 </r>
       <r>   -3.3432    1.0000 </r>
       <r>   -3.2554    1.0000 </r>
       <r>   -3.0917    1.0000 </r>
       <r>   -2.8927    1.0000 </r>
       <r>   -2.6732    1.0000 </r>
       <r>   -2.6377    1.0000 </r>
       <r>   -2.5344    1.0000 </r>
       <r>   -2.3620    1.0000 </r>
       <r>   -2.3355    1.0000 </r>
       <r>   -2.2252    1.0000 </r>
       <r>   -2.1187    1.0000 </r>
       <r>   -2.0049    1.0000 </r>
       <r>   -1.9310    1.0000 </r>
       <r>   -1.8472    1.0000 </r>
       <r>   -1.8074    1.0000 </r>
       <r>   -1.6487    1.0000 </r>
       <r>   -1.5910    1.0000 </r>
       <r>   -1.4095    1.0000 </r>
       <r>   -1.3269    1.0000 </r>
       <r>   -1.3228    1.0000 </r>
       <r>   -1.1457    1.0000 </r>
       <r>   -1.0350    1.0000 </r>
       <r>   -0.9158    1.0000 </r>
       <r>   -0.5268    1.0000 </r>
       <r>    0.0377    0.7434 </r>
       <r>    0.7035    0.0000 </r>
       <r>    1.1078    0.0000 </r>
       <r>    1.2390    0.0000 </r>
       <r>    1.4042    0.0000 </r>
       <r>    1.5217    0.0000 </r>
       <r>    1.6217    0.0000 </r>
       <r>    1.7616    0.0000 </r>
       <r>    1.8564    0.0000 </r>
       <r>    1.9149    0.0000 </r>
       <r>    2.2334    0.0000 </r>
       <r>    2.3100    0.0000 </r>
       <r>    2.5831    0.0000 </r>
       <r>    2.6347    0.0000 </r>
       <r>    2.6873    0.0000 </r>
      </set>
      <set comment="kpoint 9">
       <r>  -15.2513    1.0000 </r>
       <r>  -13.3726    1.0000 </r>
       <r>  -13.0065    1.0000 </r>
       <r>  -12.9193    1.0000 </r>
       <r>  -12.4368    1.0000 </r>
       <r>  -12.3790    1.0000 </r>
       <r>  -12.0306    1.0000 </r>
       <r>  -11.7332    1.0000 </r>
       <r>  -11.4717    1.0000 </r>
       <r>  -11.4000    1.0000 </r>
       <r>  -10.9193    1.0000 </r>
       <r>   -9.8388    1.0000 </r>
       <r>   -9.1416    1.0000 </r>
       <r>   -8.5386    1.0000 </r>
       <r>   -7.6421    1.0000 </r>
       <r>   -7.3043    1.0000 </r>
       <r>   -6.8415    1.0000 </r>
       <r>   -6.6418    1.0000 </r>
       <r>   -6.4936    1.0000 </r>
       <r>   -6.0905    1.0000 </r>
       <r>   -5.6624    1.0000 </r>
       <r>   -5.4228    1.0000 </r>
       <r>   -5.0998    1.0000 </r>
       <r>   -4.6807    1.0000 </r>
       <r>   -4.5965    1.0000 </r>
       <r>   -4.0713    1.0000 </r>
       <r>   -3.9582    1.0000 </r>
       <r>   -3.6713    1.0000 </r>
       <r>   -3.5669    1.0000 </r>
       <r>   -3.4136    1.0000 </r>
       <r>   -3.3514    1.0000 </r>
       <r>   -3.2648    1.0000 </r>
       <r>   -3.0255    1.0000 </r>
       <r>   -2.9842    1.0000 </r>
       <r>   -2.7643    1.0000 </r>
       <r>   -2.6493    1.0000 </r>
       <r>   -2.6166    1.0000 </r>
       <r>   -2.4909    1.0000 </r>
       <r>   -2.4467    1.0000 </r>
       <r>   -2.2654    1.0000 </r>
       <r>   -2.2131    1.0000 </r>
       <r>   -2.1243    1.0000 </r>
       <r>   -1.9817    1.0000 </r>
       <r>   -1.8563    1.0000 </r>
       <r>   -1.7951    1.0000 </r>
       <r>   -1.7172    1.0000 </r>
       <r>   -1.5981    1.0000 </r>
       <r>   -1.3847    1.0000 </r>
       <r>   -1.3054    1.0000 </r>
       <r>   -1.0886    1.0000 </r>
       <r>   -0.9966    1.0000 </r>
       <r>   -0.8780    1.0000 </r>
       <r>   -0.5028    1.0000 </r>
       <r>    0.0720    0.5674 </r>
       <r>    0.8675    0.0000 </r>
       <r>    1.0959    0.0000 </r>
       <r>    1.5443    0.0000 </r>
       <r>    1.6211    0.0000 </r>
       <r>    1.8143    0.0000 </r>
       <r>    1.8603    0.0000 </r>
       <r>    1.9932    0.0000 </r>
       <r>    2.0759    0.0000 </r>
       <r>    2.2668    0.0000 </r>
       <r>    2.4627    0.0000 </r>
       <r>    2.5519    0.0000 </r>
       <r>    2.6903    0.0000 </r>
       <r>    2.8009    0.0000 </r>
       <r>    2.9524    0.0000 </r>
      </set>
      <set comment="kpoint 10">
       <r>  -15.0957    1.0000 </r>
       <r>  -13.1760    1.0000 </r>
       <r>  -12.8506    1.0000 </r>
       <r>  -12.7827    1.0000 </r>
       <r>  -12.2585    1.0000 </r>
       <r>  -12.2089    1.0000 </r>
       <r>  -11.8871    1.0000 </r>
       <r>  -11.5359    1.0000 </r>
       <r>  -11.3228    1.0000 </r>
       <r>  -11.2605    1.0000 </r>
       <r>  -10.7780    1.0000 </r>
       <r>   -9.7784    1.0000 </r>
       <r>   -9.1514    1.0000 </r>
       <r>   -8.6042    1.0000 </r>
       <r>   -7.6017    1.0000 </r>
       <r>   -7.2726    1.0000 </r>
       <r>   -6.8570    1.0000 </r>
       <r>   -6.6200    1.0000 </r>
       <r>   -6.4633    1.0000 </r>
       <r>   -6.1271    1.0000 </r>
       <r>   -5.9238    1.0000 </r>
       <r>   -5.6149    1.0000 </r>
       <r>   -5.2113    1.0000 </r>
       <r>   -4.8667    1.0000 </r>
       <r>   -4.7898    1.0000 </r>
       <r>   -4.3505    1.0000 </r>
       <r>   -4.3106    1.0000 </r>
       <r>   -4.2555    1.0000 </r>
       <r>   -3.9429    1.0000 </r>
       <r>   -3.8686    1.0000 </r>
       <r>   -3.7396    1.0000 </r>
       <r>   -3.5762    1.0000 </r>
       <r>   -3.4127    1.0000 </r>
       <r>   -3.2957    1.0000 </r>
       <r>   -3.0852    1.0000 </r>
       <r>   -3.0182    1.0000 </r>
       <r>   -2.9276    1.0000 </r>
       <r>   -2.8809    1.0000 </r>
       <r>   -2.7715    1.0000 </r>
       <r>   -2.6047    1.0000 </r>
       <r>   -2.5620    1.0000 </r>
       <r>   -2.4594    1.0000 </r>
       <r>   -2.2866    1.0000 </r>
       <r>   -1.9594    1.0000 </r>
       <r>   -1.8679    1.0000 </r>
       <r>   -1.8276    1.0000 </r>
       <r>   -1.6699    1.0000 </r>
       <r>   -1.4520    1.0000 </r>
       <r>   -1.2868    1.0000 </r>
       <r>   -1.0815    1.0000 </r>
       <r>   -0.9042    1.0000 </r>
       <r>   -0.8151    1.0000 </r>
       <r>   -0.3765    1.0000 </r>
       <r>    0.1307    0.2545 </r>
       <r>    0.4663    0.0000 </r>
       <r>    1.0988    0.0000 </r>
       <r>    1.5339    0.0000 </r>
       <r>    1.6753    0.0000 </r>
       <r>    1.8267    0.0000 </r>
       <r>    2.1428    0.0000 </r>
       <r>    2.3795    0.0000 </r>
       <r>    2.4765    0.0000 </r>
       <r>    2.7755    0.0000 </r>
       <r>    2.8464    0.0000 </r>
       <r>    2.9337    0.0000 </r>
       <r>    2.9539    0.0000 </r>
       <r>    3.0987    0.0000 </r>
       <r>    3.1088    0.0000 </r>
      </set>
      <set comment="kpoint 11">
       <r>  -14.8477    1.0000 </r>
       <r>  -12.8647    1.0000 </r>
       <r>  -12.5911    1.0000 </r>
       <r>  -12.5313    1.0000 </r>
       <r>  -11.9891    1.0000 </r>
       <r>  -11.9424    1.0000 </r>
       <r>  -11.6485    1.0000 </r>
       <r>  -11.2599    1.0000 </r>
       <r>  -11.0908    1.0000 </r>
       <r>  -11.0386    1.0000 </r>
       <r>  -10.5607    1.0000 </r>
       <r>   -9.7603    1.0000 </r>
       <r>   -9.2169    1.0000 </r>
       <r>   -8.7354    1.0000 </r>
       <r>   -7.6030    1.0000 </r>
       <r>   -7.3588    1.0000 </r>
       <r>   -7.0872    1.0000 </r>
       <r>   -6.6621    1.0000 </r>
       <r>   -6.6130    1.0000 </r>
       <r>   -6.5590    1.0000 </r>
       <r>   -5.9809    1.0000 </r>
       <r>   -5.7840    1.0000 </r>
       <r>   -5.5703    1.0000 </r>
       <r>   -5.2291    1.0000 </r>
       <r>   -5.1686    1.0000 </r>
       <r>   -4.9907    1.0000 </r>
       <r>   -4.6880    1.0000 </r>
       <r>   -4.6300    1.0000 </r>
       <r>   -4.5208    1.0000 </r>
       <r>   -4.3132    1.0000 </r>
       <r>   -4.1515    1.0000 </r>
       <r>   -3.9829    1.0000 </r>
       <r>   -3.7111    1.0000 </r>
       <r>   -3.6160    1.0000 </r>
       <r>   -3.3680    1.0000 </r>
       <r>   -3.1736    1.0000 </r>
       <r>   -3.1333    1.0000 </r>
       <r>   -3.0572    1.0000 </r>
       <r>   -2.9390    1.0000 </r>
       <r>   -2.6519    1.0000 </r>
       <r>   -2.6173    1.0000 </r>
       <r>   -2.4944    1.0000 </r>
       <r>   -2.4619    1.0000 </r>
       <r>   -1.9882    1.0000 </r>
       <r>   -1.9441    1.0000 </r>
       <r>   -1.8804    1.0000 </r>
       <r>   -1.7955    1.0000 </r>
       <r>   -1.7298    1.0000 </r>
       <r>   -1.4273    1.0000 </r>
       <r>   -1.3278    1.0000 </r>
       <r>   -1.0394    1.0000 </r>
       <r>   -0.8568    1.0000 </r>
       <r>   -0.4219    1.0000 </r>
       <r>   -0.1616    0.9997 </r>
       <r>    0.3522    0.0001 </r>
       <r>    0.9057    0.0000 </r>
       <r>    1.3786    0.0000 </r>
       <r>    1.4617    0.0000 </r>
       <r>    1.5630    0.0000 </r>
       <r>    1.6629    0.0000 </r>
       <r>    2.2446    0.0000 </r>
       <r>    2.4052    0.0000 </r>
       <r>    2.6041    0.0000 </r>
       <r>    2.7120    0.0000 </r>
       <r>    2.7628    0.0000 </r>
       <r>    3.0165    0.0000 </r>
       <r>    3.0713    0.0000 </r>
       <r>    3.2145    0.0000 </r>
      </set>
      <set comment="kpoint 12">
       <r>  -14.5307    1.0000 </r>
       <r>  -12.4481    1.0000 </r>
       <r>  -12.2506    1.0000 </r>
       <r>  -12.1723    1.0000 </r>
       <r>  -11.6629    1.0000 </r>
       <r>  -11.6006    1.0000 </r>
       <r>  -11.3364    1.0000 </r>
       <r>  -10.9472    1.0000 </r>
       <r>  -10.8160    1.0000 </r>
       <r>  -10.7747    1.0000 </r>
       <r>  -10.3551    1.0000 </r>
       <r>   -9.9297    1.0000 </r>
       <r>   -9.2850    1.0000 </r>
       <r>   -8.9344    1.0000 </r>
       <r>   -7.8731    1.0000 </r>
       <r>   -7.6717    1.0000 </r>
       <r>   -7.4245    1.0000 </r>
       <r>   -7.0765    1.0000 </r>
       <r>   -6.9266    1.0000 </r>
       <r>   -6.7455    1.0000 </r>
       <r>   -6.2978    1.0000 </r>
       <r>   -6.1538    1.0000 </r>
       <r>   -6.0885    1.0000 </r>
       <r>   -5.8811    1.0000 </r>
       <r>   -5.6236    1.0000 </r>
       <r>   -5.3439    1.0000 </r>
       <r>   -4.9380    1.0000 </r>
       <r>   -4.9001    1.0000 </r>
       <r>   -4.4990    1.0000 </r>
       <r>   -4.3778    1.0000 </r>
       <r>   -4.2994    1.0000 </r>
       <r>   -4.1930    1.0000 </r>
       <r>   -3.9751    1.0000 </r>
       <r>   -3.7622    1.0000 </r>
       <r>   -3.3641    1.0000 </r>
       <r>   -3.2926    1.0000 </r>
       <r>   -3.0602    1.0000 </r>
       <r>   -2.9675    1.0000 </r>
       <r>   -2.8810    1.0000 </r>
       <r>   -2.8278    1.0000 </r>
       <r>   -2.7415    1.0000 </r>
       <r>   -2.5324    1.0000 </r>
       <r>   -2.4318    1.0000 </r>
       <r>   -2.2797    1.0000 </r>
       <r>   -2.1622    1.0000 </r>
       <r>   -1.9967    1.0000 </r>
       <r>   -1.9193    1.0000 </r>
       <r>   -1.8419    1.0000 </r>
       <r>   -1.7135    1.0000 </r>
       <r>   -1.4998    1.0000 </r>
       <r>   -1.2945    1.0000 </r>
       <r>   -1.0433    1.0000 </r>
       <r>   -0.6208    1.0000 </r>
       <r>   -0.4823    1.0000 </r>
       <r>    0.2452    0.0113 </r>
       <r>    0.6092    0.0000 </r>
       <r>    1.0407    0.0000 </r>
       <r>    1.2117    0.0000 </r>
       <r>    1.2915    0.0000 </r>
       <r>    1.3424    0.0000 </r>
       <r>    2.1673    0.0000 </r>
       <r>    2.2314    0.0000 </r>
       <r>    2.3469    0.0000 </r>
       <r>    2.4774    0.0000 </r>
       <r>    2.6324    0.0000 </r>
       <r>    2.7437    0.0000 </r>
       <r>    2.8913    0.0000 </r>
       <r>    2.9851    0.0000 </r>
      </set>
      <set comment="kpoint 13">
       <r>  -14.1967    1.0000 </r>
       <r>  -11.9469    1.0000 </r>
       <r>  -11.9023    1.0000 </r>
       <r>  -11.7223    1.0000 </r>
       <r>  -11.3635    1.0000 </r>
       <r>  -11.2112    1.0000 </r>
       <r>  -11.0080    1.0000 </r>
       <r>  -10.6902    1.0000 </r>
       <r>  -10.6131    1.0000 </r>
       <r>  -10.5639    1.0000 </r>
       <r>  -10.4316    1.0000 </r>
       <r>  -10.1389    1.0000 </r>
       <r>   -9.3646    1.0000 </r>
       <r>   -8.9243    1.0000 </r>
       <r>   -8.2867    1.0000 </r>
       <r>   -8.0758    1.0000 </r>
       <r>   -7.7859    1.0000 </r>
       <r>   -7.7420    1.0000 </r>
       <r>   -7.3215    1.0000 </r>
       <r>   -7.0521    1.0000 </r>
       <r>   -6.7997    1.0000 </r>
       <r>   -6.6575    1.0000 </r>
       <r>   -6.6218    1.0000 </r>
       <r>   -6.2646    1.0000 </r>
       <r>   -5.7008    1.0000 </r>
       <r>   -5.3085    1.0000 </r>
       <r>   -4.9687    1.0000 </r>
       <r>   -4.7481    1.0000 </r>
       <r>   -4.5192    1.0000 </r>
       <r>   -4.3707    1.0000 </r>
       <r>   -4.1297    1.0000 </r>
       <r>   -4.0785    1.0000 </r>
       <r>   -3.8267    1.0000 </r>
       <r>   -3.7919    1.0000 </r>
       <r>   -3.3205    1.0000 </r>
       <r>   -3.3099    1.0000 </r>
       <r>   -3.2455    1.0000 </r>
       <r>   -3.1703    1.0000 </r>
       <r>   -3.0815    1.0000 </r>
       <r>   -2.9339    1.0000 </r>
       <r>   -2.8161    1.0000 </r>
       <r>   -2.7688    1.0000 </r>
       <r>   -2.5864    1.0000 </r>
       <r>   -2.3902    1.0000 </r>
       <r>   -2.2626    1.0000 </r>
       <r>   -2.1425    1.0000 </r>
       <r>   -2.0373    1.0000 </r>
       <r>   -1.9905    1.0000 </r>
       <r>   -1.8132    1.0000 </r>
       <r>   -1.5361    1.0000 </r>
       <r>   -1.4350    1.0000 </r>
       <r>   -1.3518    1.0000 </r>
       <r>   -0.7564    1.0000 </r>
       <r>   -0.5089    1.0000 </r>
       <r>    0.1207    0.3015 </r>
       <r>    0.3400    0.0001 </r>
       <r>    0.8303    0.0000 </r>
       <r>    0.9523    0.0000 </r>
       <r>    1.2373    0.0000 </r>
       <r>    1.3720    0.0000 </r>
       <r>    1.8432    0.0000 </r>
       <r>    1.9748    0.0000 </r>
       <r>    2.1179    0.0000 </r>
       <r>    2.2406    0.0000 </r>
       <r>    2.4431    0.0000 </r>
       <r>    2.6190    0.0000 </r>
       <r>    2.6628    0.0000 </r>
       <r>    2.7519    0.0000 </r>
      </set>
      <set comment="kpoint 14">
       <r>  -13.9560    1.0000 </r>
       <r>  -11.7502    1.0000 </r>
       <r>  -11.3944    1.0000 </r>
       <r>  -11.2272    1.0000 </r>
       <r>  -11.0774    1.0000 </r>
       <r>  -10.9234    1.0000 </r>
       <r>  -10.8303    1.0000 </r>
       <r>  -10.7969    1.0000 </r>
       <r>  -10.6660    1.0000 </r>
       <r>  -10.6637    1.0000 </r>
       <r>  -10.5431    1.0000 </r>
       <r>  -10.0229    1.0000 </r>
       <r>   -9.5676    1.0000 </r>
       <r>   -8.5656    1.0000 </r>
       <r>   -8.5177    1.0000 </r>
       <r>   -8.3631    1.0000 </r>
       <r>   -8.2921    1.0000 </r>
       <r>   -7.9046    1.0000 </r>
       <r>   -7.5586    1.0000 </r>
       <r>   -7.4802    1.0000 </r>
       <r>   -7.2798    1.0000 </r>
       <r>   -7.1323    1.0000 </r>
       <r>   -7.0972    1.0000 </r>
       <r>   -6.0650    1.0000 </r>
       <r>   -5.5877    1.0000 </r>
       <r>   -5.0498    1.0000 </r>
       <r>   -4.9810    1.0000 </r>
       <r>   -4.4365    1.0000 </r>
       <r>   -4.4022    1.0000 </r>
       <r>   -4.2171    1.0000 </r>
       <r>   -4.1179    1.0000 </r>
       <r>   -4.0694    1.0000 </r>
       <r>   -3.8952    1.0000 </r>
       <r>   -3.6832    1.0000 </r>
       <r>   -3.6245    1.0000 </r>
       <r>   -3.5018    1.0000 </r>
       <r>   -3.4305    1.0000 </r>
       <r>   -3.3575    1.0000 </r>
       <r>   -3.2206    1.0000 </r>
       <r>   -2.9771    1.0000 </r>
       <r>   -2.9418    1.0000 </r>
       <r>   -2.7655    1.0000 </r>
       <r>   -2.5976    1.0000 </r>
       <r>   -2.5621    1.0000 </r>
       <r>   -2.4926    1.0000 </r>
       <r>   -2.1335    1.0000 </r>
       <r>   -2.0828    1.0000 </r>
       <r>   -1.9867    1.0000 </r>
       <r>   -1.6842    1.0000 </r>
       <r>   -1.6656    1.0000 </r>
       <r>   -1.5109    1.0000 </r>
       <r>   -1.3500    1.0000 </r>
       <r>   -0.9125    1.0000 </r>
       <r>   -0.4541    1.0000 </r>
       <r>    0.0600    0.6324 </r>
       <r>    0.2118    0.0353 </r>
       <r>    0.7974    0.0000 </r>
       <r>    0.9122    0.0000 </r>
       <r>    1.4570    0.0000 </r>
       <r>    1.5392    0.0000 </r>
       <r>    1.5945    0.0000 </r>
       <r>    1.7629    0.0000 </r>
       <r>    1.9840    0.0000 </r>
       <r>    2.1944    0.0000 </r>
       <r>    2.3128    0.0000 </r>
       <r>    2.4649    0.0000 </r>
       <r>    2.5106    0.0000 </r>
       <r>    2.5712    0.0000 </r>
      </set>
      <set comment="kpoint 15">
       <r>  -13.9563    1.0000 </r>
       <r>  -11.7497    1.0000 </r>
       <r>  -11.4987    1.0000 </r>
       <r>  -11.0605    1.0000 </r>
       <r>  -11.0347    1.0000 </r>
       <r>  -10.8976    1.0000 </r>
       <r>  -10.8147    1.0000 </r>
       <r>  -10.7708    1.0000 </r>
       <r>  -10.7211    1.0000 </r>
       <r>  -10.6658    1.0000 </r>
       <r>  -10.6593    1.0000 </r>
       <r>  -10.0429    1.0000 </r>
       <r>   -9.5706    1.0000 </r>
       <r>   -8.7203    1.0000 </r>
       <r>   -8.5558    1.0000 </r>
       <r>   -8.3974    1.0000 </r>
       <r>   -7.9079    1.0000 </r>
       <r>   -7.8689    1.0000 </r>
       <r>   -7.5930    1.0000 </r>
       <r>   -7.5671    1.0000 </r>
       <r>   -7.2439    1.0000 </r>
       <r>   -7.1880    1.0000 </r>
       <r>   -7.1309    1.0000 </r>
       <r>   -6.0887    1.0000 </r>
       <r>   -5.4557    1.0000 </r>
       <r>   -5.0121    1.0000 </r>
       <r>   -4.7009    1.0000 </r>
       <r>   -4.5423    1.0000 </r>
       <r>   -4.4532    1.0000 </r>
       <r>   -4.3343    1.0000 </r>
       <r>   -4.1185    1.0000 </r>
       <r>   -3.9888    1.0000 </r>
       <r>   -3.9579    1.0000 </r>
       <r>   -3.8768    1.0000 </r>
       <r>   -3.8401    1.0000 </r>
       <r>   -3.6348    1.0000 </r>
       <r>   -3.5143    1.0000 </r>
       <r>   -3.3232    1.0000 </r>
       <r>   -3.2377    1.0000 </r>
       <r>   -2.9713    1.0000 </r>
       <r>   -2.7792    1.0000 </r>
       <r>   -2.6793    1.0000 </r>
       <r>   -2.6335    1.0000 </r>
       <r>   -2.5924    1.0000 </r>
       <r>   -2.3398    1.0000 </r>
       <r>   -2.1286    1.0000 </r>
       <r>   -2.1020    1.0000 </r>
       <r>   -1.9528    1.0000 </r>
       <r>   -1.7203    1.0000 </r>
       <r>   -1.6608    1.0000 </r>
       <r>   -1.4700    1.0000 </r>
       <r>   -1.3495    1.0000 </r>
       <r>   -0.9063    1.0000 </r>
       <r>   -0.4241    1.0000 </r>
       <r>    0.0452    0.7084 </r>
       <r>    0.3358    0.0002 </r>
       <r>    0.8314    0.0000 </r>
       <r>    1.1074    0.0000 </r>
       <r>    1.3992    0.0000 </r>
       <r>    1.6757    0.0000 </r>
       <r>    1.7705    0.0000 </r>
       <r>    1.8090    0.0000 </r>
       <r>    2.0689    0.0000 </r>
       <r>    2.2608    0.0000 </r>
       <r>    2.3436    0.0000 </r>
       <r>    2.4016    0.0000 </r>
       <r>    2.4721    0.0000 </r>
       <r>    2.6033    0.0000 </r>
      </set>
      <set comment="kpoint 16">
       <r>  -14.1976    1.0000 </r>
       <r>  -12.0660    1.0000 </r>
       <r>  -11.8724    1.0000 </r>
       <r>  -11.4495    1.0000 </r>
       <r>  -11.4344    1.0000 </r>
       <r>  -11.2090    1.0000 </r>
       <r>  -10.9351    1.0000 </r>
       <r>  -10.8887    1.0000 </r>
       <r>  -10.6536    1.0000 </r>
       <r>  -10.5926    1.0000 </r>
       <r>  -10.4143    1.0000 </r>
       <r>  -10.1451    1.0000 </r>
       <r>   -9.3828    1.0000 </r>
       <r>   -8.7060    1.0000 </r>
       <r>   -8.4546    1.0000 </r>
       <r>   -8.3096    1.0000 </r>
       <r>   -7.6915    1.0000 </r>
       <r>   -7.4036    1.0000 </r>
       <r>   -7.2933    1.0000 </r>
       <r>   -7.1106    1.0000 </r>
       <r>   -6.8310    1.0000 </r>
       <r>   -6.7721    1.0000 </r>
       <r>   -6.6267    1.0000 </r>
       <r>   -6.2243    1.0000 </r>
       <r>   -5.5432    1.0000 </r>
       <r>   -5.0405    1.0000 </r>
       <r>   -4.9118    1.0000 </r>
       <r>   -4.7969    1.0000 </r>
       <r>   -4.4789    1.0000 </r>
       <r>   -4.3752    1.0000 </r>
       <r>   -4.2724    1.0000 </r>
       <r>   -4.2046    1.0000 </r>
       <r>   -4.0507    1.0000 </r>
       <r>   -3.8641    1.0000 </r>
       <r>   -3.6888    1.0000 </r>
       <r>   -3.4869    1.0000 </r>
       <r>   -3.3701    1.0000 </r>
       <r>   -3.2082    1.0000 </r>
       <r>   -3.1128    1.0000 </r>
       <r>   -2.9329    1.0000 </r>
       <r>   -2.7903    1.0000 </r>
       <r>   -2.6445    1.0000 </r>
       <r>   -2.4501    1.0000 </r>
       <r>   -2.3615    1.0000 </r>
       <r>   -2.2133    1.0000 </r>
       <r>   -2.1232    1.0000 </r>
       <r>   -1.9513    1.0000 </r>
       <r>   -1.9057    1.0000 </r>
       <r>   -1.7812    1.0000 </r>
       <r>   -1.5309    1.0000 </r>
       <r>   -1.4319    1.0000 </r>
       <r>   -1.3325    1.0000 </r>
       <r>   -0.7110    1.0000 </r>
       <r>   -0.3519    1.0000 </r>
       <r>    0.0942    0.4425 </r>
       <r>    0.5482    0.0000 </r>
       <r>    0.9843    0.0000 </r>
       <r>    1.2341    0.0000 </r>
       <r>    1.4211    0.0000 </r>
       <r>    1.8095    0.0000 </r>
       <r>    1.9231    0.0000 </r>
       <r>    2.1345    0.0000 </r>
       <r>    2.2349    0.0000 </r>
       <r>    2.3009    0.0000 </r>
       <r>    2.3674    0.0000 </r>
       <r>    2.4662    0.0000 </r>
       <r>    2.4934    0.0000 </r>
       <r>    2.6828    0.0000 </r>
      </set>
      <set comment="kpoint 17">
       <r>  -14.5320    1.0000 </r>
       <r>  -12.5599    1.0000 </r>
       <r>  -12.1893    1.0000 </r>
       <r>  -11.9111    1.0000 </r>
       <r>  -11.7973    1.0000 </r>
       <r>  -11.6079    1.0000 </r>
       <r>  -11.2480    1.0000 </r>
       <r>  -11.1863    1.0000 </r>
       <r>  -10.8451    1.0000 </r>
       <r>  -10.7361    1.0000 </r>
       <r>  -10.3848    1.0000 </r>
       <r>   -9.9390    1.0000 </r>
       <r>   -9.2984    1.0000 </r>
       <r>   -8.5189    1.0000 </r>
       <r>   -8.1509    1.0000 </r>
       <r>   -7.9096    1.0000 </r>
       <r>   -7.2746    1.0000 </r>
       <r>   -6.9647    1.0000 </r>
       <r>   -6.8346    1.0000 </r>
       <r>   -6.7618    1.0000 </r>
       <r>   -6.4460    1.0000 </r>
       <r>   -6.1193    1.0000 </r>
       <r>   -5.9561    1.0000 </r>
       <r>   -5.9220    1.0000 </r>
       <r>   -5.5825    1.0000 </r>
       <r>   -5.1198    1.0000 </r>
       <r>   -4.9455    1.0000 </r>
       <r>   -4.8349    1.0000 </r>
       <r>   -4.6128    1.0000 </r>
       <r>   -4.5458    1.0000 </r>
       <r>   -4.2946    1.0000 </r>
       <r>   -4.2192    1.0000 </r>
       <r>   -4.1649    1.0000 </r>
       <r>   -3.8125    1.0000 </r>
       <r>   -3.4267    1.0000 </r>
       <r>   -3.3266    1.0000 </r>
       <r>   -3.1919    1.0000 </r>
       <r>   -3.0518    1.0000 </r>
       <r>   -2.9840    1.0000 </r>
       <r>   -2.8614    1.0000 </r>
       <r>   -2.7563    1.0000 </r>
       <r>   -2.6242    1.0000 </r>
       <r>   -2.4467    1.0000 </r>
       <r>   -2.2094    1.0000 </r>
       <r>   -2.0218    1.0000 </r>
       <r>   -1.9569    1.0000 </r>
       <r>   -1.8368    1.0000 </r>
       <r>   -1.8269    1.0000 </r>
       <r>   -1.6687    1.0000 </r>
       <r>   -1.3557    1.0000 </r>
       <r>   -1.2793    1.0000 </r>
       <r>   -1.1021    1.0000 </r>
       <r>   -0.5380    1.0000 </r>
       <r>   -0.2189    1.0000 </r>
       <r>    0.2444    0.0116 </r>
       <r>    0.7001    0.0000 </r>
       <r>    1.1981    0.0000 </r>
       <r>    1.3291    0.0000 </r>
       <r>    1.6766    0.0000 </r>
       <r>    1.9338    0.0000 </r>
       <r>    2.0245    0.0000 </r>
       <r>    2.2755    0.0000 </r>
       <r>    2.3980    0.0000 </r>
       <r>    2.4752    0.0000 </r>
       <r>    2.5732    0.0000 </r>
       <r>    2.6912    0.0000 </r>
       <r>    2.7558    0.0000 </r>
       <r>    2.8388    0.0000 </r>
      </set>
      <set comment="kpoint 18">
       <r>  -14.8490    1.0000 </r>
       <r>  -12.9551    1.0000 </r>
       <r>  -12.5308    1.0000 </r>
       <r>  -12.3155    1.0000 </r>
       <r>  -12.1119    1.0000 </r>
       <r>  -11.9594    1.0000 </r>
       <r>  -11.5732    1.0000 </r>
       <r>  -11.4856    1.0000 </r>
       <r>  -11.0998    1.0000 </r>
       <r>  -10.9924    1.0000 </r>
       <r>  -10.5631    1.0000 </r>
       <r>   -9.7906    1.0000 </r>
       <r>   -9.2165    1.0000 </r>
       <r>   -8.3630    1.0000 </r>
       <r>   -7.7466    1.0000 </r>
       <r>   -7.5019    1.0000 </r>
       <r>   -7.0201    1.0000 </r>
       <r>   -6.6897    1.0000 </r>
       <r>   -6.6264    1.0000 </r>
       <r>   -6.5973    1.0000 </r>
       <r>   -6.0658    1.0000 </r>
       <r>   -5.7024    1.0000 </r>
       <r>   -5.4688    1.0000 </r>
       <r>   -5.2973    1.0000 </r>
       <r>   -5.2570    1.0000 </r>
       <r>   -4.8003    1.0000 </r>
       <r>   -4.7148    1.0000 </r>
       <r>   -4.5628    1.0000 </r>
       <r>   -4.4815    1.0000 </r>
       <r>   -4.3911    1.0000 </r>
       <r>   -4.1550    1.0000 </r>
       <r>   -4.0803    1.0000 </r>
       <r>   -3.7606    1.0000 </r>
       <r>   -3.6931    1.0000 </r>
       <r>   -3.4155    1.0000 </r>
       <r>   -3.3315    1.0000 </r>
       <r>   -3.1867    1.0000 </r>
       <r>   -2.9599    1.0000 </r>
       <r>   -2.9036    1.0000 </r>
       <r>   -2.6870    1.0000 </r>
       <r>   -2.5969    1.0000 </r>
       <r>   -2.5140    1.0000 </r>
       <r>   -2.3988    1.0000 </r>
       <r>   -2.1459    1.0000 </r>
       <r>   -1.8765    1.0000 </r>
       <r>   -1.8306    1.0000 </r>
       <r>   -1.7664    1.0000 </r>
       <r>   -1.6787    1.0000 </r>
       <r>   -1.4311    1.0000 </r>
       <r>   -1.2225    1.0000 </r>
       <r>   -1.0530    1.0000 </r>
       <r>   -0.7634    1.0000 </r>
       <r>   -0.3259    1.0000 </r>
       <r>   -0.0261    0.9402 </r>
       <r>    0.3871    0.0000 </r>
       <r>    0.8059    0.0000 </r>
       <r>    1.3674    0.0000 </r>
       <r>    1.5384    0.0000 </r>
       <r>    1.8633    0.0000 </r>
       <r>    2.0457    0.0000 </r>
       <r>    2.2692    0.0000 </r>
       <r>    2.3918    0.0000 </r>
       <r>    2.5411    0.0000 </r>
       <r>    2.7127    0.0000 </r>
       <r>    2.8292    0.0000 </r>
       <r>    2.8832    0.0000 </r>
       <r>    2.9533    0.0000 </r>
[...]
       <r>    2.7234    0.0000 </r>
      </set>
      <set comment="kpoint 54">
       <r>  -13.9561    1.0000 </r>
       <r>  -11.7525    1.0000 </r>
       <r>  -11.4537    1.0000 </r>
       <r>  -11.1330    1.0000 </r>
       <r>  -11.0562    1.0000 </r>
       <r>  -10.9140    1.0000 </r>
       <r>  -10.8322    1.0000 </r>
       <r>  -10.8084    1.0000 </r>
       <r>  -10.6867    1.0000 </r>
       <r>  -10.6510    1.0000 </r>
       <r>  -10.5838    1.0000 </r>
       <r>  -10.0266    1.0000 </r>
       <r>   -9.5689    1.0000 </r>
       <r>   -8.6297    1.0000 </r>
       <r>   -8.5907    1.0000 </r>
       <r>   -8.4041    1.0000 </r>
       <r>   -8.0828    1.0000 </r>
       <r>   -7.8851    1.0000 </r>
       <r>   -7.5620    1.0000 </r>
       <r>   -7.5240    1.0000 </r>
       <r>   -7.2546    1.0000 </r>
       <r>   -7.1418    1.0000 </r>
       <r>   -7.1080    1.0000 </r>
       <r>   -6.0488    1.0000 </r>
       <r>   -5.4990    1.0000 </r>
       <r>   -5.1055    1.0000 </r>
       <r>   -4.9084    1.0000 </r>
       <r>   -4.4493    1.0000 </r>
       <r>   -4.4025    1.0000 </r>
       <r>   -4.2609    1.0000 </r>
       <r>   -4.1280    1.0000 </r>
       <r>   -4.0478    1.0000 </r>
       <r>   -3.9036    1.0000 </r>
       <r>   -3.7434    1.0000 </r>
       <r>   -3.7254    1.0000 </r>
       <r>   -3.5613    1.0000 </r>
       <r>   -3.4762    1.0000 </r>
       <r>   -3.3352    1.0000 </r>
       <r>   -3.2228    1.0000 </r>
       <r>   -3.0298    1.0000 </r>
       <r>   -2.9818    1.0000 </r>
       <r>   -2.6923    1.0000 </r>
       <r>   -2.6598    1.0000 </r>
       <r>   -2.6002    1.0000 </r>
       <r>   -2.3360    1.0000 </r>
       <r>   -2.1462    1.0000 </r>
       <r>   -2.0783    1.0000 </r>
       <r>   -1.8955    1.0000 </r>
       <r>   -1.6864    1.0000 </r>
       <r>   -1.6122    1.0000 </r>
       <r>   -1.4938    1.0000 </r>
       <r>   -1.3830    1.0000 </r>
       <r>   -0.9312    1.0000 </r>
       <r>   -0.4331    1.0000 </r>
       <r>    0.0418    0.7245 </r>
       <r>    0.3171    0.0005 </r>
       <r>    0.8351    0.0000 </r>
       <r>    1.1224    0.0000 </r>
       <r>    1.3928    0.0000 </r>
       <r>    1.6222    0.0000 </r>
       <r>    1.6676    0.0000 </r>
       <r>    1.8733    0.0000 </r>
       <r>    2.0129    0.0000 </r>
       <r>    2.1408    0.0000 </r>
       <r>    2.2146    0.0000 </r>
       <r>    2.3545    0.0000 </r>
       <r>    2.4472    0.0000 </r>
       <r>    2.5250    0.0000 </r>
      </set>
     </set>
    </set>
   </array>
  </eigenvalues>
  <separator name="orbital magnetization" >
   <v name="MAGDIPOLOUT">      0.00000000      0.00000000      0.00000000</v>
  </separator>
  <dos>
   <i name="efermi">      0.08396497 </i>
   <total>
    <array>
     <dimension dim="1">gridpoints</dimension>
     <dimension dim="2">spin</dimension>
     <field>energy</field>
     <field>total</field>
     <field>integrated</field>
     <set>
      <set comment="spin 1">
       <r>   -16.3055     0.0000     0.0000 </r>
       <r>   -16.2371     0.0000     0.0000 </r>
       <r>   -16.1687     0.0000     0.0000 </r>
       <r>   -16.1003     0.0000     0.0000 </r>
       <r>   -16.0319     0.0000     0.0000 </r>
       <r>   -15.9635     0.0000     0.0000 </r>
       <r>   -15.8951     0.0000     0.0000 </r>
       <r>   -15.8267     0.0000     0.0000 </r>
       <r>   -15.7583     0.0000     0.0000 </r>
       <r>   -15.6899     0.0000     0.0000 </r>
       <r>   -15.6215     0.0000     0.0000 </r>
       <r>   -15.5531     0.0005     0.0000 </r>
       <r>   -15.4847     0.0137     0.0010 </r>
       <r>   -15.4163     0.1577     0.0118 </r>
       <r>   -15.3479     0.8227     0.0680 </r>
       <r>   -15.2795     2.0180     0.2061 </r>
       <r>   -15.2111     2.4828     0.3759 </r>
       <r>   -15.1427     2.0980     0.5194 </r>
       <r>   -15.0743     1.9250     0.6511 </r>
       <r>   -15.0059     1.3313     0.7421 </r>
       <r>   -14.9375     0.8074     0.7973 </r>
       <r>   -14.8691     1.3168     0.8874 </r>
       <r>   -14.8007     1.6459     1.0000 </r>
       <r>   -14.7323     0.9084     1.0621 </r>
       <r>   -14.6639     0.3329     1.0849 </r>
       <r>   -14.5955     0.7023     1.1329 </r>
       <r>   -14.5271     1.5385     1.2382 </r>
       <r>   -14.4587     1.4575     1.3379 </r>
       <r>   -14.3903     0.5942     1.3785 </r>
       <r>   -14.3219     0.2572     1.3961 </r>
       <r>   -14.2535     0.7888     1.4500 </r>
       <r>   -14.1851     1.5992     1.5594 </r>
       <r>   -14.1167     1.4204     1.6566 </r>
       <r>   -14.0483     0.8757     1.7165 </r>
       <r>   -13.9799     1.2991     1.8053 </r>
       <r>   -13.9115     1.6585     1.9188 </r>
       <r>   -13.8431     0.9402     1.9831 </r>
       <r>   -13.7747     0.2241     1.9984 </r>
       <r>   -13.7063     0.0237     2.0000 </r>
       <r>   -13.6379     0.0245     2.0017 </r>
       <r>   -13.5695     0.1831     2.0142 </r>
       <r>   -13.5011     0.7279     2.0640 </r>
       <r>   -13.4327     1.5648     2.1711 </r>
       <r>   -13.3643     2.0088     2.3085 </r>
       <r>   -13.2959     1.9554     2.4422 </r>
       <r>   -13.2275     1.8839     2.5711 </r>
       <r>   -13.1591     1.9496     2.7044 </r>
       <r>   -13.0907     2.4229     2.8702 </r>
       <r>   -13.0223     3.3761     3.1011 </r>
       <r>   -12.9539     4.3692     3.3999 </r>
       <r>   -12.8855     4.9218     3.7366 </r>
       <r>   -12.8171     4.7214     4.0595 </r>
       <r>   -12.7487     3.5621     4.3032 </r>
       <r>   -12.6803     2.5258     4.4759 </r>
       <r>   -12.6119     3.3080     4.7022 </r>
       <r>   -12.5435     5.4330     5.0738 </r>
       <r>   -12.4751     6.5278     5.5203 </r>
       <r>   -12.4067     6.3350     5.9536 </r>
       <r>   -12.3383     5.8125     6.3512 </r>
       <r>   -12.2699     5.5826     6.7330 </r>
       <r>   -12.2015     5.9508     7.1401 </r>
       <r>   -12.1331     5.9673     7.5482 </r>
       <r>   -12.0647     6.0693     7.9634 </r>
       <r>   -11.9963     7.2298     8.4579 </r>
       <r>   -11.9279     8.4054     9.0328 </r>
       <r>   -11.8595     8.0761     9.5852 </r>
       <r>   -11.7911     7.1028    10.0711 </r>
       <r>   -11.7227     6.7149    10.5304 </r>
       <r>   -11.6543     6.7370    10.9912 </r>
       <r>   -11.5859     7.2460    11.4868 </r>
       <r>   -11.5175     8.3604    12.0586 </r>
       <r>   -11.4491     9.7075    12.7226 </r>
       <r>   -11.3807     9.6757    13.3844 </r>
       <r>   -11.3123     8.7569    13.9834 </r>
       <r>   -11.2439     8.4022    14.5581 </r>
       <r>   -11.1755     7.9546    15.1022 </r>
       <r>   -11.1071     7.5165    15.6164 </r>
       <r>   -11.0387     8.1477    16.1737 </r>
       <r>   -10.9703     9.0658    16.7938 </r>
       <r>   -10.9019     9.7504    17.4607 </r>
       <r>   -10.8335    10.4662    18.1766 </r>
       <r>   -10.7651    11.2139    18.9436 </r>
       <r>   -10.6967    10.8081    19.6829 </r>
       <r>   -10.6283     9.8830    20.3589 </r>
       <r>   -10.5599     8.4183    20.9347 </r>
       <r>   -10.4915     5.6951    21.3242 </r>
       <r>   -10.4231     3.8793    21.5896 </r>
       <r>   -10.3547     3.3353    21.8177 </r>
       <r>   -10.2863     2.0793    21.9599 </r>
       <r>   -10.2179     1.1703    22.0400 </r>
       <r>   -10.1495     1.7179    22.1575 </r>
       <r>   -10.0811     2.5425    22.3314 </r>
       <r>   -10.0127     3.0186    22.5379 </r>
       <r>    -9.9443     3.6748    22.7892 </r>
       <r>    -9.8759     4.7006    23.1107 </r>
       <r>    -9.8075     5.4420    23.4830 </r>
       <r>    -9.7391     4.6312    23.7997 </r>
       <r>    -9.6707     2.5997    23.9776 </r>
       <r>    -9.6023     1.6928    24.0933 </r>
       <r>    -9.5339     1.7984    24.2163 </r>
       <r>    -9.4655     1.5104    24.3197 </r>
       <r>    -9.3971     1.8805    24.4483 </r>
       <r>    -9.3287     3.1310    24.6624 </r>
       <r>    -9.2603     4.1880    24.9489 </r>
       <r>    -9.1919     5.0895    25.2970 </r>
       <r>    -9.1235     5.2096    25.6534 </r>
       <r>    -9.0551     3.5811    25.8983 </r>
       <r>    -8.9867     1.8300    26.0235 </r>
       <r>    -8.9183     1.6133    26.1338 </r>
       <r>    -8.8499     1.9780    26.2691 </r>
       <r>    -8.7815     2.4215    26.4348 </r>
       <r>    -8.7131     3.4850    26.6731 </r>
       <r>    -8.6447     4.3802    26.9727 </r>
       <r>    -8.5763     4.7110    27.2950 </r>
       <r>    -8.5079     4.6905    27.6158 </r>
       <r>    -8.4395     4.5418    27.9265 </r>
       <r>    -8.3711     5.0597    28.2725 </r>
       <r>    -8.3027     5.3201    28.6364 </r>
       <r>    -8.2343     4.0040    28.9103 </r>
       <r>    -8.1659     2.5837    29.0870 </r>
       <r>    -8.0975     2.5719    29.2630 </r>
       <r>    -8.0291     3.0411    29.4710 </r>
       <r>    -7.9607     3.3063    29.6971 </r>
       <r>    -7.8923     4.0479    29.9740 </r>
       <r>    -7.8239     4.8629    30.3066 </r>
       <r>    -7.7555     5.7028    30.6967 </r>
       <r>    -7.6871     6.5036    31.1415 </r>
       <r>    -7.6187     7.1434    31.6301 </r>
       <r>    -7.5503     8.0515    32.1809 </r>
       <r>    -7.4819     7.8793    32.7198 </r>
       <r>    -7.4135     7.1245    33.2071 </r>
       <r>    -7.3451     7.2726    33.7046 </r>
       <r>    -7.2767     7.5960    34.2241 </r>
       <r>    -7.2083     7.2520    34.7202 </r>
       <r>    -7.1399     6.8228    35.1868 </r>
       <r>    -7.0715     6.6229    35.6398 </r>
       <r>    -7.0031     5.6419    36.0257 </r>
       <r>    -6.9347     5.4772    36.4004 </r>
       <r>    -6.8663     7.4481    36.9098 </r>
       <r>    -6.7979     9.2358    37.5416 </r>
       <r>    -6.7295     9.8056    38.2123 </r>
       <r>    -6.6611    11.2130    38.9792 </r>
       <r>    -6.5927    11.7714    39.7844 </r>
       <r>    -6.5243     8.8536    40.3900 </r>
       <r>    -6.4559     5.8681    40.7913 </r>
       <r>    -6.3875     4.7311    41.1149 </r>
       <r>    -6.3191     4.5558    41.4266 </r>
       <r>    -6.2507     5.2752    41.7874 </r>
       <r>    -6.1823     5.8206    42.1855 </r>
       <r>    -6.1139     6.3384    42.6191 </r>
       <r>    -6.0455     6.6126    43.0714 </r>
       <r>    -5.9771     5.9794    43.4803 </r>
       <r>    -5.9087     5.1002    43.8292 </r>
       <r>    -5.8403     4.2309    44.1186 </r>
       <r>    -5.7719     4.4738    44.4246 </r>
       <r>    -5.7035     6.0959    44.8416 </r>
       <r>    -5.6351     7.1847    45.3330 </r>
       <r>    -5.5667     7.2828    45.8311 </r>
       <r>    -5.4983     6.7909    46.2956 </r>
       <r>    -5.4299     5.6166    46.6798 </r>
       <r>    -5.3615     5.1553    47.0324 </r>
       <r>    -5.2931     5.8915    47.4354 </r>
       <r>    -5.2247     6.5932    47.8864 </r>
       <r>    -5.1563     6.5469    48.3342 </r>
       <r>    -5.0879     5.9670    48.7423 </r>
       <r>    -5.0195     6.7664    49.2051 </r>
       <r>    -4.9511     9.2429    49.8374 </r>
       <r>    -4.8827    10.3876    50.5479 </r>
       <r>    -4.8143     9.4061    51.1912 </r>
       <r>    -4.7459     8.6304    51.7815 </r>
       <r>    -4.6775     8.7502    52.3801 </r>
       <r>    -4.6091     9.1977    53.0092 </r>
       <r>    -4.5407     9.8353    53.6819 </r>
       <r>    -4.4723    10.6640    54.4113 </r>
       <r>    -4.4039    10.9840    55.1626 </r>
       <r>    -4.3355    10.9388    55.9108 </r>
       <r>    -4.2671    11.5128    56.6983 </r>
       <r>    -4.1987    12.2962    57.5394 </r>
       <r>    -4.1303    12.8275    58.4168 </r>
       <r>    -4.0619    13.2552    59.3234 </r>
       <r>    -3.9935    13.3307    60.2352 </r>
       <r>    -3.9251    12.6902    61.1032 </r>
       <r>    -3.8567    11.5837    61.8956 </r>
       <r>    -3.7883    11.2649    62.6661 </r>
       <r>    -3.7199    11.7880    63.4724 </r>
       <r>    -3.6515    11.7631    64.2770 </r>
       <r>    -3.5831    10.9769    65.0278 </r>
       <r>    -3.5147    10.5283    65.7479 </r>
       <r>    -3.4463    11.4485    66.5310 </r>
       <r>    -3.3779    14.0704    67.4934 </r>
       <r>    -3.3095    16.1030    68.5949 </r>
       <r>    -3.2411    16.1066    69.6966 </r>
       <r>    -3.1727    15.3426    70.7460 </r>
       <r>    -3.1043    14.9764    71.7704 </r>
       <r>    -3.0359    16.1256    72.8734 </r>
       <r>    -2.9675    17.8652    74.0953 </r>
       <r>    -2.8991    17.4131    75.2864 </r>
       <r>    -2.8307    15.5055    76.3470 </r>
       <r>    -2.7623    15.1608    77.3840 </r>
       <r>    -2.6939    16.4637    78.5101 </r>
       <r>    -2.6255    17.6743    79.7190 </r>
       <r>    -2.5571    17.3804    80.9078 </r>
       <r>    -2.4887    16.7893    82.0562 </r>
       <r>    -2.4203    16.0492    83.1540 </r>
       <r>    -2.3519    14.0627    84.1159 </r>
       <r>    -2.2835    11.8533    84.9266 </r>
       <r>    -2.2151    11.7517    85.7304 </r>
       <r>    -2.1467    13.9899    86.6873 </r>
       <r>    -2.0783    16.0730    87.7867 </r>
       <r>    -2.0099    17.3999    88.9769 </r>
       <r>    -1.9415    18.7971    90.2626 </r>
       <r>    -1.8731    19.2368    91.5784 </r>
       <r>    -1.8047    18.3177    92.8313 </r>
       <r>    -1.7363    16.8711    93.9853 </r>
       <r>    -1.6679    15.5916    95.0518 </r>
       <r>    -1.5995    13.0043    95.9413 </r>
       <r>    -1.5311    10.4259    96.6544 </r>
       <r>    -1.4627    10.7000    97.3863 </r>
       <r>    -1.3943    12.8721    98.2667 </r>
       <r>    -1.3259    14.2822    99.2436 </r>
       <r>    -1.2575    12.5561   100.1024 </r>
       <r>    -1.1891     8.9315   100.7134 </r>
       <r>    -1.1207     7.3865   101.2186 </r>
       <r>    -1.0523     8.0424   101.7687 </r>
       <r>    -0.9839     8.5227   102.3516 </r>
       <r>    -0.9155     8.7698   102.9515 </r>
       <r>    -0.8471     8.6910   103.5459 </r>
       <r>    -0.7787     7.2133   104.0393 </r>
       <r>    -0.7103     5.3547   104.4056 </r>
       <r>    -0.6419     3.7136   104.6596 </r>
       <r>    -0.5735     3.7112   104.9135 </r>
       <r>    -0.5051     5.4797   105.2883 </r>
       <r>    -0.4367     6.8148   105.7544 </r>
       <r>    -0.3683     6.5233   106.2006 </r>
       <r>    -0.2999     5.1088   106.5500 </r>
       <r>    -0.2315     3.3664   106.7803 </r>
       <r>    -0.1631     2.3928   106.9440 </r>
       <r>    -0.0947     2.4375   107.1107 </r>
       <r>    -0.0263     3.4564   107.3471 </r>
       <r>     0.0421     5.4245   107.7181 </r>
       <r>     0.1105     6.7528   108.1800 </r>
       <r>     0.1789     5.8703   108.5816 </r>
       <r>     0.2473     4.5237   108.8910 </r>
       <r>     0.3157     4.4365   109.1944 </r>
       <r>     0.3841     4.8085   109.5233 </r>
       <r>     0.4525     4.4215   109.8258 </r>
       <r>     0.5209     3.2493   110.0480 </r>
       <r>     0.5893     2.4179   110.2134 </r>
       <r>     0.6577     2.4560   110.3814 </r>
       <r>     0.7261     2.8853   110.5787 </r>
       <r>     0.7945     3.9963   110.8521 </r>
       <r>     0.8629     5.7966   111.2486 </r>
       <r>     0.9313     6.5561   111.6970 </r>
       <r>     0.9997     6.3159   112.1290 </r>
       <r>     1.0681     6.8889   112.6002 </r>
       <r>     1.1365     7.2504   113.0962 </r>
       <r>     1.2049     6.4904   113.5401 </r>
       <r>     1.2733     6.1754   113.9625 </r>
       <r>     1.3417     6.9909   114.4407 </r>
       <r>     1.4101     8.8078   115.0431 </r>
       <r>     1.4785    10.0801   115.7326 </r>
       <r>     1.5469    10.7745   116.4696 </r>
       <r>     1.6153    11.2931   117.2420 </r>
       <r>     1.6837    10.5229   117.9618 </r>
       <r>     1.7521     9.8321   118.6343 </r>
       <r>     1.8205    11.0052   119.3871 </r>
       <r>     1.8889    11.5254   120.1754 </r>
       <r>     1.9573    10.0528   120.8630 </r>
       <r>     2.0257     9.5027   121.5130 </r>
       <r>     2.0941    10.3772   122.2228 </r>
       <r>     2.1625    11.4562   123.0064 </r>
       <r>     2.2309    13.2613   123.9135 </r>
       <r>     2.2993    15.2157   124.9542 </r>
       <r>     2.3677    15.5496   126.0178 </r>
       <r>     2.4361    15.2273   127.0593 </r>
       <r>     2.5045    15.3272   128.1077 </r>
       <r>     2.5729    15.3242   129.1559 </r>
       <r>     2.6413    15.5702   130.2209 </r>
       <r>     2.7097    16.0867   131.3212 </r>
       <r>     2.7781    15.2373   132.3634 </r>
       <r>     2.8465    13.2043   133.2666 </r>
       <r>     2.9149    11.0092   134.0196 </r>
       <r>     2.9833     8.9090   134.6290 </r>
       <r>     3.0517     7.4255   135.1369 </r>
       <r>     3.1201     6.0524   135.5509 </r>
       <r>     3.1885     4.0383   135.8271 </r>
       <r>     3.2569     1.8779   135.9556 </r>
       <r>     3.3253     0.5505   135.9932 </r>
       <r>     3.3937     0.0912   135.9995 </r>
       <r>     3.4621     0.0075   136.0000 </r>
       <r>     3.5305     0.0003   136.0000 </r>
       <r>     3.5989     0.0000   136.0000 </r>
       <r>     3.6673     0.0000   136.0000 </r>
       <r>     3.7357     0.0000   136.0000 </r>
       <r>     3.8041     0.0000   136.0000 </r>
       <r>     3.8725     0.0000   136.0000 </r>
       <r>     3.9409     0.0000   136.0000 </r>
       <r>     4.0093     0.0000   136.0000 </r>
       <r>     4.0777     0.0000   136.0000 </r>
       <r>     4.1461     0.0000   136.0000 </r>
       <r>     4.2145     0.0000   136.0000 </r>
      </set>
     </set>
    </array>
   </total>
  </dos>
 </calculation>
 <structure name="finalpos" >
  <crystal>
   <varray name="basis" >
    <v>       3.54040000       0.00000000       0.00000000 </v>
    <v>      -1.77020000      10.29434800       0.00000000 </v>
    <v>       0.00000000       0.00000000      27.50142900 </v>
   </varray>
   <i name="volume">   1002.32009712 </i>
   <varray name="rec_basis" >
    <v>       0.28245396       0.04857034       0.00000000 </v>
    <v>       0.00000000       0.09714068       0.00000000 </v>
    <v>       0.00000000       0.00000000       0.03636175 </v>
   </varray>
  </crystal>
  <varray name="positions" >
   <v>       0.11402300       0.22804500       0.23316207 </v>
   <v>       0.01402300       0.52804500       0.51499159 </v>
   <v>       0.45808900       0.91617900       0.20939482 </v>
   <v>       0.35808900       0.21617900       0.49122434 </v>
   <v>       0.31085400       0.62170900       0.08414979 </v>
   <v>       0.31085400       0.62170900       0.36597930 </v>
   <v>       0.99923000       0.99846000       0.08631254 </v>
   <v>       0.99923000       0.99846000       0.36814206 </v>
   <v>       0.65492700       0.30985400       0.06041748 </v>
   <v>       0.65492700       0.30985400       0.34224700 </v>
   <v>       0.76973800       0.53947500       0.20725292 </v>
   <v>       0.66973800       0.83947500       0.48908244 </v>
   <v>       0.93971600       0.87943300       0.15783749 </v>
   <v>       0.83971600       0.17943300       0.43966701 </v>
   <v>       0.20515200       0.41030300       0.18578822 </v>
   <v>       0.10515200       0.71030300       0.46761774 </v>
   <v>       0.20184900       0.40369900       0.09969156 </v>
   <v>       0.20184900       0.40369900       0.38152107 </v>
   <v>       0.56380500       0.12761000       0.10779021 </v>
   <v>       0.56380500       0.12761000       0.38961973 </v>
   <v>       0.56710600       0.13421200       0.19387616 </v>
   <v>       0.46710600       0.43421200       0.47570568 </v>
   <v>       0.82923400       0.65846800       0.13571444 </v>
   <v>       0.72923400       0.95846800       0.41754396 </v>
  </varray>
 </structure>
</modeling>
