       N       E                     dE             d eps       ncg     rms          rms(c)
DAV:   1     0.497565844367E+03    0.49757E+03   -0.28660E+04  7352   0.790E+02
DAV:   2    -0.627396761283E+02   -0.56031E+03   -0.54600E+03  9752   0.189E+02
DAV:   3    -0.120064711039E+03   -0.57325E+02   -0.56557E+02  8848   0.625E+01
DAV:   4    -0.122734729498E+03   -0.26700E+01   -0.26543E+01 10976   0.145E+01
DAV:   5    -0.122792991443E+03   -0.58262E-01   -0.58194E-01  9904   0.218E+00    0.122E+01
DAV:   6    -0.118840158192E+03    0.39528E+01   -0.72503E+00  8720   0.764E+00    0.627E+00
DAV:   7    -0.118801875433E+03    0.38283E-01   -0.91227E+00  8544   0.736E+00    0.237E+00
DAV:   8    -0.118654192817E+03    0.14768E+00   -0.97837E-01  8412   0.336E+00    0.131E+00
DAV:   9    -0.118699153021E+03   -0.44960E-01   -0.55727E-01  9048   0.179E+00    0.543E-01
DAV:  10    -0.118682611016E+03    0.16542E-01   -0.60277E-02  9152   0.804E-01    0.193E-01
DAV:  11    -0.118673683163E+03    0.89279E-02   -0.33687E-02  8736   0.450E-01    0.113E-01
DAV:  12    -0.118669110761E+03    0.45724E-02   -0.20586E-03  9376   0.154E-01    0.450E-02
DAV:  13    -0.118666804964E+03    0.23058E-02   -0.10950E-03  8680   0.802E-02    0.188E-02
DAV:  14    -0.118665532301E+03    0.12727E-02   -0.11894E-04  9200   0.308E-02    0.149E-02
DAV:  15    -0.118665404898E+03    0.12740E-03   -0.39904E-05  8448   0.183E-02    0.750E-03
DAV:  16    -0.118665704413E+03   -0.29952E-03   -0.10973E-04  8488   0.239E-02    0.598E-03
DAV:  17    -0.118665940703E+03   -0.23629E-03   -0.10300E-04  8496   0.192E-02    0.613E-03
DAV:  18    -0.118666148518E+03   -0.20782E-03   -0.41610E-05  7960   0.126E-02    0.248E-03
DAV:  19    -0.118666226782E+03   -0.78263E-04   -0.15657E-05  8048   0.102E-02    0.228E-03
DAV:  20    -0.118666246572E+03   -0.19790E-04   -0.11776E-05  6900   0.788E-03    0.126E-03
DAV:  21    -0.118666201299E+03    0.45273E-04   -0.20038E-05  7356   0.951E-03    0.548E-04
DAV:  22    -0.118666165598E+03    0.35701E-04   -0.92322E-06  6392   0.822E-03    0.466E-04
DAV:  23    -0.118666113929E+03    0.51669E-04   -0.11448E-05  6752   0.781E-03    0.180E-04
DAV:  24    -0.118666092041E+03    0.21888E-04   -0.57722E-06  6256   0.703E-03    0.870E-05
DAV:  25    -0.118666082846E+03    0.91954E-05   -0.46528E-06  6464   0.654E-03    0.425E-05
DAV:  26    -0.118666079717E+03    0.31280E-05   -0.21066E-06  5760   0.512E-03    0.402E-05
DAV:  27    -0.118666077352E+03    0.23655E-05   -0.15353E-06  5548   0.463E-03    0.130E-05
DAV:  28    -0.118666076810E+03    0.54229E-06   -0.12819E-06  5704   0.429E-03
