   24   24    1    1
  0.4176334E+02  0.3540400E-09  0.1044544E-08  0.2750143E-08  0.5000000E-15
  1.000000000000000E-004
  CAR 
 unknown system                          
    108     54     68
 
  0.0000000E+00  0.0000000E+00  0.0000000E+00  0.9615385E-02
    1      -14.335370
    2      -13.558993
    3      -12.833949
    4      -12.818560
    5      -12.509783
    6      -12.217532
    7      -12.100927
    8      -12.076888
    9      -11.451093
   10      -11.168834
   11      -11.008703
   12      -10.139949
   13       -8.385722
   14       -8.050659
   15       -7.848126
   16       -7.567998
   17       -6.966541
   18       -6.854632
   19       -6.547883
   20       -6.510154
   21       -5.844772
   22       -5.709270
   23       -4.779392
   24       -4.502151
   25       -4.111482
   26       -4.031463
   27       -3.714394
   28       -3.705698
   29       -3.487468
   30       -3.158615
   31       -3.074668
   32       -2.861464
   33       -2.858179
   34       -2.704649
   35       -2.478618
   36       -2.427726
   37       -2.413621
   38       -2.238488
   39       -2.191700
   40       -2.016817
   41       -1.956543
   42       -1.876766
   43       -1.745838
   44       -1.686438
   45       -1.660428
   46       -1.591290
   47       -1.449887
   48       -1.417184
   49       -1.183317
   50       -1.131425
   51       -0.963477
   52       -0.584678
   53       -0.297453
   54       -0.088107
   55        0.811874
   56        0.967415
   57        1.167659
   58        1.253377
   59        1.317962
   60        1.657810
   61        1.765064
   62        1.824055
   63        1.961496
   64        2.029650
   65        2.076818
   66        2.154693
   67        2.413937
   68        2.528665
 
  0.7692308E-01 -0.1387779E-16  0.0000000E+00  0.1923077E-01
    1      -14.274628
    2      -13.497639
    3      -12.778210
    4      -12.766332
    5      -12.454125
    6      -12.161802
    7      -12.042204
    8      -12.017086
    9      -11.402160
   10      -11.122060
   11      -10.960336
   12      -10.107216
   13       -8.360610
   14       -8.087455
   15       -7.811207
   16       -7.617510
   17       -6.945418
   18       -6.824850
   19       -6.539762
   20       -6.504506
   21       -5.810925
   22       -5.688580
   23       -4.784799
   24       -4.650365
   25       -4.254757
   26       -4.032919
   27       -3.749604
   28       -3.694073
   29       -3.585995
   30       -3.436028
   31       -3.295456
   32       -3.241867
   33       -3.066599
   34       -2.928274
   35       -2.758314
   36       -2.579020
   37       -2.499216
   38       -2.483249
   39       -2.267640
   40       -2.211961
   41       -2.169423
   42       -2.005467
   43       -1.980746
   44       -1.873796
   45       -1.790491
   46       -1.754100
   47       -1.529654
   48       -1.399742
   49       -1.225642
   50       -1.098549
   51       -0.914917
   52       -0.407487
   53       -0.256813
   54       -0.069002
   55        0.607688
   56        1.040660
   57        1.276584
   58        1.547770
   59        1.743986
   60        1.791755
   61        1.952747
   62        2.101470
   63        2.177578
   64        2.243182
   65        2.300944
   66        2.499785
   67        2.593626
   68        2.771277
 
  0.1538462E+00 -0.2775558E-16  0.0000000E+00  0.1923077E-01
    1      -14.093471
    2      -13.314645
    3      -12.613436
    4      -12.609482
    5      -12.289159
    6      -11.997543
    7      -11.870802
    8      -11.839972
    9      -11.260187
   10      -10.987365
   11      -10.821562
   12      -10.017033
   13       -8.346394
   14       -8.183958
   15       -7.781799
   16       -7.762831
   17       -6.924640
   18       -6.753784
   19       -6.527745
   20       -6.517007
   21       -5.737155
   22       -5.674213
   23       -5.119175
   24       -4.886100
   25       -4.331838
   26       -4.214475
   27       -4.142028
   28       -4.093342
   29       -3.992295
   30       -3.792662
   31       -3.758835
   32       -3.661800
   33       -3.506487
   34       -3.367908
   35       -3.202568
   36       -3.068912
   37       -2.984729
   38       -2.927848
   39       -2.754832
   40       -2.558768
   41       -2.391726
   42       -2.222823
   43       -2.165545
   44       -2.025165
   45       -1.874126
   46       -1.780183
   47       -1.668840
   48       -1.495834
   49       -1.268030
   50       -1.107449
   51       -0.889290
   52       -0.494795
   53       -0.237046
   54       -0.038961
   55        0.192971
   56        0.979946
   57        1.357622
   58        1.759252
   59        1.916879
   60        2.137718
   61        2.238045
   62        2.405029
   63        2.591472
   64        2.654979
   65        2.774409
   66        2.923158
   67        2.957696
   68        3.039619
 
  0.2307692E+00 -0.4163336E-16  0.0000000E+00  0.1923077E-01
    1      -13.795641
    2      -13.013585
    3      -12.354891
    4      -12.341298
    5      -12.022026
    6      -11.734066
    7      -11.601605
    8      -11.557125
    9      -11.043339
   10      -10.786305
   11      -10.618513
   12       -9.898120
   13       -8.666524
   14       -8.376983
   15       -7.844226
   16       -7.809614
   17       -7.044126
   18       -6.721049
   19       -6.651481
   20       -6.552056
   21       -5.900781
   22       -5.753951
   23       -5.356993
   24       -5.304635
   25       -4.836203
   26       -4.726045
   27       -4.630213
   28       -4.592127
   29       -4.524432
   30       -4.254828
   31       -4.206155
   32       -4.033634
   33       -3.801565
   34       -3.610617
   35       -3.483514
   36       -3.461468
   37       -3.217171
   38       -3.014768
   39       -2.828578
   40       -2.660576
   41       -2.605026
   42       -2.474715
   43       -2.384493
   44       -1.962997
   45       -1.916351
   46       -1.862493
   47       -1.790559
   48       -1.696991
   49       -1.486637
   50       -1.182997
   51       -1.082338
   52       -0.878057
   53       -0.511732
   54       -0.332109
   55        0.048044
   56        0.798580
   57        1.500084
   58        1.831416
   59        1.879288
   60        1.997334
   61        2.139610
   62        2.258281
   63        2.362968
   64        2.546341
   65        2.665960
   66        2.859542
   67        2.888010
   68        2.952531
 
  0.3076923E+00 -0.5551115E-16  0.0000000E+00  0.1923077E-01
    1      -13.389966
    2      -12.601758
    3      -12.006410
    4      -11.978949
    5      -11.669424
    6      -11.392010
    7      -11.268988
    8      -11.202829
    9      -10.798988
   10      -10.577033
   11      -10.432649
   12       -9.827695
   13       -9.292115
   14       -8.672133
   15       -8.103096
   16       -7.669552
   17       -7.389571
   18       -7.015480
   19       -6.917878
   20       -6.696258
   21       -6.447507
   22       -6.179195
   23       -5.981890
   24       -5.527275
   25       -5.230475
   26       -5.091259
   27       -4.882599
   28       -4.814222
   29       -4.717947
   30       -4.456635
   31       -4.329759
   32       -4.242375
   33       -4.190725
   34       -3.595094
   35       -3.443366
   36       -3.374863
   37       -3.116879
   38       -3.062882
   39       -3.034543
   40       -2.866635
   41       -2.694063
   42       -2.629986
   43       -2.433570
   44       -2.228400
   45       -2.081139
   46       -1.950522
   47       -1.890660
   48       -1.868968
   49       -1.724032
   50       -1.622395
   51       -1.320804
   52       -1.047465
   53       -0.796964
   54       -0.561076
   55       -0.165952
   56        0.663785
   57        1.304141
   58        1.553475
   59        1.735575
   60        1.815626
   61        1.954562
   62        2.063230
   63        2.225675
   64        2.340402
   65        2.419237
   66        2.621364
   67        2.765906
   68        2.809277
 
  0.3846154E+00 -0.8326673E-16  0.0000000E+00  0.1923077E-01
    1      -12.900026
    2      -12.093343
    3      -11.587162
    4      -11.554296
    5      -11.269987
    6      -11.038623
    7      -10.987135
    8      -10.865364
    9      -10.644201
   10      -10.514958
   11      -10.472674
   12      -10.014255
   13       -9.640340
   14       -8.848415
   15       -8.395544
   16       -7.834976
   17       -7.584184
   18       -7.476126
   19       -7.432022
   20       -7.051564
   21       -6.841901
   22       -6.776460
   23       -6.676881
   24       -6.184202
   25       -5.230121
   26       -4.939058
   27       -4.740074
   28       -4.659362
   29       -4.543839
   30       -4.340423
   31       -4.232393
   32       -4.177817
   33       -4.085231
   34       -3.814959
   35       -3.672944
   36       -3.406353
   37       -3.291875
   38       -3.258252
   39       -3.162088
   40       -2.861006
   41       -2.807848
   42       -2.621670
   43       -2.512135
   44       -2.409383
   45       -2.278106
   46       -2.132894
   47       -2.059642
   48       -2.043349
   49       -1.917790
   50       -1.822390
   51       -1.447616
   52       -1.318774
   53       -1.006937
   54       -0.594205
   55       -0.306552
   56        0.493922
   57        0.970740
   58        1.372527
   59        1.579281
   60        1.689145
   61        1.738515
   62        1.986315
   63        2.093094
   64        2.216953
   65        2.259766
   66        2.359798
   67        2.493933
   68        2.704162
 
  0.4615385E+00 -0.8326673E-16  0.0000000E+00  0.1923077E-01
    1      -12.425353
    2      -11.519738
    3      -11.272250
    4      -11.164384
    5      -11.070065
    6      -10.965434
    7      -10.861836
    8      -10.823390
    9      -10.747076
   10      -10.652951
   11      -10.511618
   12      -10.041006
   13       -9.803096
   14       -8.705809
   15       -8.458370
   16       -8.097985
   17       -8.001953
   18       -7.806323
   19       -7.589002
   20       -7.346360
   21       -7.300349
   22       -7.196922
   23       -6.926273
   24       -6.524745
   25       -4.935087
   26       -4.682075
   27       -4.617802
   28       -4.519770
   29       -4.354380
   30       -4.281853
   31       -4.092525
   32       -3.995832
   33       -3.922742
   34       -3.876088
   35       -3.843682
   36       -3.613059
   37       -3.540468
   38       -3.346220
   39       -3.269341
   40       -3.116146
   41       -3.007328
   42       -2.798043
   43       -2.702781
   44       -2.379229
   45       -2.265536
   46       -2.245397
   47       -2.158204
   48       -2.045732
   49       -1.945779
   50       -1.725318
   51       -1.651495
   52       -1.534308
   53       -0.945690
   54       -0.653416
   55       -0.411715
   56        0.367880
   57        0.775002
   58        1.321567
   59        1.406543
   60        1.583916
   61        1.647799
   62        1.843971
   63        1.970229
   64        2.068700
   65        2.262776
   66        2.338155
   67        2.415331
   68        2.553460
 
  0.0000000E+00  0.2500000E+00  0.0000000E+00  0.1923077E-01
    1      -14.329735
    2      -13.503675
    3      -12.992555
    4      -12.889140
    5      -12.508527
    6      -12.215952
    7      -11.992606
    8      -11.884431
    9      -11.496205
   10      -11.204238
   11      -11.017647
   12      -10.089779
   13       -8.538727
   14       -8.493772
   15       -7.774655
   16       -7.406312
   17       -6.785938
   18       -6.687950
   19       -6.612624
   20       -6.419813
   21       -5.766976
   22       -5.615935
   23       -4.679059
   24       -4.465080
   25       -4.078251
   26       -4.026707
   27       -3.923592
   28       -3.753800
   29       -3.511016
   30       -3.356854
   31       -3.146196
   32       -3.028939
   33       -2.726970
   34       -2.704046
   35       -2.521587
   36       -2.414625
   37       -2.397476
   38       -2.309032
   39       -2.171830
   40       -2.145534
   41       -2.011522
   42       -1.967566
   43       -1.897926
   44       -1.658262
   45       -1.645582
   46       -1.536619
   47       -1.380314
   48       -1.359593
   49       -1.168599
   50       -1.069435
   51       -0.941740
   52       -0.560218
   53       -0.259057
   54        0.078738
   55        0.840966
   56        1.025054
   57        1.188771
   58        1.326899
   59        1.403000
   60        1.672006
   61        1.734422
   62        1.807313
   63        1.883302
   64        2.068482
   65        2.168612
   66        2.240013
   67        2.515557
   68        2.642113
 
  0.7692308E-01  0.2500000E+00  0.0000000E+00  0.1923077E-01
    1      -14.267831
    2      -13.426842
    3      -12.973414
    4      -12.843568
    5      -12.451435
    6      -12.160160
    7      -11.918547
    8      -11.785196
    9      -11.454904
   10      -11.163130
   11      -10.973369
   12      -10.049978
   13       -8.594143
   14       -8.485216
   15       -7.837823
   16       -7.357569
   17       -6.768921
   18       -6.696441
   19       -6.546540
   20       -6.383025
   21       -5.718807
   22       -5.571341
   23       -4.717167
   24       -4.611294
   25       -4.287334
   26       -4.096385
   27       -3.884403
   28       -3.737999
   29       -3.634820
   30       -3.501735
   31       -3.405959
   32       -3.114655
   33       -3.049656
   34       -3.012973
   35       -2.744889
   36       -2.670804
   37       -2.577484
   38       -2.512059
   39       -2.360021
   40       -2.317379
   41       -2.232089
   42       -2.144667
   43       -2.024303
   44       -1.858225
   45       -1.781983
   46       -1.698715
   47       -1.526099
   48       -1.344837
   49       -1.111663
   50       -1.005866
   51       -0.886664
   52       -0.353328
   53       -0.258022
   54        0.061228
   55        0.667847
   56        1.129473
   57        1.210934
   58        1.567649
   59        1.761081
   60        1.914062
   61        1.931942
   62        2.031827
   63        2.188276
   64        2.284435
   65        2.495567
   66        2.513393
   67        2.637400
   68        2.865446
 
  0.1538462E+00  0.2500000E+00  0.0000000E+00  0.1923077E-01
    1      -14.085885
    2      -13.230304
    3      -12.836843
    4      -12.683677
    5      -12.284976
    6      -11.996730
    7      -11.740707
    8      -11.587494
    9      -11.315505
   10      -11.031184
   11      -10.832154
   12       -9.959952
   13       -8.658937
   14       -8.432924
   15       -8.004097
   16       -7.326316
   17       -6.788034
   18       -6.675002
   19       -6.520637
   20       -6.376116
   21       -5.677464
   22       -5.605450
   23       -4.952494
   24       -4.859960
   25       -4.488062
   26       -4.393633
   27       -4.311260
   28       -4.054888
   29       -4.002094
   30       -3.878216
   31       -3.674970
   32       -3.628079
   33       -3.476535
   34       -3.338852
   35       -3.126762
   36       -2.986444
   37       -2.951860
   38       -2.876220
   39       -2.819140
   40       -2.672337
   41       -2.608628
   42       -2.389188
   43       -2.314095
   44       -2.016715
   45       -1.915126
   46       -1.796245
   47       -1.561576
   48       -1.466830
   49       -1.161222
   50       -1.000780
   51       -0.842940
   52       -0.596452
   53       -0.277370
   54        0.018422
   55        0.369422
   56        0.916497
   57        1.278273
   58        1.642382
   59        1.877803
   60        2.076114
   61        2.261577
   62        2.343027
   63        2.720182
   64        2.744645
   65        2.840544
   66        2.909539
   67        3.030490
   68        3.082516
 
  0.2307692E+00  0.2500000E+00  0.0000000E+00  0.1923077E-01
    1      -13.787705
    2      -12.918920
    3      -12.585372
    4      -12.414805
    5      -12.016972
    6      -11.734688
    7      -11.471179
    8      -11.310950
    9      -11.093761
   10      -10.829648
   11      -10.614836
   12       -9.849393
   13       -8.790240
   14       -8.705593
   15       -8.013576
   16       -7.412772
   17       -6.976792
   18       -6.715143
   19       -6.664236
   20       -6.452342
   21       -5.900112
   22       -5.832777
   23       -5.228087
   24       -5.101336
   25       -5.045919
   26       -4.771570
   27       -4.686070
   28       -4.592955
   29       -4.564822
   30       -4.293552
   31       -4.183364
   32       -4.028281
   33       -3.756679
   34       -3.641957
   35       -3.334612
   36       -3.224743
   37       -3.159557
   38       -3.108688
   39       -2.807283
   40       -2.745035
   41       -2.666127
   42       -2.547182
   43       -2.447638
   44       -2.018275
   45       -1.970559
   46       -1.844730
   47       -1.790844
   48       -1.669665
   49       -1.407619
   50       -1.269162
   51       -1.111688
   52       -0.825029
   53       -0.491114
   54       -0.307713
   55       -0.094391
   56        0.806656
   57        1.305272
   58        1.449607
   59        1.582789
   60        1.892752
   61        2.123627
   62        2.284377
   63        2.494946
   64        2.638391
   65        2.677167
   66        2.768479
   67        3.018544
   68        3.149178
 
  0.3076923E+00  0.2500000E+00  0.0000000E+00  0.1923077E-01
    1      -13.382197
    2      -12.502212
    3      -12.226193
    4      -12.049627
    5      -11.665000
    6      -11.395964
    7      -11.141288
    8      -10.997492
    9      -10.830080
   10      -10.618183
   11      -10.409207
   12       -9.800461
   13       -9.305268
   14       -8.989025
   15       -7.794681
   16       -7.725946
   17       -7.382713
   18       -7.130656
   19       -6.980946
   20       -6.670272
   21       -6.418628
   22       -6.207022
   23       -5.936451
   24       -5.563532
   25       -5.398570
   26       -5.086059
   27       -4.957981
   28       -4.631632
   29       -4.557714
   30       -4.427814
   31       -4.349849
   32       -4.260800
   33       -4.027158
   34       -3.766863
   35       -3.360332
   36       -3.239610
   37       -3.090325
   38       -3.019080
   39       -2.939272
   40       -2.875346
   41       -2.629751
   42       -2.550803
   43       -2.451777
   44       -2.291658
   45       -2.205832
   46       -1.980518
   47       -1.908779
   48       -1.866962
   49       -1.760881
   50       -1.624628
   51       -1.342326
   52       -1.066955
   53       -0.944172
   54       -0.533998
   55       -0.352568
   56        0.632394
   57        1.037217
   58        1.218516
   59        1.286834
   60        1.814525
   61        1.996484
   62        2.177221
   63        2.234381
   64        2.393611
   65        2.509736
   66        2.576436
   67        2.670971
   68        2.908548
 
  0.3846154E+00  0.2500000E+00  0.0000000E+00  0.1923077E-01
    1      -12.893249
    2      -11.998702
    3      -11.776021
    4      -11.618308
    5      -11.268823
    6      -11.049858
    7      -10.871633
    8      -10.741644
    9      -10.619418
   10      -10.553681
   11      -10.485431
   12      -10.008285
   13       -9.625198
   14       -8.979001
   15       -8.130463
   16       -7.825993
   17       -7.795809
   18       -7.664836
   19       -7.376451
   20       -6.956315
   21       -6.918977
   22       -6.712049
   23       -6.675875
   24       -6.235711
   25       -5.361674
   26       -4.969957
   27       -4.804305
   28       -4.598241
   29       -4.468106
   30       -4.373225
   31       -4.171621
   32       -4.126614
   33       -3.879336
   34       -3.806379
   35       -3.371212
   36       -3.324405
   37       -3.291422
   38       -3.196094
   39       -3.140469
   40       -2.948149
   41       -2.907397
   42       -2.712945
   43       -2.574386
   44       -2.379461
   45       -2.281349
   46       -2.108610
   47       -2.075374
   48       -2.021838
   49       -1.875647
   50       -1.771515
   51       -1.547994
   52       -1.483609
   53       -1.106678
   54       -0.591080
   55       -0.430894
   56        0.459676
   57        0.765799
   58        1.182498
   59        1.307417
   60        1.597378
   61        1.803236
   62        1.867725
   63        1.995326
   64        2.183500
   65        2.269083
   66        2.554895
   67        2.591479
   68        2.703373
 
  0.4615385E+00  0.2500000E+00  0.0000000E+00  0.1923077E-01
    1      -12.421678
    2      -11.449361
    3      -11.288744
    4      -11.280718
    5      -11.086137
    6      -10.977939
    7      -10.882573
    8      -10.814296
    9      -10.717305
   10      -10.598565
   11      -10.483210
   12      -10.036557
   13       -9.806778
   14       -8.572450
   15       -8.417646
   16       -8.346842
   17       -7.992885
   18       -7.839941
   19       -7.534962
   20       -7.335145
   21       -7.234463
   22       -7.155343
   23       -7.017274
   24       -6.583895
   25       -5.037427
   26       -4.659111
   27       -4.588204
   28       -4.488366
   29       -4.391799
   30       -4.239492
   31       -4.163635
   32       -3.987514
   33       -3.934023
   34       -3.703794
   35       -3.676266
   36       -3.522015
   37       -3.490012
   38       -3.392188
   39       -3.276516
   40       -3.098496
   41       -3.004851
   42       -2.889012
   43       -2.652708
   44       -2.614108
   45       -2.252517
   46       -2.207249
   47       -2.138628
   48       -2.018272
   49       -1.947871
   50       -1.740368
   51       -1.682097
   52       -1.561548
   53       -0.970581
   54       -0.729164
   55       -0.425475
   56        0.328310
   57        0.725027
   58        1.340348
   59        1.410601
   60        1.517077
   61        1.590349
   62        1.733681
   63        1.821623
   64        2.070615
   65        2.231816
   66        2.414453
   67        2.471345
   68        2.596321
 
 -0.4615385E+00  0.2500000E+00  0.0000000E+00  0.1923077E-01
    1      -12.427641
    2      -11.553331
    3      -11.254777
    4      -11.088118
    5      -11.073340
    6      -10.951589
    7      -10.825475
    8      -10.821699
    9      -10.775050
   10      -10.721269
   11      -10.522285
   12      -10.070427
   13       -9.788220
   14       -8.774432
   15       -8.452222
   16       -8.003577
   17       -7.960900
   18       -7.727177
   19       -7.622269
   20       -7.375349
   21       -7.296951
   22       -7.234875
   23       -6.983308
   24       -6.523322
   25       -4.761341
   26       -4.746965
   27       -4.597642
   28       -4.572436
   29       -4.390848
   30       -4.211799
   31       -4.081126
   32       -4.026322
   33       -3.960317
   34       -3.898850
   35       -3.818431
   36       -3.676921
   37       -3.565777
   38       -3.424602
   39       -3.353164
   40       -2.999840
   41       -2.853865
   42       -2.809234
   43       -2.695278
   44       -2.408553
   45       -2.352604
   46       -2.274973
   47       -2.179609
   48       -2.097280
   49       -1.926029
   50       -1.699564
   51       -1.571746
   52       -1.510027
   53       -0.906134
   54       -0.738613
   55       -0.380870
   56        0.351799
   57        0.810625
   58        1.323286
   59        1.425926
   60        1.635581
   61        1.718360
   62        1.793916
   63        1.945108
   64        2.201253
   65        2.289656
   66        2.367295
   67        2.496857
   68        2.591787
 
 -0.3846154E+00  0.2500000E+00  0.0000000E+00  0.1923077E-01
    1      -12.902621
    2      -12.119863
    3      -11.525133
    4      -11.502240
    5      -11.268503
    6      -11.109423
    7      -10.956416
    8      -10.905703
    9      -10.646939
   10      -10.553977
   11      -10.468304
   12      -10.037867
   13       -9.609947
   14       -8.760029
   15       -8.509443
   16       -7.850858
   17       -7.479493
   18       -7.444822
   19       -7.347486
   20       -7.133713
   21       -6.866916
   22       -6.825461
   23       -6.681981
   24       -6.169431
   25       -5.075853
   26       -4.952176
   27       -4.867155
   28       -4.776377
   29       -4.439625
   30       -4.357367
   31       -4.256945
   32       -4.109943
   33       -4.014551
   34       -3.772977
   35       -3.738258
   36       -3.457377
   37       -3.409448
   38       -3.283562
   39       -3.185316
   40       -2.910818
   41       -2.767699
   42       -2.606844
   43       -2.551550
   44       -2.426288
   45       -2.250361
   46       -2.154589
   47       -2.087972
   48       -1.960738
   49       -1.868768
   50       -1.773846
   51       -1.480283
   52       -1.388689
   53       -0.885423
   54       -0.606184
   55       -0.295160
   56        0.507844
   57        1.006104
   58        1.350394
   59        1.573072
   60        1.804785
   61        1.898139
   62        2.001351
   63        2.120355
   64        2.261394
   65        2.390672
   66        2.423697
   67        2.556581
   68        2.607088
 
 -0.3076923E+00  0.2500000E+00  0.0000000E+00  0.1923077E-01
    1      -13.391133
    2      -12.614037
    3      -11.968112
    4      -11.963545
    5      -11.669008
    6      -11.406263
    7      -11.276822
    8      -11.238158
    9      -10.790694
   10      -10.579961
   11      -10.438726
   12       -9.854754
   13       -9.252668
   14       -8.573349
   15       -8.205609
   16       -7.705962
   17       -7.332043
   18       -7.019904
   19       -6.887970
   20       -6.680944
   21       -6.493529
   22       -6.172474
   23       -5.990703
   24       -5.574219
   25       -5.171371
   26       -5.074474
   27       -4.910988
   28       -4.899076
   29       -4.666347
   30       -4.438206
   31       -4.323903
   32       -4.251254
   33       -4.148453
   34       -3.536031
   35       -3.470914
   36       -3.427053
   37       -3.130673
   38       -3.088482
   39       -3.002798
   40       -2.884677
   41       -2.748821
   42       -2.611167
   43       -2.424014
   44       -2.248648
   45       -2.041364
   46       -1.941723
   47       -1.879284
   48       -1.823323
   49       -1.721236
   50       -1.636972
   51       -1.354480
   52       -1.175352
   53       -0.788738
   54       -0.519711
   55       -0.118750
   56        0.704148
   57        1.300054
   58        1.593556
   59        1.745224
   60        1.924474
   61        2.002247
   62        2.137268
   63        2.261767
   64        2.357901
   65        2.441842
   66        2.623523
   67        2.693458
   68        2.821429
 
 -0.2307692E+00  0.2500000E+00  0.0000000E+00  0.1923077E-01
    1      -13.795040
    2      -13.009346
    3      -12.369454
    4      -12.347671
    5      -12.022154
    6      -11.738390
    7      -11.584595
    8      -11.540060
    9      -11.047060
   10      -10.793987
   11      -10.617102
   12       -9.897302
   13       -8.632319
   14       -8.417494
   15       -7.904486
   16       -7.800644
   17       -6.995168
   18       -6.712167
   19       -6.655024
   20       -6.476916
   21       -5.966237
   22       -5.756220
   23       -5.376075
   24       -5.350801
   25       -4.854952
   26       -4.752767
   27       -4.622417
   28       -4.550346
   29       -4.519310
   30       -4.229469
   31       -4.202995
   32       -3.982274
   33       -3.785819
   34       -3.592737
   35       -3.465939
   36       -3.440387
   37       -3.225425
   38       -3.012626
   39       -2.880232
   40       -2.742547
   41       -2.611063
   42       -2.461792
   43       -2.277773
   44       -2.009616
   45       -1.924206
   46       -1.848203
   47       -1.780436
   48       -1.675669
   49       -1.482379
   50       -1.256994
   51       -1.150520
   52       -0.890498
   53       -0.502264
   54       -0.374236
   55        0.090727
   56        0.861470
   57        1.525294
   58        1.772589
   59        1.885617
   60        1.991064
   61        2.192417
   62        2.224079
   63        2.380661
   64        2.455711
   65        2.699561
   66        2.887542
   67        2.932236
   68        2.973309
 
 -0.1538462E+00  0.2500000E+00  0.0000000E+00  0.1923077E-01
    1      -14.091050
    2      -13.293171
    3      -12.684573
    4      -12.636624
    5      -12.289299
    6      -11.999147
    7      -11.819889
    8      -11.759634
    9      -11.279566
   10      -11.004981
   11      -10.819601
   12       -9.996405
   13       -8.399608
   14       -8.325113
   15       -7.946737
   16       -7.556900
   17       -6.833086
   18       -6.682107
   19       -6.569886
   20       -6.428023
   21       -5.735708
   22       -5.693851
   23       -5.130159
   24       -4.860710
   25       -4.404269
   26       -4.301840
   27       -4.174373
   28       -4.067592
   29       -3.947702
   30       -3.808345
   31       -3.731048
   32       -3.573375
   33       -3.479155
   34       -3.338053
   35       -3.199111
   36       -3.079891
   37       -2.969365
   38       -2.918923
   39       -2.791540
   40       -2.655047
   41       -2.520218
   42       -2.232302
   43       -2.153382
   44       -1.987767
   45       -1.883495
   46       -1.785719
   47       -1.630090
   48       -1.443299
   49       -1.274229
   50       -1.125072
   51       -0.894924
   52       -0.575176
   53       -0.254796
   54       -0.109100
   55        0.331426
   56        1.013056
   57        1.467640
   58        1.691059
   59        1.792834
   60        2.159810
   61        2.204658
   62        2.433977
   63        2.603033
   64        2.732569
   65        2.776714
   66        2.915972
   67        3.041982
   68        3.115198
 
 -0.7692308E-01  0.2500000E+00  0.0000000E+00  0.1923077E-01
    1      -14.270501
    2      -13.458961
    3      -12.894996
    4      -12.819342
    5      -12.453836