 running on    8 total cores
 distrk:  each k-point on    8 cores,    1 groups
 distr:  one band on    2 cores,    4 groups
 using from now: INCAR     
 vasp.5.3.5 31Mar14 (build Oct 29 2014 16:16:03) complex                        
  
 POSCAR found type information on POSCAR  P  Si
 POSCAR found :  2 types and      24 ions
 scaLAPACK will be used

 ----------------------------------------------------------------------------- 
|                                                                             |
|  ADVICE TO THIS USER RUNNING 'VASP/VAMP'   (HEAR YOUR MASTER'S VOICE ...):  |
|                                                                             |
|      You have switched on vdW-DFT.                                          |
|      This routine was written and supplied by Jiri Klimes.                  |
|      We recommed that you carefully read and cite the following             |
|      publication                                                            |
|      J. Klimes, D.R. Bowler, A. Michelides                                  |
|        J. Phys.: Cond Matt. 22 022201 (2010)                                |
|      J. Klimes, D.R. Bowler, A. Michelides                                  |
|        Phys. Rev. B. 83, 195131 (2011)                                      |
|      and references therein.                                                |
|                                                                             |
 ----------------------------------------------------------------------------- 


 ----------------------------------------------------------------------------- 
|                                                                             |
|  ADVICE TO THIS USER RUNNING 'VASP/VAMP'   (HEAR YOUR MASTER'S VOICE ...):  |
|                                                                             |
|      You enforced a specific xc-type in the INCAR file,                     |
|      a different type was found on the POTCAR file                          |
|          I HOPE YOU KNOW, WHAT YOU ARE  DOING                               |
|                                                                             |
 ----------------------------------------------------------------------------- 



 VERY BAD NEWS! internal error in subroutine IBZKPT:
 Reciprocal lattice and k-lattice belong to different class of lattices. Often results are still useful...      96
 LDA part: xc-table for Pade appr. of Perdew


 VERY BAD NEWS! internal error in subroutine IBZKPT:
 Reciprocal lattice and k-lattice belong to different class of lattices. Often results are still useful...      96


 VERY BAD NEWS! internal error in subroutine IBZKPT:
 Reciprocal lattice and k-lattice belong to different class of lattices. Often results are still useful...      96


 VERY BAD NEWS! internal error in subroutine IBZKPT:
 Reciprocal lattice and k-lattice belong to different class of lattices. Often results are still useful...      96


 VERY BAD NEWS! internal error in subroutine IBZKPT:
 Reciprocal lattice and k-lattice belong to different class of lattices. Often results are still useful...      96


 VERY BAD NEWS! internal error in subroutine IBZKPT:
 Reciprocal lattice and k-lattice belong to different class of lattices. Often results are still useful...      96


 VERY BAD NEWS! internal error in subroutine IBZKPT:
 Reciprocal lattice and k-lattice belong to different class of lattices. Often results are still useful...      96


 VERY BAD NEWS! internal error in subroutine IBZKPT:
 Reciprocal lattice and k-lattice belong to different class of lattices. Often results are still useful...      96
 POSCAR, INCAR and KPOINTS ok, starting setup
 WARNING: small aliasing (wrap around) errors must be expected
 FFT: planning ...
 WAVECAR not read
 entering main loop
       N       E                     dE             d eps       ncg     rms          rms(c)
Total vdW correction in eV:     15.9367899
DAV:   1     0.498509095910E+03    0.49851E+03   -0.28655E+04  7368   0.790E+02
DAV:   2    -0.604042508947E+02   -0.55891E+03   -0.54407E+03  9788   0.189E+02
DAV:   3    -0.116862582367E+03   -0.56458E+02   -0.55709E+02  8772   0.623E+01
DAV:   4    -0.119525980986E+03   -0.26634E+01   -0.26465E+01 11408   0.144E+01
DAV:   5    -0.119574906821E+03   -0.48926E-01   -0.48869E-01  9856   0.195E+00    0.117E+01
Total vdW correction in eV:     16.3418190
DAV:   6    -0.115667227199E+03    0.39077E+01   -0.12350E+01  8860   0.968E+00    0.608E+00
Total vdW correction in eV:     16.7578520
DAV:   7    -0.115761271512E+03   -0.94044E-01   -0.92086E+00  8552   0.689E+00    0.291E+00
Total vdW correction in eV:     16.9080459
DAV:   8    -0.115694355192E+03    0.66916E-01   -0.13809E+00  9088   0.300E+00    0.155E+00
Total vdW correction in eV:     17.0277856
DAV:   9    -0.115676252496E+03    0.18103E-01   -0.35971E-01  8776   0.168E+00    0.660E-01
Total vdW correction in eV:     17.0892237
DAV:  10    -0.115677522899E+03   -0.12704E-02   -0.95773E-02  8728   0.967E-01    0.251E-01
Total vdW correction in eV:     17.1098988
DAV:  11    -0.115671169243E+03    0.63537E-02   -0.20206E-02  9048   0.412E-01    0.118E-01
Total vdW correction in eV:     17.1180158
DAV:  12    -0.115661917347E+03    0.92519E-02   -0.35087E-03  9016   0.186E-01    0.524E-02
Total vdW correction in eV:     17.1239654
DAV:  13    -0.115656722325E+03    0.51950E-02   -0.68781E-04  9216   0.843E-02    0.236E-02
Total vdW correction in eV:     17.1284089
DAV:  14    -0.115654329274E+03    0.23931E-02   -0.22593E-04  9520   0.391E-02    0.132E-02
Total vdW correction in eV:     17.1313797
DAV:  15    -0.115653963506E+03    0.36577E-03   -0.57958E-05  8992   0.204E-02    0.773E-03
Total vdW correction in eV:     17.1340092
DAV:  16    -0.115653922154E+03    0.41352E-04   -0.57534E-05  8328   0.186E-02    0.490E-03
Total vdW correction in eV:     17.1350145
DAV:  17    -0.115654429396E+03   -0.50724E-03   -0.11547E-04  8200   0.207E-02    0.263E-03
Total vdW correction in eV:     17.1351327
DAV:  18    -0.115654700721E+03   -0.27133E-03   -0.11777E-04  7656   0.167E-02    0.151E-03
Total vdW correction in eV:     17.1349084
DAV:  19    -0.115654734856E+03   -0.34134E-04   -0.13544E-05  6384   0.907E-03    0.986E-04
Total vdW correction in eV:     17.1346489
DAV:  20    -0.115654757838E+03   -0.22982E-04   -0.25970E-05  7176   0.946E-03    0.673E-04
Total vdW correction in eV:     17.1345286
DAV:  21    -0.115654718418E+03    0.39420E-04   -0.13509E-05  6568   0.945E-03    0.434E-04
Total vdW correction in eV:     17.1344736
DAV:  22    -0.115654652164E+03    0.66254E-04   -0.16171E-05  6876   0.960E-03    0.226E-04
Total vdW correction in eV:     17.1344596
DAV:  23    -0.115654617303E+03    0.34861E-04   -0.11251E-05  6584   0.976E-03    0.104E-04
Total vdW correction in eV:     17.1344576
DAV:  24    -0.115654593240E+03    0.24064E-04   -0.60609E-06  7080   0.748E-03    0.563E-05
Total vdW correction in eV:     17.1344599
DAV:  25    -0.115654593813E+03   -0.57294E-06   -0.58544E-06  6112   0.771E-03
Total vdW correction in eV:     17.1344570
Total vdW correction in eV:     17.1344583
   1 F= -.11565459E+03 E0= -.11564387E+03  d E =-.214415E-01
