       N       E                     dE             d eps       ncg     rms          rms(c)
DAV:   1     0.499808426414E+03    0.49981E+03   -0.28737E+04  7368   0.790E+02
DAV:   2    -0.640013578604E+02   -0.56381E+03   -0.54925E+03  9820   0.190E+02
DAV:   3    -0.120057534301E+03   -0.56056E+02   -0.55252E+02  8732   0.623E+01
DAV:   4    -0.122615070311E+03   -0.25575E+01   -0.25407E+01 10992   0.141E+01
DAV:   5    -0.122674413486E+03   -0.59343E-01   -0.59281E-01 10016   0.216E+00    0.107E+01
DAV:   6    -0.119403033666E+03    0.32714E+01   -0.95533E+00  8736   0.899E+00    0.573E+00
DAV:   7    -0.119287643116E+03    0.11539E+00   -0.57602E+00  8768   0.618E+00    0.283E+00
DAV:   8    -0.119273240182E+03    0.14403E-01   -0.14303E+00  9040   0.338E+00    0.121E+00
DAV:   9    -0.119261079653E+03    0.12161E-01   -0.27012E-01  8936   0.158E+00    0.608E-01
DAV:  10    -0.119242963535E+03    0.18116E-01   -0.68260E-02  8928   0.781E-01    0.217E-01
DAV:  11    -0.119235661933E+03    0.73016E-02   -0.12069E-02  9040   0.334E-01    0.968E-02
DAV:  12    -0.119229243967E+03    0.64180E-02   -0.23087E-03  9480   0.142E-01    0.433E-02
DAV:  13    -0.119224884645E+03    0.43593E-02   -0.47713E-04  9048   0.665E-02    0.224E-02
DAV:  14    -0.119222782109E+03    0.21025E-02   -0.13833E-04  9520   0.348E-02    0.121E-02
DAV:  15    -0.119222113959E+03    0.66815E-03   -0.72903E-05  8688   0.231E-02    0.748E-03
DAV:  16    -0.119222433412E+03   -0.31945E-03   -0.90614E-05  8176   0.223E-02    0.408E-03
DAV:  17    -0.119222948554E+03   -0.51514E-03   -0.13498E-04  8360   0.207E-02    0.248E-03
DAV:  18    -0.119223071675E+03   -0.12312E-03   -0.56840E-05  7600   0.131E-02    0.139E-03
DAV:  19    -0.119223138013E+03   -0.66337E-04   -0.19606E-05  6792   0.968E-03    0.101E-03
DAV:  20    -0.119223165732E+03   -0.27720E-04   -0.22707E-05  7056   0.105E-02    0.655E-04
DAV:  21    -0.119223128316E+03    0.37416E-04   -0.25377E-05  7160   0.105E-02    0.483E-04
DAV:  22    -0.119223077424E+03    0.50892E-04   -0.18731E-05  6588   0.116E-02    0.241E-04
DAV:  23    -0.119223015197E+03    0.62227E-04   -0.65280E-06  6448   0.821E-03    0.134E-04
