<?xml version="1.0" encoding="ISO-8859-1"?>
<modeling>
 <generator>
  <i name="program" type="string">vasp </i>
  <i name="version" type="string">5.3.5  </i>
  <i name="subversion" type="string">31Mar14 (build Oct 29 2014 16:16:03) complex                          parallel </i>
  <i name="platform" type="string">Linux-UFHPC </i>
  <i name="date" type="string">2016 02 09 </i>
  <i name="time" type="string">17:25:17 </i>
 </generator>
 <incar>
  <i type="string" name="PREC">accurate</i>
  <i type="int" name="IBRION">     2</i>
  <i name="EDIFF">      0.00000100</i>
  <i type="int" name="NSW">     0</i>
  <i type="int" name="ISIF">     3</i>
  <i name="ENCUT">    300.00000000</i>
  <i type="string" name="LREAL"> Auto</i>
  <i type="int" name="ISMEAR">     0</i>
  <i name="SIGMA">      0.10000000</i>
  <i type="logical" name="LWAVE"> F  </i>
  <i type="logical" name="LCHARG"> F  </i>
  <i type="logical" name="LAECHG"> F  </i>
  <i type="string" name="GGA"> Bo</i>
  <i name="PARAM1">      0.18333333</i>
  <i name="PARAM2">      0.22000000</i>
  <i type="logical" name="LUSE_VDW"> T  </i>
  <i name="AGGAC">      0.00000000</i>
 </incar>
 <kpoints>
  <generation param="Gamma">
   <v type="int" name="divisions">      13        4        2 </v>
   <v name="usershift">      0.00000000       0.00000000       0.00000000 </v>
   <v name="genvec1">      0.07692308      -0.00000000       0.00000000 </v>
   <v name="genvec2">      0.00000000       0.25000000       0.00000000 </v>
   <v name="genvec3">      0.00000000       0.00000000       0.50000000 </v>
   <v name="shift">      0.00000000       0.00000000       0.00000000 </v>
  </generation>
  <varray name="kpointlist" >
   <v>       0.00000000       0.00000000       0.00000000 </v>
   <v>       0.07692308      -0.00000000       0.00000000 </v>
   <v>       0.15384615      -0.00000000       0.00000000 </v>
   <v>       0.23076923      -0.00000000       0.00000000 </v>
   <v>       0.30769231      -0.00000000       0.00000000 </v>
   <v>       0.38461538      -0.00000000       0.00000000 </v>
   <v>       0.46153846      -0.00000000       0.00000000 </v>
   <v>       0.00000000       0.25000000       0.00000000 </v>
   <v>       0.07692308       0.25000000       0.00000000 </v>
   <v>       0.15384615       0.25000000       0.00000000 </v>
   <v>       0.23076923       0.25000000       0.00000000 </v>
   <v>       0.30769231       0.25000000       0.00000000 </v>
   <v>       0.38461538       0.25000000       0.00000000 </v>
   <v>       0.46153846       0.25000000       0.00000000 </v>
   <v>      -0.46153846       0.25000000       0.00000000 </v>
   <v>      -0.38461538       0.25000000       0.00000000 </v>
   <v>      -0.30769231       0.25000000       0.00000000 </v>
   <v>      -0.23076923       0.25000000       0.00000000 </v>
   <v>      -0.15384615       0.25000000       0.00000000 </v>
   <v>      -0.07692308       0.25000000       0.00000000 </v>
   <v>       0.00000000       0.50000000       0.00000000 </v>
   <v>       0.07692308       0.50000000       0.00000000 </v>
   <v>       0.15384615       0.50000000       0.00000000 </v>
   <v>       0.23076923       0.50000000       0.00000000 </v>
   <v>       0.30769231       0.50000000       0.00000000 </v>
   <v>       0.38461538       0.50000000       0.00000000 </v>
   <v>       0.46153846       0.50000000       0.00000000 </v>
   <v>       0.00000000       0.00000000       0.50000000 </v>
   <v>       0.07692308      -0.00000000       0.50000000 </v>
   <v>       0.15384615      -0.00000000       0.50000000 </v>
   <v>       0.23076923      -0.00000000       0.50000000 </v>
   <v>       0.30769231      -0.00000000       0.50000000 </v>
   <v>       0.38461538      -0.00000000       0.50000000 </v>
   <v>       0.46153846      -0.00000000       0.50000000 </v>
   <v>       0.00000000       0.25000000       0.50000000 </v>
   <v>       0.07692308       0.25000000       0.50000000 </v>
   <v>       0.15384615       0.25000000       0.50000000 </v>
   <v>       0.23076923       0.25000000       0.50000000 </v>
   <v>       0.30769231       0.25000000       0.50000000 </v>
   <v>       0.38461538       0.25000000       0.50000000 </v>
   <v>       0.46153846       0.25000000       0.50000000 </v>
   <v>      -0.46153846       0.25000000       0.50000000 </v>
   <v>      -0.38461538       0.25000000       0.50000000 </v>
   <v>      -0.30769231       0.25000000       0.50000000 </v>
   <v>      -0.23076923       0.25000000       0.50000000 </v>
   <v>      -0.15384615       0.25000000       0.50000000 </v>
   <v>      -0.07692308       0.25000000       0.50000000 </v>
   <v>       0.00000000       0.50000000       0.50000000 </v>
   <v>       0.07692308       0.50000000       0.50000000 </v>
   <v>       0.15384615       0.50000000       0.50000000 </v>
   <v>       0.23076923       0.50000000       0.50000000 </v>
   <v>       0.30769231       0.50000000       0.50000000 </v>
   <v>       0.38461538       0.50000000       0.50000000 </v>
   <v>       0.46153846       0.50000000       0.50000000 </v>
  </varray>
  <varray name="weights" >
   <v>       0.00961538 </v>
   <v>       0.01923077 </v>
   <v>       0.01923077 </v>
   <v>       0.01923077 </v>
   <v>       0.01923077 </v>
   <v>       0.01923077 </v>
   <v>       0.01923077 </v>
   <v>       0.01923077 </v>
   <v>       0.01923077 </v>
   <v>       0.01923077 </v>
   <v>       0.01923077 </v>
   <v>       0.01923077 </v>
   <v>       0.01923077 </v>
   <v>       0.01923077 </v>
   <v>       0.01923077 </v>
   <v>       0.01923077 </v>
   <v>       0.01923077 </v>
   <v>       0.01923077 </v>
   <v>       0.01923077 </v>
   <v>       0.01923077 </v>
   <v>       0.00961538 </v>
   <v>       0.01923077 </v>
   <v>       0.01923077 </v>
   <v>       0.01923077 </v>
   <v>       0.01923077 </v>
   <v>       0.01923077 </v>
   <v>       0.01923077 </v>
   <v>       0.00961538 </v>
   <v>       0.01923077 </v>
   <v>       0.01923077 </v>
   <v>       0.01923077 </v>
   <v>       0.01923077 </v>
   <v>       0.01923077 </v>
   <v>       0.01923077 </v>
   <v>       0.01923077 </v>
   <v>       0.01923077 </v>
   <v>       0.01923077 </v>
   <v>       0.01923077 </v>
   <v>       0.01923077 </v>
   <v>       0.01923077 </v>
   <v>       0.01923077 </v>
   <v>       0.01923077 </v>
   <v>       0.01923077 </v>
   <v>       0.01923077 </v>
   <v>       0.01923077 </v>
   <v>       0.01923077 </v>
   <v>       0.01923077 </v>
   <v>       0.00961538 </v>
   <v>       0.01923077 </v>
   <v>       0.01923077 </v>
   <v>       0.01923077 </v>
   <v>       0.01923077 </v>
   <v>       0.01923077 </v>
   <v>       0.01923077 </v>
  </varray>
 </kpoints>
 <parameters>
  <separator name="general" >
   <i type="string" name="SYSTEM">unknown system</i>
   <i type="logical" name="LCOMPAT"> F  </i>
  </separator>
  <separator name="electronic" >
   <i type="string" name="PREC">accura</i>
   <i name="ENMAX">    300.00000000</i>
   <i name="ENAUG">    342.92400000</i>
   <i name="EDIFF">      0.00000100</i>
   <i type="int" name="IALGO">    38</i>
   <i type="int" name="IWAVPR">    10</i>
   <i type="int" name="NBANDS">    68</i>
   <i name="NELECT">    108.00000000</i>
   <i type="int" name="TURBO">     0</i>
   <i type="int" name="IRESTART">     0</i>
   <i type="int" name="NREBOOT">     0</i>
   <i type="int" name="NMIN">     0</i>
   <i name="EREF">      0.00000000</i>
   <separator name="electronic smearing" >
    <i type="int" name="ISMEAR">     0</i>
    <i name="SIGMA">      0.10000000</i>
    <i name="KSPACING">      0.50000000</i>
    <i type="logical" name="KGAMMA"> T  </i>
   </separator>
   <separator name="electronic projectors" >
    <i type="logical" name="LREAL"> T  </i>
    <v name="ROPT">     -0.00025000     -0.00025000</v>
    <i type="int" name="LMAXPAW">  -100</i>
    <i type="int" name="LMAXMIX">     2</i>
    <i type="logical" name="NLSPLINE"> F  </i>
   </separator>
   <separator name="electronic startup" >
    <i type="int" name="ISTART">     0</i>
    <i type="int" name="ICHARG">     2</i>
    <i type="int" name="INIWAV">     1</i>
   </separator>
   <separator name="electronic spin" >
    <i type="int" name="ISPIN">     1</i>
    <i type="logical" name="LNONCOLLINEAR"> F  </i>
    <v name="MAGMOM">      1.00000000      1.00000000      1.00000000      1.00000000      1.00000000      1.00000000      1.00000000      1.00000000      1.00000000      1.00000000      1.00000000      1.00000000      1.00000000      1.00000000      1.00000000      1.00000000      1.00000000      1.00000000      1.00000000      1.00000000
      1.00000000      1.00000000      1.00000000      1.00000000</v>
    <i name="NUPDOWN">     -1.00000000</i>
    <i type="logical" name="LSORBIT"> F  </i>
    <v name="SAXIS">      0.00000000      0.00000000      1.00000000</v>
    <i type="logical" name="LSPIRAL"> F  </i>
    <v name="QSPIRAL">      0.00000000      0.00000000      0.00000000</v>
    <i type="logical" name="LZEROZ"> F  </i>
   </separator>
   <separator name="electronic exchange-correlation" >
    <i type="logical" name="LASPH"> F  </i>
    <i type="logical" name="LMETAGGA"> F  </i>
   </separator>
   <separator name="electronic convergence" >
    <i type="int" name="NELM">    60</i>
    <i type="int" name="NELMDL">    -5</i>
    <i type="int" name="NELMIN">     2</i>
    <i name="ENINI">    300.00000000</i>
    <separator name="electronic convergence detail" >
     <i type="logical" name="LDIAG"> T  </i>
     <i type="logical" name="LSUBROT"> F  </i>
     <i name="WEIMIN">      0.00000000</i>
     <i name="EBREAK">      0.00000000</i>
     <i name="DEPER">      0.30000000</i>
     <i type="int" name="NRMM">     4</i>
     <i name="TIME">      0.40000000</i>
    </separator>
   </separator>
   <separator name="electronic mixer" >
    <i name="AMIX">      0.40000000</i>
    <i name="BMIX">      1.00000000</i>
    <i name="AMIN">      0.10000000</i>
    <i name="AMIX_MAG">      1.60000000</i>
    <i name="BMIX_MAG">      1.00000000</i>
    <separator name="electronic mixer details" >
     <i type="int" name="IMIX">     4</i>
     <i type="int" name="MAXMIX">   -45</i>
     <i name="WC">    100.00000000</i>
     <i type="int" name="INIMIX">     1</i>
     <i type="int" name="MIXPRE">     1</i>
     <i type="int" name="MREMOVE">     5</i>
    </separator>
   </separator>
   <separator name="electronic dipolcorrection" >
    <i type="logical" name="LDIPOL"> F  </i>
    <i type="logical" name="LMONO"> F  </i>
    <i type="int" name="IDIPOL">     0</i>
    <i name="EPSILON">      1.00000000</i>
    <v name="DIPOL">   -100.00000000   -100.00000000   -100.00000000</v>
    <i name="EFIELD">      0.00000000</i>
   </separator>
  </separator>
  <separator name="grids" >
   <i type="int" name="NGX">    20</i>
   <i type="int" name="NGY">    60</i>
   <i type="int" name="NGZ">   160</i>
   <i type="int" name="NGXF">    40</i>
   <i type="int" name="NGYF">   120</i>
   <i type="int" name="NGZF">   320</i>
   <i type="logical" name="ADDGRID"> F  </i>
  </separator>
  <separator name="ionic" >
   <i type="int" name="NSW">     0</i>
   <i type="int" name="IBRION">    -1</i>
   <i type="int" name="ISIF">     3</i>
   <i name="PSTRESS">      0.00000000</i>
   <i name="EDIFFG">      0.00001000</i>
   <i type="int" name="NFREE">     1</i>
   <i name="POTIM">      0.50000000</i>
   <i name="SMASS">     -3.00000000</i>
   <i name="SCALEE">      1.00000000</i>
  </separator>
  <separator name="ionic md" >
   <i name="TEBEG">      0.00010000</i>
   <i name="TEEND">      0.00010000</i>
   <i type="int" name="NBLOCK">     1</i>
   <i type="int" name="KBLOCK">     1</i>
   <i type="int" name="NPACO">   256</i>
   <i name="APACO">     16.00000000</i>
  </separator>
  <separator name="symmetry" >
   <i type="int" name="ISYM">     2</i>
   <i name="SYMPREC">      0.00001000</i>
  </separator>
  <separator name="dos" >
   <i type="logical" name="LORBIT"> F  </i>
   <v name="RWIGS">     -1.00000000     -1.00000000</v>
   <i type="int" name="NEDOS">   301</i>
   <i name="EMIN">     10.00000000</i>
   <i name="EMAX">    -10.00000000</i>
   <i name="EFERMI">      0.00000000</i>
  </separator>
  <separator name="writing" >
   <i type="int" name="NWRITE">     2</i>
   <i type="logical" name="LWAVE"> F  </i>
   <i type="logical" name="LCHARG"> F  </i>
   <i type="logical" name="LPARD"> F  </i>
   <i type="logical" name="LVTOT"> F  </i>
   <i type="logical" name="LVHAR"> F  </i>
   <i type="logical" name="LELF"> F  </i>
   <i type="logical" name="LOPTICS"> F  </i>
   <v name="STM">      0.00000000      0.00000000      0.00000000      0.00000000      0.00000000      0.00000000      0.00000000</v>
  </separator>
  <separator name="performance" >
   <i type="int" name="NPAR">     4</i>
   <i type="int" name="NSIM">     4</i>
   <i type="int" name="NBLK">    -1</i>
   <i type="logical" name="LPLANE"> T  </i>
   <i type="logical" name="LSCALAPACK"> T  </i>
   <i type="logical" name="LSCAAWARE"> F  </i>
   <i type="logical" name="LSCALU"> F  </i>
   <i type="logical" name="LASYNC"> F  </i>
   <i type="logical" name="LORBITALREAL"> F  </i>
  </separator>
  <separator name="miscellaneous" >
   <i type="int" name="IDIOT">     3</i>
   <i type="logical" name="LMUSIC"> F  </i>
   <v name="POMASS">     30.97400000     28.08500000</v>
   <v name="DARWINR">      0.00000000      0.00000000</v>
   <v name="DARWINV">      1.00000000      1.00000000</v>
   <i type="logical" name="LCORR"> T  </i>
  </separator>
  <i type="logical" name="GGA_COMPAT"> T  </i>
  <i type="logical" name="LBERRY"> F  </i>
  <i type="int" name="ICORELEVEL">     0</i>
  <i type="logical" name="LDAU"> F  </i>
  <i type="int" name="I_CONSTRAINED_M">     0</i>
  <separator name="electronic exchange-correlation" >
   <i type="string" name="GGA">BO</i>
   <i type="int" name="VOSKOWN">     0</i>
   <i type="logical" name="LHFCALC"> F  </i>
   <i type="string" name="PRECFOCK"></i>
   <i type="logical" name="LSYMGRAD"> F  </i>
   <i type="logical" name="LHFONE"> F  </i>
   <i type="logical" name="LRHFCALC"> F  </i>
   <i type="logical" name="LTHOMAS"> F  </i>
   <i type="logical" name="LMODELHF"> F  </i>
   <i name="ENCUT4O">     -1.00000000</i>
   <i type="int" name="EXXOEP">     0</i>
   <i type="int" name="FOURORBIT">     0</i>
   <i name="AEXX">      0.00000000</i>
   <i name="HFALPHA">      0.00000000</i>
   <i name="MCALPHA">      0.00000000</i>
   <i name="ALDAX">      1.00000000</i>
   <i name="AGGAX">      1.00000000</i>
   <i name="ALDAC">      1.00000000</i>
   <i name="AGGAC">      0.00000000</i>
   <i type="int" name="NKREDX">     1</i>
   <i type="int" name="NKREDY">     1</i>
   <i type="int" name="NKREDZ">     1</i>
   <i type="logical" name="SHIFTRED"> F  </i>
   <i type="logical" name="ODDONLY"> F  </i>
   <i type="logical" name="EVENONLY"> F  </i>
   <i type="int" name="LMAXFOCK">     0</i>
   <i type="int" name="NMAXFOCKAE">     0</i>
   <i type="logical" name="LFOCKAEDFT"> F  </i>
   <i name="HFSCREEN">      0.00000000</i>
   <i name="HFSCREENC">      0.00000000</i>
   <i type="int" name="NBANDSGWLOW">     0</i>
  </separator>
  <separator name="vdW DFT" >
   <i type="logical" name="LUSE_VDW"> T  </i>
   <i name="Zab_VDW">     -0.84910000</i>
   <i name="PARAM1">      0.18333333</i>
   <i name="PARAM2">      0.22000000</i>
   <i name="PARAM3">      0.00000000</i>
  </separator>
  <separator name="model GW" >
   <i type="int" name="MODEL_GW">     0</i>
   <i name="MODEL_EPS0">     25.05800243</i>
   <i name="MODEL_ALPHA">      1.00000000</i>
  </separator>
  <separator name="linear response parameters" >
   <i type="logical" name="LEPSILON"> F  </i>
   <i type="logical" name="LRPA"> F  </i>
   <i type="logical" name="LNABLA"> F  </i>
   <i type="logical" name="LVEL"> F  </i>
   <i type="int" name="KINTER">     0</i>
   <i name="CSHIFT">      0.10000000</i>
   <i name="OMEGAMAX">     -1.00000000</i>
   <i name="DEG_THRESHOLD">      0.00200000</i>
  </separator>
  <separator name="orbital magnetization" >
   <i type="logical" name="NUCIND"> F  </i>
   <v name="MAGPOS">      0.00000000      0.00000000      0.00000000</v>
   <i type="logical" name="LNICSALL"> T  </i>
   <i type="logical" name="ORBITALMAG"> F  </i>
   <i type="logical" name="LMAGBLOCH"> F  </i>
   <i type="logical" name="LCHIMAG"> F  </i>
   <i type="logical" name="LGAUGE"> T  </i>
   <i type="int" name="MAGATOM">     0</i>
   <v name="MAGDIPOL">      0.00000000      0.00000000      0.00000000</v>
   <v name="AVECCONST">      0.00000000      0.00000000      0.00000000</v>
  </separator>
  <separator name="response functions" >
   <i type="logical" name="LADDER"> F  </i>
   <i type="logical" name="LFXC"> F  </i>
   <i type="logical" name="LHARTREE"> T  </i>
   <i type="int" name="IBSE">     0</i>
   <i type="logical" name="LTCTE"> F  </i>
   <i type="logical" name="LTETE"> F  </i>
   <i type="logical" name="LTRIPLET"> F  </i>
   <i type="logical" name="LFXCEPS"> F  </i>
   <i type="logical" name="LFXHEG"> F  </i>
   <i type="logical" name="L2ORDER"> F  </i>
   <i type="logical" name="LUSEW"> F  </i>
   <i name="ENCUTGW">     -2.00000000</i>
   <i name="ENCUTGWSOFT">     -2.00000000</i>
   <i name="ENCUTLF">     -1.00000000</i>
   <i type="int" name="LMAXMP2">    -1</i>
   <i name="SCISSOR">      0.00000000</i>
   <i type="int" name="NOMEGA">     0</i>
   <i type="int" name="NOMEGAR">     0</i>
   <i type="int" name="NBANDSGW">    -1</i>
   <i type="int" name="NBANDSO">    -1</i>
   <i type="int" name="NBANDSV">    -1</i>
   <i type="int" name="NELM">     1</i>
   <i type="int" name="DIM">     3</i>
   <i type="int" name="ANTIRES">     0</i>
   <i name="OMEGAMAX">    -30.00000000</i>
   <i name="OMEGAMIN">    -30.00000000</i>
   <i name="OMEGATL">   -200.00000000</i>
   <i type="int" name="OMEGAGRID">     0</i>
   <i name="CSHIFT">     -0.10000000</i>
   <i type="logical" name="SELFENERGY"> F  </i>
   <i type="logical" name="LSPECTRAL"> F  </i>
   <i type="logical" name="ODDONLYGW"> F  </i>
   <i type="logical" name="EVENONLYGW"> F  </i>
   <i type="int" name="NKREDLFX">     1</i>
   <i type="int" name="NKREDLFY">     1</i>
   <i type="int" name="NKREDLFZ">     1</i>
   <i type="int" name="MAXMEM">  1800</i>
   <i type="int" name="TELESCOPE">     0</i>
   <i type="int" name="TAUPAR">     1</i>
  </separator>
  <separator name="External order field" >
   <i name="OFIELD_KAPPA">      0.00000000</i>
   <v name="OFIELD_K">      0.00000000      0.00000000      0.00000000</v>
   <i name="OFIELD_Q6_NEAR">      0.00000000</i>
   <i name="OFIELD_Q6_FAR">      0.00000000</i>
   <i name="OFIELD_A">      0.00000000</i>
  </separator>
 </parameters>
 <atominfo>
  <atoms>      24 </atoms>
  <types>       2 </types>
  <array name="atoms" >
   <dimension dim="1">ion</dimension>
   <field type="string">element</field>
   <field type="int">atomtype</field>
   <set>
    <rc><c>P </c><c>   1</c></rc>
    <rc><c>P </c><c>   1</c></rc>
    <rc><c>P </c><c>   1</c></rc>
    <rc><c>P </c><c>   1</c></rc>
    <rc><c>P </c><c>   1</c></rc>
    <rc><c>P </c><c>   1</c></rc>
    <rc><c>P </c><c>   1</c></rc>
    <rc><c>P </c><c>   1</c></rc>
    <rc><c>P </c><c>   1</c></rc>
    <rc><c>P </c><c>   1</c></rc>
    <rc><c>P </c><c>   1</c></rc>
    <rc><c>P </c><c>   1</c></rc>
    <rc><c>Si</c><c>   2</c></rc>
    <rc><c>Si</c><c>   2</c></rc>
    <rc><c>Si</c><c>   2</c></rc>
    <rc><c>Si</c><c>   2</c></rc>
    <rc><c>Si</c><c>   2</c></rc>
    <rc><c>Si</c><c>   2</c></rc>
    <rc><c>Si</c><c>   2</c></rc>
    <rc><c>Si</c><c>   2</c></rc>
    <rc><c>Si</c><c>   2</c></rc>
    <rc><c>Si</c><c>   2</c></rc>
    <rc><c>Si</c><c>   2</c></rc>
    <rc><c>Si</c><c>   2</c></rc>
   </set>
  </array>
  <array name="atomtypes" >
   <dimension dim="1">type</dimension>
   <field type="int">atomspertype</field>
   <field type="string">element</field>
   <field>mass</field>
   <field>valence</field>
   <field type="string">pseudopotential</field>
   <set>
    <rc><c>  12</c><c>P </c><c>     30.97400000</c><c>      5.00000000</c><c>  PAW_PBE P 17Jan2003                   </c></rc>
    <rc><c>  12</c><c>Si</c><c>     28.08500000</c><c>      4.00000000</c><c> PAW_PBE Si 05Jan2001                   </c></rc>
   </set>
  </array>
 </atominfo>
 <structure name="initialpos" >
  <crystal>
   <varray name="basis" >
    <v>       3.54040000       0.00000000       0.00000000 </v>
    <v>      -1.77020000      10.29434800       0.00000000 </v>
    <v>       0.00000000       0.00000000      27.50142900 </v>
   </varray>
   <i name="volume">   1002.32009712 </i>
   <varray name="rec_basis" >
    <v>       0.28245396       0.04857034       0.00000000 </v>
    <v>       0.00000000       0.09714068       0.00000000 </v>
    <v>       0.00000000       0.00000000       0.03636175 </v>
   </varray>
  </crystal>
  <varray name="positions" >
   <v>       0.11402300       0.22804500       0.23316207 </v>
   <v>       0.11402300       0.62804500       0.51499159 </v>
   <v>       0.45808900       0.91617900       0.20939482 </v>
   <v>       0.45808900       0.31617900       0.49122434 </v>
   <v>       0.31085400       0.62170900       0.08414979 </v>
   <v>       0.31085400       0.62170900       0.36597930 </v>
   <v>       0.99923000       0.99846000       0.08631254 </v>
   <v>       0.99923000       0.99846000       0.36814206 </v>
   <v>       0.65492700       0.30985400       0.06041748 </v>
   <v>       0.65492700       0.30985400       0.34224700 </v>
   <v>       0.76973800       0.53947500       0.20725292 </v>
   <v>       0.76973800       0.93947500       0.48908244 </v>
   <v>       0.93971600       0.87943300       0.15783749 </v>
   <v>       0.93971600       0.27943300       0.43966701 </v>
   <v>       0.20515200       0.41030300       0.18578822 </v>
   <v>       0.20515200       0.81030300       0.46761774 </v>
   <v>       0.20184900       0.40369900       0.09969156 </v>
   <v>       0.20184900       0.40369900       0.38152107 </v>
   <v>       0.56380500       0.12761000       0.10779021 </v>
   <v>       0.56380500       0.12761000       0.38961973 </v>
   <v>       0.56710600       0.13421200       0.19387616 </v>
   <v>       0.56710600       0.53421200       0.47570568 </v>
   <v>       0.82923400       0.65846800       0.13571444 </v>
   <v>       0.82923400       0.05846800       0.41754396 </v>
  </varray>
 </structure>
 <calculation>
  <scstep>
   <time name="dav">   69.03   69.10</time>
   <time name="total">   85.28   85.36</time>
   <energy>
    <i name="alphaZ">     36.80884744 </i>
    <i name="ewald">  12036.16788666 </i>
    <i name="hartreedc"> -15047.70681030 </i>
    <i name="XCdc">    -86.91541070 </i>
    <i name="pawpsdc">   1056.43050070 </i>
    <i name="pawaedc">   -732.41190547 </i>
    <i name="eentropy">     -0.04365829 </i>
    <i name="bandstr">    -99.93376340 </i>
    <i name="atom">   3354.04126044 </i>
    <i name="e_fr_energy">    516.43694710 </i>
    <i name="e_wo_entrp">    516.48060539 </i>
    <i name="e_0_energy">    516.45877624 </i>
   </energy>
  </scstep>
  <scstep>
   <time name="dav">   86.16   86.22</time>
   <time name="total">   86.17   86.24</time>
   <energy>
    <i name="e_fr_energy">    -54.10386278 </i>
    <i name="e_wo_entrp">    -54.08690545 </i>
    <i name="e_0_energy">    -54.09538411 </i>
   </energy>
  </scstep>
  <scstep>
   <time name="dav">   80.09   80.14</time>
   <time name="total">   80.11   80.16</time>
   <energy>
    <i name="e_fr_energy">   -112.90744299 </i>
    <i name="e_wo_entrp">   -112.88165097 </i>
    <i name="e_0_energy">   -112.89454698 </i>
   </energy>
  </scstep>
  <scstep>
   <time name="dav">   98.80   98.86</time>
   <time name="total">   98.81   98.87</time>
   <energy>
    <i name="e_fr_energy">   -115.74346266 </i>
    <i name="e_wo_entrp">   -115.71584210 </i>
    <i name="e_0_energy">   -115.72965238 </i>
   </energy>
  </scstep>
  <scstep>
   <time name="dav">   86.41   86.46</time>
   <time name="total">   91.12   91.18</time>
   <energy>
    <i name="e_fr_energy">   -115.79730468 </i>
    <i name="e_wo_entrp">   -115.76973999 </i>
    <i name="e_0_energy">   -115.78352233 </i>
   </energy>
  </scstep>
  <scstep>
   <time name="dav">   82.06   82.12</time>
   <time name="total">  102.21  102.28</time>
   <energy>
    <i name="e_fr_energy">   -109.94372807 </i>
    <i name="e_wo_entrp">   -109.91038351 </i>
    <i name="e_0_energy">   -109.92705579 </i>
   </energy>
  </scstep>
  <scstep>
   <time name="dav">   82.00   82.05</time>
   <time name="total">  102.94  103.01</time>
   <energy>
    <i name="e_fr_energy">   -110.19497080 </i>
    <i name="e_wo_entrp">   -110.17320805 </i>
    <i name="e_0_energy">   -110.18408942 </i>
   </energy>
  </scstep>
  <scstep>
   <time name="dav">   84.62   84.69</time>
   <time name="total">  104.26  104.33</time>
   <energy>
    <i name="e_fr_energy">   -110.10260499 </i>
    <i name="e_wo_entrp">   -110.07484816 </i>
    <i name="e_0_energy">   -110.08872657 </i>
   </energy>
  </scstep>
  <scstep>
   <time name="dav">   81.77   81.79</time>
   <time name="total">  101.18  101.21</time>
   <energy>
    <i name="e_fr_energy">   -110.13010297 </i>
    <i name="e_wo_entrp">   -110.09916074 </i>
    <i name="e_0_energy">   -110.11463186 </i>
   </energy>
  </scstep>
  <scstep>
   <time name="dav">   82.76   82.77</time>
   <time name="total">  102.17  102.19</time>
   <energy>
    <i name="e_fr_energy">   -110.12610956 </i>
    <i name="e_wo_entrp">   -110.09651942 </i>
    <i name="e_0_energy">   -110.11131449 </i>
   </energy>
  </scstep>
  <scstep>
   <time name="dav">   79.95   79.97</time>
   <time name="total">   99.38   99.40</time>
   <energy>
    <i name="e_fr_energy">   -110.12139946 </i>
    <i name="e_wo_entrp">   -110.09377050 </i>
    <i name="e_0_energy">   -110.10758498 </i>
   </energy>
  </scstep>
  <scstep>
   <time name="dav">   81.48   81.49</time>
   <time name="total">  100.93  100.95</time>
   <energy>
    <i name="e_fr_energy">   -110.11193881 </i>
    <i name="e_wo_entrp">   -110.08181794 </i>
    <i name="e_0_energy">   -110.09687838 </i>
   </energy>
  </scstep>
  <scstep>
   <time name="dav">   80.46   80.48</time>
   <time name="total">   99.99  100.01</time>
   <energy>
    <i name="e_fr_energy">   -110.10489280 </i>
    <i name="e_wo_entrp">   -110.07597489 </i>
    <i name="e_0_energy">   -110.09043384 </i>
   </energy>
  </scstep>
  <scstep>
   <time name="dav">   81.42   81.43</time>
   <time name="total">  100.89  100.91</time>
   <energy>
    <i name="e_fr_energy">   -110.10232769 </i>
    <i name="e_wo_entrp">   -110.07323109 </i>
    <i name="e_0_energy">   -110.08777939 </i>
   </energy>
  </scstep>
  <scstep>
   <time name="dav">   80.82   80.83</time>
   <time name="total">  100.28  100.30</time>
   <energy>
    <i name="e_fr_energy">   -110.10078064 </i>
    <i name="e_wo_entrp">   -110.07170546 </i>
    <i name="e_0_energy">   -110.08624305 </i>
   </energy>
  </scstep>
  <scstep>
   <time name="dav">   79.24   79.26</time>
   <time name="total">   98.70   98.72</time>
   <energy>
    <i name="e_fr_energy">   -110.09995921 </i>
    <i name="e_wo_entrp">   -110.07086809 </i>
    <i name="e_0_energy">   -110.08541365 </i>
   </energy>
  </scstep>
  <scstep>
   <time name="dav">   74.57   74.58</time>
   <time name="total">   94.10   94.12</time>
   <energy>
    <i name="e_fr_energy">   -110.10026106 </i>
    <i name="e_wo_entrp">   -110.07124501 </i>
    <i name="e_0_energy">   -110.08575304 </i>
   </energy>
  </scstep>
  <scstep>
   <time name="dav">   77.92   77.94</time>
   <time name="total">   97.29   97.31</time>
   <energy>
    <i name="e_fr_energy">   -110.10059565 </i>
    <i name="e_wo_entrp">   -110.07153289 </i>
    <i name="e_0_energy">   -110.08606427 </i>
   </energy>
  </scstep>
  <scstep>
   <time name="dav">   78.57   78.59</time>
   <time name="total">   98.06   98.08</time>
   <energy>
    <i name="e_fr_energy">   -110.10083127 </i>
    <i name="e_wo_entrp">   -110.07177720 </i>
    <i name="e_0_energy">   -110.08630423 </i>
   </energy>
  </scstep>
  <scstep>
   <time name="dav">   68.85   68.86</time>
   <time name="total">   88.41   88.43</time>
   <energy>
    <i name="e_fr_energy">   -110.10088734 </i>
    <i name="e_wo_entrp">   -110.07182788 </i>
    <i name="e_0_energy">   -110.08635761 </i>
   </energy>
  </scstep>
  <scstep>
   <time name="dav">   65.78   65.79</time>
   <time name="total">   85.19   85.21</time>
   <energy>
    <i name="e_fr_energy">   -110.10092193 </i>
    <i name="e_wo_entrp">   -110.07186517 </i>
    <i name="e_0_energy">   -110.08639355 </i>
   </energy>
  </scstep>
  <scstep>
   <time name="dav">   62.18   62.19</time>
   <time name="total">   81.65   81.67</time>
   <energy>
    <i name="e_fr_energy">   -110.10092464 </i>
    <i name="e_wo_entrp">   -110.07186862 </i>
    <i name="e_0_energy">   -110.08639663 </i>
   </energy>
  </scstep>
  <scstep>
   <time name="dav">   73.93   73.95</time>
   <time name="total">   93.47   93.50</time>
   <energy>
    <i name="e_fr_energy">   -110.10081861 </i>
    <i name="e_wo_entrp">   -110.07176197 </i>
    <i name="e_0_energy">   -110.08629029 </i>
   </energy>
  </scstep>
  <scstep>
   <time name="dav">   68.04   68.06</time>
   <time name="total">   88.83   88.85</time>
   <energy>
    <i name="e_fr_energy">   -110.10079720 </i>
    <i name="e_wo_entrp">   -110.07174050 </i>
    <i name="e_0_energy">   -110.08626885 </i>
   </energy>
  </scstep>
  <scstep>
   <time name="dav">   66.96   66.97</time>
   <time name="total">   86.66   86.68</time>
   <energy>
    <i name="e_fr_energy">   -110.10076734 </i>
    <i name="e_wo_entrp">   -110.07171050 </i>
    <i name="e_0_energy">   -110.08623892 </i>
   </energy>
  </scstep>
  <scstep>
   <time name="dav">   60.52   60.53</time>
   <time name="total">   75.31   75.33</time>
   <energy>
    <i name="alphaZ">     36.80884744 </i>
    <i name="ewald">  12036.16788666 </i>
    <i name="hartreedc"> -15156.07183730 </i>
    <i name="XCdc">    -78.52471189 </i>
    <i name="pawpsdc">   1201.48732801 </i>
    <i name="pawaedc">   -881.79061266 </i>
    <i name="eentropy">     -0.02905667 </i>
    <i name="bandstr">   -622.18987187 </i>
    <i name="atom">   3354.04126044 </i>
    <i name="e_fr_energy">   -110.10076782 </i>
    <i name="e_wo_entrp">   -110.07171115 </i>
    <i name="e_0_energy">   -110.08623949 </i>
   </energy>
  </scstep>
  <structure>
   <crystal>
    <varray name="basis" >
     <v>       3.54040000       0.00000000       0.00000000 </v>
     <v>      -1.77020000      10.29434800       0.00000000 </v>
     <v>       0.00000000       0.00000000      27.50142900 </v>
    </varray>
    <i name="volume">   1002.32009712 </i>
    <varray name="rec_basis" >
     <v>       0.28245396       0.04857034       0.00000000 </v>
     <v>       0.00000000       0.09714068       0.00000000 </v>
     <v>       0.00000000       0.00000000       0.03636175 </v>
    </varray>
   </crystal>
   <varray name="positions" >
    <v>       0.11402300       0.22804500       0.23316207 </v>
    <v>       0.11402300       0.62804500       0.51499159 </v>
    <v>       0.45808900       0.91617900       0.20939482 </v>
    <v>       0.45808900       0.31617900       0.49122434 </v>
    <v>       0.31085400       0.62170900       0.08414979 </v>
    <v>       0.31085400       0.62170900       0.36597930 </v>
    <v>       0.99923000       0.99846000       0.08631254 </v>
    <v>       0.99923000       0.99846000       0.36814206 </v>
    <v>       0.65492700       0.30985400       0.06041748 </v>
    <v>       0.65492700       0.30985400       0.34224700 </v>
    <v>       0.76973800       0.53947500       0.20725292 </v>
    <v>       0.76973800       0.93947500       0.48908244 </v>
    <v>       0.93971600       0.87943300       0.15783749 </v>
    <v>       0.93971600       0.27943300       0.43966701 </v>
    <v>       0.20515200       0.41030300       0.18578822 </v>
    <v>       0.20515200       0.81030300       0.46761774 </v>
    <v>       0.20184900       0.40369900       0.09969156 </v>
    <v>       0.20184900       0.40369900       0.38152107 </v>
    <v>       0.56380500       0.12761000       0.10779021 </v>
    <v>       0.56380500       0.12761000       0.38961973 </v>
    <v>       0.56710600       0.13421200       0.19387616 </v>
    <v>       0.56710600       0.53421200       0.47570568 </v>
    <v>       0.82923400       0.65846800       0.13571444 </v>
    <v>       0.82923400       0.05846800       0.41754396 </v>
   </varray>
  </structure>
  <varray name="forces" >
   <v>      -0.02944992      -0.03448850      -0.00439551 </v>
   <v>       0.01102698      -0.06353478       0.10620166 </v>
   <v>      -0.00220896      -0.01552341       0.07955886 </v>
   <v>       0.62913748       0.04655382       0.54141742 </v>
   <v>      -0.00009034      -0.00460188       0.01001973 </v>
   <v>       0.33091784      -0.44341423       1.21032792 </v>
   <v>      -0.00529648       0.00144271       0.00089302 </v>
   <v>       8.80554057      -8.00447941     -19.57777951 </v>
   <v>       0.00137665       0.00066597       0.01249094 </v>
   <v>      -0.89719685      -0.25991206      -0.72350843 </v>
   <v>       0.00189808       0.00385391       0.09028020 </v>
   <v>      -0.02353700      -0.27233996       0.24656963 </v>
   <v>       0.00271696       0.00141765       0.00952499 </v>
   <v>       0.77035637       0.65215423       3.19268531 </v>
   <v>      -0.00413921       0.00184487       0.04514421 </v>
   <v>       0.10194111       0.13583388      -0.22418647 </v>
   <v>       0.00091956       0.00242930      -0.02156533 </v>
   <v>       0.23382549       2.16235369      -2.07582719 </v>
   <v>      -0.00837584      -0.01667577      -0.01740233 </v>
   <v>     -31.31397890      19.65555358     -24.61697585 </v>
   <v>       0.00511856      -0.01284660       0.00632636 </v>
   <v>      -0.17452836       0.29996079      -0.33379569 </v>
   <v>       0.00152976       0.01496014      -0.00397355 </v>
   <v>      21.56249648     -13.85120790      42.04796961 </v>
  </varray>
  <varray name="stress" >
   <v>      69.75652518     -38.45294266      24.03946411 </v>
   <v>     -38.45294262      32.05422993      -7.04132369 </v>
   <v>      24.03946413      -7.04132400      76.68797546 </v>
  </varray>
  <energy>
   <i name="e_fr_energy">   -110.10076782 </i>
   <i name="e_wo_entrp">   -110.08623949 </i>
   <i name="e_0_energy">     -0.02905667 </i>
  </energy>
  <time name="totalsc"> 2558.82 2559.76</time>
  <eigenvalues>
   <array>
    <dimension dim="1">band</dimension>
    <dimension dim="2">kpoint</dimension>
    <dimension dim="3">spin</dimension>
    <field>eigene</field>
    <field>occ</field>
    <set>
     <set comment="spin 1">
      <set comment="kpoint 1">
       <r>  -15.3597    1.0000 </r>
       <r>  -13.5682    1.0000 </r>
       <r>  -13.2022    1.0000 </r>
       <r>  -12.8287    1.0000 </r>
       <r>  -12.6865    1.0000 </r>
       <r>  -12.5068    1.0000 </r>
       <r>  -12.1149    1.0000 </r>
       <r>  -11.8394    1.0000 </r>
       <r>  -11.4671    1.0000 </r>
       <r>  -11.4556    1.0000 </r>
       <r>  -11.0184    1.0000 </r>
       <r>  -10.0775    1.0000 </r>
       <r>   -9.1943    1.0000 </r>
       <r>   -8.0617    1.0000 </r>
       <r>   -7.8572    1.0000 </r>
       <r>   -7.1763    1.0000 </r>
       <r>   -7.1358    1.0000 </r>
       <r>   -6.8344    1.0000 </r>
       <r>   -6.5232    1.0000 </r>
       <r>   -6.3182    1.0000 </r>
       <r>   -5.8542    1.0000 </r>
       <r>   -5.3617    1.0000 </r>
       <r>   -5.0285    1.0000 </r>
       <r>   -4.7678    1.0000 </r>
       <r>   -4.2628    1.0000 </r>
       <r>   -4.0160    1.0000 </r>
       <r>   -3.7541    1.0000 </r>
       <r>   -3.6447    1.0000 </r>
       <r>   -3.4348    1.0000 </r>
       <r>   -3.2981    1.0000 </r>
       <r>   -3.1748    1.0000 </r>
       <r>   -3.0830    1.0000 </r>
       <r>   -2.8719    1.0000 </r>
       <r>   -2.8484    1.0000 </r>
       <r>   -2.7340    1.0000 </r>
       <r>   -2.5021    1.0000 </r>
       <r>   -2.4478    1.0000 </r>
       <r>   -2.4220    1.0000 </r>
       <r>   -2.3605    1.0000 </r>
       <r>   -2.2017    1.0000 </r>
       <r>   -2.0737    1.0000 </r>
       <r>   -1.9427    1.0000 </r>
       <r>   -1.8824    1.0000 </r>
       <r>   -1.7571    1.0000 </r>
       <r>   -1.7234    1.0000 </r>
       <r>   -1.6704    1.0000 </r>
       <r>   -1.6040    1.0000 </r>
       <r>   -1.4966    1.0000 </r>
       <r>   -1.4597    1.0000 </r>
       <r>   -1.2780    1.0000 </r>
       <r>   -1.1301    1.0000 </r>
       <r>   -1.0549    1.0000 </r>
       <r>   -0.1024    0.8737 </r>
       <r>    0.2222    0.0003 </r>
       <r>    0.9110    0.0000 </r>
       <r>    1.1086    0.0000 </r>
       <r>    1.1801    0.0000 </r>
       <r>    1.2536    0.0000 </r>
       <r>    1.3161    0.0000 </r>
       <r>    1.3968    0.0000 </r>
       <r>    1.6827    0.0000 </r>
       <r>    1.8281    0.0000 </r>
       <r>    1.9265    0.0000 </r>
       <r>    2.0306    0.0000 </r>
       <r>    2.1331    0.0000 </r>
       <r>    2.4073    0.0000 </r>
       <r>    2.4490    0.0000 </r>
       <r>    2.6236    0.0000 </r>
      </set>
      <set comment="kpoint 2">
       <r>  -15.3067    1.0000 </r>
       <r>  -13.5069    1.0000 </r>
       <r>  -13.1470    1.0000 </r>
       <r>  -12.7765    1.0000 </r>
       <r>  -12.6278    1.0000 </r>
       <r>  -12.4512    1.0000 </r>
       <r>  -12.0527    1.0000 </r>
       <r>  -11.7913    1.0000 </r>
       <r>  -11.4160    1.0000 </r>
       <r>  -11.4033    1.0000 </r>
       <r>  -10.9700    1.0000 </r>
       <r>  -10.0528    1.0000 </r>
       <r>   -9.1824    1.0000 </r>
       <r>   -8.0983    1.0000 </r>
       <r>   -7.8203    1.0000 </r>
       <r>   -7.1938    1.0000 </r>
       <r>   -7.1245    1.0000 </r>
       <r>   -6.8079    1.0000 </r>
       <r>   -6.5173    1.0000 </r>
       <r>   -6.3003    1.0000 </r>
       <r>   -5.8212    1.0000 </r>
       <r>   -5.5005    1.0000 </r>
       <r>   -5.1917    1.0000 </r>
       <r>   -4.7743    1.0000 </r>
       <r>   -4.5880    1.0000 </r>
       <r>   -4.0134    1.0000 </r>
       <r>   -3.7896    1.0000 </r>
       <r>   -3.6778    1.0000 </r>
       <r>   -3.5259    1.0000 </r>
       <r>   -3.4597    1.0000 </r>
       <r>   -3.2994    1.0000 </r>
       <r>   -3.2308    1.0000 </r>
       <r>   -3.1658    1.0000 </r>
       <r>   -2.9533    1.0000 </r>
       <r>   -2.8603    1.0000 </r>
       <r>   -2.7669    1.0000 </r>
       <r>   -2.6339    1.0000 </r>
       <r>   -2.5089    1.0000 </r>
       <r>   -2.4469    1.0000 </r>
       <r>   -2.3450    1.0000 </r>
       <r>   -2.2213    1.0000 </r>
       <r>   -2.0607    1.0000 </r>
       <r>   -2.0205    1.0000 </r>
       <r>   -1.9923    1.0000 </r>
       <r>   -1.8654    1.0000 </r>
       <r>   -1.7812    1.0000 </r>
       <r>   -1.6162    1.0000 </r>
       <r>   -1.5754    1.0000 </r>
       <r>   -1.5323    1.0000 </r>
       <r>   -1.2888    1.0000 </r>
       <r>   -1.1061    1.0000 </r>
       <r>   -0.9988    1.0000 </r>
       <r>   -0.0763    0.7807 </r>
       <r>    0.2358    0.0001 </r>
       <r>    0.8276    0.0000 </r>
       <r>    1.0994    0.0000 </r>
       <r>    1.3365    0.0000 </r>
       <r>    1.5175    0.0000 </r>
       <r>    1.6324    0.0000 </r>
       <r>    1.7394    0.0000 </r>
       <r>    1.9277    0.0000 </r>
       <r>    2.0988    0.0000 </r>
       <r>    2.1850    0.0000 </r>
       <r>    2.2076    0.0000 </r>
       <r>    2.3054    0.0000 </r>
       <r>    2.5860    0.0000 </r>
       <r>    2.6125    0.0000 </r>
       <r>    2.7671    0.0000 </r>
      </set>
      <set comment="kpoint 3">
       <r>  -15.1505    1.0000 </r>
       <r>  -13.3239    1.0000 </r>
       <r>  -12.9833    1.0000 </r>
       <r>  -12.6207    1.0000 </r>
       <r>  -12.4543    1.0000 </r>
       <r>  -12.2863    1.0000 </r>
       <r>  -11.8704    1.0000 </r>
       <r>  -11.6500    1.0000 </r>
       <r>  -11.2718    1.0000 </r>
       <r>  -11.2468    1.0000 </r>
       <r>  -10.8312    1.0000 </r>
       <r>   -9.9930    1.0000 </r>
       <r>   -9.1650    1.0000 </r>
       <r>   -8.1945    1.0000 </r>
       <r>   -7.7781    1.0000 </r>
       <r>   -7.3995    1.0000 </r>
       <r>   -7.0942    1.0000 </r>
       <r>   -6.7450    1.0000 </r>
       <r>   -6.5289    1.0000 </r>
       <r>   -6.2961    1.0000 </r>
       <r>   -5.9993    1.0000 </r>
       <r>   -5.7441    1.0000 </r>
       <r>   -5.3160    1.0000 </r>
       <r>   -4.9005    1.0000 </r>
       <r>   -4.8183    1.0000 </r>
       <r>   -4.2514    1.0000 </r>
       <r>   -4.1538    1.0000 </r>
       <r>   -4.1062    1.0000 </r>
       <r>   -4.0056    1.0000 </r>
       <r>   -3.9612    1.0000 </r>
       <r>   -3.7353    1.0000 </r>
       <r>   -3.6876    1.0000 </r>
       <r>   -3.4265    1.0000 </r>
       <r>   -3.2537    1.0000 </r>
       <r>   -3.1944    1.0000 </r>
       <r>   -3.1110    1.0000 </r>
       <r>   -2.9945    1.0000 </r>
       <r>   -2.9411    1.0000 </r>
       <r>   -2.7685    1.0000 </r>
       <r>   -2.5730    1.0000 </r>
       <r>   -2.4480    1.0000 </r>
       <r>   -2.3925    1.0000 </r>
       <r>   -2.2878    1.0000 </r>
       <r>   -2.1703    1.0000 </r>
       <r>   -1.9686    1.0000 </r>
       <r>   -1.8160    1.0000 </r>
       <r>   -1.6834    1.0000 </r>
       <r>   -1.6459    1.0000 </r>
       <r>   -1.3244    1.0000 </r>
       <r>   -1.1743    1.0000 </r>
       <r>   -1.0131    1.0000 </r>
       <r>   -0.8319    1.0000 </r>
       <r>   -0.2348    0.9987 </r>
       <r>    0.0346    0.2139 </r>
       <r>    0.5539    0.0000 </r>
       <r>    0.9480    0.0000 </r>
       <r>    1.2428    0.0000 </r>
       <r>    1.7518    0.0000 </r>
       <r>    1.9132    0.0000 </r>
       <r>    2.2183    0.0000 </r>
       <r>    2.2662    0.0000 </r>
       <r>    2.3887    0.0000 </r>
       <r>    2.4444    0.0000 </r>
       <r>    2.6015    0.0000 </r>
       <r>    2.6659    0.0000 </r>
       <r>    2.9114    0.0000 </r>
       <r>    2.9733    0.0000 </r>
       <r>    3.0518    0.0000 </r>
      </set>
      <set comment="kpoint 4">
       <r>  -14.9012    1.0000 </r>
       <r>  -13.0229    1.0000 </r>
       <r>  -12.7188    1.0000 </r>
       <r>  -12.3645    1.0000 </r>
       <r>  -12.1752    1.0000 </r>
       <r>  -12.0195    1.0000 </r>
       <r>  -11.5830    1.0000 </r>
       <r>  -11.4271    1.0000 </r>
       <r>  -11.0544    1.0000 </r>
       <r>  -11.0028    1.0000 </r>
       <r>  -10.6282    1.0000 </r>
       <r>   -9.9562    1.0000 </r>
       <r>   -9.1936    1.0000 </r>
       <r>   -8.3859    1.0000 </r>
       <r>   -7.9365    1.0000 </r>
       <r>   -7.8489    1.0000 </r>
       <r>   -7.1391    1.0000 </r>
       <r>   -6.7214    1.0000 </r>
       <r>   -6.6614    1.0000 </r>
       <r>   -6.4660    1.0000 </r>
       <r>   -6.1440    1.0000 </r>
       <r>   -5.7665    1.0000 </r>
       <r>   -5.5642    1.0000 </r>
       <r>   -5.3670    1.0000 </r>
       <r>   -5.2401    1.0000 </r>
       <r>   -4.8387    1.0000 </r>
       <r>   -4.6495    1.0000 </r>
       <r>   -4.5841    1.0000 </r>
       <r>   -4.5175    1.0000 </r>
       <r>   -4.3846    1.0000 </r>
       <r>   -4.2048    1.0000 </r>
       <r>   -3.8753    1.0000 </r>
       <r>   -3.8078    1.0000 </r>
       <r>   -3.6386    1.0000 </r>
       <r>   -3.4992    1.0000 </r>
       <r>   -3.3717    1.0000 </r>
       <r>   -3.1184    1.0000 </r>
       <r>   -3.0424    1.0000 </r>
       <r>   -3.0094    1.0000 </r>
       <r>   -2.6955    1.0000 </r>
       <r>   -2.6308    1.0000 </r>
       <r>   -2.5024    1.0000 </r>
       <r>   -2.4458    1.0000 </r>
       <r>   -2.2649    1.0000 </r>
       <r>   -1.9362    1.0000 </r>
       <r>   -1.8645    1.0000 </r>
       <r>   -1.7668    1.0000 </r>
       <r>   -1.6960    1.0000 </r>
       <r>   -1.4972    1.0000 </r>
       <r>   -1.2679    1.0000 </r>
       <r>   -1.0840    1.0000 </r>
       <r>   -0.6702    1.0000 </r>
       <r>   -0.5003    1.0000 </r>
       <r>   -0.4157    1.0000 </r>
       <r>    0.3889    0.0000 </r>
       <r>    0.9224    0.0000 </r>
       <r>    1.2581    0.0000 </r>
       <r>    1.7578    0.0000 </r>
       <r>    1.8261    0.0000 </r>
       <r>    1.9907    0.0000 </r>
       <r>    2.0716    0.0000 </r>
       <r>    2.2577    0.0000 </r>
       <r>    2.3681    0.0000 </r>
       <r>    2.4515    0.0000 </r>
       <r>    2.6514    0.0000 </r>
       <r>    2.8492    0.0000 </r>
       <r>    2.9235    0.0000 </r>
       <r>    2.9679    0.0000 </r>
      </set>
      <set comment="kpoint 5">
       <r>  -14.5820    1.0000 </r>
       <r>  -12.6112    1.0000 </r>
       <r>  -12.3738    1.0000 </r>
       <r>  -12.0162    1.0000 </r>
       <r>  -11.8133    1.0000 </r>
       <r>  -11.6679    1.0000 </r>
       <r>  -11.2263    1.0000 </r>
       <r>  -11.1543    1.0000 </r>
       <r>  -10.8100    1.0000 </r>
       <r>  -10.7202    1.0000 </r>
       <r>  -10.4425    1.0000 </r>
       <r>  -10.0641    1.0000 </r>
       <r>   -9.2787    1.0000 </r>
       <r>   -8.6808    1.0000 </r>
       <r>   -8.5061    1.0000 </r>
       <r>   -8.1110    1.0000 </r>
       <r>   -7.3559    1.0000 </r>
       <r>   -7.0229    1.0000 </r>
       <r>   -6.9271    1.0000 </r>
       <r>   -6.7982    1.0000 </r>
       <r>   -6.3818    1.0000 </r>
       <r>   -6.1904    1.0000 </r>
       <r>   -5.9914    1.0000 </r>
       <r>   -5.8160    1.0000 </r>
       <r>   -5.5799    1.0000 </r>
       <r>   -5.2389    1.0000 </r>
       <r>   -4.9737    1.0000 </r>
       <r>   -4.7967    1.0000 </r>
       <r>   -4.7245    1.0000 </r>
       <r>   -4.5276    1.0000 </r>
       <r>   -4.3345    1.0000 </r>
       <r>   -4.2438    1.0000 </r>
       <r>   -3.9076    1.0000 </r>
       <r>   -3.7188    1.0000 </r>
       <r>   -3.4615    1.0000 </r>
       <r>   -3.4061    1.0000 </r>
       <r>   -3.1788    1.0000 </r>
       <r>   -3.1035    1.0000 </r>
       <r>   -2.9827    1.0000 </r>
       <r>   -2.8600    1.0000 </r>
       <r>   -2.7845    1.0000 </r>
       <r>   -2.6378    1.0000 </r>
       <r>   -2.5519    1.0000 </r>
       <r>   -2.3261    1.0000 </r>
       <r>   -2.0844    1.0000 </r>
       <r>   -1.9284    1.0000 </r>
       <r>   -1.9004    1.0000 </r>
       <r>   -1.7550    1.0000 </r>
       <r>   -1.7063    1.0000 </r>
       <r>   -1.4420    1.0000 </r>
       <r>   -1.2406    1.0000 </r>
       <r>   -1.0892    1.0000 </r>
       <r>   -0.7769    1.0000 </r>
       <r>   -0.6614    1.0000 </r>
       <r>    0.1421    0.0103 </r>
       <r>    0.8299    0.0000 </r>
       <r>    1.3376    0.0000 </r>
       <r>    1.5378    0.0000 </r>
       <r>    1.7051    0.0000 </r>
       <r>    1.7575    0.0000 </r>
       <r>    1.9330    0.0000 </r>
       <r>    2.0266    0.0000 </r>
       <r>    2.1945    0.0000 </r>
       <r>    2.2817    0.0000 </r>
       <r>    2.4312    0.0000 </r>
       <r>    2.6352    0.0000 </r>
       <r>    2.7578    0.0000 </r>
       <r>    2.8313    0.0000 </r>
      </set>
      <set comment="kpoint 6">
       <r>  -14.2452    1.0000 </r>
       <r>  -12.1038    1.0000 </r>
       <r>  -12.0102    1.0000 </r>
       <r>  -11.5970    1.0000 </r>
       <r>  -11.4296    1.0000 </r>
       <r>  -11.2712    1.0000 </r>
       <r>  -10.9254    1.0000 </r>
       <r>  -10.8758    1.0000 </r>
       <r>  -10.6555    1.0000 </r>
       <r>  -10.5500    1.0000 </r>
       <r>  -10.4827    1.0000 </r>
       <r>  -10.2071    1.0000 </r>
       <r>   -9.4098    1.0000 </r>
       <r>   -8.9409    1.0000 </r>
       <r>   -8.8571    1.0000 </r>
       <r>   -8.4035    1.0000 </r>
       <r>   -7.6755    1.0000 </r>
       <r>   -7.4861    1.0000 </r>
       <r>   -7.4417    1.0000 </r>
       <r>   -7.1574    1.0000 </r>
       <r>   -6.8433    1.0000 </r>
       <r>   -6.7875    1.0000 </r>
       <r>   -6.6874    1.0000 </r>
       <r>   -6.2012    1.0000 </r>
       <r>   -5.4416    1.0000 </r>
       <r>   -5.2421    1.0000 </r>
       <r>   -4.9868    1.0000 </r>
       <r>   -4.6512    1.0000 </r>
       <r>   -4.5537    1.0000 </r>
       <r>   -4.3721    1.0000 </r>
       <r>   -4.2472    1.0000 </r>
       <r>   -4.1057    1.0000 </r>
       <r>   -4.0736    1.0000 </r>
       <r>   -3.7735    1.0000 </r>
       <r>   -3.6826    1.0000 </r>
       <r>   -3.3944    1.0000 </r>
       <r>   -3.2914    1.0000 </r>
       <r>   -3.2022    1.0000 </r>
       <r>   -3.1629    1.0000 </r>
       <r>   -2.9287    1.0000 </r>
       <r>   -2.8209    1.0000 </r>
       <r>   -2.7454    1.0000 </r>
       <r>   -2.5140    1.0000 </r>
       <r>   -2.4391    1.0000 </r>
       <r>   -2.3114    1.0000 </r>
       <r>   -2.1637    1.0000 </r>
       <r>   -2.0560    1.0000 </r>
       <r>   -1.8895    1.0000 </r>
       <r>   -1.7890    1.0000 </r>
       <r>   -1.5530    1.0000 </r>
       <r>   -1.4033    1.0000 </r>
       <r>   -1.3389    1.0000 </r>
       <r>   -0.9801    1.0000 </r>
       <r>   -0.8028    1.0000 </r>
       <r>   -0.0790    0.7920 </r>
       <r>    0.6600    0.0000 </r>
       <r>    1.2840    0.0000 </r>
       <r>    1.3710    0.0000 </r>
       <r>    1.6276    0.0000 </r>
       <r>    1.6534    0.0000 </r>
       <r>    1.7117    0.0000 </r>
       <r>    1.8729    0.0000 </r>
       <r>    2.0028    0.0000 </r>
       <r>    2.1724    0.0000 </r>
       <r>    2.2359    0.0000 </r>
       <r>    2.3502    0.0000 </r>
       <r>    2.6123    0.0000 </r>
       <r>    2.7740    0.0000 </r>
      </set>
      <set comment="kpoint 7">
       <r>  -14.0020    1.0000 </r>
       <r>  -11.8053    1.0000 </r>
       <r>  -11.5279    1.0000 </r>
       <r>  -11.1744    1.0000 </r>
       <r>  -11.1240    1.0000 </r>
       <r>  -10.9715    1.0000 </r>
       <r>  -10.8716    1.0000 </r>
       <r>  -10.8377    1.0000 </r>
       <r>  -10.7561    1.0000 </r>
       <r>  -10.6634    1.0000 </r>
       <r>  -10.5440    1.0000 </r>
       <r>  -10.1018    1.0000 </r>
       <r>   -9.7131    1.0000 </r>
       <r>   -9.0856    1.0000 </r>
       <r>   -8.7156    1.0000 </r>
       <r>   -8.4660    1.0000 </r>
       <r>   -8.1060    1.0000 </r>
       <r>   -7.8279    1.0000 </r>
       <r>   -7.5974    1.0000 </r>
       <r>   -7.5408    1.0000 </r>
       <r>   -7.3130    1.0000 </r>
       <r>   -7.2093    1.0000 </r>
       <r>   -7.1296    1.0000 </r>
       <r>   -6.3518    1.0000 </r>
       <r>   -5.2830    1.0000 </r>
       <r>   -4.9513    1.0000 </r>
       <r>   -4.8942    1.0000 </r>
       <r>   -4.5332    1.0000 </r>
       <r>   -4.3318    1.0000 </r>
       <r>   -4.2255    1.0000 </r>
       <r>   -4.1002    1.0000 </r>
       <r>   -4.0471    1.0000 </r>
       <r>   -3.9693    1.0000 </r>
       <r>   -3.8579    1.0000 </r>
       <r>   -3.7514    1.0000 </r>
       <r>   -3.6592    1.0000 </r>
       <r>   -3.5566    1.0000 </r>
       <r>   -3.2811    1.0000 </r>
       <r>   -3.1395    1.0000 </r>
       <r>   -3.0186    1.0000 </r>
       <r>   -2.9978    1.0000 </r>
       <r>   -2.7867    1.0000 </r>
       <r>   -2.7058    1.0000 </r>
       <r>   -2.5379    1.0000 </r>
       <r>   -2.3817    1.0000 </r>
       <r>   -2.2340    1.0000 </r>
       <r>   -2.1327    1.0000 </r>
       <r>   -1.9597    1.0000 </r>
       <r>   -1.7738    1.0000 </r>
       <r>   -1.5679    1.0000 </r>
       <r>   -1.5245    1.0000 </r>
       <r>   -1.4234    1.0000 </r>
       <r>   -1.0869    1.0000 </r>
       <r>   -0.8402    1.0000 </r>
       <r>   -0.2088    0.9960 </r>
       <r>    0.5637    0.0000 </r>
       <r>    1.2718    0.0000 </r>
       <r>    1.3377    0.0000 </r>
       <r>    1.4531    0.0000 </r>
       <r>    1.5365    0.0000 </r>
       <r>    1.6171    0.0000 </r>
       <r>    1.7675    0.0000 </r>
       <r>    1.8713    0.0000 </r>
       <r>    2.0356    0.0000 </r>
       <r>    2.1313    0.0000 </r>
       <r>    2.3598    0.0000 </r>
       <r>    2.4834    0.0000 </r>
       <r>    2.6238    0.0000 </r>
      </set>
      <set comment="kpoint 8">
       <r>  -15.3587    1.0000 </r>
       <r>  -13.5129    1.0000 </r>
       <r>  -13.2377    1.0000 </r>
       <r>  -13.0023    1.0000 </r>
       <r>  -12.6050    1.0000 </r>
       <r>  -12.5028    1.0000 </r>
       <r>  -11.9823    1.0000 </r>
       <r>  -11.8924    1.0000 </r>
       <r>  -11.5069    1.0000 </r>
       <r>  -11.3526    1.0000 </r>
       <r>  -11.0272    1.0000 </r>
       <r>  -10.0479    1.0000 </r>
       <r>   -9.2881    1.0000 </r>
       <r>   -8.5435    1.0000 </r>
       <r>   -7.4346    1.0000 </r>
       <r>   -7.1597    1.0000 </r>
       <r>   -7.1268    1.0000 </r>
       <r>   -6.6987    1.0000 </r>
       <r>   -6.6281    1.0000 </r>
       <r>   -6.2332    1.0000 </r>
       <r>   -5.7759    1.0000 </r>
       <r>   -5.4534    1.0000 </r>
       <r>   -4.8615    1.0000 </r>
       <r>   -4.6643    1.0000 </r>
       <r>   -4.1977    1.0000 </r>
       <r>   -4.0737    1.0000 </r>
       <r>   -3.9680    1.0000 </r>
       <r>   -3.6249    1.0000 </r>
       <r>   -3.5028    1.0000 </r>
       <r>   -3.3743    1.0000 </r>
       <r>   -3.3191    1.0000 </r>
       <r>   -3.1550    1.0000 </r>
       <r>   -2.8318    1.0000 </r>
       <r>   -2.7408    1.0000 </r>
       <r>   -2.7358    1.0000 </r>
       <r>   -2.5319    1.0000 </r>
       <r>   -2.4313    1.0000 </r>
       <r>   -2.3910    1.0000 </r>
       <r>   -2.3537    1.0000 </r>
       <r>   -2.2163    1.0000 </r>
       <r>   -2.1307    1.0000 </r>
       <r>   -2.0378    1.0000 </r>
       <r>   -1.9854    1.0000 </r>
       <r>   -1.9091    1.0000 </r>
       <r>   -1.7027    1.0000 </r>
       <r>   -1.6561    1.0000 </r>
       <r>   -1.5257    1.0000 </r>
       <r>   -1.4119    1.0000 </r>
       <r>   -1.3902    1.0000 </r>
       <r>   -1.2630    1.0000 </r>
       <r>   -1.1137    1.0000 </r>
       <r>   -0.9963    1.0000 </r>
       <r>   -0.0948    0.8502 </r>
       <r>    0.0490    0.1594 </r>
       <r>    1.0375    0.0000 </r>
       <r>    1.1368    0.0000 </r>
       <r>    1.1734    0.0000 </r>
       <r>    1.3020    0.0000 </r>
       <r>    1.3501    0.0000 </r>
       <r>    1.4527    0.0000 </r>
       <r>    1.6977    0.0000 </r>
       <r>    1.8171    0.0000 </r>
       <r>    1.9249    0.0000 </r>
       <r>    2.1066    0.0000 </r>
       <r>    2.2429    0.0000 </r>
       <r>    2.4377    0.0000 </r>
       <r>    2.5668    0.0000 </r>
       <r>    2.6207    0.0000 </r>
      </set>
      <set comment="kpoint 9">
       <r>  -15.3055    1.0000 </r>
       <r>  -13.4361    1.0000 </r>
       <r>  -13.1883    1.0000 </r>
       <r>  -12.9832    1.0000 </r>
       <r>  -12.5289    1.0000 </r>
       <r>  -12.4445    1.0000 </r>
       <r>  -11.9557    1.0000 </r>
       <r>  -11.7958    1.0000 </r>
       <r>  -11.4655    1.0000 </r>
       <r>  -11.2809    1.0000 </r>
       <r>  -10.9829    1.0000 </r>
       <r>  -10.0194    1.0000 </r>
       <r>   -9.2875    1.0000 </r>
       <r>   -8.6020    1.0000 </r>
       <r>   -7.3916    1.0000 </r>
       <r>   -7.1768    1.0000 </r>
       <r>   -7.1319    1.0000 </r>
       <r>   -6.7072    1.0000 </r>
       <r>   -6.5575    1.0000 </r>
       <r>   -6.1749    1.0000 </r>
       <r>   -5.7280    1.0000 </r>
       <r>   -5.5464    1.0000 </r>
       <r>   -5.2222    1.0000 </r>
       <r>   -4.7157    1.0000 </r>
       <r>   -4.3480    1.0000 </r>
       <r>   -4.1331    1.0000 </r>
       <r>   -4.0013    1.0000 </r>
       <r>   -3.6874    1.0000 </r>
       <r>   -3.5934    1.0000 </r>
       <r>   -3.4205    1.0000 </r>
       <r>   -3.3545    1.0000 </r>
       <r>   -3.2725    1.0000 </r>
       <r>   -3.1232    1.0000 </r>
       <r>   -3.0485    1.0000 </r>
       <r>   -2.8547    1.0000 </r>
       <r>   -2.7664    1.0000 </r>
       <r>   -2.6525    1.0000 </r>
       <r>   -2.5326    1.0000 </r>
       <r>   -2.4502    1.0000 </r>
       <r>   -2.3050    1.0000 </r>
       <r>   -2.2920    1.0000 </r>
       <r>   -2.1692    1.0000 </r>
       <r>   -2.0449    1.0000 </r>
       <r>   -1.9990    1.0000 </r>
       <r>   -1.8629    1.0000 </r>
       <r>   -1.7774    1.0000 </r>
       <r>   -1.7080    1.0000 </r>
       <r>   -1.5534    1.0000 </r>
       <r>   -1.4056    1.0000 </r>
       <r>   -1.2395    1.0000 </r>
       <r>   -1.0663    1.0000 </r>
       <r>   -0.9531    1.0000 </r>
       <r>   -0.0673    0.7415 </r>
       <r>    0.0518    0.1499 </r>
       <r>    0.8942    0.0000 </r>
       <r>    1.1071    0.0000 </r>
       <r>    1.4823    0.0000 </r>
       <r>    1.5451    0.0000 </r>
       <r>    1.5956    0.0000 </r>
       <r>    1.7676    0.0000 </r>
       <r>    1.9359    0.0000 </r>
       <r>    1.9652    0.0000 </r>
       <r>    2.2063    0.0000 </r>
       <r>    2.3810    0.0000 </r>
       <r>    2.5031    0.0000 </r>
       <r>    2.6199    0.0000 </r>
       <r>    2.6360    0.0000 </r>
       <r>    2.8256    0.0000 </r>
      </set>
      <set comment="kpoint 10">
       <r>  -15.1492    1.0000 </r>
       <r>  -13.2396    1.0000 </r>
       <r>  -13.0261    1.0000 </r>
       <r>  -12.8467    1.0000 </r>
       <r>  -12.3459    1.0000 </r>
       <r>  -12.2766    1.0000 </r>
       <r>  -11.8266    1.0000 </r>
       <r>  -11.5988    1.0000 </r>
       <r>  -11.3261    1.0000 </r>
       <r>  -11.1137    1.0000 </r>
       <r>  -10.8417    1.0000 </r>
       <r>   -9.9628    1.0000 </r>
       <r>   -9.2669    1.0000 </r>
       <r>   -8.6676    1.0000 </r>
       <r>   -7.4344    1.0000 </r>
       <r>   -7.3153    1.0000 </r>
       <r>   -7.1067    1.0000 </r>
       <r>   -6.6848    1.0000 </r>
       <r>   -6.5267    1.0000 </r>
       <r>   -6.2240    1.0000 </r>
       <r>   -5.9150    1.0000 </r>
       <r>   -5.6790    1.0000 </r>
       <r>   -5.4691    1.0000 </r>
       <r>   -4.8733    1.0000 </r>
       <r>   -4.6496    1.0000 </r>
       <r>   -4.4084    1.0000 </r>
       <r>   -4.3254    1.0000 </r>
       <r>   -4.1794    1.0000 </r>
       <r>   -4.0108    1.0000 </r>
       <r>   -3.9275    1.0000 </r>
       <r>   -3.6863    1.0000 </r>
       <r>   -3.5855    1.0000 </r>
       <r>   -3.4096    1.0000 </r>
       <r>   -3.2780    1.0000 </r>
       <r>   -3.1532    1.0000 </r>
       <r>   -3.0578    1.0000 </r>
       <r>   -2.9876    1.0000 </r>
       <r>   -2.8285    1.0000 </r>
       <r>   -2.7637    1.0000 </r>
       <r>   -2.6320    1.0000 </r>
       <r>   -2.5665    1.0000 </r>
       <r>   -2.4641    1.0000 </r>
       <r>   -2.3778    1.0000 </r>
       <r>   -2.3118    1.0000 </r>
       <r>   -1.9790    1.0000 </r>
       <r>   -1.9079    1.0000 </r>
       <r>   -1.6177    1.0000 </r>
       <r>   -1.5049    1.0000 </r>
       <r>   -1.2772    1.0000 </r>
       <r>   -1.1288    1.0000 </r>
       <r>   -0.9995    1.0000 </r>
       <r>   -0.8723    1.0000 </r>
       <r>   -0.2218    0.9977 </r>
       <r>   -0.0472    0.6419 </r>
       <r>    0.4942    0.0000 </r>
       <r>    0.9649    0.0000 </r>
       <r>    1.3319    0.0000 </r>
       <r>    1.6138    0.0000 </r>
       <r>    1.7228    0.0000 </r>
       <r>    2.0928    0.0000 </r>
       <r>    2.3171    0.0000 </r>
       <r>    2.3519    0.0000 </r>
       <r>    2.4539    0.0000 </r>
       <r>    2.7183    0.0000 </r>
       <r>    2.8618    0.0000 </r>
       <r>    2.9494    0.0000 </r>
       <r>    3.0364    0.0000 </r>
       <r>    3.1175    0.0000 </r>
      </set>
      <set comment="kpoint 11">
       <r>  -14.9000    1.0000 </r>
       <r>  -12.9283    1.0000 </r>
       <r>  -12.7583    1.0000 </r>
       <r>  -12.5954    1.0000 </r>
       <r>  -12.0676    1.0000 </r>
       <r>  -12.0081    1.0000 </r>
       <r>  -11.6018    1.0000 </r>
       <r>  -11.3225    1.0000 </r>
       <r>  -11.1044    1.0000 </r>
       <r>  -10.8694    1.0000 </r>
       <r>  -10.6245    1.0000 </r>
       <r>   -9.9430    1.0000 </r>
       <r>   -9.2682    1.0000 </r>
       <r>   -8.7988    1.0000 </r>
       <r>   -7.9330    1.0000 </r>
       <r>   -7.4196    1.0000 </r>
       <r>   -7.1758    1.0000 </r>
       <r>   -6.7242    1.0000 </r>
       <r>   -6.6719    1.0000 </r>
       <r>   -6.4635    1.0000 </r>
       <r>   -6.0331    1.0000 </r>
       <r>   -5.8477    1.0000 </r>
       <r>   -5.6539    1.0000 </r>
       <r>   -5.2476    1.0000 </r>
       <r>   -5.2020    1.0000 </r>
       <r>   -5.0531    1.0000 </r>
       <r>   -4.6976    1.0000 </r>
       <r>   -4.6162    1.0000 </r>
       <r>   -4.5743    1.0000 </r>
       <r>   -4.3565    1.0000 </r>
       <r>   -4.0419    1.0000 </r>
       <r>   -3.8515    1.0000 </r>
       <r>   -3.7690    1.0000 </r>
       <r>   -3.6057    1.0000 </r>
       <r>   -3.3267    1.0000 </r>
       <r>   -3.2395    1.0000 </r>
       <r>   -3.1376    1.0000 </r>
       <r>   -3.1160    1.0000 </r>
       <r>   -2.8593    1.0000 </r>
       <r>   -2.7166    1.0000 </r>
       <r>   -2.6576    1.0000 </r>
       <r>   -2.6016    1.0000 </r>
       <r>   -2.5524    1.0000 </r>
       <r>   -2.3345    1.0000 </r>
       <r>   -2.0123    1.0000 </r>
       <r>   -1.9239    1.0000 </r>
       <r>   -1.8054    1.0000 </r>
       <r>   -1.6390    1.0000 </r>
       <r>   -1.4261    1.0000 </r>
       <r>   -1.2529    1.0000 </r>
       <r>   -1.0532    1.0000 </r>
       <r>   -0.6925    1.0000 </r>
       <r>   -0.5810    1.0000 </r>
       <r>   -0.3343    1.0000 </r>
       <r>    0.2278    0.0002 </r>
       <r>    0.9476    0.0000 </r>
       <r>    1.2153    0.0000 </r>
       <r>    1.4181    0.0000 </r>
       <r>    1.5676    0.0000 </r>
       <r>    1.6996    0.0000 </r>
       <r>    2.0489    0.0000 </r>
       <r>    2.2151    0.0000 </r>
       <r>    2.4475    0.0000 </r>
       <r>    2.5629    0.0000 </r>
       <r>    2.6950    0.0000 </r>
       <r>    2.8601    0.0000 </r>
       <r>    3.0141    0.0000 </r>
       <r>    3.1257    0.0000 </r>
      </set>
      <set comment="kpoint 12">
       <r>  -14.5811    1.0000 </r>
       <r>  -12.5122    1.0000 </r>
       <r>  -12.4041    1.0000 </r>
       <r>  -12.2364    1.0000 </r>
       <r>  -11.7212    1.0000 </r>
       <r>  -11.6594    1.0000 </r>
       <r>  -11.3034    1.0000 </r>
       <r>  -11.0091    1.0000 </r>
       <r>  -10.8407    1.0000 </r>
       <r>  -10.6013    1.0000 </r>
       <r>  -10.4191    1.0000 </r>
       <r>  -10.0814    1.0000 </r>
       <r>   -9.3061    1.0000 </r>
       <r>   -8.9979    1.0000 </r>
       <r>   -8.4900    1.0000 </r>
       <r>   -7.7334    1.0000 </r>
       <r>   -7.4295    1.0000 </r>
       <r>   -7.1401    1.0000 </r>
       <r>   -6.9885    1.0000 </r>
       <r>   -6.7752    1.0000 </r>
       <r>   -6.3073    1.0000 </r>
       <r>   -6.2186    1.0000 </r>
       <r>   -5.9480    1.0000 </r>
       <r>   -5.8566    1.0000 </r>
       <r>   -5.6220    1.0000 </r>
       <r>   -5.4071    1.0000 </r>
       <r>   -5.0010    1.0000 </r>
       <r>   -4.9621    1.0000 </r>
       <r>   -4.4875    1.0000 </r>
       <r>   -4.4374    1.0000 </r>
       <r>   -4.3471    1.0000 </r>
       <r>   -4.0397    1.0000 </r>
       <r>   -3.9451    1.0000 </r>
       <r>   -3.6186    1.0000 </r>
       <r>   -3.4696    1.0000 </r>
       <r>   -3.3652    1.0000 </r>
       <r>   -3.0835    1.0000 </r>
       <r>   -3.0238    1.0000 </r>
       <r>   -2.9115    1.0000 </r>
       <r>   -2.8665    1.0000 </r>
       <r>   -2.7312    1.0000 </r>
       <r>   -2.6293    1.0000 </r>
       <r>   -2.5198    1.0000 </r>
       <r>   -2.4180    1.0000 </r>
       <r>   -2.2929    1.0000 </r>
       <r>   -1.9925    1.0000 </r>
       <r>   -1.9134    1.0000 </r>
       <r>   -1.7791    1.0000 </r>
       <r>   -1.7215    1.0000 </r>
       <r>   -1.4376    1.0000 </r>
       <r>   -1.2598    1.0000 </r>
       <r>   -1.0785    1.0000 </r>
       <r>   -0.8298    1.0000 </r>
       <r>   -0.6202    1.0000 </r>
       <r>    0.0336    0.2181 </r>
       <r>    0.7714    0.0000 </r>
       <r>    1.1957    0.0000 </r>
       <r>    1.2374    0.0000 </r>
       <r>    1.3616    0.0000 </r>
       <r>    1.6152    0.0000 </r>
       <r>    1.8431    0.0000 </r>
       <r>    2.1165    0.0000 </r>
       <r>    2.2291    0.0000 </r>
       <r>    2.3380    0.0000 </r>
       <r>    2.4628    0.0000 </r>
       <r>    2.5987    0.0000 </r>
       <r>    2.6606    0.0000 </r>
       <r>    2.9353    0.0000 </r>
      </set>
      <set comment="kpoint 13">
       <r>  -14.2447    1.0000 </r>
       <r>  -12.0349    1.0000 </r>
       <r>  -11.9999    1.0000 </r>
       <r>  -11.7865    1.0000 </r>
       <r>  -11.3811    1.0000 </r>
       <r>  -11.2698    1.0000 </r>
       <r>  -10.9921    1.0000 </r>
       <r>  -10.7517    1.0000 </r>
       <r>  -10.6300    1.0000 </r>
       <r>  -10.5123    1.0000 </r>
       <r>  -10.4949    1.0000 </r>
       <r>  -10.2013    1.0000 </r>
       <r>   -9.4108    1.0000 </r>
       <r>   -8.9880    1.0000 </r>
       <r>   -8.9278    1.0000 </r>
       <r>   -8.1380    1.0000 </r>
       <r>   -7.8067    1.0000 </r>
       <r>   -7.7402    1.0000 </r>
       <r>   -7.3844    1.0000 </r>
       <r>   -7.0714    1.0000 </r>
       <r>   -6.8792    1.0000 </r>
       <r>   -6.7222    1.0000 </r>
       <r>   -6.6870    1.0000 </r>
       <r>   -6.2308    1.0000 </r>
       <r>   -5.4713    1.0000 </r>
       <r>   -5.3710    1.0000 </r>
       <r>   -4.9807    1.0000 </r>
       <r>   -4.8111    1.0000 </r>
       <r>   -4.5058    1.0000 </r>
       <r>   -4.3814    1.0000 </r>
       <r>   -4.1445    1.0000 </r>
       <r>   -4.0251    1.0000 </r>
       <r>   -3.8884    1.0000 </r>
       <r>   -3.5940    1.0000 </r>
       <r>   -3.5043    1.0000 </r>
       <r>   -3.3801    1.0000 </r>
       <r>   -3.3115    1.0000 </r>
       <r>   -3.1812    1.0000 </r>
       <r>   -3.1429    1.0000 </r>
       <r>   -2.9689    1.0000 </r>
       <r>   -2.8763    1.0000 </r>
       <r>   -2.7334    1.0000 </r>
       <r>   -2.6024    1.0000 </r>
       <r>   -2.4789    1.0000 </r>
       <r>   -2.3345    1.0000 </r>
       <r>   -2.1951    1.0000 </r>
       <r>   -2.1001    1.0000 </r>
       <r>   -1.8932    1.0000 </r>
       <r>   -1.7607    1.0000 </r>
       <r>   -1.5729    1.0000 </r>
       <r>   -1.4551    1.0000 </r>
       <r>   -1.3617    1.0000 </r>
       <r>   -1.0150    1.0000 </r>
       <r>   -0.7641    1.0000 </r>
       <r>   -0.1383    0.9507 </r>
       <r>    0.5936    0.0000 </r>
       <r>    1.1658    0.0000 </r>
       <r>    1.2772    0.0000 </r>
       <r>    1.3108    0.0000 </r>
       <r>    1.5355    0.0000 </r>
       <r>    1.6986    0.0000 </r>
       <r>    1.8137    0.0000 </r>
       <r>    1.9878    0.0000 </r>
       <r>    2.0693    0.0000 </r>
       <r>    2.2803    0.0000 </r>
       <r>    2.4629    0.0000 </r>
       <r>    2.5821    0.0000 </r>
       <r>    2.6725    0.0000 </r>
      </set>
      <set comment="kpoint 14">
       <r>  -14.0019    1.0000 </r>
       <r>  -11.8075    1.0000 </r>
       <r>  -11.4566    1.0000 </r>
       <r>  -11.2914    1.0000 </r>
       <r>  -11.1221    1.0000 </r>
       <r>  -10.9845    1.0000 </r>
       <r>  -10.8919    1.0000 </r>
       <r>  -10.8448    1.0000 </r>
       <r>  -10.7268    1.0000 </r>
       <r>  -10.6088    1.0000 </r>
       <r>  -10.5330    1.0000 </r>
       <r>  -10.1021    1.0000 </r>
       <r>   -9.7089    1.0000 </r>
       <r>   -9.0972    1.0000 </r>
       <r>   -8.5821    1.0000 </r>
       <r>   -8.4268    1.0000 </r>
       <r>   -8.3543    1.0000 </r>
       <r>   -7.8423    1.0000 </r>
       <r>   -7.5432    1.0000 </r>
       <r>   -7.4838    1.0000 </r>
       <r>   -7.3424    1.0000 </r>
       <r>   -7.1772    1.0000 </r>
       <r>   -7.1552    1.0000 </r>
       <r>   -6.3740    1.0000 </r>
       <r>   -5.2369    1.0000 </r>
       <r>   -5.0492    1.0000 </r>
       <r>   -4.9225    1.0000 </r>
       <r>   -4.5006    1.0000 </r>
       <r>   -4.4005    1.0000 </r>
       <r>   -4.2176    1.0000 </r>
       <r>   -4.1608    1.0000 </r>
       <r>   -4.0115    1.0000 </r>
       <r>   -3.9461    1.0000 </r>
       <r>   -3.7517    1.0000 </r>
       <r>   -3.6864    1.0000 </r>
       <r>   -3.5224    1.0000 </r>
       <r>   -3.4414    1.0000 </r>
       <r>   -3.2864    1.0000 </r>
       <r>   -3.2334    1.0000 </r>
       <r>   -3.0885    1.0000 </r>
       <r>   -3.0028    1.0000 </r>
       <r>   -2.7461    1.0000 </r>
       <r>   -2.6459    1.0000 </r>
       <r>   -2.6117    1.0000 </r>
       <r>   -2.5678    1.0000 </r>
       <r>   -2.2022    1.0000 </r>
       <r>   -2.1473    1.0000 </r>
       <r>   -1.8951    1.0000 </r>
       <r>   -1.7499    1.0000 </r>
       <r>   -1.6070    1.0000 </r>
       <r>   -1.5319    1.0000 </r>
       <r>   -1.4226    1.0000 </r>
       <r>   -1.0459    1.0000 </r>
       <r>   -0.8284    1.0000 </r>
       <r>   -0.2455    0.9992 </r>
       <r>    0.4821    0.0000 </r>
       <r>    1.2549    0.0000 </r>
       <r>    1.3857    0.0000 </r>
       <r>    1.4602    0.0000 </r>
       <r>    1.5187    0.0000 </r>
       <r>    1.5500    0.0000 </r>
       <r>    1.6466    0.0000 </r>
       <r>    1.8036    0.0000 </r>
       <r>    2.0020    0.0000 </r>
       <r>    2.2636    0.0000 </r>
       <r>    2.3711    0.0000 </r>
       <r>    2.4194    0.0000 </r>
       <r>    2.4806    0.0000 </r>
      </set>
      <set comment="kpoint 15">
       <r>  -14.0022    1.0000 </r>
       <r>  -11.8085    1.0000 </r>
       <r>  -11.5616    1.0000 </r>
       <r>  -11.1040    1.0000 </r>
       <r>  -11.0973    1.0000 </r>
       <r>  -10.9576    1.0000 </r>
       <r>  -10.8570    1.0000 </r>
       <r>  -10.8367    1.0000 </r>
       <r>  -10.7825    1.0000 </r>
       <r>  -10.7322    1.0000 </r>
       <r>  -10.5316    1.0000 </r>
       <r>  -10.1158    1.0000 </r>
       <r>   -9.7054    1.0000 </r>
       <r>   -9.1141    1.0000 </r>
       <r>   -8.7842    1.0000 </r>
       <r>   -8.4598    1.0000 </r>
       <r>   -7.9710    1.0000 </r>
       <r>   -7.7860    1.0000 </r>
       <r>   -7.6308    1.0000 </r>
       <r>   -7.5471    1.0000 </r>
       <r>   -7.3075    1.0000 </r>
       <r>   -7.2484    1.0000 </r>
       <r>   -7.1186    1.0000 </r>
       <r>   -6.3745    1.0000 </r>
       <r>   -5.2170    1.0000 </r>
       <r>   -4.9320    1.0000 </r>
       <r>   -4.7593    1.0000 </r>
       <r>   -4.6066    1.0000 </r>
       <r>   -4.4044    1.0000 </r>
       <r>   -4.2935    1.0000 </r>
       <r>   -4.0912    1.0000 </r>
       <r>   -4.0290    1.0000 </r>
       <r>   -3.9928    1.0000 </r>
       <r>   -3.9093    1.0000 </r>
       <r>   -3.8328    1.0000 </r>
       <r>   -3.6886    1.0000 </r>
       <r>   -3.5563    1.0000 </r>
       <r>   -3.3734    1.0000 </r>
       <r>   -3.1059    1.0000 </r>
       <r>   -2.9590    1.0000 </r>
       <r>   -2.8399    1.0000 </r>
       <r>   -2.7998    1.0000 </r>
       <r>   -2.7120    1.0000 </r>
       <r>   -2.6559    1.0000 </r>
       <r>   -2.4080    1.0000 </r>
       <r>   -2.1967    1.0000 </r>
       <r>   -2.1665    1.0000 </r>
       <r>   -1.9315    1.0000 </r>
       <r>   -1.7618    1.0000 </r>
       <r>   -1.5602    1.0000 </r>
       <r>   -1.4520    1.0000 </r>
       <r>   -1.3885    1.0000 </r>
       <r>   -0.9892    1.0000 </r>
       <r>   -0.8442    1.0000 </r>
       <r>   -0.2427    0.9991 </r>
       <r>    0.4928    0.0000 </r>
       <r>    1.2800    0.0000 </r>
       <r>    1.3607    0.0000 </r>
       <r>    1.4972    0.0000 </r>
       <r>    1.6329    0.0000 </r>
       <r>    1.6721    0.0000 </r>
       <r>    1.7378    0.0000 </r>
       <r>    1.8801    0.0000 </r>
       <r>    2.0865    0.0000 </r>
       <r>    2.2679    0.0000 </r>
       <r>    2.3520    0.0000 </r>
       <r>    2.5071    0.0000 </r>
       <r>    2.5391    0.0000 </r>
      </set>
      <set comment="kpoint 16">
       <r>  -14.2454    1.0000 </r>
       <r>  -12.1300    1.0000 </r>
       <r>  -12.0095    1.0000 </r>
       <r>  -11.5125    1.0000 </r>
       <r>  -11.4348    1.0000 </r>
       <r>  -11.2687    1.0000 </r>
       <r>  -10.9588    1.0000 </r>
       <r>  -10.9006    1.0000 </r>
       <r>  -10.6583    1.0000 </r>
       <r>  -10.5515    1.0000 </r>
       <r>  -10.4783    1.0000 </r>
       <r>  -10.2282    1.0000 </r>
       <r>   -9.4190    1.0000 </r>
       <r>   -8.9522    1.0000 </r>
       <r>   -8.7691    1.0000 </r>
       <r>   -8.5170    1.0000 </r>
       <r>   -7.6080    1.0000 </r>
       <r>   -7.4672    1.0000 </r>
       <r>   -7.3569    1.0000 </r>
       <r>   -7.2033    1.0000 </r>
       <r>   -6.8374    1.0000 </r>
       <r>   -6.7941    1.0000 </r>
       <r>   -6.6912    1.0000 </r>
       <r>   -6.2453    1.0000 </r>
       <r>   -5.4177    1.0000 </r>
       <r>   -5.1086    1.0000 </r>
       <r>   -4.9620    1.0000 </r>
       <r>   -4.8392    1.0000 </r>
       <r>   -4.4352    1.0000 </r>
       <r>   -4.3440    1.0000 </r>
       <r>   -4.2778    1.0000 </r>
       <r>   -4.1439    1.0000 </r>
       <r>   -4.1101    1.0000 </r>
       <r>   -3.8231    1.0000 </r>
       <r>   -3.7496    1.0000 </r>
       <r>   -3.4362    1.0000 </r>
       <r>   -3.3486    1.0000 </r>
       <r>   -3.2344    1.0000 </r>
       <r>   -3.1249    1.0000 </r>
       <r>   -3.0710    1.0000 </r>
       <r>   -2.7435    1.0000 </r>
       <r>   -2.7109    1.0000 </r>
       <r>   -2.5512    1.0000 </r>
       <r>   -2.4901    1.0000 </r>
       <r>   -2.2712    1.0000 </r>
       <r>   -2.1525    1.0000 </r>
       <r>   -1.9736    1.0000 </r>
       <r>   -1.8639    1.0000 </r>
       <r>   -1.7395    1.0000 </r>
       <r>   -1.5102    1.0000 </r>
       <r>   -1.4332    1.0000 </r>
       <r>   -1.2968    1.0000 </r>
       <r>   -0.8549    1.0000 </r>
       <r>   -0.8114    1.0000 </r>
       <r>   -0.0909    0.8369 </r>
       <r>    0.6340    0.0000 </r>
       <r>    1.2817    0.0000 </r>
       <r>    1.4190    0.0000 </r>
       <r>    1.5826    0.0000 </r>
       <r>    1.7248    0.0000 </r>
       <r>    1.8174    0.0000 </r>
       <r>    1.9505    0.0000 </r>
       <r>    2.0391    0.0000 </r>
       <r>    2.2054    0.0000 </r>
       <r>    2.2695    0.0000 </r>
       <r>    2.4280    0.0000 </r>
       <r>    2.6057    0.0000 </r>
       <r>    2.6655    0.0000 </r>
      </set>
      <set comment="kpoint 17">
       <r>  -14.5822    1.0000 </r>
       <r>  -12.6235    1.0000 </r>
       <r>  -12.3709    1.0000 </r>
       <r>  -11.9747    1.0000 </r>
       <r>  -11.8256    1.0000 </r>
       <r>  -11.6675    1.0000 </r>
       <r>  -11.2698    1.0000 </r>
       <r>  -11.1211    1.0000 </r>
       <r>  -10.8019    1.0000 </r>
       <r>  -10.7448    1.0000 </r>
       <r>  -10.4485    1.0000 </r>
       <r>  -10.0679    1.0000 </r>
       <r>   -9.3001    1.0000 </r>
       <r>   -8.5821    1.0000 </r>
       <r>   -8.4968    1.0000 </r>
       <r>   -8.2134    1.0000 </r>
       <r>   -7.2334    1.0000 </r>
       <r>   -7.0287    1.0000 </r>
       <r>   -6.9266    1.0000 </r>
       <r>   -6.8960    1.0000 </r>
       <r>   -6.3448    1.0000 </r>
       <r>   -6.1841    1.0000 </r>
       <r>   -6.0006    1.0000 </r>
       <r>   -5.8293    1.0000 </r>
       <r>   -5.5817    1.0000 </r>
       <r>   -5.1841    1.0000 </r>
       <r>   -4.9858    1.0000 </r>
       <r>   -4.8768    1.0000 </r>
       <r>   -4.6705    1.0000 </r>
       <r>   -4.4591    1.0000 </r>
       <r>   -4.3360    1.0000 </r>
       <r>   -4.2677    1.0000 </r>
       <r>   -3.8993    1.0000 </r>
       <r>   -3.8337    1.0000 </r>
       <r>   -3.4883    1.0000 </r>
       <r>   -3.4309    1.0000 </r>
       <r>   -3.1888    1.0000 </r>
       <r>   -3.1103    1.0000 </r>
       <r>   -2.9920    1.0000 </r>
       <r>   -2.9379    1.0000 </r>
       <r>   -2.8022    1.0000 </r>
       <r>   -2.6352    1.0000 </r>
       <r>   -2.4575    1.0000 </r>
       <r>   -2.3063    1.0000 </r>
       <r>   -2.0545    1.0000 </r>
       <r>   -1.9144    1.0000 </r>
       <r>   -1.8978    1.0000 </r>
       <r>   -1.7385    1.0000 </r>
       <r>   -1.6827    1.0000 </r>
       <r>   -1.4343    1.0000 </r>
       <r>   -1.2727    1.0000 </r>
       <r>   -1.0638    1.0000 </r>
       <r>   -0.7945    1.0000 </r>
       <r>   -0.5794    1.0000 </r>
       <r>    0.1617    0.0048 </r>
       <r>    0.8506    0.0000 </r>
       <r>    1.3118    0.0000 </r>
       <r>    1.5700    0.0000 </r>
       <r>    1.6733    0.0000 </r>
       <r>    1.8606    0.0000 </r>
       <r>    1.9501    0.0000 </r>
       <r>    2.0565    0.0000 </r>
       <r>    2.2075    0.0000 </r>
       <r>    2.3167    0.0000 </r>
       <r>    2.4202    0.0000 </r>
       <r>    2.6611    0.0000 </r>
       <r>    2.7247    0.0000 </r>
       <r>    2.7694    0.0000 </r>
      </set>
      <set comment="kpoint 18">
       <r>  -14.9011    1.0000 </r>
       <r>  -13.0187    1.0000 </r>
       <r>  -12.7230    1.0000 </r>
       <r>  -12.3791    1.0000 </r>
       <r>  -12.1688    1.0000 </r>
       <r>  -12.0193    1.0000 </r>
       <r>  -11.5662    1.0000 </r>
       <r>  -11.4338    1.0000 </r>
       <r>  -11.0581    1.0000 </r>
       <r>  -10.9908    1.0000 </r>
       <r>  -10.6268    1.0000 </r>
       <r>   -9.9539    1.0000 </r>
       <r>   -9.2275    1.0000 </r>
       <r>   -8.4263    1.0000 </r>
       <r>   -7.9206    1.0000 </r>
       <r>   -7.8066    1.0000 </r>
       <r>   -7.0022    1.0000 </r>
       <r>   -6.7321    1.0000 </r>
       <r>   -6.6730    1.0000 </r>
       <r>   -6.6473    1.0000 </r>
       <r>   -6.0843    1.0000 </r>
       <r>   -5.7679    1.0000 </r>
       <r>   -5.5375    1.0000 </r>
       <r>   -5.3608    1.0000 </r>
       <r>   -5.2412    1.0000 </r>
       <r>   -4.8626    1.0000 </r>
       <r>   -4.6278    1.0000 </r>
       <r>   -4.6136    1.0000 </r>
       <r>   -4.5304    1.0000 </r>
       <r>   -4.3138    1.0000 </r>
       <r>   -4.2040    1.0000 </r>
       <r>   -3.9245    1.0000 </r>
       <r>   -3.8043    1.0000 </r>
       <r>   -3.6835    1.0000 </r>
       <r>   -3.4816    1.0000 </r>
       <r>   -3.3694    1.0000 </r>
       <r>   -3.1541    1.0000 </r>
       <r>   -3.0362    1.0000 </r>
       <r>   -2.9926    1.0000 </r>
       <r>   -2.7275    1.0000 </r>
       <r>   -2.6730    1.0000 </r>
       <r>   -2.5001    1.0000 </r>
       <r>   -2.4072    1.0000 </r>
       <r>   -2.1893    1.0000 </r>
       <r>   -1.9270    1.0000 </r>
       <r>   -1.8656    1.0000 </r>
       <r>   -1.7756    1.0000 </r>
       <r>   -1.6936    1.0000 </r>
       <r>   -1.4951    1.0000 </r>
       <r>   -1.2598    1.0000 </r>
       <r>   -1.0710    1.0000 </r>
       <r>   -0.6785    1.0000 </r>
       <r>   -0.5197    1.0000 </r>
       <r>   -0.3753    1.0000 </r>
       <r>    0.4040    0.0000 </r>
       <r>    0.9176    0.0000 </r>
       <r>    1.1581    0.0000 </r>
       <r>    1.7581    0.0000 </r>
       <r>    1.8097    0.0000 </r>
       <r>    1.9907    0.0000 </r>
       <r>    2.1807    0.0000 </r>
       <r>    2.2433    0.0000 </r>
       <r>    2.3228    0.0000 </r>
       <r>    2.5216    0.0000 </r>
       <r>    2.6755    0.0000 </r>
       <r>    2.8000    0.0000 </r>
       <r>    2.8985    0.0000 </r>
       <r>    2.9606    0.0000 </r>
      </set>
      <set comment="kpoint 19">
       <r>  -15.1500    1.0000 </r>
       <r>  -13.3024    1.0000 </r>
       <r>  -12.9985    1.0000 </r>
       <r>  -12.6943    1.0000 </r>
       <r>  -12.4221    1.0000 </r>
[...]
       <r>    2.6680    0.0000 </r>
      </set>
      <set comment="kpoint 54">
       <r>  -14.0020    1.0000 </r>
       <r>  -11.8107    1.0000 </r>
       <r>  -11.5164    1.0000 </r>
       <r>  -11.1966    1.0000 </r>
       <r>  -11.1009    1.0000 </r>
       <r>  -10.9746    1.0000 </r>
       <r>  -10.8782    1.0000 </r>
       <r>  -10.8634    1.0000 </r>
       <r>  -10.7489    1.0000 </r>
       <r>  -10.6498    1.0000 </r>
       <r>  -10.5203    1.0000 </r>
       <r>  -10.1163    1.0000 </r>
       <r>   -9.7013    1.0000 </r>
       <r>   -9.1252    1.0000 </r>
       <r>   -8.6928    1.0000 </r>
       <r>   -8.4664    1.0000 </r>
       <r>   -8.1461    1.0000 </r>
       <r>   -7.8071    1.0000 </r>
       <r>   -7.5871    1.0000 </r>
       <r>   -7.4867    1.0000 </r>
       <r>   -7.3173    1.0000 </r>
       <r>   -7.2007    1.0000 </r>
       <r>   -7.1460    1.0000 </r>
       <r>   -6.3980    1.0000 </r>
       <r>   -5.1508    1.0000 </r>
       <r>   -5.0033    1.0000 </r>
       <r>   -4.9516    1.0000 </r>
       <r>   -4.5099    1.0000 </r>
       <r>   -4.4223    1.0000 </r>
       <r>   -4.2678    1.0000 </r>
       <r>   -4.1270    1.0000 </r>
       <r>   -4.0133    1.0000 </r>
       <r>   -3.9668    1.0000 </r>
       <r>   -3.8065    1.0000 </r>
       <r>   -3.7491    1.0000 </r>
       <r>   -3.5812    1.0000 </r>
       <r>   -3.4650    1.0000 </r>
       <r>   -3.2863    1.0000 </r>
       <r>   -3.2346    1.0000 </r>
       <r>   -3.0658    1.0000 </r>
       <r>   -2.9719    1.0000 </r>
       <r>   -2.7894    1.0000 </r>
       <r>   -2.7116    1.0000 </r>
       <r>   -2.6740    1.0000 </r>
       <r>   -2.3998    1.0000 </r>
       <r>   -2.2171    1.0000 </r>
       <r>   -2.1497    1.0000 </r>
       <r>   -1.8579    1.0000 </r>
       <r>   -1.7602    1.0000 </r>
       <r>   -1.5924    1.0000 </r>
       <r>   -1.4711    1.0000 </r>
       <r>   -1.3895    1.0000 </r>
       <r>   -0.9292    1.0000 </r>
       <r>   -0.8258    1.0000 </r>
       <r>   -0.2984    1.0000 </r>
       <r>    0.4186    0.0000 </r>
       <r>    1.2034    0.0000 </r>
       <r>    1.3131    0.0000 </r>
       <r>    1.4915    0.0000 </r>
       <r>    1.5558    0.0000 </r>
       <r>    1.6142    0.0000 </r>
       <r>    1.8063    0.0000 </r>
       <r>    1.9057    0.0000 </r>
       <r>    1.9941    0.0000 </r>
       <r>    2.1446    0.0000 </r>
       <r>    2.3761    0.0000 </r>
       <r>    2.4536    0.0000 </r>
       <r>    2.5646    0.0000 </r>
      </set>
     </set>
    </set>
   </array>
  </eigenvalues>
  <separator name="orbital magnetization" >
   <v name="MAGDIPOLOUT">      0.00000000      0.00000000      0.00000000</v>
  </separator>
  <dos>
   <i name="efermi">     -0.02149426 </i>
   <total>
    <array>
     <dimension dim="1">gridpoints</dimension>
     <dimension dim="2">spin</dimension>
     <field>energy</field>
     <field>total</field>
     <field>integrated</field>
     <set>
      <set comment="spin 1">
       <r>   -16.3597     0.0000     0.0000 </r>
       <r>   -16.2914     0.0000     0.0000 </r>
       <r>   -16.2232     0.0000     0.0000 </r>
       <r>   -16.1549     0.0000     0.0000 </r>
       <r>   -16.0866     0.0000     0.0000 </r>
       <r>   -16.0183     0.0000     0.0000 </r>
       <r>   -15.9500     0.0000     0.0000 </r>
       <r>   -15.8817     0.0000     0.0000 </r>
       <r>   -15.8134     0.0000     0.0000 </r>
       <r>   -15.7452     0.0000     0.0000 </r>
       <r>   -15.6769     0.0000     0.0000 </r>
       <r>   -15.6086     0.0005     0.0000 </r>
       <r>   -15.5403     0.0131     0.0009 </r>
       <r>   -15.4720     0.1513     0.0113 </r>
       <r>   -15.4037     0.7994     0.0658 </r>
       <r>   -15.3355     1.9902     0.2017 </r>
       <r>   -15.2672     2.4818     0.3712 </r>
       <r>   -15.1989     2.0959     0.5143 </r>
       <r>   -15.1306     1.9286     0.6460 </r>
       <r>   -15.0623     1.3638     0.7392 </r>
       <r>   -14.9940     0.7968     0.7936 </r>
       <r>   -14.9257     1.2650     0.8800 </r>
       <r>   -14.8575     1.6621     0.9935 </r>
       <r>   -14.7892     0.9700     1.0597 </r>
       <r>   -14.7209     0.3376     1.0827 </r>
       <r>   -14.6526     0.6246     1.1254 </r>
       <r>   -14.5843     1.4748     1.2261 </r>
       <r>   -14.5160     1.5250     1.3302 </r>
       <r>   -14.4477     0.6743     1.3763 </r>
       <r>   -14.3795     0.2416     1.3928 </r>
       <r>   -14.3112     0.6679     1.4384 </r>
       <r>   -14.2429     1.5216     1.5423 </r>
       <r>   -14.1746     1.5108     1.6454 </r>
       <r>   -14.1063     0.8899     1.7062 </r>
       <r>   -14.0380     1.1640     1.7857 </r>
       <r>   -13.9698     1.6777     1.9003 </r>
       <r>   -13.9015     1.1113     1.9761 </r>
       <r>   -13.8332     0.3112     1.9974 </r>
       <r>   -13.7649     0.0382     2.0000 </r>
       <r>   -13.6966     0.0297     2.0020 </r>
       <r>   -13.6283     0.2056     2.0161 </r>
       <r>   -13.5600     0.7809     2.0694 </r>
       <r>   -13.4918     1.6144     2.1796 </r>
       <r>   -13.4235     2.0302     2.3183 </r>
       <r>   -13.3552     2.0942     2.4613 </r>
       <r>   -13.2869     2.5794     2.6374 </r>
       <r>   -13.2186     3.5229     2.8780 </r>
       <r>   -13.1503     3.8783     3.1428 </r>
       <r>   -13.0821     3.5357     3.3842 </r>
       <r>   -13.0138     4.0006     3.6574 </r>
       <r>   -12.9455     4.4528     3.9615 </r>
       <r>   -12.8772     3.6821     4.2129 </r>
       <r>   -12.8089     2.9219     4.4124 </r>
       <r>   -12.7406     3.1843     4.6299 </r>
       <r>   -12.6723     3.9767     4.9014 </r>
       <r>   -12.6041     4.9372     5.2386 </r>
       <r>   -12.5358     5.7078     5.6283 </r>
       <r>   -12.4675     6.3568     6.0624 </r>
       <r>   -12.3992     6.7495     6.5233 </r>
       <r>   -12.3309     6.0539     6.9367 </r>
       <r>   -12.2626     4.8021     7.2646 </r>
       <r>   -12.1943     4.0069     7.5382 </r>
       <r>   -12.1261     4.4985     7.8454 </r>
       <r>   -12.0578     6.6105     8.2968 </r>
       <r>   -11.9895     8.1169     8.8510 </r>
       <r>   -11.9212     7.1207     9.3373 </r>
       <r>   -11.8529     6.5694     9.7858 </r>
       <r>   -11.7846     7.2767    10.2827 </r>
       <r>   -11.7164     7.1060    10.7680 </r>
       <r>   -11.6481     6.8755    11.2375 </r>
       <r>   -11.5798     7.0493    11.7188 </r>
       <r>   -11.5115     7.3489    12.2206 </r>
       <r>   -11.4432     7.8262    12.7550 </r>
       <r>   -11.3749     8.1934    13.3145 </r>
       <r>   -11.3066     9.0539    13.9328 </r>
       <r>   -11.2384     9.4760    14.5798 </r>
       <r>   -11.1701     8.3872    15.1526 </r>
       <r>   -11.1018     8.3192    15.7206 </r>
       <r>   -11.0335     9.4994    16.3693 </r>
       <r>   -10.9652    10.3624    17.0769 </r>
       <r>   -10.8969    10.7842    17.8133 </r>
       <r>   -10.8287    11.1836    18.5770 </r>
       <r>   -10.7604     9.9690    19.2577 </r>
       <r>   -10.6921     8.1707    19.8156 </r>
       <r>   -10.6238     7.9857    20.3609 </r>
       <r>   -10.5555     8.0958    20.9138 </r>
       <r>   -10.4872     7.3513    21.4157 </r>
       <r>   -10.4189     5.3184    21.7789 </r>
       <r>   -10.3507     2.6219    21.9579 </r>
       <r>   -10.2824     1.3588    22.0507 </r>
       <r>   -10.2141     2.0238    22.1889 </r>
       <r>   -10.1458     3.5655    22.4324 </r>
       <r>   -10.0775     5.6000    22.8148 </r>
       <r>   -10.0092     6.8832    23.2848 </r>
       <r>    -9.9410     5.9997    23.6945 </r>
       <r>    -9.8727     3.3744    23.9249 </r>
       <r>    -9.8044     1.3333    24.0160 </r>
       <r>    -9.7361     1.2958    24.1044 </r>
       <r>    -9.6678     1.6733    24.2187 </r>
       <r>    -9.5995     1.0349    24.2894 </r>
       <r>    -9.5312     0.4899    24.3228 </r>
       <r>    -9.4630     1.1675    24.4025 </r>
       <r>    -9.3947     2.9577    24.6045 </r>
       <r>    -9.3264     5.0279    24.9478 </r>
       <r>    -9.2581     6.3007    25.3781 </r>
       <r>    -9.1898     5.7255    25.7691 </r>
       <r>    -9.1215     4.2662    26.0604 </r>
       <r>    -9.0532     3.2301    26.2809 </r>
       <r>    -8.9850     3.2610    26.5036 </r>
       <r>    -8.9167     3.7836    26.7620 </r>
       <r>    -8.8484     3.6230    27.0094 </r>
       <r>    -8.7801     3.7452    27.2651 </r>
       <r>    -8.7118     3.9610    27.5356 </r>
       <r>    -8.6435     3.5365    27.7771 </r>
       <r>    -8.5753     3.6073    28.0234 </r>
       <r>    -8.5070     4.8731    28.3562 </r>
       <r>    -8.4387     5.8246    28.7539 </r>
       <r>    -8.3704     4.7312    29.0770 </r>
       <r>    -8.3021     2.7349    29.2637 </r>
       <r>    -8.2338     1.9061    29.3939 </r>
       <r>    -8.1655     2.3618    29.5551 </r>
       <r>    -8.0973     2.7854    29.7453 </r>
       <r>    -8.0290     2.3988    29.9091 </r>
       <r>    -7.9607     2.4303    30.0751 </r>
       <r>    -7.8924     3.6148    30.3219 </r>
       <r>    -7.8241     5.0467    30.6665 </r>
       <r>    -7.7558     5.3565    31.0323 </r>
       <r>    -7.6876     4.4492    31.3361 </r>
       <r>    -7.6193     4.2430    31.6259 </r>
       <r>    -7.5510     5.0362    31.9697 </r>
       <r>    -7.4827     6.4771    32.4120 </r>
       <r>    -7.4144     8.3561    32.9826 </r>
       <r>    -7.3461     8.9297    33.5924 </r>
       <r>    -7.2778     8.0848    34.1445 </r>
       <r>    -7.2096     8.9613    34.7564 </r>
       <r>    -7.1413    11.7055    35.5557 </r>
       <r>    -7.0730    11.6314    36.3499 </r>
       <r>    -7.0047     8.2737    36.9149 </r>
       <r>    -6.9364     5.4947    37.2901 </r>
       <r>    -6.8681     5.3355    37.6544 </r>
       <r>    -6.7998     7.4130    38.1606 </r>
       <r>    -6.7316    10.1343    38.8527 </r>
       <r>    -6.6633    11.0375    39.6063 </r>
       <r>    -6.5950     8.4438    40.1829 </r>
       <r>    -6.5267     5.4397    40.5544 </r>
       <r>    -6.4584     4.4783    40.8602 </r>
       <r>    -6.3901     5.2471    41.2185 </r>
       <r>    -6.3219     6.8603    41.6869 </r>
       <r>    -6.2536     7.7278    42.2146 </r>
       <r>    -6.1853     6.8787    42.6843 </r>
       <r>    -6.1170     4.9633    43.0232 </r>
       <r>    -6.0487     3.8854    43.2886 </r>
       <r>    -5.9804     4.0726    43.5666 </r>
       <r>    -5.9121     4.5571    43.8778 </r>
       <r>    -5.8439     5.4257    44.2483 </r>
       <r>    -5.7756     6.0851    44.6638 </r>
       <r>    -5.7073     5.6806    45.0517 </r>
       <r>    -5.6390     5.5037    45.4276 </r>
       <r>    -5.5707     6.2558    45.8547 </r>
       <r>    -5.5024     6.5995    46.3054 </r>
       <r>    -5.4342     6.3293    46.7376 </r>
       <r>    -5.3659     6.0735    47.1523 </r>
       <r>    -5.2976     6.3831    47.5882 </r>
       <r>    -5.2293     7.4141    48.0944 </r>
       <r>    -5.1610     7.1045    48.5796 </r>
       <r>    -5.0927     5.6148    48.9630 </r>
       <r>    -5.0244     6.4329    49.4022 </r>
       <r>    -4.9562     8.9197    50.0113 </r>
       <r>    -4.8879     9.5925    50.6663 </r>
       <r>    -4.8196     8.3616    51.2373 </r>
       <r>    -4.7513     7.3822    51.7414 </r>
       <r>    -4.6830     7.9660    52.2854 </r>
       <r>    -4.6147     9.1940    52.9132 </r>
       <r>    -4.5465     9.6669    53.5733 </r>
       <r>    -4.4782     9.5610    54.2262 </r>
       <r>    -4.4099    10.0367    54.9115 </r>
       <r>    -4.3416    11.3731    55.6881 </r>
       <r>    -4.2733    11.7458    56.4902 </r>
       <r>    -4.2050    11.4027    57.2688 </r>
       <r>    -4.1367    12.2786    58.1073 </r>
       <r>    -4.0685    13.8992    59.0564 </r>
       <r>    -4.0002    14.8716    60.0719 </r>
       <r>    -3.9319    14.0757    61.0330 </r>
       <r>    -3.8636    11.8670    61.8434 </r>
       <r>    -3.7953    10.9763    62.5929 </r>
       <r>    -3.7270    12.4396    63.4423 </r>
       <r>    -3.6587    13.4150    64.3583 </r>
       <r>    -3.5905    12.3527    65.2019 </r>
       <r>    -3.5222    11.6512    65.9975 </r>
       <r>    -3.4539    12.9743    66.8834 </r>
       <r>    -3.3856    14.3557    67.8637 </r>
       <r>    -3.3173    14.3691    68.8449 </r>
       <r>    -3.2490    14.7319    69.8508 </r>
       <r>    -3.1808    16.6612    70.9885 </r>
       <r>    -3.1125    18.8011    72.2724 </r>
       <r>    -3.0442    18.4479    73.5321 </r>
       <r>    -2.9759    17.0266    74.6947 </r>
       <r>    -2.9076    15.7184    75.7681 </r>
       <r>    -2.8393    15.0278    76.7942 </r>
       <r>    -2.7710    16.3878    77.9133 </r>
       <r>    -2.7028    17.9451    79.1387 </r>
       <r>    -2.6345    18.0241    80.3694 </r>
       <r>    -2.5662    17.5160    81.5655 </r>
       <r>    -2.4979    17.1740    82.7382 </r>
       <r>    -2.4296    16.9278    83.8942 </r>
       <r>    -2.3613    15.8074    84.9736 </r>
       <r>    -2.2931    14.3532    85.9537 </r>
       <r>    -2.2248    14.0882    86.9157 </r>
       <r>    -2.1565    14.2868    87.8912 </r>
       <r>    -2.0882    13.4798    88.8117 </r>
       <r>    -2.0199    13.5781    89.7389 </r>
       <r>    -1.9516    15.4981    90.7972 </r>
       <r>    -1.8833    16.4233    91.9186 </r>
       <r>    -1.8151    15.7443    92.9937 </r>
       <r>    -1.7468    15.7244    94.0675 </r>
       <r>    -1.6785    15.2690    95.1101 </r>
       <r>    -1.6102    13.8294    96.0544 </r>
       <r>    -1.5419    13.4317    96.9716 </r>
       <r>    -1.4736    13.8401    97.9167 </r>
       <r>    -1.4053    13.5674    98.8431 </r>
       <r>    -1.3371    12.1276    99.6713 </r>
       <r>    -1.2688    10.8984   100.4155 </r>
       <r>    -1.2005     9.3021   101.0507 </r>
       <r>    -1.1322     8.2963   101.6172 </r>
       <r>    -1.0639     9.7336   102.2818 </r>
       <r>    -0.9956    10.7503   103.0159 </r>
       <r>    -0.9274     9.5768   103.6699 </r>
       <r>    -0.8591     8.4369   104.2460 </r>
       <r>    -0.7908     7.8885   104.7846 </r>
       <r>    -0.7225     6.1810   105.2067 </r>
       <r>    -0.6542     4.6141   105.5218 </r>
       <r>    -0.5859     3.9112   105.7889 </r>
       <r>    -0.5176     3.1616   106.0047 </r>
       <r>    -0.4494     2.1877   106.1541 </r>
       <r>    -0.3811     1.9174   106.2851 </r>
       <r>    -0.3128     2.7303   106.4715 </r>
       <r>    -0.2445     4.0346   106.7470 </r>
       <r>    -0.1762     4.8588   107.0788 </r>
       <r>    -0.1079     5.6213   107.4626 </r>
       <r>    -0.0397     6.2819   107.8916 </r>
       <r>     0.0286     5.4660   108.2648 </r>
       <r>     0.0969     4.0305   108.5401 </r>
       <r>     0.1652     3.0209   108.7463 </r>
       <r>     0.2335     2.5124   108.9179 </r>
       <r>     0.3018     1.8909   109.0470 </r>
       <r>     0.3701     1.6082   109.1568 </r>
       <r>     0.4383     2.3332   109.3162 </r>
       <r>     0.5066     3.3786   109.5469 </r>
       <r>     0.5749     3.8083   109.8069 </r>
       <r>     0.6432     3.0663   110.0163 </r>
       <r>     0.7115     1.9882   110.1521 </r>
       <r>     0.7798     2.0214   110.2901 </r>
       <r>     0.8480     3.3191   110.5167 </r>
       <r>     0.9163     4.8995   110.8513 </r>
       <r>     0.9846     5.2198   111.2077 </r>
       <r>     1.0529     4.4386   111.5108 </r>
       <r>     1.1212     5.3730   111.8777 </r>
       <r>     1.1895     8.4645   112.4557 </r>
       <r>     1.2578    11.6727   113.2528 </r>
       <r>     1.3260    12.9755   114.1388 </r>
       <r>     1.3943    11.8058   114.9450 </r>
       <r>     1.4626    10.5493   115.6653 </r>
       <r>     1.5309    11.5044   116.4509 </r>
       <r>     1.5992    13.3202   117.3605 </r>
       <r>     1.6675    13.9881   118.3156 </r>
       <r>     1.7358    14.1420   119.2813 </r>
       <r>     1.8040    13.8057   120.2240 </r>
       <r>     1.8723    12.4993   121.0776 </r>
       <r>     1.9406    11.6159   121.8707 </r>
       <r>     2.0089    11.9348   122.6857 </r>
       <r>     2.0772    12.3084   123.5262 </r>
       <r>     2.1455    12.7978   124.4001 </r>
       <r>     2.2137    14.1207   125.3643 </r>
       <r>     2.2820    14.6948   126.3677 </r>
       <r>     2.3503    14.5637   127.3622 </r>
       <r>     2.4186    15.2532   128.4038 </r>
       <r>     2.4869    15.4522   129.4589 </r>
       <r>     2.5552    14.8090   130.4702 </r>
       <r>     2.6235    15.1332   131.5035 </r>
       <r>     2.6917    14.3572   132.4839 </r>
       <r>     2.7600    11.4487   133.2657 </r>
       <r>     2.8283     9.1568   133.8910 </r>
       <r>     2.8966     8.1657   134.4486 </r>
       <r>     2.9649     7.4415   134.9567 </r>
       <r>     3.0332     6.3110   135.3876 </r>
       <r>     3.1014     4.7930   135.7149 </r>
       <r>     3.1697     2.8796   135.9116 </r>
       <r>     3.2380     1.0736   135.9849 </r>
       <r>     3.3063     0.2035   135.9988 </r>
       <r>     3.3746     0.0176   136.0000 </r>
       <r>     3.4429     0.0007   136.0000 </r>
       <r>     3.5112     0.0000   136.0000 </r>
       <r>     3.5794     0.0000   136.0000 </r>
       <r>     3.6477     0.0000   136.0000 </r>
       <r>     3.7160     0.0000   136.0000 </r>
       <r>     3.7843     0.0000   136.0000 </r>
       <r>     3.8526     0.0000   136.0000 </r>
       <r>     3.9209     0.0000   136.0000 </r>
       <r>     3.9892     0.0000   136.0000 </r>
       <r>     4.0574     0.0000   136.0000 </r>
       <r>     4.1257     0.0000   136.0000 </r>
      </set>
     </set>
    </array>
   </total>
  </dos>
 </calculation>
 <structure name="finalpos" >
  <crystal>
   <varray name="basis" >
    <v>       3.54040000       0.00000000       0.00000000 </v>
    <v>      -1.77020000      10.29434800       0.00000000 </v>
    <v>       0.00000000       0.00000000      27.50142900 </v>
   </varray>
   <i name="volume">   1002.32009712 </i>
   <varray name="rec_basis" >
    <v>       0.28245396       0.04857034       0.00000000 </v>
    <v>       0.00000000       0.09714068       0.00000000 </v>
    <v>       0.00000000       0.00000000       0.03636175 </v>
   </varray>
  </crystal>
  <varray name="positions" >
   <v>       0.11402300       0.22804500       0.23316207 </v>
   <v>       0.11402300       0.62804500       0.51499159 </v>
   <v>       0.45808900       0.91617900       0.20939482 </v>
   <v>       0.45808900       0.31617900       0.49122434 </v>
   <v>       0.31085400       0.62170900       0.08414979 </v>
   <v>       0.31085400       0.62170900       0.36597930 </v>
   <v>       0.99923000       0.99846000       0.08631254 </v>
   <v>       0.99923000       0.99846000       0.36814206 </v>
   <v>       0.65492700       0.30985400       0.06041748 </v>
   <v>       0.65492700       0.30985400       0.34224700 </v>
   <v>       0.76973800       0.53947500       0.20725292 </v>
   <v>       0.76973800       0.93947500       0.48908244 </v>
   <v>       0.93971600       0.87943300       0.15783749 </v>
   <v>       0.93971600       0.27943300       0.43966701 </v>
   <v>       0.20515200       0.41030300       0.18578822 </v>
   <v>       0.20515200       0.81030300       0.46761774 </v>
   <v>       0.20184900       0.40369900       0.09969156 </v>
   <v>       0.20184900       0.40369900       0.38152107 </v>
   <v>       0.56380500       0.12761000       0.10779021 </v>
   <v>       0.56380500       0.12761000       0.38961973 </v>
   <v>       0.56710600       0.13421200       0.19387616 </v>
   <v>       0.56710600       0.53421200       0.47570568 </v>
   <v>       0.82923400       0.65846800       0.13571444 </v>
   <v>       0.82923400       0.05846800       0.41754396 </v>
  </varray>
 </structure>
</modeling>
