<?xml version="1.0" encoding="ISO-8859-1"?>
<modeling>
 <generator>
  <i name="program" type="string">vasp </i>
  <i name="version" type="string">5.4.1  </i>
  <i name="subversion" type="string">24Jun15 (build May 10 2016 14:18:23) complex                          parallel </i>
  <i name="platform" type="string">IFC91_ompi </i>
  <i name="date" type="string">2016 12 09 </i>
  <i name="time" type="string">14:58:04 </i>
 </generator>
 <incar>
  <i type="string" name="PREC">accurate</i>
  <i type="string" name="ALGO"> Fast</i>
  <i type="int" name="ISPIN">     2</i>
  <i type="int" name="IBRION">     2</i>
  <i name="EDIFF">      0.00010000</i>
  <i type="int" name="NSW">     0</i>
  <i type="int" name="ISIF">     3</i>
  <i name="ENCUT">    500.00000000</i>
  <v name="MAGMOM">      6.00000000      0.50000000      0.50000000      6.00000000      0.50000000      0.50000000</v>
  <i type="string" name="LREAL"> Auto</i>
  <i type="int" name="ISMEAR">     1</i>
  <i name="SIGMA">      0.10000000</i>
  <i type="logical" name="LWAVE"> F  </i>
  <i type="logical" name="LCHARG"> F  </i>
  <i type="logical" name="LVTOT"> T  </i>
  <i type="logical" name="LVHAR"> T  </i>
  <i type="logical" name="LAECHG"> F  </i>
  <v type="int" name="KPOINT_BSE">    -1     0     0     0</v>
  <i type="string" name="GGA"> Bo</i>
  <i name="PARAM1">      0.18333333</i>
  <i name="PARAM2">      0.22000000</i>
  <i type="logical" name="LUSE_VDW"> T  </i>
  <i name="AGGAC">      0.00000000</i>
 </incar>
 <kpoints>
  <generation param="Gamma">
   <v type="int" name="divisions">      13       13        1 </v>
   <v name="usershift">      0.00000000       0.00000000       0.00000000 </v>
   <v name="genvec1">      0.07692308       0.00000000       0.00000000 </v>
   <v name="genvec2">      0.00000000       0.07692308       0.00000000 </v>
   <v name="genvec3">      0.00000000       0.00000000       1.00000000 </v>
   <v name="shift">      0.00000000       0.00000000       0.00000000 </v>
  </generation>
  <varray name="kpointlist" >
   <v>       0.00000000       0.00000000       0.00000000 </v>
   <v>       0.07692308      -0.00000000       0.00000000 </v>
   <v>       0.15384615       0.00000000       0.00000000 </v>
   <v>       0.23076923       0.00000000       0.00000000 </v>
   <v>       0.30769231      -0.00000000       0.00000000 </v>
   <v>       0.38461538       0.00000000       0.00000000 </v>
   <v>       0.46153846       0.00000000       0.00000000 </v>
   <v>       0.00000000       0.07692308       0.00000000 </v>
   <v>       0.07692308       0.07692308       0.00000000 </v>
   <v>       0.15384615       0.07692308       0.00000000 </v>
   <v>       0.23076923       0.07692308       0.00000000 </v>
   <v>       0.30769231       0.07692308       0.00000000 </v>
   <v>       0.38461538       0.07692308       0.00000000 </v>
   <v>       0.46153846       0.07692308       0.00000000 </v>
   <v>      -0.46153846       0.07692308       0.00000000 </v>
   <v>      -0.38461538       0.07692308       0.00000000 </v>
   <v>      -0.30769231       0.07692308       0.00000000 </v>
   <v>      -0.23076923       0.07692308       0.00000000 </v>
   <v>      -0.15384615       0.07692308       0.00000000 </v>
   <v>      -0.07692308       0.07692308       0.00000000 </v>
   <v>       0.00000000       0.15384615       0.00000000 </v>
   <v>       0.07692308       0.15384615       0.00000000 </v>
   <v>       0.15384615       0.15384615       0.00000000 </v>
   <v>       0.23076923       0.15384615       0.00000000 </v>
   <v>       0.30769231       0.15384615       0.00000000 </v>
   <v>       0.38461538       0.15384615       0.00000000 </v>
   <v>       0.46153846       0.15384615       0.00000000 </v>
   <v>      -0.46153846       0.15384615       0.00000000 </v>
   <v>      -0.38461538       0.15384615       0.00000000 </v>
   <v>      -0.30769231       0.15384615       0.00000000 </v>
   <v>      -0.23076923       0.15384615       0.00000000 </v>
   <v>      -0.15384615       0.15384615       0.00000000 </v>
   <v>      -0.07692308       0.15384615       0.00000000 </v>
   <v>       0.00000000       0.23076923       0.00000000 </v>
   <v>       0.07692308       0.23076923       0.00000000 </v>
   <v>       0.15384615       0.23076923       0.00000000 </v>
   <v>       0.23076923       0.23076923       0.00000000 </v>
   <v>       0.30769231       0.23076923       0.00000000 </v>
   <v>       0.38461538       0.23076923       0.00000000 </v>
   <v>       0.46153846       0.23076923       0.00000000 </v>
   <v>      -0.46153846       0.23076923       0.00000000 </v>
   <v>      -0.38461538       0.23076923       0.00000000 </v>
   <v>      -0.30769231       0.23076923       0.00000000 </v>
   <v>      -0.23076923       0.23076923       0.00000000 </v>
   <v>      -0.15384615       0.23076923       0.00000000 </v>
   <v>      -0.07692308       0.23076923       0.00000000 </v>
   <v>       0.00000000       0.30769231       0.00000000 </v>
   <v>       0.07692308       0.30769231       0.00000000 </v>
   <v>       0.15384615       0.30769231       0.00000000 </v>
   <v>       0.23076923       0.30769231       0.00000000 </v>
   <v>       0.30769231       0.30769231       0.00000000 </v>
   <v>       0.38461538       0.30769231       0.00000000 </v>
   <v>       0.46153846       0.30769231       0.00000000 </v>
   <v>      -0.46153846       0.30769231       0.00000000 </v>
   <v>      -0.38461538       0.30769231       0.00000000 </v>
   <v>      -0.30769231       0.30769231       0.00000000 </v>
   <v>      -0.23076923       0.30769231       0.00000000 </v>
   <v>      -0.15384615       0.30769231       0.00000000 </v>
   <v>      -0.07692308       0.30769231       0.00000000 </v>
   <v>       0.00000000       0.38461538       0.00000000 </v>
   <v>       0.07692308       0.38461538       0.00000000 </v>
   <v>       0.15384615       0.38461538       0.00000000 </v>
   <v>       0.23076923       0.38461538       0.00000000 </v>
   <v>       0.30769231       0.38461538       0.00000000 </v>
   <v>       0.38461538       0.38461538       0.00000000 </v>
   <v>       0.46153846       0.38461538       0.00000000 </v>
   <v>      -0.46153846       0.38461538       0.00000000 </v>
   <v>      -0.38461538       0.38461538       0.00000000 </v>
   <v>      -0.30769231       0.38461538       0.00000000 </v>
   <v>      -0.23076923       0.38461538       0.00000000 </v>
   <v>      -0.15384615       0.38461538       0.00000000 </v>
   <v>      -0.07692308       0.38461538       0.00000000 </v>
   <v>       0.00000000       0.46153846       0.00000000 </v>
   <v>       0.07692308       0.46153846       0.00000000 </v>
   <v>       0.15384615       0.46153846       0.00000000 </v>
   <v>       0.23076923       0.46153846       0.00000000 </v>
   <v>       0.30769231       0.46153846       0.00000000 </v>
   <v>       0.38461538       0.46153846       0.00000000 </v>
   <v>       0.46153846       0.46153846       0.00000000 </v>
   <v>      -0.46153846       0.46153846       0.00000000 </v>
   <v>      -0.38461538       0.46153846       0.00000000 </v>
   <v>      -0.30769231       0.46153846       0.00000000 </v>
   <v>      -0.23076923       0.46153846       0.00000000 </v>
   <v>      -0.15384615       0.46153846       0.00000000 </v>
   <v>      -0.07692308       0.46153846       0.00000000 </v>
  </varray>
  <varray name="weights" >
   <v>       0.00591716 </v>
   <v>       0.01183432 </v>
   <v>       0.01183432 </v>
   <v>       0.01183432 </v>
   <v>       0.01183432 </v>
   <v>       0.01183432 </v>
   <v>       0.01183432 </v>
   <v>       0.01183432 </v>
   <v>       0.01183432 </v>
   <v>       0.01183432 </v>
   <v>       0.01183432 </v>
   <v>       0.01183432 </v>
   <v>       0.01183432 </v>
   <v>       0.01183432 </v>
   <v>       0.01183432 </v>
   <v>       0.01183432 </v>
   <v>       0.01183432 </v>
   <v>       0.01183432 </v>
   <v>       0.01183432 </v>
   <v>       0.01183432 </v>
   <v>       0.01183432 </v>
   <v>       0.01183432 </v>
   <v>       0.01183432 </v>
   <v>       0.01183432 </v>
   <v>       0.01183432 </v>
   <v>       0.01183432 </v>
   <v>       0.01183432 </v>
   <v>       0.01183432 </v>
   <v>       0.01183432 </v>
   <v>       0.01183432 </v>
   <v>       0.01183432 </v>
   <v>       0.01183432 </v>
   <v>       0.01183432 </v>
   <v>       0.01183432 </v>
   <v>       0.01183432 </v>
   <v>       0.01183432 </v>
   <v>       0.01183432 </v>
   <v>       0.01183432 </v>
   <v>       0.01183432 </v>
   <v>       0.01183432 </v>
   <v>       0.01183432 </v>
   <v>       0.01183432 </v>
   <v>       0.01183432 </v>
   <v>       0.01183432 </v>
   <v>       0.01183432 </v>
   <v>       0.01183432 </v>
   <v>       0.01183432 </v>
   <v>       0.01183432 </v>
   <v>       0.01183432 </v>
   <v>       0.01183432 </v>
   <v>       0.01183432 </v>
   <v>       0.01183432 </v>
   <v>       0.01183432 </v>
   <v>       0.01183432 </v>
   <v>       0.01183432 </v>
   <v>       0.01183432 </v>
   <v>       0.01183432 </v>
   <v>       0.01183432 </v>
   <v>       0.01183432 </v>
   <v>       0.01183432 </v>
   <v>       0.01183432 </v>
   <v>       0.01183432 </v>
   <v>       0.01183432 </v>
   <v>       0.01183432 </v>
   <v>       0.01183432 </v>
   <v>       0.01183432 </v>
   <v>       0.01183432 </v>
   <v>       0.01183432 </v>
   <v>       0.01183432 </v>
   <v>       0.01183432 </v>
   <v>       0.01183432 </v>
   <v>       0.01183432 </v>
   <v>       0.01183432 </v>
   <v>       0.01183432 </v>
   <v>       0.01183432 </v>
   <v>       0.01183432 </v>
   <v>       0.01183432 </v>
   <v>       0.01183432 </v>
   <v>       0.01183432 </v>
   <v>       0.01183432 </v>
   <v>       0.01183432 </v>
   <v>       0.01183432 </v>
   <v>       0.01183432 </v>
   <v>       0.01183432 </v>
   <v>       0.01183432 </v>
  </varray>
 </kpoints>
 <parameters>
  <separator name="general" >
   <i type="string" name="SYSTEM">unknown system</i>
   <i type="logical" name="LCOMPAT"> F  </i>
  </separator>
  <separator name="electronic" >
   <i type="string" name="PREC">accura</i>
   <i name="ENMAX">    500.00000000</i>
   <i name="ENAUG">    392.42700000</i>
   <i name="EDIFF">      0.00010000</i>
   <i type="int" name="IALGO">    68</i>
   <i type="int" name="IWAVPR">    10</i>
   <i type="int" name="NBANDS">    36</i>
   <i name="NELECT">     48.00000000</i>
   <i type="int" name="TURBO">     0</i>
   <i type="int" name="IRESTART">     0</i>
   <i type="int" name="NREBOOT">     0</i>
   <i type="int" name="NMIN">     0</i>
   <i name="EREF">      0.00000000</i>
   <separator name="electronic smearing" >
    <i type="int" name="ISMEAR">     1</i>
    <i name="SIGMA">      0.10000000</i>
    <i name="KSPACING">      0.50000000</i>
    <i type="logical" name="KGAMMA"> T  </i>
   </separator>
   <separator name="electronic projectors" >
    <i type="logical" name="LREAL"> T  </i>
    <v name="ROPT">     -0.00025000     -0.00025000     -0.00025000     -0.00025000</v>
    <i type="int" name="LMAXPAW">  -100</i>
    <i type="int" name="LMAXMIX">     2</i>
    <i type="logical" name="NLSPLINE"> F  </i>
   </separator>
   <separator name="electronic startup" >
    <i type="int" name="ISTART">     0</i>
    <i type="int" name="ICHARG">     2</i>
    <i type="int" name="INIWAV">     1</i>
   </separator>
   <separator name="electronic spin" >
    <i type="int" name="ISPIN">     2</i>
    <i type="logical" name="LNONCOLLINEAR"> F  </i>
    <v name="MAGMOM">      6.00000000      0.50000000      0.50000000      6.00000000      0.50000000      0.50000000</v>
    <i name="NUPDOWN">     -1.00000000</i>
    <i type="logical" name="LSORBIT"> F  </i>
    <v name="SAXIS">      0.00000000      0.00000000      1.00000000</v>
    <i type="logical" name="LSPIRAL"> F  </i>
    <v name="QSPIRAL">      0.00000000      0.00000000      0.00000000</v>
    <i type="logical" name="LZEROZ"> F  </i>
   </separator>
   <separator name="electronic exchange-correlation" >
    <i type="logical" name="LASPH"> F  </i>
    <i type="logical" name="LMETAGGA"> F  </i>
   </separator>
   <separator name="electronic convergence" >
    <i type="int" name="NELM">    60</i>
    <i type="int" name="NELMDL">     0</i>
    <i type="int" name="NELMIN">     2</i>
    <i name="ENINI">    500.00000000</i>
    <separator name="electronic convergence detail" >
     <i type="logical" name="LDIAG"> T  </i>
     <i type="logical" name="LSUBROT"> F  </i>
     <i name="WEIMIN">      0.00000000</i>
     <i name="EBREAK">      0.00000069</i>
     <i name="DEPER">      0.30000000</i>
     <i type="int" name="NRMM">     4</i>
     <i name="TIME">      0.40000000</i>
    </separator>
   </separator>
   <separator name="electronic mixer" >
    <i name="AMIX">      0.40000000</i>
    <i name="BMIX">      1.00000000</i>
    <i name="AMIN">      0.10000000</i>
    <i name="AMIX_MAG">      1.60000000</i>
    <i name="BMIX_MAG">      1.00000000</i>
    <separator name="electronic mixer details" >
     <i type="int" name="IMIX">     4</i>
     <i type="logical" name="MIXFIRST"> F  </i>
     <i type="int" name="MAXMIX">   -45</i>
     <i name="WC">    100.00000000</i>
     <i type="int" name="INIMIX">     1</i>
     <i type="int" name="MIXPRE">     1</i>
     <i type="int" name="MREMOVE">     5</i>
    </separator>
   </separator>
   <separator name="electronic dipolcorrection" >
    <i type="logical" name="LDIPOL"> F  </i>
    <i type="logical" name="LMONO"> F  </i>
    <i type="int" name="IDIPOL">     0</i>
    <i name="EPSILON">      1.00000000</i>
    <v name="DIPOL">   -100.00000000   -100.00000000   -100.00000000</v>
    <i name="EFIELD">      0.00000000</i>
   </separator>
  </separator>
  <separator name="grids" >
   <i type="int" name="NGX">    24</i>
   <i type="int" name="NGY">    24</i>
   <i type="int" name="NGZ">   180</i>
   <i type="int" name="NGXF">    48</i>
   <i type="int" name="NGYF">    48</i>
   <i type="int" name="NGZF">   360</i>
   <i type="logical" name="ADDGRID"> F  </i>
  </separator>
  <separator name="ionic" >
   <i type="int" name="NSW">     0</i>
   <i type="int" name="IBRION">    -1</i>
   <i type="int" name="ISIF">     3</i>
   <i name="PSTRESS">      0.00000000</i>
   <i name="EDIFFG">      0.00100000</i>
   <i type="int" name="NFREE">     1</i>
   <i name="POTIM">      0.50000000</i>
   <i name="SMASS">     -3.00000000</i>
   <i name="SCALEE">      1.00000000</i>
  </separator>
  <separator name="ionic md" >
   <i name="TEBEG">      0.00010000</i>
   <i name="TEEND">      0.00010000</i>
   <i type="int" name="NBLOCK">     1</i>
   <i type="int" name="KBLOCK">     1</i>
   <i type="int" name="NPACO">   256</i>
   <i name="APACO">     16.00000000</i>
  </separator>
  <separator name="symmetry" >
   <i type="int" name="ISYM">     2</i>
   <i name="SYMPREC">      0.00001000</i>
  </separator>
  <separator name="dos" >
   <i type="logical" name="LORBIT"> F  </i>
   <v name="RWIGS">     -1.00000000     -1.00000000     -1.00000000     -1.00000000</v>
   <i type="int" name="NEDOS">   301</i>
   <i name="EMIN">     10.00000000</i>
   <i name="EMAX">    -10.00000000</i>
   <i name="EFERMI">      0.00000000</i>
  </separator>
  <separator name="writing" >
   <i type="int" name="NWRITE">     2</i>
   <i type="logical" name="LWAVE"> F  </i>
   <i type="logical" name="LCHARG"> F  </i>
   <i type="logical" name="LPARD"> F  </i>
   <i type="logical" name="LVTOT"> F  </i>
   <i type="logical" name="LVHAR"> T  </i>
   <i type="logical" name="LELF"> F  </i>
   <i type="logical" name="LOPTICS"> F  </i>
   <v name="STM">      0.00000000      0.00000000      0.00000000      0.00000000      0.00000000      0.00000000      0.00000000</v>
  </separator>
  <separator name="performance" >
   <i type="int" name="NPAR">     4</i>
   <i type="int" name="NSIM">     4</i>
   <i type="int" name="NBLK">    -1</i>
   <i type="logical" name="LPLANE"> T  </i>
   <i type="logical" name="LSCALAPACK"> T  </i>
   <i type="logical" name="LSCAAWARE"> F  </i>
   <i type="logical" name="LSCALU"> F  </i>
   <i type="logical" name="LASYNC"> F  </i>
   <i type="logical" name="LORBITALREAL"> F  </i>
  </separator>
  <separator name="miscellaneous" >
   <i type="int" name="IDIOT">     3</i>
   <i type="logical" name="LMUSIC"> F  </i>
   <v name="POMASS">     95.94000000     32.06600000     95.94000000     32.06600000</v>
   <v name="DARWINR">      0.00000000      0.00000000      0.00000000      0.00000000</v>
   <v name="DARWINV">      1.00000000      1.00000000      1.00000000      1.00000000</v>
   <i type="logical" name="LCORR"> T  </i>
  </separator>
  <i type="logical" name="GGA_COMPAT"> T  </i>
  <i type="logical" name="LBERRY"> F  </i>
  <i type="int" name="ICORELEVEL">     0</i>
  <i type="logical" name="LDAU"> F  </i>
  <i type="int" name="I_CONSTRAINED_M">     0</i>
  <separator name="electronic exchange-correlation" >
   <i type="string" name="GGA">BO</i>
   <i type="int" name="VOSKOWN">     0</i>
   <i type="logical" name="LHFCALC"> F  </i>
   <i type="string" name="PRECFOCK"></i>
   <i type="logical" name="LSYMGRAD"> F  </i>
   <i type="logical" name="LHFONE"> F  </i>
   <i type="logical" name="LRHFCALC"> F  </i>
   <i type="logical" name="LTHOMAS"> F  </i>
   <i type="logical" name="LMODELHF"> F  </i>
   <i name="ENCUT4O">     -1.00000000</i>
   <i type="int" name="EXXOEP">     0</i>
   <i type="int" name="FOURORBIT">     0</i>
   <i name="AEXX">      0.00000000</i>
   <i name="HFALPHA">      0.00000000</i>
   <i name="MCALPHA">      0.00000000</i>
   <i name="ALDAX">      1.00000000</i>
   <i name="AGGAX">      1.00000000</i>
   <i name="ALDAC">      1.00000000</i>
   <i name="AGGAC">      0.00000000</i>
   <i type="int" name="NKREDX">     1</i>
   <i type="int" name="NKREDY">     1</i>
   <i type="int" name="NKREDZ">     1</i>
   <i type="logical" name="SHIFTRED"> F  </i>
   <i type="logical" name="ODDONLY"> F  </i>
   <i type="logical" name="EVENONLY"> F  </i>
   <i type="int" name="LMAXFOCK">     0</i>
   <i type="int" name="NMAXFOCKAE">     0</i>
   <i type="logical" name="LFOCKAEDFT"> F  </i>
   <i name="HFSCREEN">      0.00000000</i>
   <i name="HFSCREENC">      0.00000000</i>
   <i type="int" name="NBANDSGWLOW">     0</i>
  </separator>
  <separator name="vdW DFT" >
   <i type="logical" name="LUSE_VDW"> T  </i>
   <i name="Zab_VDW">     -0.84910000</i>
   <i name="PARAM1">      0.18333333</i>
   <i name="PARAM2">      0.22000000</i>
   <i name="PARAM3">      0.00000000</i>
  </separator>
  <separator name="model GW" >
   <i type="int" name="MODEL_GW">     0</i>
   <i name="MODEL_EPS0">     20.39722663</i>
   <i name="MODEL_ALPHA">      1.00000000</i>
  </separator>
  <separator name="linear response parameters" >
   <i type="logical" name="LEPSILON"> F  </i>
   <i type="logical" name="LRPA"> F  </i>
   <i type="logical" name="LNABLA"> F  </i>
   <i type="logical" name="LVEL"> F  </i>
   <i type="int" name="KINTER">     0</i>
   <i name="CSHIFT">      0.10000000</i>
   <i name="OMEGAMAX">     -1.00000000</i>
   <i name="DEG_THRESHOLD">      0.00200000</i>
  </separator>
  <separator name="orbital magnetization" >
   <i type="logical" name="NUCIND"> F  </i>
   <v name="MAGPOS">      0.00000000      0.00000000      0.00000000</v>
   <i type="logical" name="LNICSALL"> T  </i>
   <i type="logical" name="ORBITALMAG"> F  </i>
   <i type="logical" name="LMAGBLOCH"> F  </i>
   <i type="logical" name="LCHIMAG"> F  </i>
   <i type="logical" name="LGAUGE"> T  </i>
   <i type="int" name="MAGATOM">     0</i>
   <v name="MAGDIPOL">      0.00000000      0.00000000      0.00000000</v>
   <v name="AVECCONST">      0.00000000      0.00000000      0.00000000</v>
  </separator>
  <separator name="response functions" >
   <i type="logical" name="LADDER"> F  </i>
   <i type="logical" name="LFXC"> F  </i>
   <i type="logical" name="LHARTREE"> T  </i>
   <i type="int" name="IBSE">     0</i>
   <v type="int" name="KPOINT">    -1     0     0     0</v>
   <i type="logical" name="LTCTE"> F  </i>
   <i type="logical" name="LTETE"> F  </i>
   <i type="logical" name="LTRIPLET"> F  </i>
   <i type="logical" name="LFXCEPS"> F  </i>
   <i type="logical" name="LFXHEG"> F  </i>
   <i type="int" name="NATURALO">     0</i>
   <i type="logical" name="L2ORDER"> F  </i>
   <i type="logical" name="LUSEW"> F  </i>
   <i name="ENCUTGW">     -2.00000000</i>
   <i name="ENCUTGWSOFT">     -2.00000000</i>
   <i name="ENCUTLF">     -1.00000000</i>
   <i type="int" name="LMAXMP2">    -1</i>
   <i name="SCISSOR">      0.00000000</i>
   <i type="int" name="NOMEGA">     0</i>
   <i type="int" name="NOMEGAR">     0</i>
   <i type="int" name="NBANDSGW">    -1</i>
   <i type="int" name="NBANDSO">    -1</i>
   <i type="int" name="NBANDSV">    -1</i>
   <i type="int" name="NELM">     1</i>
   <i type="int" name="NELMHF">     1</i>
   <i type="int" name="DIM">     3</i>
   <i type="int" name="ANTIRES">     0</i>
   <i name="OMEGAMAX">    -30.00000000</i>
   <i name="OMEGAMIN">    -30.00000000</i>
   <i name="OMEGATL">   -200.00000000</i>
   <i type="int" name="OMEGAGRID">     0</i>
   <i name="CSHIFT">     -0.10000000</i>
   <i type="logical" name="SELFENERGY"> F  </i>
   <i type="logical" name="LSPECTRAL"> F  </i>
   <i type="logical" name="LSPECTRALGW"> F  </i>
   <i type="logical" name="LSINGLES"> F  </i>
   <i type="logical" name="LFERMIGW"> F  </i>
   <i type="logical" name="ODDONLYGW"> F  </i>
   <i type="logical" name="EVENONLYGW"> F  </i>
   <i type="int" name="NKREDLFX">     1</i>
   <i type="int" name="NKREDLFY">     1</i>
   <i type="int" name="NKREDLFZ">     1</i>
   <i type="int" name="MAXMEM">  1800</i>
   <i type="int" name="TELESCOPE">     0</i>
   <i type="int" name="TAUPAR">     1</i>
   <i type="int" name="OMEGAPAR">    -1</i>
   <i name="LAMBDA">      1.00000000</i>
  </separator>
  <separator name="External order field" >
   <i name="OFIELD_KAPPA">      0.00000000</i>
   <v name="OFIELD_K">      0.00000000      0.00000000      0.00000000</v>
   <i name="OFIELD_Q6_NEAR">      0.00000000</i>
   <i name="OFIELD_Q6_FAR">      0.00000000</i>
   <i name="OFIELD_A">      0.00000000</i>
  </separator>
 </parameters>
 <atominfo>
  <atoms>       6 </atoms>
  <types>       4 </types>
  <array name="atoms" >
   <dimension dim="1">ion</dimension>
   <field type="string">element</field>
   <field type="int">atomtype</field>
   <set>
    <rc><c>Mo</c><c>   1</c></rc>
    <rc><c>S </c><c>   2</c></rc>
    <rc><c>S </c><c>   2</c></rc>
    <rc><c>Mo</c><c>   3</c></rc>
    <rc><c>S </c><c>   4</c></rc>
    <rc><c>S </c><c>   4</c></rc>
   </set>
  </array>
  <array name="atomtypes" >
   <dimension dim="1">type</dimension>
   <field type="int">atomspertype</field>
   <field type="string">element</field>
   <field>mass</field>
   <field>valence</field>
   <field type="string">pseudopotential</field>
   <set>
    <rc><c>   1</c><c>Mo</c><c>     95.94000000</c><c>     12.00000000</c><c> PAW_PBE Mo_pv 08Apr2002                </c></rc>
    <rc><c>   2</c><c>S </c><c>     32.06600000</c><c>      6.00000000</c><c>  PAW_PBE S 17Jan2003                   </c></rc>
    <rc><c>   1</c><c>Mo</c><c>     95.94000000</c><c>     12.00000000</c><c> PAW_PBE Mo_pv 08Apr2002                </c></rc>
    <rc><c>   2</c><c>S </c><c>     32.06600000</c><c>      6.00000000</c><c>  PAW_PBE S 17Jan2003                   </c></rc>
   </set>
  </array>
 </atominfo>
 <structure name="initialpos" >
  <crystal>
   <varray name="basis" >
    <v>       3.19031700       0.00000000       0.00000000 </v>
    <v>      -1.59515800       2.76289700       0.00000000 </v>
    <v>       0.00000000       0.00000000      23.14049200 </v>
   </varray>
   <i name="volume">    203.97226633 </i>
   <varray name="rec_basis" >
    <v>       0.31344848       0.18096941       0.00000000 </v>
    <v>       0.00000000       0.36193894       0.00000000 </v>
    <v>       0.00000000       0.00000000       0.04321429 </v>
   </varray>
  </crystal>
  <varray name="positions" >
   <v>       0.66666700       0.33333300       0.06785900 </v>
   <v>       0.33333300       0.66666700       0.00000000 </v>
   <v>       0.33333300       0.66666700       0.13571500 </v>
   <v>       0.95238129       0.61904729       0.35482300 </v>
   <v>       0.61904729       0.95238129       0.28696500 </v>
   <v>       0.61904729       0.95238129       0.42267900 </v>
  </varray>
 </structure>
 <calculation>
  <scstep>
   <time name="dav">   57.09   57.14</time>
   <time name="total">   67.28   67.36</time>
   <energy>
    <i name="alphaZ">    104.15310261 </i>
    <i name="ewald">   7699.15925133 </i>
    <i name="hartreedc"> -11109.20445244 </i>
    <i name="XCdc">    128.46668658 </i>
    <i name="pawpsdc">   2252.92270536 </i>
    <i name="pawaedc">  -2205.68654582 </i>
    <i name="eentropy">      0.00001133 </i>
    <i name="bandstr">   -158.98730071 </i>
    <i name="atom">   3688.31848598 </i>
    <i name="e_fr_energy">    399.14194422 </i>
    <i name="e_wo_entrp">    399.14193289 </i>
    <i name="e_0_energy">    399.14194044 </i>
   </energy>
  </scstep>
  <scstep>
   <time name="dav">   61.95   61.99</time>
   <time name="total">   61.95   62.00</time>
   <energy>
    <i name="e_fr_energy">     -1.62696373 </i>
    <i name="e_wo_entrp">     -1.62515453 </i>
    <i name="e_0_energy">     -1.62636066 </i>
   </energy>
  </scstep>
  <scstep>
   <time name="dav">   63.32   63.38</time>
   <time name="total">   63.33   63.39</time>
   <energy>
    <i name="e_fr_energy">    -32.96531459 </i>
    <i name="e_wo_entrp">    -32.96630106 </i>
    <i name="e_0_energy">    -32.96564341 </i>
   </energy>
  </scstep>
  <scstep>
   <time name="dav">   61.48   61.56</time>
   <time name="total">   61.49   61.57</time>
   <energy>
    <i name="e_fr_energy">    -33.83838378 </i>
    <i name="e_wo_entrp">    -33.83937361 </i>
    <i name="e_0_energy">    -33.83871373 </i>
   </energy>
  </scstep>
  <scstep>
   <time name="dav">   63.13   63.21</time>
   <time name="total">   68.06   68.14</time>
   <energy>
    <i name="e_fr_energy">    -33.86537576 </i>
    <i name="e_wo_entrp">    -33.86635271 </i>
    <i name="e_0_energy">    -33.86570141 </i>
   </energy>
  </scstep>
  <scstep>
   <time name="diag">   11.63   11.64</time>
   <time name="diis">   41.82   41.85</time>
   <time name="orth">    0.40    0.40</time>
   <time name="total">   68.77   68.82</time>
   <energy>
    <i name="e_fr_energy">    -30.08254935 </i>
    <i name="e_wo_entrp">    -30.08240816 </i>
    <i name="e_0_energy">    -30.08250229 </i>
   </energy>
  </scstep>
  <scstep>
   <time name="diag">   11.59   11.60</time>
   <time name="diis">   41.14   41.17</time>
   <time name="orth">    0.40    0.40</time>
   <time name="total">   68.01   68.06</time>
   <energy>
    <i name="e_fr_energy">    -32.97112324 </i>
    <i name="e_wo_entrp">    -32.97173791 </i>
    <i name="e_0_energy">    -32.97132813 </i>
   </energy>
  </scstep>
  <scstep>
   <time name="diag">   11.70   11.70</time>
   <time name="diis">   41.31   41.34</time>
   <time name="orth">    0.40    0.40</time>
   <time name="total">   68.17   68.23</time>
   <energy>
    <i name="e_fr_energy">    -34.35425562 </i>
    <i name="e_wo_entrp">    -34.35442039 </i>
    <i name="e_0_energy">    -34.35431054 </i>
   </energy>
  </scstep>
  <scstep>
   <time name="diag">   11.54   11.55</time>
   <time name="diis">   40.48   40.51</time>
   <time name="orth">    0.40    0.40</time>
   <time name="total">   67.23   67.29</time>
   <energy>
    <i name="e_fr_energy">    -37.08417600 </i>
    <i name="e_wo_entrp">    -37.08434260 </i>
    <i name="e_0_energy">    -37.08423153 </i>
   </energy>
  </scstep>
  <scstep>
   <time name="diag">   11.56   11.57</time>
   <time name="diis">   37.48   37.50</time>
   <time name="orth">    0.40    0.40</time>
   <time name="total">   64.21   64.26</time>
   <energy>
    <i name="e_fr_energy">    -39.03420125 </i>
    <i name="e_wo_entrp">    -39.03436749 </i>
    <i name="e_0_energy">    -39.03425666 </i>
   </energy>
  </scstep>
  <scstep>
   <time name="diag">   11.49   11.50</time>
   <time name="diis">   39.99   40.02</time>
   <time name="orth">    0.40    0.40</time>
   <time name="total">   66.71   66.76</time>
   <energy>
    <i name="e_fr_energy">    -39.37142604 </i>
    <i name="e_wo_entrp">    -39.37175695 </i>
    <i name="e_0_energy">    -39.37153634 </i>
   </energy>
  </scstep>
  <scstep>
   <time name="diag">   11.44   11.45</time>
   <time name="diis">   39.36   39.39</time>
   <time name="orth">    0.40    0.40</time>
   <time name="total">   66.06   66.11</time>
   <energy>
    <i name="e_fr_energy">    -39.39507085 </i>
    <i name="e_wo_entrp">    -39.39540051 </i>
    <i name="e_0_energy">    -39.39518074 </i>
   </energy>
  </scstep>
  <scstep>
   <time name="diag">   11.42   11.43</time>
   <time name="diis">   43.62   43.65</time>
   <time name="orth">    0.40    0.40</time>
   <time name="total">   70.26   70.31</time>
   <energy>
    <i name="e_fr_energy">    -39.40623014 </i>
    <i name="e_wo_entrp">    -39.40656166 </i>
    <i name="e_0_energy">    -39.40634065 </i>
   </energy>
  </scstep>
  <scstep>
   <time name="diag">   11.40   11.41</time>
   <time name="diis">   41.50   41.53</time>
   <time name="orth">    0.40    0.40</time>
   <time name="total">   68.11   68.16</time>
   <energy>
    <i name="e_fr_energy">    -39.40959495 </i>
    <i name="e_wo_entrp">    -39.40992694 </i>
    <i name="e_0_energy">    -39.40970561 </i>
   </energy>
  </scstep>
  <scstep>
   <time name="diag">   11.48   11.49</time>
   <time name="diis">   36.52   36.55</time>
   <time name="orth">    0.40    0.40</time>
   <time name="total">   63.25   63.30</time>
   <energy>
    <i name="e_fr_energy">    -39.40910258 </i>
    <i name="e_wo_entrp">    -39.40943455 </i>
    <i name="e_0_energy">    -39.40921324 </i>
   </energy>
  </scstep>
  <scstep>
   <time name="diag">   11.43   11.44</time>
   <time name="diis">   29.23   29.25</time>
   <time name="orth">    0.40    0.40</time>
   <time name="total">   55.93   55.97</time>
   <energy>
    <i name="e_fr_energy">    -39.40924063 </i>
    <i name="e_wo_entrp">    -39.40957267 </i>
    <i name="e_0_energy">    -39.40935131 </i>
   </energy>
  </scstep>
  <scstep>
   <time name="diag">   11.44   11.45</time>
   <time name="diis">   28.78   28.80</time>
   <time name="orth">    0.40    0.40</time>
   <time name="total">   55.47   55.56</time>
   <energy>
    <i name="e_fr_energy">    -39.40947008 </i>
    <i name="e_wo_entrp">    -39.40980209 </i>
    <i name="e_0_energy">    -39.40958075 </i>
   </energy>
  </scstep>
  <scstep>
   <time name="diag">   11.37   11.38</time>
   <time name="diis">   27.47   27.49</time>
   <time name="orth">    0.40    0.40</time>
   <time name="total">   54.09   54.13</time>
   <energy>
    <i name="e_fr_energy">    -39.40981154 </i>
    <i name="e_wo_entrp">    -39.41014352 </i>
    <i name="e_0_energy">    -39.40992220 </i>
   </energy>
  </scstep>
  <scstep>
   <time name="diag">   11.37   11.37</time>
   <time name="diis">   27.42   27.44</time>
   <time name="orth">    0.40    0.40</time>
   <time name="total">   53.99   54.03</time>
   <energy>
    <i name="e_fr_energy">    -39.41031933 </i>
    <i name="e_wo_entrp">    -39.41065127 </i>
    <i name="e_0_energy">    -39.41042998 </i>
   </energy>
  </scstep>
  <scstep>
   <time name="diag">   11.43   11.44</time>
   <time name="diis">   27.51   27.53</time>
   <time name="orth">    0.40    0.40</time>
   <time name="total">   54.24   54.28</time>
   <energy>
    <i name="e_fr_energy">    -39.41049666 </i>
    <i name="e_wo_entrp">    -39.41082859 </i>
    <i name="e_0_energy">    -39.41060731 </i>
   </energy>
  </scstep>
  <scstep>
   <time name="diag">   11.47   11.48</time>
   <time name="diis">   26.72   26.74</time>
   <time name="orth">    0.40    0.40</time>
   <time name="total">   48.28   48.31</time>
   <energy>
    <i name="alphaZ">    104.15310261 </i>
    <i name="ewald">   7699.15925133 </i>
    <i name="hartreedc"> -11092.88235891 </i>
    <i name="XCdc">    122.66828385 </i>
    <i name="pawpsdc">   2399.38399623 </i>
    <i name="pawaedc">  -2361.56881396 </i>
    <i name="eentropy">      0.00033192 </i>
    <i name="bandstr">   -598.64280590 </i>
    <i name="atom">   3688.31848598 </i>
    <i name="e_fr_energy">    -39.41052687 </i>
    <i name="e_wo_entrp">    -39.41085879 </i>
    <i name="e_0_energy">    -39.41063751 </i>
   </energy>
  </scstep>
  <structure>
   <crystal>
    <varray name="basis" >
     <v>       3.19031700       0.00000000       0.00000000 </v>
     <v>      -1.59515800       2.76289700       0.00000000 </v>
     <v>       0.00000000       0.00000000      23.14049200 </v>
    </varray>
    <i name="volume">    203.97226633 </i>
    <varray name="rec_basis" >
     <v>       0.31344848       0.18096941       0.00000000 </v>
     <v>       0.00000000       0.36193894       0.00000000 </v>
     <v>       0.00000000       0.00000000       0.04321429 </v>
    </varray>
   </crystal>
   <varray name="positions" >
    <v>       0.66666700       0.33333300       0.06785900 </v>
    <v>       0.33333300       0.66666700       0.00000000 </v>
    <v>       0.33333300       0.66666700       0.13571500 </v>
    <v>       0.95238129       0.61904729       0.35482300 </v>
    <v>       0.61904729       0.95238129       0.28696500 </v>
    <v>       0.61904729       0.95238129       0.42267900 </v>
   </varray>
  </structure>
  <varray name="forces" >
   <v>      -0.00290329      -0.00586747      -0.00992358 </v>
   <v>      -0.00090640       0.00015939      -0.05614527 </v>
   <v>      -0.01748723      -0.03131455       0.07902887 </v>
   <v>       0.00416062       0.00643201       0.01145431 </v>
   <v>       0.01577757       0.02647809      -0.08302048 </v>
   <v>       0.00135873       0.00411253       0.05860614 </v>
  </varray>
  <varray name="stress" >
   <v>       3.36650793       0.18326746       0.62298672 </v>
   <v>       0.18326745       3.58796327       1.08236406 </v>
   <v>       0.62298677       1.08236418       1.43543631 </v>
  </varray>
  <energy>
   <i name="e_fr_energy">    -39.41052687 </i>
   <i name="e_wo_entrp">    -39.41063751 </i>
   <i name="e_0_energy">      0.00033192 </i>
  </energy>
  <time name="totalsc"> 1413.78 1415.22</time>
  <eigenvalues>
   <array>
    <dimension dim="1">band</dimension>
    <dimension dim="2">kpoint</dimension>
    <dimension dim="3">spin</dimension>
    <field>eigene</field>
    <field>occ</field>
    <set>
     <set comment="spin 1">
      <set comment="kpoint 1">
       <r>  -34.9898    1.0000 </r>
       <r>  -34.9897    1.0000 </r>
       <r>  -34.7986    1.0000 </r>
       <r>  -34.7985    1.0000 </r>
       <r>  -34.7984    1.0000 </r>
       <r>  -34.7983    1.0000 </r>
       <r>  -13.9751    1.0000 </r>
       <r>  -13.9179    1.0000 </r>
       <r>  -12.7099    1.0000 </r>
       <r>  -12.6142    1.0000 </r>
       <r>   -5.6905    1.0000 </r>
       <r>   -5.3946    1.0000 </r>
       <r>   -2.6203    1.0000 </r>
       <r>   -2.6193    1.0000 </r>
       <r>   -2.6181    1.0000 </r>
       <r>   -2.6171    1.0000 </r>
       <r>   -2.1862    1.0000 </r>
       <r>   -1.5284    1.0000 </r>
       <r>   -1.5264    1.0000 </r>
       <r>   -1.5253    1.0000 </r>
       <r>   -1.5222    1.0000 </r>
       <r>   -1.4665    1.0000 </r>
       <r>   -0.2270    1.0000 </r>
       <r>    0.2254    0.7990 </r>
       <r>    2.6935   -0.0000 </r>
       <r>    2.7013   -0.0000 </r>
       <r>    2.7100   -0.0000 </r>
       <r>    2.7163   -0.0000 </r>
       <r>    2.8743   -0.0000 </r>
       <r>    2.8827   -0.0000 </r>
       <r>    2.8940   -0.0000 </r>
       <r>    2.9038   -0.0000 </r>
       <r>    5.2809    0.0000 </r>
       <r>    5.3982    0.0000 </r>
       <r>    6.3819    0.0000 </r>
       <r>    6.5465    0.0000 </r>
      </set>
      <set comment="kpoint 2">
       <r>  -34.9857    1.0000 </r>
       <r>  -34.9856    1.0000 </r>
       <r>  -34.8198    1.0000 </r>
       <r>  -34.8196    1.0000 </r>
       <r>  -34.8033    1.0000 </r>
       <r>  -34.8033    1.0000 </r>
       <r>  -13.8884    1.0000 </r>
       <r>  -13.8314    1.0000 </r>
       <r>  -12.6732    1.0000 </r>
       <r>  -12.5798    1.0000 </r>
       <r>   -5.5914    1.0000 </r>
       <r>   -5.2958    1.0000 </r>
       <r>   -2.8082    1.0000 </r>
       <r>   -2.8031    1.0000 </r>
       <r>   -2.5293    1.0000 </r>
       <r>   -2.5269    1.0000 </r>
       <r>   -2.4679    1.0000 </r>
       <r>   -2.0693    1.0000 </r>
       <r>   -1.6653    1.0000 </r>
       <r>   -1.6604    1.0000 </r>
       <r>   -1.3649    1.0000 </r>
       <r>   -1.0654    1.0000 </r>
       <r>   -0.2478    1.0000 </r>
       <r>    0.1502    1.0340 </r>
       <r>    2.5814   -0.0000 </r>
       <r>    2.6067   -0.0000 </r>
       <r>    2.6388   -0.0000 </r>
       <r>    2.7118   -0.0000 </r>
       <r>    2.7818   -0.0000 </r>
       <r>    2.8051   -0.0000 </r>
       <r>    2.8471   -0.0000 </r>
       <r>    2.8624   -0.0000 </r>
       <r>    5.4204    0.0000 </r>
       <r>    5.5354    0.0000 </r>
       <r>    6.7408    0.0000 </r>
       <r>    6.9295    0.0000 </r>
      </set>
      <set comment="kpoint 3">
       <r>  -34.9744    1.0000 </r>
       <r>  -34.9742    1.0000 </r>
       <r>  -34.8783    1.0000 </r>
       <r>  -34.8781    1.0000 </r>
       <r>  -34.8167    1.0000 </r>
       <r>  -34.8167    1.0000 </r>
       <r>  -13.6399    1.0000 </r>
       <r>  -13.5836    1.0000 </r>
       <r>  -12.5681    1.0000 </r>
       <r>  -12.4815    1.0000 </r>
       <r>   -5.3312    1.0000 </r>
       <r>   -5.0419    1.0000 </r>
       <r>   -3.2628    1.0000 </r>
       <r>   -3.2472    1.0000 </r>
       <r>   -2.9643    1.0000 </r>
       <r>   -2.6859    1.0000 </r>
       <r>   -2.2744    1.0000 </r>
       <r>   -2.2704    1.0000 </r>
       <r>   -2.0010    1.0000 </r>
       <r>   -1.9948    1.0000 </r>
       <r>   -1.2831    1.0000 </r>
       <r>   -0.9348    1.0000 </r>
       <r>   -0.3776    1.0000 </r>
       <r>   -0.1274    1.0000 </r>
       <r>    2.1712   -0.0000 </r>
       <r>    2.3606   -0.0000 </r>
       <r>    2.4909   -0.0000 </r>
       <r>    2.5522   -0.0000 </r>
       <r>    2.5787   -0.0000 </r>
       <r>    2.6239   -0.0000 </r>
       <r>    3.1914    0.0000 </r>
       <r>    3.2127    0.0000 </r>
       <r>    5.7769    0.0000 </r>
       <r>    5.8844    0.0000 </r>
       <r>    7.4053    0.0000 </r>
       <r>    7.8272    0.0000 </r>
      </set>
      <set comment="kpoint 4">
       <r>  -34.9599    1.0000 </r>
       <r>  -34.9599    1.0000 </r>
       <r>  -34.9581    1.0000 </r>
       <r>  -34.9578    1.0000 </r>
       <r>  -34.8355    1.0000 </r>
       <r>  -34.8355    1.0000 </r>
       <r>  -13.2646    1.0000 </r>
       <r>  -13.2104    1.0000 </r>
       <r>  -12.4102    1.0000 </r>
       <r>  -12.3344    1.0000 </r>
       <r>   -5.0666    1.0000 </r>
       <r>   -4.8260    1.0000 </r>
       <r>   -3.7332    1.0000 </r>
       <r>   -3.6716    1.0000 </r>
       <r>   -3.4920    1.0000 </r>
       <r>   -3.3055    1.0000 </r>
       <r>   -2.3967    1.0000 </r>
       <r>   -2.3893    1.0000 </r>
       <r>   -1.9064    1.0000 </r>
       <r>   -1.8997    1.0000 </r>
       <r>   -1.4571    1.0000 </r>
       <r>   -1.1231    1.0000 </r>
       <r>   -0.6955    1.0000 </r>
       <r>   -0.5770    1.0000 </r>
       <r>    1.9408   -0.0000 </r>
       <r>    2.2373   -0.0000 </r>
       <r>    2.3030   -0.0000 </r>
       <r>    2.3291   -0.0000 </r>
       <r>    2.6878   -0.0000 </r>
       <r>    2.9031   -0.0000 </r>
       <r>    3.5704    0.0000 </r>
       <r>    3.6011    0.0000 </r>
       <r>    6.2902    0.0000 </r>
       <r>    6.3930    0.0000 </r>
       <r>    7.8823    0.0000 </r>
       <r>    8.3194    0.0000 </r>
      </set>
      <set comment="kpoint 5">
       <r>  -35.0451    1.0000 </r>
       <r>  -35.0448    1.0000 </r>
       <r>  -34.9411    1.0000 </r>
       <r>  -34.9410    1.0000 </r>
       <r>  -34.8554    1.0000 </r>
       <r>  -34.8554    1.0000 </r>
       <r>  -12.8240    1.0000 </r>
       <r>  -12.7742    1.0000 </r>
       <r>  -12.2275    1.0000 </r>
       <r>  -12.1652    1.0000 </r>
       <r>   -5.1181    1.0000 </r>
       <r>   -4.9973    1.0000 </r>
       <r>   -4.0658    1.0000 </r>
       <r>   -3.9331    1.0000 </r>
       <r>   -3.8692    1.0000 </r>
       <r>   -3.7401    1.0000 </r>
       <r>   -2.7523    1.0000 </r>
       <r>   -2.7442    1.0000 </r>
       <r>   -1.7302    1.0000 </r>
       <r>   -1.5139    1.0000 </r>
       <r>   -1.5009    1.0000 </r>
       <r>   -1.4198    1.0000 </r>
       <r>   -0.9876    1.0000 </r>
       <r>   -0.9010    1.0000 </r>
       <r>    2.0348   -0.0000 </r>
       <r>    2.1359   -0.0000 </r>
       <r>    2.1582   -0.0000 </r>
       <r>    2.3197   -0.0000 </r>
       <r>    3.0965    0.0000 </r>
       <r>    3.3490    0.0000 </r>
       <r>    3.8701    0.0000 </r>
       <r>    3.9118    0.0000 </r>
       <r>    6.9152    0.0000 </r>
       <r>    7.0039    0.0000 </r>
       <r>    7.8546    0.0000 </r>
       <r>    8.0838    0.0000 </r>
      </set>
      <set comment="kpoint 6">
       <r>  -35.1148    1.0000 </r>
       <r>  -35.1146    1.0000 </r>
       <r>  -34.9269    1.0000 </r>
       <r>  -34.9268    1.0000 </r>
       <r>  -34.8719    1.0000 </r>
       <r>  -34.8719    1.0000 </r>
       <r>  -12.4122    1.0000 </r>
       <r>  -12.3696    1.0000 </r>
       <r>  -12.0611    1.0000 </r>
       <r>  -12.0131    1.0000 </r>
       <r>   -5.4319    1.0000 </r>
       <r>   -5.3715    1.0000 </r>
       <r>   -4.4795    1.0000 </r>
       <r>   -4.3893    1.0000 </r>
       <r>   -3.9633    1.0000 </r>
       <r>   -3.8156    1.0000 </r>
       <r>   -3.0124    1.0000 </r>
       <r>   -3.0038    1.0000 </r>
       <r>   -1.9396    1.0000 </r>
       <r>   -1.6529    1.0000 </r>
       <r>   -1.1981    1.0000 </r>
       <r>   -1.1802    1.0000 </r>
       <r>   -0.9477    1.0000 </r>
       <r>   -0.8341    1.0000 </r>
       <r>    2.0945   -0.0000 </r>
       <r>    2.1084   -0.0000 </r>
       <r>    2.3009   -0.0000 </r>
       <r>    2.4935   -0.0000 </r>
       <r>    3.4930    0.0000 </r>
       <r>    3.7299    0.0000 </r>
       <r>    4.0559    0.0000 </r>
       <r>    4.1075    0.0000 </r>
       <r>    6.8079    0.0000 </r>
       <r>    7.1512    0.0000 </r>
       <r>    7.5803    0.0000 </r>
       <r>    7.9006    0.0000 </r>
      </set>
      <set comment="kpoint 7">
       <r>  -35.1539    1.0000 </r>
       <r>  -35.1536    1.0000 </r>
       <r>  -34.9188    1.0000 </r>
       <r>  -34.9187    1.0000 </r>
       <r>  -34.8811    1.0000 </r>
       <r>  -34.8811    1.0000 </r>
       <r>  -12.1534    1.0000 </r>
       <r>  -12.1179    1.0000 </r>
       <r>  -11.9591    1.0000 </r>
       <r>  -11.9219    1.0000 </r>
       <r>   -5.6699    1.0000 </r>
       <r>   -5.6260    1.0000 </r>
       <r>   -4.7279    1.0000 </r>
       <r>   -4.6578    1.0000 </r>
       <r>   -4.0647    1.0000 </r>
       <r>   -3.9290    1.0000 </r>
       <r>   -3.1485    1.0000 </r>
       <r>   -3.1396    1.0000 </r>
       <r>   -2.0405    1.0000 </r>
       <r>   -1.7688    1.0000 </r>
       <r>   -1.0330    1.0000 </r>
       <r>   -1.0103    1.0000 </r>
       <r>   -0.7321    1.0000 </r>
       <r>   -0.6019    1.0000 </r>
       <r>    2.1233   -0.0000 </r>
       <r>    2.1304   -0.0000 </r>
       <r>    2.5577   -0.0000 </r>
       <r>    2.6382   -0.0000 </r>
       <r>    3.7119    0.0000 </r>
       <r>    3.9199    0.0000 </r>
       <r>    4.1397    0.0000 </r>
       <r>    4.1971    0.0000 </r>
       <r>    6.0466    0.0000 </r>
       <r>    6.4776    0.0000 </r>
       <r>    7.8400    0.0000 </r>
       <r>    7.9908    0.0000 </r>
      </set>
      <set comment="kpoint 8">
       <r>  -34.9857    1.0000 </r>
       <r>  -34.9856    1.0000 </r>
       <r>  -34.8197    1.0000 </r>
       <r>  -34.8197    1.0000 </r>
       <r>  -34.8034    1.0000 </r>
       <r>  -34.8032    1.0000 </r>
       <r>  -13.8884    1.0000 </r>
       <r>  -13.8314    1.0000 </r>
       <r>  -12.6732    1.0000 </r>
       <r>  -12.5798    1.0000 </r>
       <r>   -5.5914    1.0000 </r>
       <r>   -5.2958    1.0000 </r>
       <r>   -2.8082    1.0000 </r>
       <r>   -2.8031    1.0000 </r>
       <r>   -2.5293    1.0000 </r>
       <r>   -2.5269    1.0000 </r>
       <r>   -2.4679    1.0000 </r>
       <r>   -2.0692    1.0000 </r>
       <r>   -1.6653    1.0000 </r>
       <r>   -1.6604    1.0000 </r>
       <r>   -1.3649    1.0000 </r>
       <r>   -1.0654    1.0000 </r>
       <r>   -0.2478    1.0000 </r>
       <r>    0.1502    1.0340 </r>
       <r>    2.5814   -0.0000 </r>
       <r>    2.6067   -0.0000 </r>
       <r>    2.6388   -0.0000 </r>
       <r>    2.7118   -0.0000 </r>
       <r>    2.7818   -0.0000 </r>
       <r>    2.8051   -0.0000 </r>
       <r>    2.8471   -0.0000 </r>
       <r>    2.8624   -0.0000 </r>
       <r>    5.4204    0.0000 </r>
       <r>    5.5354    0.0000 </r>
       <r>    6.7415    0.0000 </r>
       <r>    6.9299    0.0000 </r>
      </set>
      <set comment="kpoint 9">
       <r>  -34.9780    1.0000 </r>
       <r>  -34.9779    1.0000 </r>
       <r>  -34.8587    1.0000 </r>
       <r>  -34.8586    1.0000 </r>
       <r>  -34.8134    1.0000 </r>
       <r>  -34.8133    1.0000 </r>
       <r>  -13.7206    1.0000 </r>
       <r>  -13.6642    1.0000 </r>
       <r>  -12.6021    1.0000 </r>
       <r>  -12.5136    1.0000 </r>
       <r>   -5.4095    1.0000 </r>
       <r>   -5.1171    1.0000 </r>
       <r>   -3.1251    1.0000 </r>
       <r>   -3.1132    1.0000 </r>
       <r>   -2.8042    1.0000 </r>
       <r>   -2.4828    1.0000 </r>
       <r>   -2.3621    1.0000 </r>
       <r>   -2.3576    1.0000 </r>
       <r>   -1.9815    1.0000 </r>
       <r>   -1.9701    1.0000 </r>
       <r>   -1.2080    1.0000 </r>
       <r>   -0.8838    1.0000 </r>
       <r>   -0.3214    1.0000 </r>
       <r>   -0.0300    1.0001 </r>
       <r>    2.2911   -0.0000 </r>
       <r>    2.4206   -0.0000 </r>
       <r>    2.4553   -0.0000 </r>
       <r>    2.5480   -0.0000 </r>
       <r>    2.6099   -0.0000 </r>
       <r>    2.6465   -0.0000 </r>
       <r>    3.1162    0.0000 </r>
       <r>    3.1512    0.0000 </r>
       <r>    5.6645    0.0000 </r>
       <r>    5.7764    0.0000 </r>
       <r>    7.2605    0.0000 </r>
       <r>    7.5922    0.0000 </r>
      </set>
      <set comment="kpoint 10">
       <r>  -34.9643    1.0000 </r>
       <r>  -34.9642    1.0000 </r>
       <r>  -34.9263    1.0000 </r>
       <r>  -34.9261    1.0000 </r>
       <r>  -34.8319    1.0000 </r>
       <r>  -34.8318    1.0000 </r>
       <r>  -13.4081    1.0000 </r>
       <r>  -13.3532    1.0000 </r>
       <r>  -12.4699    1.0000 </r>
       <r>  -12.3903    1.0000 </r>
       <r>   -5.1299    1.0000 </r>
       <r>   -4.8590    1.0000 </r>
       <r>   -3.5728    1.0000 </r>
       <r>   -3.5398    1.0000 </r>
       <r>   -3.2368    1.0000 </r>
       <r>   -3.0045    1.0000 </r>
       <r>   -2.4708    1.0000 </r>
       <r>   -2.4402    1.0000 </r>
       <r>   -2.0792    1.0000 </r>
       <r>   -2.0719    1.0000 </r>
       <r>   -1.1897    1.0000 </r>
       <r>   -0.8892    1.0000 </r>
       <r>   -0.5519    1.0000 </r>
       <r>   -0.4028    1.0000 </r>
       <r>    1.9496   -0.0000 </r>
       <r>    2.1871   -0.0000 </r>
       <r>    2.3809   -0.0000 </r>
       <r>    2.4243   -0.0000 </r>
       <r>    2.4646   -0.0000 </r>
       <r>    2.6280   -0.0000 </r>
       <r>    3.5176    0.0000 </r>
       <r>    3.5717    0.0000 </r>
       <r>    6.0982    0.0000 </r>
       <r>    6.2068    0.0000 </r>
       <r>    7.7968    0.0000 </r>
       <r>    8.2697    0.0000 </r>
      </set>
      <set comment="kpoint 11">
       <r>  -35.0067    1.0000 </r>
       <r>  -35.0065    1.0000 </r>
       <r>  -34.9476    1.0000 </r>
       <r>  -34.9475    1.0000 </r>
       <r>  -34.8542    1.0000 </r>
       <r>  -34.8542    1.0000 </r>
       <r>  -12.9979    1.0000 </r>
       <r>  -12.9465    1.0000 </r>
       <r>  -12.2976    1.0000 </r>
       <r>  -12.2303    1.0000 </r>
       <r>   -5.0042    1.0000 </r>
       <r>   -4.8302    1.0000 </r>
       <r>   -3.8846    1.0000 </r>
       <r>   -3.7697    1.0000 </r>
       <r>   -3.7191    1.0000 </r>
       <r>   -3.5973    1.0000 </r>
       <r>   -2.8665    1.0000 </r>
       <r>   -2.8020    1.0000 </r>
       <r>   -1.7998    1.0000 </r>
       <r>   -1.7845    1.0000 </r>
       <r>   -1.4028    1.0000 </r>
       <r>   -1.1367    1.0000 </r>
       <r>   -0.8566    1.0000 </r>
       <r>   -0.7813    1.0000 </r>
       <r>    1.8436   -0.0000 </r>
       <r>    2.0651   -0.0000 </r>
       <r>    2.2693   -0.0000 </r>
       <r>    2.3741   -0.0000 </r>
       <r>    2.7430   -0.0000 </r>
       <r>    2.9488   -0.0000 </r>
       <r>    3.8652    0.0000 </r>
       <r>    3.9394    0.0000 </r>
       <r>    6.6909    0.0000 </r>
       <r>    6.7830    0.0000 </r>
       <r>    8.1931    0.0000 </r>
       <r>    8.4702    0.0000 </r>
      </set>
      <set comment="kpoint 12">
       <r>  -35.0813    1.0000 </r>
       <r>  -35.0811    1.0000 </r>
       <r>  -34.9319    1.0000 </r>
       <r>  -34.9318    1.0000 </r>
       <r>  -34.8752    1.0000 </r>
       <r>  -34.8752    1.0000 </r>
       <r>  -12.5666    1.0000 </r>
       <r>  -12.5211    1.0000 </r>
       <r>  -12.1193    1.0000 </r>
       <r>  -12.0661    1.0000 </r>
       <r>   -5.2232    1.0000 </r>
       <r>   -5.1417    1.0000 </r>
       <r>   -4.2965    1.0000 </r>
       <r>   -4.2102    1.0000 </r>
       <r>   -3.8853    1.0000 </r>
       <r>   -3.7328    1.0000 </r>
       <r>   -3.0812    1.0000 </r>
       <r>   -3.0147    1.0000 </r>
       <r>   -1.7190    1.0000 </r>
       <r>   -1.6306    1.0000 </r>
       <r>   -1.6160    1.0000 </r>
       <r>   -1.4433    1.0000 </r>
       <r>   -0.8793    1.0000 </r>
       <r>   -0.8193    1.0000 </r>
       <r>    1.9490   -0.0000 </r>
       <r>    2.1003   -0.0000 </r>
       <r>    2.3137   -0.0000 </r>
       <r>    2.4347   -0.0000 </r>
       <r>    3.1681    0.0000 </r>
       <r>    3.3712    0.0000 </r>
       <r>    4.0601    0.0000 </r>
       <r>    4.1573    0.0000 </r>
       <r>    7.2573    0.0000 </r>
       <r>    7.3822    0.0000 </r>
       <r>    7.5434    0.0000 </r>
       <r>    8.0786    0.0000 </r>
      </set>
      <set comment="kpoint 13">
       <r>  -35.1337    1.0000 </r>
       <r>  -35.1334    1.0000 </r>
       <r>  -34.9208    1.0000 </r>
       <r>  -34.9207    1.0000 </r>
       <r>  -34.8901    1.0000 </r>
       <r>  -34.8901    1.0000 </r>
       <r>  -12.2233    1.0000 </r>
       <r>  -12.1855    1.0000 </r>
       <r>  -11.9807    1.0000 </r>
       <r>  -11.9401    1.0000 </r>
       <r>   -5.5019    1.0000 </r>
       <r>   -5.4526    1.0000 </r>
       <r>   -4.6802    1.0000 </r>
       <r>   -4.6183    1.0000 </r>
       <r>   -3.9871    1.0000 </r>
       <r>   -3.8441    1.0000 </r>
       <r>   -3.1684    1.0000 </r>
       <r>   -3.1219    1.0000 </r>
       <r>   -1.9433    1.0000 </r>
       <r>   -1.6930    1.0000 </r>
       <r>   -1.5071    1.0000 </r>
       <r>   -1.4500    1.0000 </r>
       <r>   -0.6678    1.0000 </r>
       <r>   -0.5916    1.0000 </r>
       <r>    2.0958   -0.0000 </r>
       <r>    2.1652   -0.0000 </r>
       <r>    2.4926   -0.0000 </r>
       <r>    2.5898   -0.0000 </r>
       <r>    3.5677    0.0000 </r>
       <r>    3.7392    0.0000 </r>
       <r>    4.0553    0.0000 </r>
       <r>    4.1901    0.0000 </r>
       <r>    6.4531    0.0000 </r>
       <r>    6.8824    0.0000 </r>
       <r>    7.9894    0.0000 </r>
       <r>    8.1957    0.0000 </r>
      </set>
      <set comment="kpoint 14">
       <r>  -35.1525    1.0000 </r>
       <r>  -35.1522    1.0000 </r>
       <r>  -34.9168    1.0000 </r>
       <r>  -34.9166    1.0000 </r>
       <r>  -34.8955    1.0000 </r>
       <r>  -34.8954    1.0000 </r>
       <r>  -12.0897    1.0000 </r>
       <r>  -12.0554    1.0000 </r>
       <r>  -11.9275    1.0000 </r>
       <r>  -11.8922    1.0000 </r>
       <r>   -5.6179    1.0000 </r>
       <r>   -5.5759    1.0000 </r>
       <r>   -4.8223    1.0000 </r>
       <r>   -4.7658    1.0000 </r>
       <r>   -4.0552    1.0000 </r>
       <r>   -3.9193    1.0000 </r>
       <r>   -3.1862    1.0000 </r>
       <r>   -3.1557    1.0000 </r>
       <r>   -2.0328    1.0000 </r>
       <r>   -1.7758    1.0000 </r>
       <r>   -1.4467    1.0000 </r>
       <r>   -1.3751    1.0000 </r>
       <r>   -0.5349    1.0000 </r>
       <r>   -0.4491    1.0000 </r>
       <r>    2.1374   -0.0000 </r>
       <r>    2.1602   -0.0000 </r>
       <r>    2.6457   -0.0000 </r>
       <r>    2.6989   -0.0000 </r>
       <r>    3.8291    0.0000 </r>
       <r>    3.8901    0.0000 </r>
       <r>    3.9803    0.0000 </r>
       <r>    4.1005    0.0000 </r>
       <r>    6.0306    0.0000 </r>
       <r>    6.4824    0.0000 </r>
       <r>    8.2782    0.0000 </r>
       <r>    8.3867    0.0000 </r>
      </set>
      <set comment="kpoint 15">
       <r>  -35.1337    1.0000 </r>
       <r>  -35.1334    1.0000 </r>
       <r>  -34.9208    1.0000 </r>
       <r>  -34.9207    1.0000 </r>
       <r>  -34.8901    1.0000 </r>
       <r>  -34.8901    1.0000 </r>
       <r>  -12.2241    1.0000 </r>
       <r>  -12.1849    1.0000 </r>
       <r>  -11.9813    1.0000 </r>
       <r>  -11.9393    1.0000 </r>
       <r>   -5.5020    1.0000 </r>
       <r>   -5.4523    1.0000 </r>
       <r>   -4.6813    1.0000 </r>
       <r>   -4.6174    1.0000 </r>
       <r>   -3.9873    1.0000 </r>
       <r>   -3.8434    1.0000 </r>
       <r>   -3.1678    1.0000 </r>
       <r>   -3.1234    1.0000 </r>
       <r>   -1.9482    1.0000 </r>
       <r>   -1.6935    1.0000 </r>
       <r>   -1.5137    1.0000 </r>
       <r>   -1.4355    1.0000 </r>
       <r>   -0.6667    1.0000 </r>
       <r>   -0.5929    1.0000 </r>
       <r>    2.0988   -0.0000 </r>
       <r>    2.1610   -0.0000 </r>
       <r>    2.4909   -0.0000 </r>
       <r>    2.5917   -0.0000 </r>
       <r>    3.5496    0.0000 </r>
       <r>    3.7568    0.0000 </r>
       <r>    4.0623    0.0000 </r>
       <r>    4.1856    0.0000 </r>
       <r>    6.4530    0.0000 </r>
       <r>    6.8827    0.0000 </r>
       <r>    7.9970    0.0000 </r>
       <r>    8.2103    0.0000 </r>
      </set>
      <set comment="kpoint 16">
       <r>  -35.0813    1.0000 </r>
       <r>  -35.0811    1.0000 </r>
       <r>  -34.9320    1.0000 </r>
       <r>  -34.9318    1.0000 </r>
       <r>  -34.8753    1.0000 </r>
       <r>  -34.8752    1.0000 </r>
       <r>  -12.5674    1.0000 </r>
       <r>  -12.5204    1.0000 </r>
       <r>  -12.1202    1.0000 </r>
       <r>  -12.0650    1.0000 </r>
       <r>   -5.2232    1.0000 </r>
       <r>   -5.1415    1.0000 </r>
       <r>   -4.2982    1.0000 </r>
       <r>   -4.2090    1.0000 </r>
       <r>   -3.8868    1.0000 </r>
       <r>   -3.7304    1.0000 </r>
       <r>   -3.0822    1.0000 </r>
       <r>   -3.0154    1.0000 </r>
       <r>   -1.7336    1.0000 </r>
       <r>   -1.6297    1.0000 </r>
       <r>   -1.6119    1.0000 </r>
       <r>   -1.4303    1.0000 </r>
       <r>   -0.8799    1.0000 </r>
       <r>   -0.8181    1.0000 </r>
       <r>    1.9469   -0.0000 </r>
       <r>    2.0998   -0.0000 </r>
       <r>    2.3131   -0.0000 </r>
       <r>    2.4367   -0.0000 </r>
       <r>    3.1524    0.0000 </r>
       <r>    3.3889    0.0000 </r>
       <r>    4.0611    0.0000 </r>
       <r>    4.1550    0.0000 </r>
       <r>    7.2579    0.0000 </r>
       <r>    7.3904    0.0000 </r>
       <r>    7.5467    0.0000 </r>
       <r>    8.1631    0.0000 </r>
      </set>
      <set comment="kpoint 17">
       <r>  -35.0067    1.0000 </r>
       <r>  -35.0064    1.0000 </r>
       <r>  -34.9476    1.0000 </r>
       <r>  -34.9475    1.0000 </r>
       <r>  -34.8543    1.0000 </r>
       <r>  -34.8542    1.0000 </r>
       <r>  -12.9986    1.0000 </r>
       <r>  -12.9459    1.0000 </r>
       <r>  -12.2984    1.0000 </r>
       <r>  -12.2294    1.0000 </r>
       <r>   -5.0042    1.0000 </r>
       <r>   -4.8303    1.0000 </r>
       <r>   -3.8879    1.0000 </r>
       <r>   -3.7667    1.0000 </r>
       <r>   -3.7200    1.0000 </r>
       <r>   -3.5954    1.0000 </r>
       <r>   -2.8688    1.0000 </r>
       <r>   -2.8011    1.0000 </r>
       <r>   -1.7993    1.0000 </r>
       <r>   -1.7864    1.0000 </r>
       <r>   -1.4091    1.0000 </r>
       <r>   -1.1286    1.0000 </r>
       <r>   -0.8573    1.0000 </r>
       <r>   -0.7761    1.0000 </r>
       <r>    1.8389   -0.0000 </r>
       <r>    2.0682   -0.0000 </r>
       <r>    2.2684   -0.0000 </r>
       <r>    2.3762   -0.0000 </r>
       <r>    2.7313   -0.0000 </r>
       <r>    2.9599   -0.0000 </r>
       <r>    3.8667    0.0000 </r>
       <r>    3.9357    0.0000 </r>
       <r>    6.6911    0.0000 </r>
       <r>    6.7830    0.0000 </r>
       <r>    8.2202    0.0000 </r>
       <r>    8.4980    0.0000 </r>
      </set>
      <set comment="kpoint 18">
       <r>  -34.9643    1.0000 </r>
       <r>  -34.9642    1.0000 </r>
       <r>  -34.9264    1.0000 </r>
       <r>  -34.9261    1.0000 </r>
       <r>  -34.8319    1.0000 </r>
       <r>  -34.8318    1.0000 </r>
       <r>  -13.4085    1.0000 </r>
       <r>  -13.3529    1.0000 </r>
       <r>  -12.4705    1.0000 </r>
       <r>  -12.3896    1.0000 </r>
       <r>   -5.1306    1.0000 </r>
       <r>   -4.8586    1.0000 </r>
       <r>   -3.5735    1.0000 </r>
       <r>   -3.5393    1.0000 </r>
       <r>   -3.2356    1.0000 </r>
       <r>   -3.0055    1.0000 </r>
       <r>   -2.4726    1.0000 </r>
       <r>   -2.4390    1.0000 </r>
       <r>   -2.0782    1.0000 </r>
       <r>   -2.0731    1.0000 </r>
       <r>   -1.1996    1.0000 </r>
       <r>   -0.8816    1.0000 </r>
       <r>   -0.5546    1.0000 </r>
       <r>   -0.3906    1.0000 </r>
       <r>    1.9436   -0.0000 </r>
       <r>    2.1858   -0.0000 </r>
       <r>    2.3829   -0.0000 </r>
       <r>    2.4305   -0.0000 </r>
       <r>    2.4535   -0.0000 </r>
       <r>    2.6330   -0.0000 </r>
       <r>    3.5230    0.0000 </r>
       <r>    3.5648    0.0000 </r>
       <r>    6.0983    0.0000 </r>
       <r>    6.2070    0.0000 </r>
       <r>    7.7985    0.0000 </r>
       <r>    8.2646    0.0000 </r>
      </set>
      <set comment="kpoint 19">
       <r>  -34.9780    1.0000 </r>
       <r>  -34.9779    1.0000 </r>
       <r>  -34.8588    1.0000 </r>
       <r>  -34.8585    1.0000 </r>
       <r>  -34.8134    1.0000 </r>
       <r>  -34.8133    1.0000 </r>
       <r>  -13.7209    1.0000 </r>
       <r>  -13.6640    1.0000 </r>
       <r>  -12.6025    1.0000 </r>
       <r>  -12.5131    1.0000 </r>
       <r>   -5.4102    1.0000 </r>
       <r>   -5.1165    1.0000 </r>
       <r>   -3.1245    1.0000 </r>
       <r>   -3.1139    1.0000 </r>
       <r>   -2.8027    1.0000 </r>
       <r>   -2.4842    1.0000 </r>
       <r>   -2.3606    1.0000 </r>
       <r>   -2.3590    1.0000 </r>
       <r>   -1.9803    1.0000 </r>
       <r>   -1.9718    1.0000 </r>
       <r>   -1.2182    1.0000 </r>
       <r>   -0.8756    1.0000 </r>
       <r>   -0.3240    1.0000 </r>
       <r>   -0.0174    1.0003 </r>
       <r>    2.2731   -0.0000 </r>
       <r>    2.4193   -0.0000 </r>
       <r>    2.4500   -0.0000 </r>
       <r>    2.5600   -0.0000 </r>
       <r>    2.6198   -0.0000 </r>
       <r>    2.6414   -0.0000 </r>
       <r>    3.1267    0.0000 </r>
       <r>    3.1399    0.0000 </r>
       <r>    5.6665    0.0000 </r>
       <r>    5.7766    0.0000 </r>
       <r>    7.2729    0.0000 </r>
       <r>    7.5966    0.0000 </r>
      </set>
      <set comment="kpoint 20">
       <r>  -34.9857    1.0000 </r>
       <r>  -34.9856    1.0000 </r>
       <r>  -34.8197    1.0000 </r>
       <r>  -34.8196    1.0000 </r>
       <r>  -34.8034    1.0000 </r>
       <r>  -34.8033    1.0000 </r>
       <r>  -13.8885    1.0000 </r>
       <r>  -13.8313    1.0000 </r>
       <r>  -12.6734    1.0000 </r>
       <r>  -12.5797    1.0000 </r>
       <r>   -5.5916    1.0000 </r>
       <r>   -5.2956    1.0000 </r>
       <r>   -2.8085    1.0000 </r>
       <r>   -2.8029    1.0000 </r>
       <r>   -2.5291    1.0000 </r>
       <r>   -2.5273    1.0000 </r>
       <r>   -2.4668    1.0000 </r>
       <r>   -2.0693    1.0000 </r>
       <r>   -1.6641    1.0000 </r>
       <r>   -1.6617    1.0000 </r>
       <r>   -1.3722    1.0000 </r>
       <r>   -1.0596    1.0000 </r>
       <r>   -0.2487    1.0000 </r>
       <r>    0.1553    1.0317 </r>
       <r>    2.5618   -0.0000 </r>
       <r>    2.6092   -0.0000 </r>
       <r>    2.6325   -0.0000 </r>
       <r>    2.7330   -0.0000 </r>
       <r>    2.7878   -0.0000 </r>
       <r>    2.8001   -0.0000 </r>
       <r>    2.8492   -0.0000 </r>
       <r>    2.8575   -0.0000 </r>
       <r>    5.4205    0.0000 </r>
       <r>    5.5356    0.0000 </r>
       <r>    6.7462    0.0000 </r>
       <r>    6.9299    0.0000 </r>
      </set>
      <set comment="kpoint 21">
       <r>  -34.9744    1.0000 </r>
       <r>  -34.9742    1.0000 </r>
       <r>  -34.8782    1.0000 </r>
       <r>  -34.8782    1.0000 </r>
       <r>  -34.8168    1.0000 </r>
       <r>  -34.8166    1.0000 </r>
       <r>  -13.6399    1.0000 </r>
       <r>  -13.5836    1.0000 </r>
       <r>  -12.5681    1.0000 </r>
       <r>  -12.4815    1.0000 </r>
       <r>   -5.3312    1.0000 </r>
       <r>   -5.0419    1.0000 </r>
       <r>   -3.2628    1.0000 </r>
       <r>   -3.2473    1.0000 </r>
       <r>   -2.9643    1.0000 </r>
       <r>   -2.6859    1.0000 </r>
       <r>   -2.2744    1.0000 </r>
       <r>   -2.2704    1.0000 </r>
       <r>   -2.0010    1.0000 </r>
       <r>   -1.9948    1.0000 </r>
       <r>   -1.2831    1.0000 </r>
       <r>   -0.9348    1.0000 </r>
       <r>   -0.3776    1.0000 </r>
       <r>   -0.1274    1.0000 </r>
       <r>    2.1712   -0.0000 </r>
       <r>    2.3606   -0.0000 </r>
       <r>    2.4909   -0.0000 </r>
       <r>    2.5522   -0.0000 </r>
       <r>    2.5787   -0.0000 </r>
       <r>    2.6239   -0.0000 </r>
       <r>    3.1914    0.0000 </r>
       <r>    3.2127    0.0000 </r>
       <r>    5.7710    0.0000 </r>
       <r>    5.8841    0.0000 </r>
       <r>    7.4038    0.0000 </r>
       <r>    7.8172    0.0000 </r>
      </set>
      <set comment="kpoint 22">
       <r>  -34.9643    1.0000 </r>
       <r>  -34.9642    1.0000 </r>
       <r>  -34.9263    1.0000 </r>
       <r>  -34.9262    1.0000 </r>
       <r>  -34.8319    1.0000 </r>
       <r>  -34.8317    1.0000 </r>
       <r>  -13.4081    1.0000 </r>
       <r>  -13.3532    1.0000 </r>
       <r>  -12.4699    1.0000 </r>
       <r>  -12.3903    1.0000 </r>
       <r>   -5.1299    1.0000 </r>
       <r>   -4.8590    1.0000 </r>
       <r>   -3.5728    1.0000 </r>
       <r>   -3.5398    1.0000 </r>
       <r>   -3.2368    1.0000 </r>
       <r>   -3.0045    1.0000 </r>
       <r>   -2.4708    1.0000 </r>
       <r>   -2.4402    1.0000 </r>
       <r>   -2.0792    1.0000 </r>
       <r>   -2.0719    1.0000 </r>
       <r>   -1.1897    1.0000 </r>
       <r>   -0.8892    1.0000 </r>
       <r>   -0.5519    1.0000 </r>
       <r>   -0.4028    1.0000 </r>
       <r>    1.9497   -0.0000 </r>
       <r>    2.1871   -0.0000 </r>
       <r>    2.3809   -0.0000 </r>
       <r>    2.4243   -0.0000 </r>
       <r>    2.4646   -0.0000 </r>
       <r>    2.6280   -0.0000 </r>
       <r>    3.5176    0.0000 </r>
       <r>    3.5717    0.0000 </r>
       <r>    6.0984    0.0000 </r>
       <r>    6.2067    0.0000 </r>
       <r>    7.7953    0.0000 </r>
       <r>    8.2461    0.0000 </r>
      </set>
      <set comment="kpoint 23">
       <r>  -34.9884    1.0000 </r>
       <r>  -34.9883    1.0000 </r>
       <r>  -34.9500    1.0000 </r>
       <r>  -34.9499    1.0000 </r>
       <r>  -34.8582    1.0000 </r>
       <r>  -34.8581    1.0000 </r>
       <r>  -13.0591    1.0000 </r>
       <r>  -13.0071    1.0000 </r>
       <r>  -12.3218    1.0000 </r>
       <r>  -12.2527    1.0000 </r>
       <r>   -4.9563    1.0000 </r>
       <r>   -4.7541    1.0000 </r>
       <r>   -3.8234    1.0000 </r>
       <r>   -3.7305    1.0000 </r>
       <r>   -3.5255    1.0000 </r>
       <r>   -3.3994    1.0000 </r>
       <r>   -3.1005    1.0000 </r>
       <r>   -2.9943    1.0000 </r>
       <r>   -1.9529    1.0000 </r>
       <r>   -1.9356    1.0000 </r>
       <r>   -1.1682    1.0000 </r>
       <r>   -0.9278    1.0000 </r>
       <r>   -0.7909    1.0000 </r>
       <r>   -0.7154    1.0000 </r>
       <r>    1.7518   -0.0000 </r>
       <r>    1.9899   -0.0000 </r>
       <r>    2.3125   -0.0000 </r>
       <r>    2.4048   -0.0000 </r>
       <r>    2.5143   -0.0000 </r>
       <r>    2.7098   -0.0000 </r>
       <r>    3.9073    0.0000 </r>
       <r>    3.9969    0.0000 </r>
       <r>    6.6157    0.0000 </r>
       <r>    6.7134    0.0000 </r>
       <r>    8.3278    0.0000 </r>
       <r>    8.6483    0.0000 </r>
      </set>
      <set comment="kpoint 24">
       <r>  -35.0513    1.0000 </r>
       <r>  -35.0511    1.0000 </r>
       <r>  -34.9348    1.0000 </r>
       <r>  -34.9347    1.0000 </r>
       <r>  -34.8885    1.0000 </r>
       <r>  -34.8885    1.0000 </r>
       <r>  -12.6526    1.0000 </r>
       <r>  -12.6056    1.0000 </r>
       <r>  -12.1495    1.0000 </r>
       <r>  -12.0930    1.0000 </r>
       <r>   -5.0303    1.0000 </r>
       <r>   -4.9235    1.0000 </r>
       <r>   -4.1053    1.0000 </r>
       <r>   -4.0581    1.0000 </r>
       <r>   -3.7995    1.0000 </r>
       <r>   -3.6438    1.0000 </r>
       <r>   -3.3189    1.0000 </r>
       <r>   -3.1640    1.0000 </r>
       <r>   -2.0838    1.0000 </r>
       <r>   -2.0528    1.0000 </r>
       <r>   -1.3852    1.0000 </r>
       <r>   -1.1704    1.0000 </r>
       <r>   -0.8494    1.0000 </r>
       <r>   -0.8053    1.0000 </r>
       <r>    1.7778   -0.0000 </r>
       <r>    2.0435   -0.0000 </r>
       <r>    2.3837   -0.0000 </r>
       <r>    2.4475   -0.0000 </r>
       <r>    2.7744   -0.0000 </r>
       <r>    2.9659   -0.0000 </r>
       <r>    4.1604    0.0000 </r>
       <r>    4.2802    0.0000 </r>
       <r>    7.2566    0.0000 </r>
       <r>    7.3395    0.0000 </r>
       <r>    8.0900    0.0000 </r>
       <r>    8.5822    0.0000 </r>
      </set>
      <set comment="kpoint 25">
       <r>  -35.1019    1.0000 </r>
       <r>  -35.1017    1.0000 </r>
       <r>  -34.9222    1.0000 </r>
       <r>  -34.9221    1.0000 </r>
       <r>  -34.9145    1.0000 </r>
       <r>  -34.9145    1.0000 </r>
       <r>  -12.2778    1.0000 </r>
       <r>  -12.2378    1.0000 </r>
       <r>  -11.9913    1.0000 </r>
       <r>  -11.9477    1.0000 </r>
       <r>   -5.2277    1.0000 </r>
       <r>   -5.1647    1.0000 </r>
       <r>   -4.6452    1.0000 </r>
       <r>   -4.6087    1.0000 </r>
       <r>   -3.8256    1.0000 </r>
       <r>   -3.6674    1.0000 </r>
       <r>   -3.2896    1.0000 </r>
       <r>   -3.1632    1.0000 </r>
       <r>   -2.2233    1.0000 </r>
       <r>   -2.1705    1.0000 </r>
       <r>   -1.7226    1.0000 </r>
       <r>   -1.5048    1.0000 </r>
       <r>   -0.6729    1.0000 </r>
       <r>   -0.6354    1.0000 </r>
       <r>    2.0001   -0.0000 </r>
       <r>    2.2167   -0.0000 </r>
       <r>    2.5058   -0.0000 </r>
       <r>    2.5504   -0.0000 </r>
       <r>    3.1253    0.0000 </r>
       <r>    3.2820    0.0000 </r>
       <r>    4.2319    0.0000 </r>
       <r>    4.3826    0.0000 </r>
       <r>    7.0778    0.0000 </r>
       <r>    7.4731    0.0000 </r>
       <r>    8.0782    0.0000 </r>
       <r>    8.3465    0.0000 </r>
      </set>
      <set comment="kpoint 26">
       <r>  -35.1301    1.0000 </r>
       <r>  -35.1298    1.0000 </r>
       <r>  -34.9294    1.0000 </r>
       <r>  -34.9294    1.0000 </r>
       <r>  -34.9150    1.0000 </r>
       <r>  -34.9149    1.0000 </r>
       <r>  -12.0465    1.0000 </r>
       <r>  -12.0120    1.0000 </r>
       <r>  -11.8941    1.0000 </r>
       <r>  -11.8590    1.0000 </r>
       <r>   -5.3551    1.0000 </r>
       <r>   -5.3117    1.0000 </r>
       <r>   -4.9529    1.0000 </r>
       <r>   -4.9170    1.0000 </r>
       <r>   -3.9598    1.0000 </r>
       <r>   -3.8197    1.0000 </r>
       <r>   -3.1950    1.0000 </r>
       <r>   -3.1152    1.0000 </r>
       <r>   -2.2408    1.0000 </r>
       <r>   -2.1536    1.0000 </r>
       <r>   -1.9760    1.0000 </r>
       <r>   -1.7453    1.0000 </r>
       <r>   -0.4448    1.0000 </r>
       <r>   -0.3956    1.0000 </r>
       <r>    2.0556   -0.0000 </r>
       <r>    2.1096   -0.0000 </r>
       <r>    2.7579   -0.0000 </r>
       <r>    2.8536   -0.0000 </r>
       <r>    3.3818    0.0000 </r>
       <r>    3.5041    0.0000 </r>
       <r>    4.1860    0.0000 </r>
       <r>    4.3624    0.0000 </r>
       <r>    6.3805    0.0000 </r>
       <r>    6.8533    0.0000 </r>
       <r>    8.7342    0.0000 </r>
       <r>    8.8370    0.0000 </r>
      </set>
      <set comment="kpoint 27">
       <r>  -35.1301    1.0000 </r>
       <r>  -35.1298    1.0000 </r>
       <r>  -34.9294    1.0000 </r>
       <r>  -34.9294    1.0000 </r>
       <r>  -34.9150    1.0000 </r>
       <r>  -34.9149    1.0000 </r>
       <r>  -12.0476    1.0000 </r>
       <r>  -12.0113    1.0000 </r>
       <r>  -11.8948    1.0000 </r>
       <r>  -11.8580    1.0000 </r>
       <r>   -5.3553    1.0000 </r>
       <r>   -5.3112    1.0000 </r>
       <r>   -4.9534    1.0000 </r>
       <r>   -4.9167    1.0000 </r>
       <r>   -3.9600    1.0000 </r>
       <r>   -3.8195    1.0000 </r>
       <r>   -3.1942    1.0000 </r>
       <r>   -3.1167    1.0000 </r>
       <r>   -2.2512    1.0000 </r>
       <r>   -2.1485    1.0000 </r>
       <r>   -1.9717    1.0000 </r>
       <r>   -1.7421    1.0000 </r>
       <r>   -0.4450    1.0000 </r>
       <r>   -0.3958    1.0000 </r>
       <r>    2.0577   -0.0000 </r>
       <r>    2.1076   -0.0000 </r>
       <r>    2.7584   -0.0000 </r>
       <r>    2.8527   -0.0000 </r>
       <r>    3.3603    0.0000 </r>
       <r>    3.5278    0.0000 </r>
       <r>    4.1866    0.0000 </r>
       <r>    4.3618    0.0000 </r>
       <r>    6.3795    0.0000 </r>
       <r>    6.8527    0.0000 </r>
       <r>    8.6767    0.0000 </r>
       <r>    8.7755    0.0000 </r>
      </set>
      <set comment="kpoint 28">
       <r>  -35.1019    1.0000 </r>
       <r>  -35.1016    1.0000 </r>
       <r>  -34.9223    1.0000 </r>
       <r>  -34.9221    1.0000 </r>
       <r>  -34.9145    1.0000 </r>
       <r>  -34.9144    1.0000 </r>
       <r>  -12.2797    1.0000 </r>
       <r>  -12.2364    1.0000 </r>
       <r>  -11.9930    1.0000 </r>
       <r>  -11.9456    1.0000 </r>
       <r>   -5.2277    1.0000 </r>
       <r>   -5.1641    1.0000 </r>
       <r>   -4.6467    1.0000 </r>
       <r>   -4.6071    1.0000 </r>
       <r>   -3.8284    1.0000 </r>
       <r>   -3.6655    1.0000 </r>
       <r>   -3.2911    1.0000 </r>
       <r>   -3.1637    1.0000 </r>
       <r>   -2.2364    1.0000 </r>
       <r>   -2.1614    1.0000 </r>
       <r>   -1.7203    1.0000 </r>
       <r>   -1.4968    1.0000 </r>
       <r>   -0.6731    1.0000 </r>
       <r>   -0.6364    1.0000 </r>
       <r>    2.0032   -0.0000 </r>
       <r>    2.2113   -0.0000 </r>
       <r>    2.5040   -0.0000 </r>
       <r>    2.5539   -0.0000 </r>
       <r>    3.1000    0.0000 </r>
       <r>    3.3113    0.0000 </r>
       <r>    4.2314    0.0000 </r>
       <r>    4.3816    0.0000 </r>
       <r>    7.0801    0.0000 </r>
       <r>    7.4706    0.0000 </r>
       <r>    8.0716    0.0000 </r>
       <r>    8.3144    0.0000 </r>
      </set>
      <set comment="kpoint 29">
       <r>  -35.0513    1.0000 </r>
       <r>  -35.0510    1.0000 </r>
       <r>  -34.9348    1.0000 </r>
       <r>  -34.9347    1.0000 </r>
       <r>  -34.8885    1.0000 </r>
       <r>  -34.8885    1.0000 </r>
       <r>  -12.6543    1.0000 </r>
       <r>  -12.6043    1.0000 </r>
       <r>  -12.1512    1.0000 </r>
       <r>  -12.0909    1.0000 </r>
       <r>   -5.0296    1.0000 </r>
       <r>   -4.9237    1.0000 </r>
       <r>   -4.1071    1.0000 </r>
       <r>   -4.0537    1.0000 </r>
       <r>   -3.8104    1.0000 </r>
       <r>   -3.6370    1.0000 </r>
       <r>   -3.3217    1.0000 </r>
       <r>   -3.1621    1.0000 </r>
       <r>   -2.0816    1.0000 </r>
       <r>   -2.0560    1.0000 </r>
       <r>   -1.3927    1.0000 </r>
       <r>   -1.1556    1.0000 </r>
       <r>   -0.8461    1.0000 </r>
       <r>   -0.8076    1.0000 </r>
       <r>    1.7761   -0.0000 </r>
       <r>    2.0434   -0.0000 </r>
       <r>    2.3826   -0.0000 </r>
       <r>    2.4513   -0.0000 </r>
       <r>    2.7593   -0.0000 </r>
       <r>    2.9800   -0.0000 </r>
       <r>    4.1581    0.0000 </r>
       <r>    4.2805    0.0000 </r>
       <r>    7.2570    0.0000 </r>
       <r>    7.3399    0.0000 </r>
       <r>    8.1170    0.0000 </r>
       <r>    8.5366    0.0000 </r>
      </set>
      <set comment="kpoint 30">
       <r>  -34.9885    1.0000 </r>
       <r>  -34.9882    1.0000 </r>
       <r>  -34.9500    1.0000 </r>
       <r>  -34.9499    1.0000 </r>
       <r>  -34.8582    1.0000 </r>
       <r>  -34.8582    1.0000 </r>
       <r>  -13.0604    1.0000 </r>
       <r>  -13.0061    1.0000 </r>
       <r>  -12.3233    1.0000 </r>
       <r>  -12.2510    1.0000 </r>
       <r>   -4.9561    1.0000 </r>
       <r>   -4.7547    1.0000 </r>
       <r>   -3.8308    1.0000 </r>
       <r>   -3.7212    1.0000 </r>
       <r>   -3.5271    1.0000 </r>
       <r>   -3.4000    1.0000 </r>
       <r>   -3.1051    1.0000 </r>
       <r>   -2.9905    1.0000 </r>
       <r>   -1.9496    1.0000 </r>
       <r>   -1.9392    1.0000 </r>
       <r>   -1.1870    1.0000 </r>
       <r>   -0.9147    1.0000 </r>
       <r>   -0.7914    1.0000 </r>
       <r>   -0.6988    1.0000 </r>
       <r>    1.7470   -0.0000 </r>
       <r>    1.9907   -0.0000 </r>
       <r>    2.3108   -0.0000 </r>
       <r>    2.4079   -0.0000 </r>
       <r>    2.5062   -0.0000 </r>
       <r>    2.7135   -0.0000 </r>
       <r>    3.9102    0.0000 </r>
       <r>    3.9928    0.0000 </r>
       <r>    6.6152    0.0000 </r>
       <r>    6.7149    0.0000 </r>
       <r>    8.3262    0.0000 </r>
       <r>    8.6676    0.0000 </r>
      </set>
      <set comment="kpoint 31">
       <r>  -34.9643    1.0000 </r>
       <r>  -34.9641    1.0000 </r>
       <r>  -34.9263    1.0000 </r>
       <r>  -34.9261    1.0000 </r>
       <r>  -34.8319    1.0000 </r>
       <r>  -34.8319    1.0000 </r>
       <r>  -13.4088    1.0000 </r>
       <r>  -13.3526    1.0000 </r>
       <r>  -12.4710    1.0000 </r>
       <r>  -12.3891    1.0000 </r>
       <r>   -5.1310    1.0000 </r>
       <r>   -4.8583    1.0000 </r>
       <r>   -3.5766    1.0000 </r>
       <r>   -3.5361    1.0000 </r>
       <r>   -3.2360    1.0000 </r>
       <r>   -3.0045    1.0000 </r>
       <r>   -2.4715    1.0000 </r>
       <r>   -2.4409    1.0000 </r>
       <r>   -2.0772    1.0000 </r>
       <r>   -2.0740    1.0000 </r>
       <r>   -1.2124    1.0000 </r>
       <r>   -0.8727    1.0000 </r>
       <r>   -0.5574    1.0000 </r>
       <r>   -0.3772    1.0000 </r>
       <r>    1.9354   -0.0000 </r>
       <r>    2.1856   -0.0000 </r>
       <r>    2.3865   -0.0000 </r>
       <r>    2.4179   -0.0000 </r>
       <r>    2.4599   -0.0000 </r>
       <r>    2.6359   -0.0000 </r>
       <r>    3.5300    0.0000 </r>
       <r>    3.5587    0.0000 </r>
       <r>    6.0972    0.0000 </r>
       <r>    6.2082    0.0000 </r>
       <r>    7.8006    0.0000 </r>
       <r>    8.3111    0.0000 </r>
      </set>
      <set comment="kpoint 32">
       <r>  -34.9744    1.0000 </r>
       <r>  -34.9742    1.0000 </r>
       <r>  -34.8782    1.0000 </r>
       <r>  -34.8781    1.0000 </r>
       <r>  -34.8168    1.0000 </r>
       <r>  -34.8167    1.0000 </r>
       <r>  -13.6402    1.0000 </r>
       <r>  -13.5833    1.0000 </r>
       <r>  -12.5687    1.0000 </r>
       <r>  -12.4810    1.0000 </r>
       <r>   -5.3320    1.0000 </r>
       <r>   -5.0412    1.0000 </r>
       <r>   -3.2647    1.0000 </r>
       <r>   -3.2456    1.0000 </r>
       <r>   -2.9635    1.0000 </r>
       <r>   -2.6856    1.0000 </r>
       <r>   -2.2733    1.0000 </r>
       <r>   -2.2714    1.0000 </r>
       <r>   -1.9993    1.0000 </r>
       <r>   -1.9966    1.0000 </r>
       <r>   -1.3020    1.0000 </r>
       <r>   -0.9204    1.0000 </r>
       <r>   -0.3817    1.0000 </r>
       <r>   -0.1086    1.0000 </r>
       <r>    2.1485   -0.0000 </r>
       <r>    2.3629   -0.0000 </r>
       <r>    2.4845   -0.0000 </r>
       <r>    2.5611   -0.0000 </r>
       <r>    2.5706   -0.0000 </r>
       <r>    2.6380   -0.0000 </r>
       <r>    3.1966    0.0000 </r>
       <r>    3.2071    0.0000 </r>
       <r>    5.7760    0.0000 </r>
       <r>    5.8855    0.0000 </r>
       <r>    7.4173    0.0000 </r>
       <r>    7.8340    0.0000 </r>
      </set>
      <set comment="kpoint 33">
       <r>  -34.9780    1.0000 </r>
       <r>  -34.9779    1.0000 </r>
       <r>  -34.8587    1.0000 </r>
       <r>  -34.8586    1.0000 </r>
       <r>  -34.8135    1.0000 </r>
       <r>  -34.8132    1.0000 </r>
       <r>  -13.7209    1.0000 </r>
       <r>  -13.6640    1.0000 </r>
       <r>  -12.6025    1.0000 </r>
       <r>  -12.5131    1.0000 </r>
       <r>   -5.4102    1.0000 </r>
       <r>   -5.1165    1.0000 </r>
       <r>   -3.1245    1.0000 </r>
       <r>   -3.1139    1.0000 </r>
       <r>   -2.8027    1.0000 </r>
       <r>   -2.4842    1.0000 </r>
       <r>   -2.3606    1.0000 </r>
       <r>   -2.3590    1.0000 </r>
       <r>   -1.9803    1.0000 </r>
       <r>   -1.9718    1.0000 </r>
       <r>   -1.2182    1.0000 </r>
       <r>   -0.8756    1.0000 </r>
       <r>   -0.3240    1.0000 </r>
       <r>   -0.0174    1.0003 </r>
       <r>    2.2731   -0.0000 </r>
       <r>    2.4193   -0.0000 </r>
       <r>    2.4500   -0.0000 </r>
       <r>    2.5600   -0.0000 </r>
       <r>    2.6198   -0.0000 </r>
       <r>    2.6414   -0.0000 </r>
       <r>    3.1267    0.0000 </r>
       <r>    3.1399    0.0000 </r>
       <r>    5.6666    0.0000 </r>
       <r>    5.7765    0.0000 </r>
       <r>    7.2629    0.0000 </r>
       <r>    7.6070    0.0000 </r>
      </set>
      <set comment="kpoint 34">
       <r>  -34.9600    1.0000 </r>
       <r>  -34.9598    1.0000 </r>
       <r>  -34.9580    1.0000 </r>
       <r>  -34.9579    1.0000 </r>
       <r>  -34.8356    1.0000 </r>
       <r>  -34.8354    1.0000 </r>
       <r>  -13.2646    1.0000 </r>
       <r>  -13.2104    1.0000 </r>
       <r>  -12.4102    1.0000 </r>
       <r>  -12.3344    1.0000 </r>
       <r>   -5.0666    1.0000 </r>
       <r>   -4.8260    1.0000 </r>
       <r>   -3.7332    1.0000 </r>
       <r>   -3.6717    1.0000 </r>
       <r>   -3.4920    1.0000 </r>
       <r>   -3.3055    1.0000 </r>
       <r>   -2.3967    1.0000 </r>
       <r>   -2.3893    1.0000 </r>
       <r>   -1.9064    1.0000 </r>
       <r>   -1.8997    1.0000 </r>
       <r>   -1.4571    1.0000 </r>
       <r>   -1.1231    1.0000 </r>
       <r>   -0.6955    1.0000 </r>
       <r>   -0.5770    1.0000 </r>
       <r>    1.9408   -0.0000 </r>
       <r>    2.2373   -0.0000 </r>
       <r>    2.3030   -0.0000 </r>
       <r>    2.3291   -0.0000 </r>
       <r>    2.6878   -0.0000 </r>
[...]
       <r>    -2.2155     1.6659    18.4263 </r>
       <r>    -2.0535     3.0807    18.9252 </r>
       <r>    -1.8915     4.1024    19.5897 </r>
       <r>    -1.7295     2.6610    20.0207 </r>
       <r>    -1.5676     3.2373    20.5450 </r>
       <r>    -1.4056     3.3002    21.0796 </r>
       <r>    -1.2436     1.7139    21.3572 </r>
       <r>    -1.0817     2.1912    21.7121 </r>
       <r>    -0.9197     1.5809    21.9681 </r>
       <r>    -0.7577     3.7510    22.5757 </r>
       <r>    -0.5958     2.9237    23.0492 </r>
       <r>    -0.4338     2.1038    23.3900 </r>
       <r>    -0.2718     2.1510    23.7383 </r>
       <r>    -0.1099     0.9737    23.8961 </r>
       <r>     0.0521     0.3815    23.9578 </r>
       <r>     0.2141     0.2236    23.9940 </r>
       <r>     0.3760     0.0385    24.0003 </r>
       <r>     0.5380    -0.0017    24.0000 </r>
       <r>     0.7000    -0.0000    24.0000 </r>
       <r>     0.8619    -0.0000    24.0000 </r>
       <r>     1.0239    -0.0000    24.0000 </r>
       <r>     1.1859    -0.0000    24.0000 </r>
       <r>     1.3478    -0.0000    24.0000 </r>
       <r>     1.5098    -0.0081    23.9987 </r>
       <r>     1.6718     0.1552    24.0238 </r>
       <r>     1.8338     1.2467    24.2257 </r>
       <r>     1.9957     2.6367    24.6528 </r>
       <r>     2.1577     5.2175    25.4979 </r>
       <r>     2.3197     3.6923    26.0959 </r>
       <r>     2.4816     4.8324    26.8786 </r>
       <r>     2.6436     4.9336    27.6777 </r>
       <r>     2.8056     3.4571    28.2376 </r>
       <r>     2.9675     2.8891    28.7056 </r>
       <r>     3.1295     2.6401    29.1332 </r>
       <r>     3.2915     2.4999    29.5381 </r>
       <r>     3.4534     1.6469    29.8048 </r>
       <r>     3.6154     2.1777    30.1576 </r>
       <r>     3.7774     0.9157    30.3059 </r>
       <r>     3.9393     1.8924    30.6124 </r>
       <r>     4.1013     2.1397    30.9590 </r>
       <r>     4.2633     2.9867    31.4427 </r>
       <r>     4.4252     1.5246    31.6897 </r>
       <r>     4.5872     1.0150    31.8541 </r>
       <r>     4.7492     0.7511    31.9757 </r>
       <r>     4.9111     0.1579    32.0013 </r>
       <r>     5.0731    -0.0082    32.0000 </r>
       <r>     5.2351     0.0023    32.0003 </r>
       <r>     5.3970     0.1140    32.0188 </r>
       <r>     5.5590     0.3273    32.0718 </r>
       <r>     5.7210     0.3078    32.1217 </r>
       <r>     5.8830     0.5635    32.2129 </r>
       <r>     6.0449     0.4296    32.2825 </r>
       <r>     6.2069     0.7811    32.4090 </r>
       <r>     6.3689     0.8472    32.5463 </r>
       <r>     6.5308     1.0349    32.7139 </r>
       <r>     6.6928     0.8821    32.8568 </r>
       <r>     6.8548     1.6228    33.1196 </r>
       <r>     7.0167     1.8091    33.4126 </r>
       <r>     7.1787     0.7399    33.5325 </r>
       <r>     7.3407     1.7024    33.8082 </r>
       <r>     7.5026     1.8577    34.1091 </r>
       <r>     7.6646     1.0257    34.2752 </r>
       <r>     7.8266     0.8881    34.4191 </r>
       <r>     7.9885     1.2624    34.6235 </r>
       <r>     8.1505     2.3774    35.0086 </r>
       <r>     8.3125     2.3597    35.3908 </r>
       <r>     8.4744     1.2377    35.5913 </r>
       <r>     8.6364     1.1841    35.7830 </r>
       <r>     8.7984     1.0406    35.9516 </r>
       <r>     8.9603     0.2946    35.9993 </r>
       <r>     9.1223     0.0050    36.0001 </r>
       <r>     9.2843    -0.0006    36.0000 </r>
       <r>     9.4463    -0.0000    36.0000 </r>
       <r>     9.6082    -0.0000    36.0000 </r>
       <r>     9.7702     0.0000    36.0000 </r>
       <r>     9.9322     0.0000    36.0000 </r>
       <r>    10.0941     0.0000    36.0000 </r>
       <r>    10.2561     0.0000    36.0000 </r>
       <r>    10.4181     0.0000    36.0000 </r>
       <r>    10.5800     0.0000    36.0000 </r>
       <r>    10.7420     0.0000    36.0000 </r>
       <r>    10.9040     0.0000    36.0000 </r>
       <r>    11.0659     0.0000    36.0000 </r>
       <r>    11.2279     0.0000    36.0000 </r>
      </set>
      <set comment="spin 2">
       <r>   -37.3625     0.0000     0.0000 </r>
       <r>   -37.2006     0.0000     0.0000 </r>
       <r>   -37.0386     0.0000     0.0000 </r>
       <r>   -36.8766     0.0000     0.0000 </r>
       <r>   -36.7147     0.0000     0.0000 </r>
       <r>   -36.5527     0.0000     0.0000 </r>
       <r>   -36.3907     0.0000     0.0000 </r>
       <r>   -36.2288     0.0000     0.0000 </r>
       <r>   -36.0668    -0.0000    -0.0000 </r>
       <r>   -35.9048    -0.0000    -0.0000 </r>
       <r>   -35.7428    -0.0000    -0.0000 </r>
       <r>   -35.5809    -0.0000    -0.0000 </r>
       <r>   -35.4189    -0.0009    -0.0002 </r>
       <r>   -35.2569    -0.1950    -0.0317 </r>
       <r>   -35.0950     4.3338     0.6702 </r>
       <r>   -34.9330    15.6351     3.2026 </r>
       <r>   -34.7710    17.3403     6.0112 </r>
       <r>   -34.6091    -0.0453     6.0038 </r>
       <r>   -34.4471    -0.0237     6.0000 </r>
       <r>   -34.2851    -0.0000     6.0000 </r>
       <r>   -34.1232    -0.0000     6.0000 </r>
       <r>   -33.9612     0.0000     6.0000 </r>
       <r>   -33.7992     0.0000     6.0000 </r>
       <r>   -33.6373     0.0000     6.0000 </r>
       <r>   -33.4753     0.0000     6.0000 </r>
       <r>   -33.3133     0.0000     6.0000 </r>
       <r>   -33.1514     0.0000     6.0000 </r>
       <r>   -32.9894     0.0000     6.0000 </r>
       <r>   -32.8274     0.0000     6.0000 </r>
       <r>   -32.6655     0.0000     6.0000 </r>
       <r>   -32.5035     0.0000     6.0000 </r>
       <r>   -32.3415     0.0000     6.0000 </r>
       <r>   -32.1795     0.0000     6.0000 </r>
       <r>   -32.0176     0.0000     6.0000 </r>
       <r>   -31.8556     0.0000     6.0000 </r>
       <r>   -31.6936     0.0000     6.0000 </r>
       <r>   -31.5317     0.0000     6.0000 </r>
       <r>   -31.3697     0.0000     6.0000 </r>
       <r>   -31.2077     0.0000     6.0000 </r>
       <r>   -31.0458     0.0000     6.0000 </r>
       <r>   -30.8838     0.0000     6.0000 </r>
       <r>   -30.7218     0.0000     6.0000 </r>
       <r>   -30.5599     0.0000     6.0000 </r>
       <r>   -30.3979     0.0000     6.0000 </r>
       <r>   -30.2359     0.0000     6.0000 </r>
       <r>   -30.0740     0.0000     6.0000 </r>
       <r>   -29.9120     0.0000     6.0000 </r>
       <r>   -29.7500     0.0000     6.0000 </r>
       <r>   -29.5881     0.0000     6.0000 </r>
       <r>   -29.4261     0.0000     6.0000 </r>
       <r>   -29.2641     0.0000     6.0000 </r>
       <r>   -29.1022     0.0000     6.0000 </r>
       <r>   -28.9402     0.0000     6.0000 </r>
       <r>   -28.7782     0.0000     6.0000 </r>
       <r>   -28.6163     0.0000     6.0000 </r>
       <r>   -28.4543     0.0000     6.0000 </r>
       <r>   -28.2923     0.0000     6.0000 </r>
       <r>   -28.1303     0.0000     6.0000 </r>
       <r>   -27.9684     0.0000     6.0000 </r>
       <r>   -27.8064     0.0000     6.0000 </r>
       <r>   -27.6444     0.0000     6.0000 </r>
       <r>   -27.4825     0.0000     6.0000 </r>
       <r>   -27.3205     0.0000     6.0000 </r>
       <r>   -27.1585     0.0000     6.0000 </r>
       <r>   -26.9966     0.0000     6.0000 </r>
       <r>   -26.8346     0.0000     6.0000 </r>
       <r>   -26.6726     0.0000     6.0000 </r>
       <r>   -26.5107     0.0000     6.0000 </r>
       <r>   -26.3487     0.0000     6.0000 </r>
       <r>   -26.1867     0.0000     6.0000 </r>
       <r>   -26.0248     0.0000     6.0000 </r>
       <r>   -25.8628     0.0000     6.0000 </r>
       <r>   -25.7008     0.0000     6.0000 </r>
       <r>   -25.5389     0.0000     6.0000 </r>
       <r>   -25.3769     0.0000     6.0000 </r>
       <r>   -25.2149     0.0000     6.0000 </r>
       <r>   -25.0530     0.0000     6.0000 </r>
       <r>   -24.8910     0.0000     6.0000 </r>
       <r>   -24.7290     0.0000     6.0000 </r>
       <r>   -24.5670     0.0000     6.0000 </r>
       <r>   -24.4051     0.0000     6.0000 </r>
       <r>   -24.2431     0.0000     6.0000 </r>
       <r>   -24.0811     0.0000     6.0000 </r>
       <r>   -23.9192     0.0000     6.0000 </r>
       <r>   -23.7572     0.0000     6.0000 </r>
       <r>   -23.5952     0.0000     6.0000 </r>
       <r>   -23.4333     0.0000     6.0000 </r>
       <r>   -23.2713     0.0000     6.0000 </r>
       <r>   -23.1093     0.0000     6.0000 </r>
       <r>   -22.9474     0.0000     6.0000 </r>
       <r>   -22.7854     0.0000     6.0000 </r>
       <r>   -22.6234     0.0000     6.0000 </r>
       <r>   -22.4615     0.0000     6.0000 </r>
       <r>   -22.2995     0.0000     6.0000 </r>
       <r>   -22.1375     0.0000     6.0000 </r>
       <r>   -21.9756     0.0000     6.0000 </r>
       <r>   -21.8136     0.0000     6.0000 </r>
       <r>   -21.6516     0.0000     6.0000 </r>
       <r>   -21.4897     0.0000     6.0000 </r>
       <r>   -21.3277     0.0000     6.0000 </r>
       <r>   -21.1657     0.0000     6.0000 </r>
       <r>   -21.0038     0.0000     6.0000 </r>
       <r>   -20.8418     0.0000     6.0000 </r>
       <r>   -20.6798     0.0000     6.0000 </r>
       <r>   -20.5178     0.0000     6.0000 </r>
       <r>   -20.3559     0.0000     6.0000 </r>
       <r>   -20.1939     0.0000     6.0000 </r>
       <r>   -20.0319     0.0000     6.0000 </r>
       <r>   -19.8700     0.0000     6.0000 </r>
       <r>   -19.7080     0.0000     6.0000 </r>
       <r>   -19.5460     0.0000     6.0000 </r>
       <r>   -19.3841     0.0000     6.0000 </r>
       <r>   -19.2221     0.0000     6.0000 </r>
       <r>   -19.0601     0.0000     6.0000 </r>
       <r>   -18.8982     0.0000     6.0000 </r>
       <r>   -18.7362     0.0000     6.0000 </r>
       <r>   -18.5742     0.0000     6.0000 </r>
       <r>   -18.4123     0.0000     6.0000 </r>
       <r>   -18.2503     0.0000     6.0000 </r>
       <r>   -18.0883     0.0000     6.0000 </r>
       <r>   -17.9264     0.0000     6.0000 </r>
       <r>   -17.7644     0.0000     6.0000 </r>
       <r>   -17.6024     0.0000     6.0000 </r>
       <r>   -17.4405     0.0000     6.0000 </r>
       <r>   -17.2785     0.0000     6.0000 </r>
       <r>   -17.1165     0.0000     6.0000 </r>
       <r>   -16.9545     0.0000     6.0000 </r>
       <r>   -16.7926     0.0000     6.0000 </r>
       <r>   -16.6306     0.0000     6.0000 </r>
       <r>   -16.4686     0.0000     6.0000 </r>
       <r>   -16.3067     0.0000     6.0000 </r>
       <r>   -16.1447     0.0000     6.0000 </r>
       <r>   -15.9827     0.0000     6.0000 </r>
       <r>   -15.8208     0.0000     6.0000 </r>
       <r>   -15.6588     0.0000     6.0000 </r>
       <r>   -15.4968     0.0000     6.0000 </r>
       <r>   -15.3349     0.0000     6.0000 </r>
       <r>   -15.1729     0.0000     6.0000 </r>
       <r>   -15.0109     0.0000     6.0000 </r>
       <r>   -14.8490    -0.0000     6.0000 </r>
       <r>   -14.6870    -0.0000     6.0000 </r>
       <r>   -14.5250    -0.0000     6.0000 </r>
       <r>   -14.3631    -0.0000     6.0000 </r>
       <r>   -14.2011    -0.0001     6.0000 </r>
       <r>   -14.0391    -0.0062     5.9990 </r>
       <r>   -13.8772     0.2306     6.0363 </r>
       <r>   -13.7152     0.4437     6.1082 </r>
       <r>   -13.5532     0.6604     6.2151 </r>
       <r>   -13.3913     0.4216     6.2834 </r>
       <r>   -13.2293     0.7769     6.4093 </r>
       <r>   -13.0673     0.3019     6.4582 </r>
       <r>   -12.9053     1.1197     6.6395 </r>
       <r>   -12.7434     0.4273     6.7087 </r>
       <r>   -12.5814     1.6170     6.9706 </r>
       <r>   -12.4194     2.2868     7.3410 </r>
       <r>   -12.2575     2.7268     7.7827 </r>
       <r>   -12.0955     3.9049     8.4152 </r>
       <r>   -11.9335     5.4885     9.3041 </r>
       <r>   -11.7716     4.0754     9.9642 </r>
       <r>   -11.6096     0.2364    10.0025 </r>
       <r>   -11.4476    -0.0153    10.0000 </r>
       <r>   -11.2857    -0.0000    10.0000 </r>
       <r>   -11.1237    -0.0000    10.0000 </r>
       <r>   -10.9617     0.0000    10.0000 </r>
       <r>   -10.7998     0.0000    10.0000 </r>
       <r>   -10.6378     0.0000    10.0000 </r>
       <r>   -10.4758     0.0000    10.0000 </r>
       <r>   -10.3139     0.0000    10.0000 </r>
       <r>   -10.1519     0.0000    10.0000 </r>
       <r>    -9.9899     0.0000    10.0000 </r>
       <r>    -9.8280     0.0000    10.0000 </r>
       <r>    -9.6660     0.0000    10.0000 </r>
       <r>    -9.5040     0.0000    10.0000 </r>
       <r>    -9.3420     0.0000    10.0000 </r>
       <r>    -9.1801     0.0000    10.0000 </r>
       <r>    -9.0181     0.0000    10.0000 </r>
       <r>    -8.8561     0.0000    10.0000 </r>
       <r>    -8.6942     0.0000    10.0000 </r>
       <r>    -8.5322     0.0000    10.0000 </r>
       <r>    -8.3702     0.0000    10.0000 </r>
       <r>    -8.2083     0.0000    10.0000 </r>
       <r>    -8.0463     0.0000    10.0000 </r>
       <r>    -7.8843     0.0000    10.0000 </r>
       <r>    -7.7224     0.0000    10.0000 </r>
       <r>    -7.5604     0.0000    10.0000 </r>
       <r>    -7.3984     0.0000    10.0000 </r>
       <r>    -7.2365     0.0000    10.0000 </r>
       <r>    -7.0745     0.0000    10.0000 </r>
       <r>    -6.9125     0.0000    10.0000 </r>
       <r>    -6.7506     0.0000    10.0000 </r>
       <r>    -6.5886    -0.0000    10.0000 </r>
       <r>    -6.4266    -0.0000    10.0000 </r>
       <r>    -6.2647    -0.0000    10.0000 </r>
       <r>    -6.1027    -0.0000    10.0000 </r>
       <r>    -5.9407    -0.0002    10.0000 </r>
       <r>    -5.7787    -0.0214     9.9965 </r>
       <r>    -5.6168     0.5623    10.0876 </r>
       <r>    -5.4548     1.2561    10.2910 </r>
       <r>    -5.2928     2.1069    10.6323 </r>
       <r>    -5.1309     2.8235    11.0896 </r>
       <r>    -4.9689     4.7143    11.8532 </r>
       <r>    -4.8069     2.8487    12.3146 </r>
       <r>    -4.6450     2.2951    12.6863 </r>
       <r>    -4.4830     1.6281    12.9500 </r>
       <r>    -4.3210     0.3872    13.0127 </r>
       <r>    -4.1591     0.7262    13.1304 </r>
       <r>    -3.9971     1.8958    13.4374 </r>
       <r>    -3.8351     3.7353    14.0424 </r>
       <r>    -3.6732     4.6898    14.8020 </r>
       <r>    -3.5112     3.0069    15.2890 </r>
       <r>    -3.3492     1.1131    15.4693 </r>
       <r>    -3.1873     3.2568    15.9968 </r>
       <r>    -3.0253     5.4469    16.8790 </r>
       <r>    -2.8633     3.1614    17.3911 </r>
       <r>    -2.7014     1.8313    17.6877 </r>
       <r>    -2.5394     0.9188    17.8365 </r>
       <r>    -2.3774     1.9753    18.1565 </r>
       <r>    -2.2155     1.6660    18.4263 </r>
       <r>    -2.0535     3.0811    18.9253 </r>
       <r>    -1.8915     4.1022    19.5898 </r>
       <r>    -1.7295     2.6616    20.0209 </r>
       <r>    -1.5676     3.2367    20.5451 </r>
       <r>    -1.4056     3.3006    21.0797 </r>
       <r>    -1.2436     1.7134    21.3572 </r>
       <r>    -1.0817     2.1915    21.7121 </r>
       <r>    -0.9197     1.5811    21.9682 </r>
       <r>    -0.7577     3.7505    22.5757 </r>
       <r>    -0.5958     2.9237    23.0492 </r>
       <r>    -0.4338     2.1038    23.3900 </r>
       <r>    -0.2718     2.1510    23.7384 </r>
       <r>    -0.1099     0.9736    23.8961 </r>
       <r>     0.0521     0.3814    23.9578 </r>
       <r>     0.2141     0.2236    23.9941 </r>
       <r>     0.3760     0.0385    24.0003 </r>
       <r>     0.5380    -0.0017    24.0000 </r>
       <r>     0.7000    -0.0000    24.0000 </r>
       <r>     0.8619    -0.0000    24.0000 </r>
       <r>     1.0239    -0.0000    24.0000 </r>
       <r>     1.1859    -0.0000    24.0000 </r>
       <r>     1.3478    -0.0000    24.0000 </r>
       <r>     1.5098    -0.0081    23.9987 </r>
       <r>     1.6718     0.1553    24.0238 </r>
       <r>     1.8338     1.2467    24.2258 </r>
       <r>     1.9957     2.6370    24.6529 </r>
       <r>     2.1577     5.2175    25.4980 </r>
       <r>     2.3197     3.6923    26.0960 </r>
       <r>     2.4816     4.8326    26.8787 </r>
       <r>     2.6436     4.9333    27.6778 </r>
       <r>     2.8056     3.4570    28.2377 </r>
       <r>     2.9675     2.8892    28.7056 </r>
       <r>     3.1295     2.6402    29.1333 </r>
       <r>     3.2915     2.4997    29.5381 </r>
       <r>     3.4534     1.6469    29.8049 </r>
       <r>     3.6154     2.1777    30.1576 </r>
       <r>     3.7774     0.9158    30.3059 </r>
       <r>     3.9393     1.8925    30.6124 </r>
       <r>     4.1013     2.1398    30.9590 </r>
       <r>     4.2633     2.9866    31.4428 </r>
       <r>     4.4252     1.5247    31.6897 </r>
       <r>     4.5872     1.0149    31.8541 </r>
       <r>     4.7492     0.7511    31.9757 </r>
       <r>     4.9111     0.1579    32.0013 </r>
       <r>     5.0731    -0.0081    32.0000 </r>
       <r>     5.2351     0.0008    32.0001 </r>
       <r>     5.3970     0.0945    32.0154 </r>
       <r>     5.5590     0.3286    32.0686 </r>
       <r>     5.7210     0.2966    32.1167 </r>
       <r>     5.8830     0.5692    32.2089 </r>
       <r>     6.0449     0.4308    32.2786 </r>
       <r>     6.2069     0.7533    32.4007 </r>
       <r>     6.3689     0.8697    32.5415 </r>
       <r>     6.5308     1.0507    32.7117 </r>
       <r>     6.6928     0.7611    32.8350 </r>
       <r>     6.8548     1.6787    33.1069 </r>
       <r>     7.0167     1.6409    33.3727 </r>
       <r>     7.1787     0.8481    33.5100 </r>
       <r>     7.3407     1.7352    33.7911 </r>
       <r>     7.5026     1.9515    34.1071 </r>
       <r>     7.6646     0.9947    34.2683 </r>
       <r>     7.8266     0.9405    34.4206 </r>
       <r>     7.9885     1.2811    34.6281 </r>
       <r>     8.1505     2.0954    34.9675 </r>
       <r>     8.3125     2.5241    35.3763 </r>
       <r>     8.4744     1.0752    35.5504 </r>
       <r>     8.6364     0.9708    35.7077 </r>
       <r>     8.7984     1.0312    35.8747 </r>
       <r>     8.9603     0.4869    35.9536 </r>
       <r>     9.1223     0.2984    36.0019 </r>
       <r>     9.2843    -0.0117    36.0000 </r>
       <r>     9.4463    -0.0001    36.0000 </r>
       <r>     9.6082    -0.0000    36.0000 </r>
       <r>     9.7702    -0.0000    36.0000 </r>
       <r>     9.9322     0.0000    36.0000 </r>
       <r>    10.0941     0.0000    36.0000 </r>
       <r>    10.2561     0.0000    36.0000 </r>
       <r>    10.4181     0.0000    36.0000 </r>
       <r>    10.5800     0.0000    36.0000 </r>
       <r>    10.7420     0.0000    36.0000 </r>
       <r>    10.9040     0.0000    36.0000 </r>
       <r>    11.0659     0.0000    36.0000 </r>
       <r>    11.2279     0.0000    36.0000 </r>
      </set>
     </set>
    </array>
   </total>
  </dos>
 </calculation>
 <structure name="finalpos" >
  <crystal>
   <varray name="basis" >
    <v>       3.19031700       0.00000000       0.00000000 </v>
    <v>      -1.59515800       2.76289700       0.00000000 </v>
    <v>       0.00000000       0.00000000      23.14049200 </v>
   </varray>
   <i name="volume">    203.97226633 </i>
   <varray name="rec_basis" >
    <v>       0.31344848       0.18096941       0.00000000 </v>
    <v>       0.00000000       0.36193894       0.00000000 </v>
    <v>       0.00000000       0.00000000       0.04321429 </v>
   </varray>
  </crystal>
  <varray name="positions" >
   <v>       0.66666700       0.33333300       0.06785900 </v>
   <v>       0.33333300       0.66666700       0.00000000 </v>
   <v>       0.33333300       0.66666700       0.13571500 </v>
   <v>       0.95238129       0.61904729       0.35482300 </v>
   <v>       0.61904729       0.95238129       0.28696500 </v>
   <v>       0.61904729       0.95238129       0.42267900 </v>
  </varray>
 </structure>
</modeling>
