  24  24   0   0
  0.4176334E+02  0.3540400E-09  0.1044544E-08  0.2750143E-08  0.5000000E-15
  1.000000000000000E-004
  CAR 
 unknown system                          
      4.10320181    -15.97061992  301      0.41432620      1.00000000
    -15.971  0.0000E+00  0.0000E+00
    -15.904  0.0000E+00  0.0000E+00
    -15.837  0.0000E+00  0.0000E+00
    -15.770  0.0000E+00  0.0000E+00
    -15.703  0.0000E+00  0.0000E+00
    -15.636  0.0000E+00  0.0000E+00
    -15.569  0.0000E+00  0.0000E+00
    -15.502  0.5637E-13  0.3772E-14
    -15.435  0.5130E-10  0.3437E-11
    -15.368  0.1952E-07  0.1310E-08
    -15.301  0.3128E-05  0.2106E-06
    -15.235  0.2141E-03  0.1454E-04
    -15.168  0.6390E-02  0.4421E-03
    -15.101  0.8576E-01  0.6180E-02
    -15.034  0.5366E+00  0.4209E-01
    -14.967  0.1620E+01  0.1505E+00
    -14.900  0.2446E+01  0.3142E+00
    -14.833  0.2177E+01  0.4598E+00
    -14.766  0.1925E+01  0.5886E+00
    -14.699  0.1694E+01  0.7020E+00
    -14.632  0.9338E+00  0.7645E+00
    -14.565  0.8089E+00  0.8186E+00
    -14.499  0.1504E+01  0.9192E+00
    -14.432  0.1529E+01  0.1022E+01
    -14.365  0.6938E+00  0.1068E+01
    -14.298  0.2568E+00  0.1085E+01
    -14.231  0.6684E+00  0.1130E+01
    -14.164  0.1509E+01  0.1231E+01
    -14.097  0.1508E+01  0.1332E+01
    -14.030  0.6597E+00  0.1376E+01
    -13.963  0.1851E+00  0.1388E+01
    -13.896  0.4381E+00  0.1418E+01
    -13.829  0.1318E+01  0.1506E+01
    -13.762  0.1952E+01  0.1636E+01
    -13.696  0.1969E+01  0.1768E+01
    -13.629  0.2459E+01  0.1933E+01
    -13.562  0.3390E+01  0.2159E+01
    -13.495  0.3555E+01  0.2397E+01
    -13.428  0.2687E+01  0.2577E+01
    -13.361  0.1861E+01  0.2702E+01
    -13.294  0.1483E+01  0.2801E+01
    -13.227  0.1524E+01  0.2903E+01
    -13.160  0.2175E+01  0.3048E+01
    -13.093  0.2907E+01  0.3243E+01
    -13.026  0.2919E+01  0.3438E+01
    -12.960  0.2519E+01  0.3607E+01
    -12.893  0.2828E+01  0.3796E+01
    -12.826  0.3988E+01  0.4063E+01
    -12.759  0.5015E+01  0.4398E+01
    -12.692  0.5623E+01  0.4775E+01
    -12.625  0.5812E+01  0.5164E+01
    -12.558  0.4736E+01  0.5481E+01
    -12.491  0.3728E+01  0.5730E+01
    -12.424  0.4487E+01  0.6030E+01
    -12.357  0.5878E+01  0.6424E+01
    -12.290  0.6250E+01  0.6842E+01
    -12.224  0.6181E+01  0.7255E+01
    -12.157  0.6388E+01  0.7683E+01
    -12.090  0.5458E+01  0.8048E+01
    -12.023  0.4508E+01  0.8350E+01
    -11.956  0.5015E+01  0.8685E+01
    -11.889  0.5692E+01  0.9066E+01
    -11.822  0.5650E+01  0.9444E+01
    -11.755  0.5378E+01  0.9804E+01
    -11.688  0.6107E+01  0.1021E+02
    -11.621  0.8051E+01  0.1075E+02
    -11.554  0.9794E+01  0.1141E+02
    -11.487  0.1001E+02  0.1208E+02
    -11.421  0.9434E+01  0.1271E+02
    -11.354  0.8573E+01  0.1328E+02
    -11.287  0.8265E+01  0.1383E+02
    -11.220  0.9474E+01  0.1447E+02
    -11.153  0.1138E+02  0.1523E+02
    -11.086  0.1194E+02  0.1603E+02
    -11.019  0.1161E+02  0.1681E+02
    -10.952  0.1199E+02  0.1761E+02
    -10.885  0.1102E+02  0.1835E+02
    -10.818  0.9545E+01  0.1898E+02
    -10.751  0.9427E+01  0.1962E+02
    -10.685  0.8627E+01  0.2019E+02
    -10.618  0.6717E+01  0.2064E+02
    -10.551  0.4890E+01  0.2097E+02
    -10.484  0.3989E+01  0.2124E+02
    -10.417  0.4071E+01  0.2151E+02
    -10.350  0.3670E+01  0.2175E+02
    -10.283  0.2977E+01  0.2195E+02
    -10.216  0.3392E+01  0.2218E+02
    -10.149  0.4344E+01  0.2247E+02
    -10.082  0.4880E+01  0.2280E+02
    -10.015  0.4724E+01  0.2311E+02
     -9.948  0.3695E+01  0.2336E+02
     -9.882  0.2579E+01  0.2353E+02
     -9.815  0.1662E+01  0.2364E+02
     -9.748  0.1065E+01  0.2372E+02
     -9.681  0.1400E+01  0.2381E+02
     -9.614  0.1657E+01  0.2392E+02
     -9.547  0.9316E+00  0.2398E+02
     -9.480  0.2296E+00  0.2400E+02
     -9.413  0.2466E-01  0.2400E+02
     -9.346  0.5652E-02  0.2400E+02
     -9.279  0.6266E-01  0.2400E+02
     -9.212  0.3939E+00  0.2403E+02
     -9.146  0.1193E+01  0.2411E+02
     -9.079  0.2047E+01  0.2425E+02
     -9.012  0.3030E+01  0.2445E+02
     -8.945  0.4990E+01  0.2478E+02
     -8.878  0.7003E+01  0.2525E+02
     -8.811  0.8262E+01  0.2581E+02
     -8.744  0.9723E+01  0.2646E+02
     -8.677  0.1026E+02  0.2714E+02
     -8.610  0.8648E+01  0.2772E+02
     -8.543  0.6744E+01  0.2817E+02
     -8.476  0.4957E+01  0.2850E+02
     -8.409  0.3068E+01  0.2871E+02
     -8.343  0.2591E+01  0.2888E+02
     -8.276  0.3569E+01  0.2912E+02
     -8.209  0.4023E+01  0.2939E+02
     -8.142  0.2951E+01  0.2959E+02
     -8.075  0.2201E+01  0.2974E+02
     -8.008  0.3523E+01  0.2997E+02
     -7.941  0.5659E+01  0.3035E+02
     -7.874  0.6205E+01  0.3077E+02
     -7.807  0.5434E+01  0.3113E+02
     -7.740  0.4388E+01  0.3142E+02
     -7.673  0.3751E+01  0.3167E+02
     -7.607  0.4532E+01  0.3198E+02
     -7.540  0.6595E+01  0.3242E+02
     -7.473  0.8579E+01  0.3299E+02
     -7.406  0.8776E+01  0.3358E+02
     -7.339  0.7085E+01  0.3405E+02
     -7.272  0.5890E+01  0.3445E+02
     -7.205  0.7107E+01  0.3492E+02
     -7.138  0.9441E+01  0.3555E+02
     -7.071  0.9636E+01  0.3620E+02
     -7.004  0.8988E+01  0.3680E+02
     -6.937  0.1016E+02  0.3748E+02
     -6.870  0.1270E+02  0.3833E+02
     -6.804  0.1346E+02  0.3923E+02
     -6.737  0.1049E+02  0.3993E+02
     -6.670  0.6937E+01  0.4040E+02
     -6.603  0.4418E+01  0.4069E+02
     -6.536  0.3396E+01  0.4092E+02
     -6.469  0.4534E+01  0.4122E+02
     -6.402  0.6545E+01  0.4166E+02
     -6.335  0.6996E+01  0.4213E+02
     -6.268  0.4963E+01  0.4246E+02
     -6.201  0.3034E+01  0.4267E+02
     -6.134  0.3488E+01  0.4290E+02
     -6.068  0.4778E+01  0.4322E+02
     -6.001  0.5471E+01  0.4358E+02
     -5.934  0.6300E+01  0.4401E+02
     -5.867  0.6943E+01  0.4447E+02
     -5.800  0.5795E+01  0.4486E+02
     -5.733  0.3732E+01  0.4511E+02
     -5.666  0.2442E+01  0.4527E+02
     -5.599  0.2218E+01  0.4542E+02
     -5.532  0.3215E+01  0.4563E+02
     -5.465  0.4577E+01  0.4594E+02
     -5.398  0.5542E+01  0.4631E+02
     -5.331  0.6481E+01  0.4675E+02
     -5.265  0.7649E+01  0.4726E+02
     -5.198  0.9342E+01  0.4788E+02
     -5.131  0.1015E+02  0.4856E+02
     -5.064  0.9920E+01  0.4923E+02
     -4.997  0.9788E+01  0.4988E+02
     -4.930  0.9602E+01  0.5052E+02
     -4.863  0.9645E+01  0.5117E+02
     -4.796  0.9882E+01  0.5183E+02
     -4.729  0.9038E+01  0.5243E+02
     -4.662  0.7761E+01  0.5295E+02
     -4.595  0.7361E+01  0.5345E+02
     -4.529  0.8170E+01  0.5399E+02
     -4.462  0.9421E+01  0.5462E+02
     -4.395  0.9854E+01  0.5528E+02
     -4.328  0.1042E+02  0.5598E+02
     -4.261  0.1221E+02  0.5680E+02
     -4.194  0.1438E+02  0.5776E+02
     -4.127  0.1475E+02  0.5875E+02
     -4.060  0.1306E+02  0.5962E+02
     -3.993  0.1174E+02  0.6041E+02
     -3.926  0.1218E+02  0.6122E+02
     -3.859  0.1287E+02  0.6208E+02
     -3.793  0.1258E+02  0.6292E+02
     -3.726  0.1140E+02  0.6369E+02
     -3.659  0.1087E+02  0.6441E+02
     -3.592  0.1198E+02  0.6521E+02
     -3.525  0.1384E+02  0.6614E+02
     -3.458  0.1489E+02  0.6714E+02
     -3.391  0.1506E+02  0.6815E+02
     -3.324  0.1535E+02  0.6917E+02
     -3.257  0.1588E+02  0.7024E+02
     -3.190  0.1669E+02  0.7135E+02
     -3.123  0.1716E+02  0.7250E+02
     -3.056  0.1573E+02  0.7355E+02
     -2.990  0.1361E+02  0.7446E+02
     -2.923  0.1377E+02  0.7538E+02
     -2.856  0.1524E+02  0.7640E+02
     -2.789  0.1609E+02  0.7748E+02
     -2.722  0.1679E+02  0.7860E+02
     -2.655  0.1746E+02  0.7977E+02
     -2.588  0.1750E+02  0.8094E+02
     -2.521  0.1647E+02  0.8205E+02
     -2.454  0.1493E+02  0.8304E+02
     -2.387  0.1439E+02  0.8401E+02
     -2.320  0.1622E+02  0.8509E+02
     -2.254  0.1924E+02  0.8638E+02
     -2.187  0.2013E+02  0.8773E+02
     -2.120  0.1874E+02  0.8898E+02
     -2.053  0.1823E+02  0.9020E+02
     -1.986  0.1853E+02  0.9144E+02
     -1.919  0.1742E+02  0.9261E+02
     -1.852  0.1477E+02  0.9360E+02
     -1.785  0.1208E+02  0.9440E+02
     -1.718  0.1149E+02  0.9517E+02
     -1.651  0.1220E+02  0.9599E+02
     -1.584  0.1193E+02  0.9679E+02
     -1.517  0.1025E+02  0.9747E+02
     -1.451  0.8576E+01  0.9805E+02
     -1.384  0.8758E+01  0.9863E+02
     -1.317  0.9296E+01  0.9925E+02
     -1.250  0.8027E+01  0.9979E+02
     -1.183  0.6498E+01  0.1002E+03
     -1.116  0.7056E+01  0.1007E+03
     -1.049  0.8628E+01  0.1013E+03
     -0.982  0.9279E+01  0.1019E+03
     -0.915  0.8843E+01  0.1025E+03
     -0.848  0.7947E+01  0.1030E+03
     -0.781  0.6701E+01  0.1035E+03
     -0.715  0.4817E+01  0.1038E+03
     -0.648  0.2652E+01  0.1040E+03
     -0.581  0.1987E+01  0.1041E+03
     -0.514  0.2837E+01  0.1043E+03
     -0.447  0.2956E+01  0.1045E+03
     -0.380  0.2166E+01  0.1046E+03
     -0.313  0.2223E+01  0.1048E+03
     -0.246  0.3223E+01  0.1050E+03
     -0.179  0.4786E+01  0.1053E+03
     -0.112  0.5839E+01  0.1057E+03
     -0.045  0.4594E+01  0.1060E+03
      0.022  0.2773E+01  0.1062E+03
      0.088  0.2799E+01  0.1064E+03
      0.155  0.3691E+01  0.1066E+03
      0.222  0.4422E+01  0.1069E+03
      0.289  0.5179E+01  0.1073E+03
      0.356  0.5669E+01  0.1077E+03
      0.423  0.5853E+01  0.1081E+03
      0.490  0.5238E+01  0.1084E+03
      0.557  0.3688E+01  0.1086E+03
      0.624  0.2507E+01  0.1088E+03
      0.691  0.2828E+01  0.1090E+03
      0.758  0.4321E+01  0.1093E+03
      0.824  0.5262E+01  0.1096E+03
      0.891  0.5301E+01  0.1100E+03
      0.958  0.6088E+01  0.1104E+03
      1.025  0.8487E+01  0.1110E+03
      1.092  0.1095E+02  0.1117E+03
      1.159  0.1209E+02  0.1125E+03
      1.226  0.1238E+02  0.1133E+03
      1.293  0.1254E+02  0.1142E+03
      1.360  0.1264E+02  0.1150E+03
      1.427  0.1199E+02  0.1158E+03
      1.494  0.1128E+02  0.1166E+03
      1.561  0.1142E+02  0.1174E+03
      1.627  0.1121E+02  0.1181E+03
      1.694  0.1050E+02  0.1188E+03
      1.761  0.1079E+02  0.1195E+03
      1.828  0.1182E+02  0.1203E+03
      1.895  0.1309E+02  0.1212E+03
      1.962  0.1472E+02  0.1222E+03
      2.029  0.1599E+02  0.1232E+03
      2.096  0.1708E+02  0.1244E+03
      2.163  0.1801E+02  0.1256E+03
      2.230  0.1778E+02  0.1268E+03
      2.297  0.1682E+02  0.1279E+03
      2.363  0.1533E+02  0.1289E+03
      2.430  0.1425E+02  0.1299E+03
      2.497  0.1384E+02  0.1308E+03
      2.564  0.1304E+02  0.1317E+03
      2.631  0.1189E+02  0.1325E+03
      2.698  0.1117E+02  0.1332E+03
      2.765  0.1031E+02  0.1339E+03
      2.832  0.9097E+01  0.1345E+03
      2.899  0.7824E+01  0.1351E+03
      2.966  0.6237E+01  0.1355E+03
      3.033  0.4231E+01  0.1358E+03
      3.100  0.2325E+01  0.1359E+03
      3.166  0.1002E+01  0.1360E+03
      3.233  0.2886E+00  0.1360E+03
      3.300  0.4535E-01  0.1360E+03
      3.367  0.3421E-02  0.1360E+03
      3.434  0.1161E-03  0.1360E+03
      3.501  0.1716E-05  0.1360E+03
      3.568  0.1081E-07  0.1360E+03
      3.635  0.2871E-10  0.1360E+03
      3.702  0.3178E-13  0.1360E+03
      3.769  0.0000E+00  0.1360E+03
      3.836  0.0000E+00  0.1360E+03
      3.902  0.0000E+00  0.1360E+03
      3.969  0.0000E+00  0.1360E+03
      4.036  0.0000E+00  0.1360E+03
      4.103  0.0000E+00  0.1360E+03
