   24   24    1    1
  0.4176334E+02  0.3540400E-09  0.1044544E-08  0.2750143E-08  0.5000000E-15
  1.000000000000000E-004
  CAR 
 unknown system                          
    108     54     68
 
  0.0000000E+00  0.0000000E+00  0.0000000E+00  0.9615385E-02
    1      -14.970620
    2      -13.717374
    3      -12.971935
    4      -12.847977
    5      -12.668863
    6      -12.418746
    7      -12.262858
    8      -11.611238
    9      -11.580991
   10      -11.165198
   11      -11.162629
   12      -10.247896
   13       -8.885204
   14       -8.205464
   15       -8.006282
   16       -7.127649
   17       -6.992610
   18       -6.887244
   19       -6.669419
   20       -6.322626
   21       -5.986718
   22       -5.135117
   23       -4.914083
   24       -4.750774
   25       -4.239571
   26       -4.064891
   27       -3.863096
   28       -3.762920
   29       -3.365188
   30       -3.259810
   31       -3.237493
   32       -3.012038
   33       -2.933253
   34       -2.672933
   35       -2.612425
   36       -2.577870
   37       -2.356847
   38       -2.211582
   39       -2.098142
   40       -2.046901
   41       -1.971799
   42       -1.901145
   43       -1.818714
   44       -1.752438
   45       -1.702857
   46       -1.606447
   47       -1.557188
   48       -1.442231
   49       -1.351280
   50       -1.116237
   51       -1.000929
   52       -0.676374
   53        0.448826
   54        0.473396
   55        0.731341
   56        0.883224
   57        1.026059
   58        1.150802
   59        1.231419
   60        1.437609
   61        1.600623
   62        1.806859
   63        1.864247
   64        1.945376
   65        2.116251
   66        2.255077
   67        2.422808
   68        2.507481
 
  0.7692308E-01 -0.1387779E-16  0.0000000E+00  0.1923077E-01
    1      -14.916061
    2      -13.656031
    3      -12.919757
    4      -12.790801
    5      -12.613347
    6      -12.361088
    7      -12.200561
    8      -11.562296
    9      -11.533356
   10      -11.115367
   11      -11.108065
   12      -10.217957
   13       -8.854072
   14       -8.242840
   15       -7.969180
   16       -7.107646
   17       -6.969128
   18       -6.873982
   19       -6.663697
   20       -6.329906
   21       -5.955385
   22       -5.225172
   23       -4.992510
   24       -4.855380
   25       -4.401155
   26       -4.066043
   27       -3.916149
   28       -3.823253
   29       -3.623161
   30       -3.436412
   31       -3.385032
   32       -3.313433
   33       -3.128791
   34       -2.941267
   35       -2.820344
   36       -2.647109
   37       -2.522452
   38       -2.372946
   39       -2.258209
   40       -2.188503
   41       -2.131163
   42       -2.099161
   43       -2.003493
   44       -1.912148
   45       -1.854113
   46       -1.702368
   47       -1.669172
   48       -1.410139
   49       -1.347369
   50       -1.075647
   51       -0.978682
   52       -0.718034
   53        0.303037
   54        0.504179
   55        0.769972
   56        0.940276
   57        1.273294
   58        1.371653
   59        1.590931
   60        1.762939
   61        1.966961
   62        2.026212
   63        2.077425
   64        2.159358
   65        2.259215
   66        2.439388
   67        2.581420
   68        2.650410
 
  0.1538462E+00 -0.2775558E-16  0.0000000E+00  0.1923077E-01
    1      -14.755042
    2      -13.473073
    3      -12.763930
    4      -12.620614
    5      -12.448814
    6      -12.191231
    7      -12.017965
    8      -11.420405
    9      -11.395456
   10      -10.976501
   11      -10.943675
   12      -10.140406
   13       -8.773427
   14       -8.340031
   15       -7.927783
   16       -7.122130
   17       -6.930364
   18       -6.827174
   19       -6.675922
   20       -6.475403
   21       -5.893170
   22       -5.736109
   23       -5.111258
   24       -5.005385
   25       -4.452470
   26       -4.363106
   27       -4.264912
   28       -4.193846
   29       -4.120297
   30       -3.941773
   31       -3.815710
   32       -3.698568
   33       -3.492225
   34       -3.297621
   35       -3.136705
   36       -3.073371
   37       -2.978402
   38       -2.886847
   39       -2.659063
   40       -2.564825
   41       -2.508778
   42       -2.321850
   43       -2.165162
   44       -2.054828
   45       -1.940672
   46       -1.844982
   47       -1.804250
   48       -1.411017
   49       -1.348524
   50       -1.114852
   51       -0.993568
   52       -0.791549
   53        0.086438
   54        0.444075
   55        0.845800
   56        0.981583
   57        1.321246
   58        1.744157
   59        1.974060
   60        2.091257
   61        2.274468
   62        2.431529
   63        2.474653
   64        2.532202
   65        2.713090
   66        2.785012
   67        2.886251
   68        2.900177
 
  0.2307692E+00 -0.4163336E-16  0.0000000E+00  0.1923077E-01
    1      -14.497152
    2      -13.172084
    3      -12.507513
    4      -12.342104
    5      -12.182463
    6      -11.920650
    7      -11.730008
    8      -11.205140
    9      -11.186527
   10      -10.773542
   11      -10.684279
   12      -10.059403
   13       -8.690190
   14       -8.531705
   15       -8.002842
   16       -7.450294
   17       -6.940167
   18       -6.867489
   19       -6.817384
   20       -6.751231
   21       -6.050478
   22       -5.901111
   23       -5.514015
   24       -5.376318
   25       -4.986102
   26       -4.808642
   27       -4.793313
   28       -4.682295
   29       -4.482924
   30       -4.333744
   31       -4.199031
   32       -3.952943
   33       -3.847780
   34       -3.642841
   35       -3.520764
   36       -3.288394
   37       -3.173633
   38       -3.127074
   39       -2.884935
   40       -2.776085
   41       -2.664237
   42       -2.585474
   43       -2.316760
   44       -2.074856
   45       -2.007759
   46       -1.972374
   47       -1.898928
   48       -1.692090
   49       -1.610278
   50       -1.293676
   51       -1.075975
   52       -0.911508
   53       -0.162998
   54        0.216879
   55        0.762841
   56        1.108049
   57        1.439609
   58        1.725882
   59        1.869034
   60        2.019267
   61        2.133933
   62        2.237425
   63        2.302455
   64        2.505051
   65        2.681019
   66        2.711306
   67        2.807645
   68        3.020590
 
  0.3076923E+00 -0.5551115E-16  0.0000000E+00  0.1923077E-01
    1      -14.164591
    2      -12.760389
    3      -12.158937
    4      -11.966319
    5      -11.831183
    6      -11.579923
    7      -11.371705
    8      -10.979926
    9      -10.949445
   10      -10.587879
   11      -10.371986
   12      -10.044646
   13       -8.830504
   14       -8.676110
   15       -8.263744
   16       -7.922273
   17       -7.371591
   18       -7.176239
   19       -7.079109
   20       -6.807174
   21       -6.415072
   22       -6.320855
   23       -6.146521
   24       -5.904089
   25       -5.385026
   26       -5.145707
   27       -4.990823
   28       -4.875724
   29       -4.780937
   30       -4.477806
   31       -4.381840
   32       -4.200028
   33       -3.988840
   34       -3.574074
   35       -3.547986
   36       -3.477180
   37       -3.256249
   38       -3.212640
   39       -3.085980
   40       -2.903148
   41       -2.757389
   42       -2.624983
   43       -2.486594
   44       -2.235430
   45       -2.179551
   46       -2.062997
   47       -2.012007
   48       -1.972391
   49       -1.872070
   50       -1.560144
   51       -1.311696
   52       -0.934333
   53       -0.322577
   54       -0.069115
   55        0.615010
   56        1.112339
   57        1.315580
   58        1.487724
   59        1.631204
   60        1.828724
   61        1.896019
   62        2.107153
   63        2.140677
   64        2.252251
   65        2.310028
   66        2.512446
   67        2.652485
   68        2.837293
 
  0.3846154E+00 -0.8326673E-16  0.0000000E+00  0.1923077E-01
    1      -13.808514
    2      -12.252266
    3      -11.739352
    4      -11.523339
    5      -11.434207
    6      -11.271055
    7      -11.028853
    8      -10.857876
    9      -10.794467
   10      -10.628231
   11      -10.250685
   12       -9.924195
   13       -9.005619
   14       -8.730416
   15       -8.555795
   16       -8.227123
   17       -7.849250
   18       -7.632333
   19       -7.598127
   20       -7.064511
   21       -6.929484
   22       -6.853745
   23       -6.828068
   24       -6.330787
   25       -5.389589
   26       -5.268174
   27       -4.917743
   28       -4.776201
   29       -4.698176
   30       -4.413211
   31       -4.270934
   32       -4.243264
   33       -3.948340
   34       -3.827387
   35       -3.680015
   36       -3.447837
   37       -3.401746
   38       -3.279403
   39       -3.177318
   40       -2.987953
   41       -2.803125
   42       -2.675063
   43       -2.560950
   44       -2.436883
   45       -2.325780
   46       -2.264286
   47       -2.217649
   48       -2.181829
   49       -2.013850
   50       -1.709725
   51       -1.528591
   52       -0.936773
   53       -0.480899
   54       -0.147205
   55        0.424498
   56        1.078663
   57        1.206560
   58        1.349811
   59        1.513218
   60        1.597355
   61        1.750722
   62        1.914640
   63        1.969924
   64        2.084250
   65        2.109277
   66        2.228407
   67        2.360695
   68        2.598668
 
  0.4615385E+00 -0.8326673E-16  0.0000000E+00  0.1923077E-01
    1      -13.545582
    2      -11.679636
    3      -11.318347
    4      -11.291021
    5      -11.138738
    6      -11.023469
    7      -11.012059
    8      -10.901054
    9      -10.807110
   10      -10.752595
   11      -10.414057
   12       -9.663037
   13       -8.860935
   14       -8.747176
   15       -8.620598
   16       -8.518062
   17       -8.253791
   18       -7.962161
   19       -7.754814
   20       -7.466461
   21       -7.388217
   22       -7.347952
   23       -7.310589
   24       -6.329889
   25       -5.337875
   26       -5.090965
   27       -4.984329
   28       -4.670162
   29       -4.468250
   30       -4.303422
   31       -4.208966
   32       -4.119045
   33       -3.996530
   34       -3.798903
   35       -3.757534
   36       -3.578067
   37       -3.432782
   38       -3.348434
   39       -3.185877
   40       -3.123741
   41       -2.991634
   42       -2.857074
   43       -2.724745
   44       -2.598089
   45       -2.503678
   46       -2.346781
   47       -2.258140
   48       -2.137200
   49       -1.907597
   50       -1.788491
   51       -1.670467
   52       -0.997532
   53       -0.511147
   54       -0.140609
   55        0.286135
   56        1.056437
   57        1.167330
   58        1.254833
   59        1.419537
   60        1.542989
   61        1.583096
   62        1.764523
   63        1.894095
   64        1.936857
   65        2.019206
   66        2.079470
   67        2.242983
   68        2.411303
 
  0.0000000E+00  0.2500000E+00  0.0000000E+00  0.1923077E-01
    1      -14.969359
    2      -13.662724
    3      -13.145359
    4      -12.879992
    5      -12.669642
    6      -12.377074
    7      -12.048115
    8      -11.653140
    9      -11.595385
   10      -11.174742
   11      -11.158423
   12      -10.214776
   13       -8.945373
   14       -8.685587
   15       -7.572891
   16       -7.145262
   17       -6.979895
   18       -6.846982
   19       -6.764171
   20       -6.104868
   21       -5.909814
   22       -5.260056
   23       -4.823998
   24       -4.619161
   25       -4.246821
   26       -4.126860
   27       -3.989340
   28       -3.665069
   29       -3.523908
   30       -3.365153
   31       -3.306429
   32       -2.931482
   33       -2.880637
   34       -2.700689
   35       -2.578849
   36       -2.530634
   37       -2.418020
   38       -2.287020
   39       -2.219619
   40       -2.105137
   41       -2.057074
   42       -1.989683
   43       -1.803515
   44       -1.746457
   45       -1.614449
   46       -1.535981
   47       -1.488771
   48       -1.381329
   49       -1.309654
   50       -1.077361
   51       -1.032950
   52       -0.761521
   53        0.269439
   54        0.500800
   55        0.744244
   56        0.998372
   57        1.076174
   58        1.198256
   59        1.322542
   60        1.469228
   61        1.598595
   62        1.709325
   63        1.874856
   64        2.064503
   65        2.125337
   66        2.419277
   67        2.458141
   68        2.520629
 
  0.7692308E-01  0.2500000E+00  0.0000000E+00  0.1923077E-01
    1      -14.914599
    2      -13.586177
    3      -13.125986
    4      -12.827929
    5      -12.612916
    6      -12.312353
    7      -11.947584
    8      -11.611701
    9      -11.551150
   10      -11.130070
   11      -11.102596
   12      -10.176104
   13       -8.926504
   14       -8.743014
   15       -7.525066
   16       -7.127897
   17       -7.001109
   18       -6.854697
   19       -6.694725
   20       -6.035572
   21       -5.862667
   22       -5.386178
   23       -4.937257
   24       -4.796906
   25       -4.373701
   26       -4.199697
   27       -3.986170
   28       -3.804782
   29       -3.593071
   30       -3.533703
   31       -3.441854
   32       -3.193267
   33       -3.123903
   34       -2.922332
   35       -2.826695
   36       -2.671810
   37       -2.556426
   38       -2.462683
   39       -2.393813
   40       -2.272104
   41       -2.166782
   42       -2.116710
   43       -2.000949
   44       -1.934705
   45       -1.887799
   46       -1.679399
   47       -1.527009
   48       -1.363353
   49       -1.245673
   50       -1.049494
   51       -1.008997
   52       -0.766354
   53        0.227977
   54        0.406730
   55        0.767861
   56        1.091174
   57        1.299545
   58        1.434319
   59        1.596473
   60        1.760356
   61        1.836096
   62        2.037912
   63        2.108896
   64        2.289077
   65        2.363856
   66        2.487784
   67        2.707413
   68        2.852387
 
  0.1538462E+00  0.2500000E+00  0.0000000E+00  0.1923077E-01
    1      -14.753526
    2      -13.390011
    3      -12.989058
    4      -12.659216
    5      -12.446932
    6      -12.142083
    7      -11.748879
    8      -11.471918
    9      -11.407819
   10      -10.988667
   11      -10.946547
   12      -10.093865
   13       -8.854905
   14       -8.798252
   15       -7.493700
   16       -7.192914
   17       -6.984571
   18       -6.832168
   19       -6.664179
   20       -6.107275
   21       -5.839391
   22       -5.796815
   23       -5.220726
   24       -4.999066
   25       -4.560892
   26       -4.492002
   27       -4.308382
   28       -4.158813
   29       -4.109210
   30       -3.940350
   31       -3.782310
   32       -3.601176
   33       -3.394771
   34       -3.199741
   35       -3.129433
   36       -3.083479
   37       -2.948264
   38       -2.850459
   39       -2.767007
   40       -2.655562
   41       -2.485396
   42       -2.445622
   43       -2.287853
   44       -2.090556
   45       -2.035750
   46       -1.851688
   47       -1.666736
   48       -1.331050
   49       -1.292930
   50       -1.140037
   51       -1.038712
   52       -0.739242
   53        0.062192
   54        0.366905
   55        0.835743
   56        1.025364
   57        1.292262
   58        1.516740
   59        1.856603
   60        1.950570
   61        2.205203
   62        2.405910
   63        2.580187
   64        2.718696
   65        2.749604
   66        2.892814
   67        2.937014
   68        2.946799
 
  0.2307692E+00  0.2500000E+00  0.0000000E+00  0.1923077E-01
    1      -14.495745
    2      -13.079112
    3      -12.737090
    4      -12.378225
    5      -12.179616
    6      -11.879336
    7      -11.471513
    8      -11.249547
    9      -11.183020
   10      -10.771153
   11      -10.709457
   12      -10.011331
   13       -8.947127
   14       -8.731731
   15       -7.585730
   16       -7.531895
   17       -7.007924
   18       -6.874853
   19       -6.811791
   20       -6.535300
   21       -6.052741
   22       -5.982280
   23       -5.498728
   24       -5.383657
   25       -5.198637
   26       -4.841898
   27       -4.766450
   28       -4.731881
   29       -4.536867
   30       -4.230999
   31       -4.130457
   32       -3.901289
   33       -3.783063
   34       -3.459789
   35       -3.373349
   36       -3.316761
   37       -3.262934
   38       -3.052417
   39       -2.863305
   40       -2.774223
   41       -2.698943
   42       -2.628091
   43       -2.358324
   44       -2.165213
   45       -2.081191
   46       -1.986601
   47       -1.941042
   48       -1.711968
   49       -1.555297
   50       -1.243368
   51       -1.069784
   52       -0.937526
   53       -0.126942
   54        0.152001
   55        0.702045
   56        1.058127
   57        1.228120
   58        1.384698
   59        1.516853
   60        1.934450
   61        2.121160
   62        2.207019
   63        2.397420
   64        2.547004
   65        2.703772
   66        2.845774
   67        2.970870
   68        3.062039
 
  0.3076923E+00  0.2500000E+00  0.0000000E+00  0.1923077E-01
    1      -14.163440
    2      -12.663036
    3      -12.377261
    4      -11.995668
    5      -11.828802
    6      -11.556931
    7      -11.157290
    8      -10.985124
    9      -10.936308
   10      -10.565003
   11      -10.442995
   12       -9.986405
   13       -9.145695
   14       -8.688020
   15       -7.953269
   16       -7.882835
   17       -7.395209
   18       -7.283670
   19       -7.143327
   20       -6.717558
   21       -6.475231
   22       -6.351984
   23       -6.100543
   24       -5.936509
   25       -5.551717
   26       -5.130441
   27       -5.107246
   28       -4.933072
   29       -4.599832
   30       -4.508491
   31       -4.184704
   32       -4.099718
   33       -3.928171
   34       -3.652418
   35       -3.512960
   36       -3.358318
   37       -3.179425
   38       -3.123543
   39       -3.035334
   40       -2.887122
   41       -2.673788
   42       -2.608392
   43       -2.482565
   44       -2.465498
   45       -2.209385
   46       -2.132469
   47       -2.033622
   48       -1.978179
   49       -1.905830
   50       -1.560981
   51       -1.399291
   52       -0.900933
   53       -0.274728
   54       -0.139218
   55        0.520252
   56        0.979992
   57        1.077792
   58        1.186607
   59        1.316032
   60        1.822860
   61        1.993853
   62        2.117727
   63        2.165372
   64        2.264251
   65        2.306014
   66        2.456862
   67        2.580047
   68        2.802274
 
  0.3846154E+00  0.2500000E+00  0.0000000E+00  0.1923077E-01
    1      -13.807806
    2      -12.160351
    3      -11.926334
    4      -11.537084
    5      -11.435028
    6      -11.282152
    7      -10.899090
    8      -10.802618
    9      -10.772919
   10      -10.640556
   11      -10.303159
   12       -9.892762
   13       -9.135923
   14       -8.739940
   15       -8.291741
   16       -8.187651
   17       -7.954524
   18       -7.868557
   19       -7.542156
   20       -7.049505
   21       -6.882855
   22       -6.873636
   23       -6.822896
   24       -6.366579
   25       -5.515985
   26       -5.220470
   27       -5.034973
   28       -4.945676
   29       -4.634415
   30       -4.290047
   31       -4.190703
   32       -4.035023
   33       -3.871132
   34       -3.761570
   35       -3.522625
   36       -3.464949
   37       -3.318502
   38       -3.286066
   39       -3.119865
   40       -3.039211
   41       -2.831893
   42       -2.716555
   43       -2.586328
   44       -2.471209
   45       -2.337679
   46       -2.296784
   47       -2.256691
   48       -2.214061
   49       -2.030191
   50       -1.751288
   51       -1.603408
   52       -0.898628
   53       -0.438820
   54       -0.234769
   55        0.383461
   56        0.995710
   57        1.063773
   58        1.179747
   59        1.231590
   60        1.639822
   61        1.713269
   62        1.819977
   63        1.902559
   64        2.008381
   65        2.137952
   66        2.185070
   67        2.460067
   68        2.520557
 
  0.4615385E+00  0.2500000E+00  0.0000000E+00  0.1923077E-01
    1      -13.545302
    2      -11.612390
    3      -11.430690
    4      -11.285273
    5      -11.148114
    6      -11.054228
    7      -11.035159
    8      -10.870473
    9      -10.754192
   10      -10.741777
   11      -10.389403
   12       -9.666308
   13       -8.770318
   14       -8.726781
   15       -8.577259
   16       -8.518621
   17       -8.505007
   18       -7.933695
   19       -7.702495
   20       -7.496161
   21       -7.446621
   22       -7.305276
   23       -7.236912
   24       -6.394135
   25       -5.277154
   26       -5.188261
   27       -5.075379
   28       -4.639813
   29       -4.426621
   30       -4.317132
   31       -4.188139
   32       -4.105060
   33       -3.874182
   34       -3.825574
   35       -3.678864
   36       -3.493260
   37       -3.429071
   38       -3.233457
   39       -3.196485
   40       -3.134304
   41       -2.985673
   42       -2.866223
   43       -2.795824
   44       -2.761945
   45       -2.519857
   46       -2.323116
   47       -2.263556
   48       -2.210539
   49       -1.900727
   50       -1.732598
   51       -1.684882
   52       -0.964019
   53       -0.521369
   54       -0.190703
   55        0.287698
   56        0.981310
   57        1.188065
   58        1.263091
   59        1.346352
   60        1.406117
   61        1.509417
   62        1.647327
   63        1.823836
   64        1.949059
   65        2.035760
   66        2.228879
   67        2.327066
   68        2.361732
 
 -0.4615385E+00  0.2500000E+00  0.0000000E+00  0.1923077E-01
    1      -13.545569
    2      -11.712573
    3      -11.305425
    4      -11.240327
    5      -11.126931
    6      -11.026649
    7      -10.976702
    8      -10.931939
    9      -10.871939
   10      -10.676722
   11      -10.478369
   12       -9.654089
   13       -8.929930
   14       -8.756383
   15       -8.614070
   16       -8.510192
   17       -8.118961
   18       -8.021271
   19       -7.787288
   20       -7.456319
   21       -7.401227
   22       -7.390611
   23       -7.191273
   24       -6.385215
   25       -5.282126
   26       -5.097383
   27       -4.901744
   28       -4.749737
   29       -4.536129
   30       -4.223763
   31       -4.176031
   32       -4.082787
   33       -4.053349
   34       -3.907509
   35       -3.822091
   36       -3.537798
   37       -3.498781
   38       -3.331045
   39       -3.159468
   40       -3.080904
   41       -2.987448
   42       -2.849758
   43       -2.743377
   44       -2.602135
   45       -2.501998
   46       -2.341670
   47       -2.279305
   48       -2.254704
   49       -1.878661
   50       -1.708626
   51       -1.605099
   52       -0.937928
   53       -0.552033
   54       -0.143822
   55        0.280436
   56        0.956716
   57        1.179132
   58        1.269160
   59        1.487881
   60        1.529560
   61        1.598536
   62        1.679665
   63        1.965040
   64        2.043842
   65        2.147846
   66        2.216847
   67        2.321542
   68        2.395083
 
 -0.3846154E+00  0.2500000E+00  0.0000000E+00  0.1923077E-01
    1      -13.808621
    2      -12.278445
    3      -11.654164
    4      -11.529177
    5      -11.433421
    6      -11.284296
    7      -11.109815
    8      -10.796858
    9      -10.763645
   10      -10.623859
   11      -10.378833
   12       -9.878550
   13       -8.916741
   14       -8.715335
   15       -8.668104
   16       -8.256959
   17       -7.815454
   18       -7.621908
   19       -7.504196
   20       -7.178580
   21       -6.973526
   22       -6.850103
   23       -6.664497
   24       -6.393867
   25       -5.279159
   26       -5.213297
   27       -5.031193
   28       -4.901178
   29       -4.582307
   30       -4.442243
   31       -4.261800
   32       -4.192741
   33       -3.991273
   34       -3.894655
   35       -3.604993
   36       -3.547195
   37       -3.466365
   38       -3.331840
   39       -3.173568
   40       -2.941012
   41       -2.753927
   42       -2.696812
   43       -2.651164
   44       -2.433094
   45       -2.373429
   46       -2.276664
   47       -2.237660
   48       -2.105056
   49       -1.989336
   50       -1.660211
   51       -1.475419
   52       -0.870951
   53       -0.508927
   54       -0.133700
   55        0.440361
   56        1.018827
   57        1.177228
   58        1.407924
   59        1.582998
   60        1.679150
   61        1.737949
   62        1.965164
   63        2.099031
   64        2.167301
   65        2.255984
   66        2.305842
   67        2.365524
   68        2.497815
 
 -0.3076923E+00  0.2500000E+00  0.0000000E+00  0.1923077E-01
    1      -14.164615
    2      -12.772530
    3      -12.117297
    4      -11.967236
    5      -11.830833
    6      -11.589537
    7      -11.418360
    8      -10.944571
    9      -10.925746
   10      -10.593918
   11      -10.420799
   12      -10.055640
   13       -8.731961
   14       -8.661331
   15       -8.364566
   16       -7.834205
   17       -7.471947
   18       -7.181057
   19       -7.048432
   20       -6.842921
   21       -6.371373
   22       -6.317669
   23       -6.155770
   24       -5.859723
   25       -5.327048
   26       -5.184074
   27       -5.066304
   28       -4.831323
   29       -4.796844
   30       -4.479374
   31       -4.407291
   32       -4.157991
   33       -3.927077
   34       -3.684238
   35       -3.620896
   36       -3.395922
   37       -3.257614
   38       -3.227508
   39       -3.104533
   40       -2.918196
   41       -2.744272
   42       -2.629365
   43       -2.445523
   44       -2.270755
   45       -2.185649
   46       -2.054242
   47       -2.019683
   48       -1.969714
   49       -1.864262
   50       -1.586931
   51       -1.351624
   52       -0.861706
   53       -0.316707
   54       -0.076323
   55        0.686118
   56        1.130222
   57        1.316370
   58        1.534010
   59        1.760316
   60        1.826929
   61        1.922090
   62        2.101397
   63        2.208308
   64        2.306879
   65        2.396306
   66        2.491851
   67        2.607541
   68        2.730501
 
 -0.2307692E+00  0.2500000E+00  0.0000000E+00  0.1923077E-01
    1      -14.496953
    2      -13.167891
    3      -12.522158
    4      -12.348037
    5      -12.183065
    6      -11.919447
    7      -11.712280
    8      -11.202634
    9      -11.165671
   10      -10.772289
   11      -10.702477
   12      -10.072354
   13       -8.684610
   14       -8.571743
   15       -7.961284
   16       -7.307527
   17       -7.174227
   18       -6.866529
   19       -6.815869
   20       -6.686308
   21       -6.020320
   22       -5.904376
   23       -5.509173
   24       -5.353969
   25       -5.004274
   26       -4.856433
   27       -4.784303
   28       -4.684779
   29       -4.510767
   30       -4.348702
   31       -4.131366
   32       -3.914090
   33       -3.850099
   34       -3.622857
   35       -3.526255
   36       -3.280365
   37       -3.174437
   38       -3.141907
   39       -2.944738
   40       -2.773042
   41       -2.648783
   42       -2.591355
   43       -2.233152
   44       -2.071591
   45       -2.023284
   46       -1.977798
   47       -1.915430
   48       -1.719764
   49       -1.624115
   50       -1.305075
   51       -1.173581
   52       -0.872741
   53       -0.131654
   54        0.174023
   55        0.880256
   56        1.134184
   57        1.445596
   58        1.677811
   59        1.852791
   60        2.033268
   61        2.137647
   62        2.234775
   63        2.440389
   64        2.562043
   65        2.637908
   66        2.748381
   67        2.792837
   68        2.851488
 
 -0.1538462E+00  0.2500000E+00  0.0000000E+00  0.1923077E-01
    1      -14.754496
    2      -13.451833
    3      -12.837489
    4      -12.635289
    5      -12.450022
    6      -12.175962
    7      -11.927725
    8      -11.435994
    9      -11.387624
   10      -10.975433
   11      -10.952283
   12      -10.135462
   13       -8.789881
   14       -8.550335
   15       -7.718611
   16       -7.120932
   17       -6.927844
   18       -6.830614
   19       -6.728025
   20       -6.428823
   21       -5.864799
   22       -5.663690
   23       -5.165513
   24       -4.999401
   25       -4.483593
   26       -4.389615
   27       -4.336625
   28       -4.190916
   29       -4.079143
   30       -3.929385
   31       -3.821696
   32       -3.662421
   33       -3.466090
   34       -3.247902
   35       -3.100314
   36       -3.070975
   37       -3.015500
   38       -2.907606
   39       -2.709351
   40       -2.638733
   41       -2.525905
   42       -2.345452
   43       -2.132191
   44       -2.029478
   45       -1.922008
   46       -1.813991
   47       -1.751084
   48       -1.404031
   49       -1.380661
   50       -1.154838
   51       -1.061342
   52       -0.800248
   53        0.095640
   54        0.387926
   55        0.885650
   56        1.062904
   57        1.355995
   58        1.622047
   59        1.994239
   60        2.063752
   61        2.304523
   62        2.430269
   63        2.576155
   64        2.624862
   65        2.669980
   66        2.809204
   67        2.926043
   68        2.972424
 
 -0.7692308E-01  0.2500000E+00  0.0000000E+00  0.1923077E-01
    1      -14.915138
    2      -13.617790
    3      -13.047919
    4      -12.814878
    5      -12.614682