 running on    8 total cores
 distrk:  each k-point on    8 cores,    1 groups
 distr:  one band on    2 cores,    4 groups
 using from now: INCAR     
 vasp.5.3.5 31Mar14 (build Oct 29 2014 16:16:03) complex                        
  
 POSCAR found type information on POSCAR  P  Si
 POSCAR found :  2 types and      24 ions
 scaLAPACK will be used

 ----------------------------------------------------------------------------- 
|                                                                             |
|  ADVICE TO THIS USER RUNNING 'VASP/VAMP'   (HEAR YOUR MASTER'S VOICE ...):  |
|                                                                             |
|      You have switched on vdW-DFT.                                          |
|      This routine was written and supplied by Jiri Klimes.                  |
|      We recommed that you carefully read and cite the following             |
|      publication                                                            |
|      J. Klimes, D.R. Bowler, A. Michelides                                  |
|        J. Phys.: Cond Matt. 22 022201 (2010)                                |
|      J. Klimes, D.R. Bowler, A. Michelides                                  |
|        Phys. Rev. B. 83, 195131 (2011)                                      |
|      and references therein.                                                |
|                                                                             |
 ----------------------------------------------------------------------------- 


 ----------------------------------------------------------------------------- 
|                                                                             |
|  ADVICE TO THIS USER RUNNING 'VASP/VAMP'   (HEAR YOUR MASTER'S VOICE ...):  |
|                                                                             |
|      You enforced a specific xc-type in the INCAR file,                     |
|      a different type was found on the POTCAR file                          |
|          I HOPE YOU KNOW, WHAT YOU ARE  DOING                               |
|                                                                             |
 ----------------------------------------------------------------------------- 

 LDA part: xc-table for Pade appr. of Perdew


 VERY BAD NEWS! internal error in subroutine IBZKPT:
 Reciprocal lattice and k-lattice belong to different class of lattices. Often results are still useful...      96


 VERY BAD NEWS! internal error in subroutine IBZKPT:
 Reciprocal lattice and k-lattice belong to different class of lattices. Often results are still useful...      96


 VERY BAD NEWS! internal error in subroutine IBZKPT:
 Reciprocal lattice and k-lattice belong to different class of lattices. Often results are still useful...      96


 VERY BAD NEWS! internal error in subroutine IBZKPT:
 Reciprocal lattice and k-lattice belong to different class of lattices. Often results are still useful...      96


 VERY BAD NEWS! internal error in subroutine IBZKPT:
 Reciprocal lattice and k-lattice belong to different class of lattices. Often results are still useful...      96


 VERY BAD NEWS! internal error in subroutine IBZKPT:
 Reciprocal lattice and k-lattice belong to different class of lattices. Often results are still useful...      96


 VERY BAD NEWS! internal error in subroutine IBZKPT:
 Reciprocal lattice and k-lattice belong to different class of lattices. Often results are still useful...      96


 VERY BAD NEWS! internal error in subroutine IBZKPT:
 Reciprocal lattice and k-lattice belong to different class of lattices. Often results are still useful...      96
 POSCAR, INCAR and KPOINTS ok, starting setup
 WARNING: small aliasing (wrap around) errors must be expected
 FFT: planning ...
 WAVECAR not read
 entering main loop
       N       E                     dE             d eps       ncg     rms          rms(c)
Total vdW correction in eV:     15.8959368
DAV:   1     0.498725527017E+03    0.49873E+03   -0.28700E+04  7360   0.790E+02
DAV:   2    -0.640348552787E+02   -0.56276E+03   -0.54793E+03  9764   0.190E+02
DAV:   3    -0.120333071600E+03   -0.56298E+02   -0.55504E+02  8852   0.623E+01
DAV:   4    -0.122886799987E+03   -0.25537E+01   -0.25359E+01 11064   0.142E+01
DAV:   5    -0.122948222012E+03   -0.61422E-01   -0.61339E-01 10152   0.213E+00    0.107E+01
Total vdW correction in eV:     16.2876068
DAV:   6    -0.120024799444E+03    0.29234E+01   -0.80025E+00  8784   0.766E+00    0.584E+00
Total vdW correction in eV:     16.7119634
DAV:   7    -0.119935164892E+03    0.89635E-01   -0.61676E+00  9048   0.645E+00    0.256E+00
Total vdW correction in eV:     16.8765037
DAV:   8    -0.119854893396E+03    0.80271E-01   -0.15360E+00  9032   0.367E+00    0.128E+00
Total vdW correction in eV:     16.9677367
DAV:   9    -0.119836483347E+03    0.18410E-01   -0.22566E-01  8936   0.149E+00    0.513E-01
Total vdW correction in eV:     17.0147268
DAV:  10    -0.119826790995E+03    0.96924E-02   -0.44604E-02  9144   0.672E-01    0.182E-01
Total vdW correction in eV:     17.0297611
DAV:  11    -0.119818229860E+03    0.85611E-02   -0.10350E-02  9152   0.321E-01    0.850E-02
Total vdW correction in eV:     17.0358155
DAV:  12    -0.119811450946E+03    0.67789E-02   -0.22910E-03  9336   0.162E-01    0.376E-02
Total vdW correction in eV:     17.0394414
DAV:  13    -0.119808674494E+03    0.27765E-02   -0.57712E-04  9160   0.755E-02    0.237E-02
Total vdW correction in eV:     17.0429550
DAV:  14    -0.119807042132E+03    0.16324E-02   -0.15933E-04  9488   0.449E-02    0.139E-02
Total vdW correction in eV:     17.0461151
DAV:  15    -0.119806178702E+03    0.86343E-03   -0.83046E-05  9456   0.377E-02    0.775E-03
Total vdW correction in eV:     17.0482136
DAV:  16    -0.119806334364E+03   -0.15566E-03   -0.79187E-05  8432   0.258E-02    0.492E-03
Total vdW correction in eV:     17.0493307
DAV:  17    -0.119806961125E+03   -0.62676E-03   -0.12602E-04  8440   0.234E-02    0.260E-03
Total vdW correction in eV:     17.0494480
DAV:  18    -0.119807223657E+03   -0.26253E-03   -0.71365E-05  7784   0.152E-02    0.167E-03
Total vdW correction in eV:     17.0492769
DAV:  19    -0.119807194049E+03    0.29608E-04   -0.28399E-05  7056   0.122E-02    0.102E-03
Total vdW correction in eV:     17.0491621
DAV:  20    -0.119807193636E+03    0.41337E-06   -0.14947E-05  6816   0.806E-03    0.726E-04
Total vdW correction in eV:     17.0491276
DAV:  21    -0.119807180200E+03    0.13436E-04   -0.79244E-06  6648   0.703E-03    0.470E-04
Total vdW correction in eV:     17.0490544
DAV:  22    -0.119807147736E+03    0.32464E-04   -0.78746E-06  6144   0.745E-03    0.283E-04
Total vdW correction in eV:     17.0490359
DAV:  23    -0.119807126056E+03    0.21680E-04   -0.28462E-06  6176   0.507E-03    0.188E-04
Total vdW correction in eV:     17.0489976
DAV:  24    -0.119807083856E+03    0.42200E-04   -0.61148E-06  6424   0.693E-03    0.943E-05
Total vdW correction in eV:     17.0489888
DAV:  25    -0.119807064815E+03    0.19041E-04   -0.24054E-06  6320   0.555E-03    0.583E-05
Total vdW correction in eV:     17.0489798
DAV:  26    -0.119807053135E+03    0.11680E-04   -0.22155E-06  6296   0.544E-03    0.275E-05
Total vdW correction in eV:     17.0489760
DAV:  27    -0.119807051588E+03    0.15468E-05   -0.12490E-06  5928   0.435E-03    0.143E-05
Total vdW correction in eV:     17.0489743
DAV:  28    -0.119807053321E+03   -0.17321E-05   -0.89974E-07  5108   0.391E-03    0.767E-06
Total vdW correction in eV:     17.0489740
DAV:  29    -0.119807053832E+03   -0.51124E-06   -0.97642E-07  5272   0.398E-03
Total vdW correction in eV:     17.0489736
Total vdW correction in eV:     17.0489736
   1 F= -.11980705E+03 E0= -.11979252E+03  d E =-.290646E-01
