  24  24   0   0
  0.4176334E+02  0.3540400E-09  0.1044544E-08  0.2750143E-08  0.5000000E-15
  1.000000000000000E-004
  CAR 
 unknown system                          
      4.25003463    -15.12635037  301      0.20416951      1.00000000
    -15.126  0.0000E+00  0.0000E+00
    -15.062  0.0000E+00  0.0000E+00
    -14.997  0.0000E+00  0.0000E+00
    -14.933  0.0000E+00  0.0000E+00
    -14.868  0.0000E+00  0.0000E+00
    -14.803  0.0000E+00  0.0000E+00
    -14.739  0.0000E+00  0.0000E+00
    -14.674  0.5421E-14  0.3501E-15
    -14.610  0.5155E-11  0.3333E-12
    -14.545  0.2166E-08  0.1403E-09
    -14.480  0.4086E-06  0.2653E-07
    -14.416  0.3498E-04  0.2286E-05
    -14.351  0.1380E-02  0.9139E-04
    -14.287  0.2557E-01  0.1743E-02
    -14.222  0.2276E+00  0.1644E-01
    -14.158  0.9952E+00  0.8072E-01
    -14.093  0.2203E+01  0.2230E+00
    -14.028  0.2715E+01  0.3984E+00
    -13.964  0.2453E+01  0.5568E+00
    -13.899  0.2004E+01  0.6862E+00
    -13.835  0.1395E+01  0.7763E+00
    -13.770  0.1434E+01  0.8689E+00
    -13.705  0.1753E+01  0.9822E+00
    -13.641  0.1437E+01  0.1075E+01
    -13.576  0.1640E+01  0.1181E+01
    -13.512  0.2976E+01  0.1373E+01
    -13.447  0.3671E+01  0.1610E+01
    -13.382  0.3069E+01  0.1808E+01
    -13.318  0.2898E+01  0.1996E+01
    -13.253  0.3454E+01  0.2219E+01
    -13.189  0.3572E+01  0.2449E+01
    -13.124  0.3463E+01  0.2673E+01
    -13.060  0.3608E+01  0.2906E+01
    -12.995  0.3711E+01  0.3146E+01
    -12.930  0.3931E+01  0.3400E+01
    -12.866  0.4122E+01  0.3666E+01
    -12.801  0.3914E+01  0.3919E+01
    -12.737  0.3624E+01  0.4153E+01
    -12.672  0.4005E+01  0.4411E+01
    -12.607  0.4766E+01  0.4719E+01
    -12.543  0.4938E+01  0.5038E+01
    -12.478  0.4696E+01  0.5341E+01
    -12.414  0.4485E+01  0.5631E+01
    -12.349  0.4462E+01  0.5919E+01
    -12.284  0.4461E+01  0.6208E+01
    -12.220  0.4478E+01  0.6497E+01
    -12.155  0.5263E+01  0.6837E+01
    -12.091  0.6931E+01  0.7284E+01
    -12.026  0.8863E+01  0.7857E+01
    -11.962  0.9118E+01  0.8446E+01
    -11.897  0.7181E+01  0.8910E+01
    -11.832  0.5562E+01  0.9269E+01
    -11.768  0.5705E+01  0.9637E+01
    -11.703  0.6849E+01  0.1008E+02
    -11.639  0.7737E+01  0.1058E+02
    -11.574  0.8599E+01  0.1113E+02
    -11.509  0.8797E+01  0.1170E+02
    -11.445  0.7495E+01  0.1219E+02
    -11.380  0.7089E+01  0.1264E+02
    -11.316  0.8980E+01  0.1322E+02
    -11.251  0.1025E+02  0.1389E+02
    -11.186  0.9283E+01  0.1449E+02
    -11.122  0.9002E+01  0.1507E+02
    -11.057  0.1029E+02  0.1573E+02
    -10.993  0.1130E+02  0.1646E+02
    -10.928  0.1194E+02  0.1723E+02
    -10.864  0.1341E+02  0.1810E+02
    -10.799  0.1381E+02  0.1899E+02
    -10.734  0.1239E+02  0.1979E+02
    -10.670  0.1207E+02  0.2057E+02
    -10.605  0.1137E+02  0.2131E+02
    -10.541  0.9124E+01  0.2190E+02
    -10.476  0.7839E+01  0.2240E+02
    -10.411  0.6256E+01  0.2281E+02
    -10.347  0.3204E+01  0.2301E+02
    -10.282  0.9772E+00  0.2308E+02
    -10.218  0.6729E+00  0.2312E+02
    -10.153  0.1391E+01  0.2321E+02
    -10.088  0.1607E+01  0.2331E+02
    -10.024  0.8944E+00  0.2337E+02
     -9.959  0.4504E+00  0.2340E+02
     -9.895  0.9328E+00  0.2346E+02
     -9.830  0.1684E+01  0.2357E+02
     -9.766  0.1756E+01  0.2368E+02
     -9.701  0.1735E+01  0.2379E+02
     -9.636  0.1763E+01  0.2391E+02
     -9.572  0.1067E+01  0.2398E+02
     -9.507  0.3095E+00  0.2400E+02
     -9.443  0.4128E-01  0.2400E+02
     -9.378  0.2504E-02  0.2400E+02
     -9.313  0.9059E-04  0.2400E+02
     -9.249  0.9102E-03  0.2400E+02
     -9.184  0.1725E-01  0.2400E+02
     -9.120  0.1539E+00  0.2401E+02
     -9.055  0.6665E+00  0.2405E+02
     -8.990  0.1483E+01  0.2415E+02
     -8.926  0.2023E+01  0.2428E+02
     -8.861  0.2678E+01  0.2445E+02
     -8.797  0.4172E+01  0.2472E+02
     -8.732  0.5333E+01  0.2507E+02
     -8.668  0.5213E+01  0.2540E+02
     -8.603  0.4753E+01  0.2571E+02
     -8.538  0.4819E+01  0.2602E+02
     -8.474  0.5221E+01  0.2636E+02
     -8.409  0.4979E+01  0.2668E+02
     -8.345  0.3741E+01  0.2692E+02
     -8.280  0.2881E+01  0.2711E+02
     -8.215  0.3099E+01  0.2731E+02
     -8.151  0.4121E+01  0.2758E+02
     -8.086  0.5201E+01  0.2791E+02
     -8.022  0.5503E+01  0.2827E+02
     -7.957  0.6201E+01  0.2867E+02
     -7.892  0.7971E+01  0.2918E+02
     -7.828  0.8680E+01  0.2974E+02
     -7.763  0.7043E+01  0.3020E+02
     -7.699  0.5048E+01  0.3052E+02
     -7.634  0.4664E+01  0.3082E+02
     -7.570  0.5267E+01  0.3116E+02
     -7.505  0.6317E+01  0.3157E+02
     -7.440  0.8250E+01  0.3211E+02
     -7.376  0.1009E+02  0.3276E+02
     -7.311  0.1071E+02  0.3345E+02
     -7.247  0.9159E+01  0.3404E+02
     -7.182  0.6621E+01  0.3447E+02
     -7.117  0.6025E+01  0.3486E+02
     -7.053  0.7150E+01  0.3532E+02
     -6.988  0.7397E+01  0.3580E+02
     -6.924  0.6202E+01  0.3620E+02
     -6.859  0.5666E+01  0.3656E+02
     -6.795  0.7591E+01  0.3705E+02
     -6.730  0.1173E+02  0.3781E+02
     -6.665  0.1397E+02  0.3871E+02
     -6.601  0.1246E+02  0.3952E+02
     -6.536  0.1012E+02  0.4017E+02
     -6.472  0.8042E+01  0.4069E+02
     -6.407  0.6447E+01  0.4111E+02
     -6.342  0.5624E+01  0.4147E+02
     -6.278  0.5443E+01  0.4182E+02
     -6.213  0.5618E+01  0.4219E+02
     -6.149  0.5191E+01  0.4252E+02
     -6.084  0.4101E+01  0.4279E+02
     -6.019  0.3676E+01  0.4302E+02
     -5.955  0.3819E+01  0.4327E+02
     -5.890  0.4052E+01  0.4353E+02
     -5.826  0.4965E+01  0.4385E+02
     -5.761  0.6251E+01  0.4426E+02
     -5.697  0.6237E+01  0.4466E+02
     -5.632  0.5025E+01  0.4498E+02
     -5.567  0.4310E+01  0.4526E+02
     -5.503  0.4109E+01  0.4553E+02
     -5.438  0.4011E+01  0.4579E+02
     -5.374  0.4549E+01  0.4608E+02
     -5.309  0.5830E+01  0.4646E+02
     -5.244  0.6996E+01  0.4691E+02
     -5.180  0.6589E+01  0.4733E+02
     -5.115  0.5274E+01  0.4767E+02
     -5.051  0.5321E+01  0.4802E+02
     -4.986  0.6467E+01  0.4844E+02
     -4.921  0.7450E+01  0.4892E+02
     -4.857  0.8239E+01  0.4945E+02
     -4.792  0.9132E+01  0.5004E+02
     -4.728  0.1029E+02  0.5070E+02
     -4.663  0.1089E+02  0.5141E+02
     -4.599  0.1030E+02  0.5207E+02
     -4.534  0.9339E+01  0.5268E+02
     -4.469  0.9070E+01  0.5326E+02
     -4.405  0.1042E+02  0.5393E+02
     -4.340  0.1255E+02  0.5474E+02
     -4.276  0.1321E+02  0.5560E+02
     -4.211  0.1250E+02  0.5640E+02
     -4.146  0.1324E+02  0.5726E+02
     -4.082  0.1521E+02  0.5824E+02
     -4.017  0.1515E+02  0.5922E+02
     -3.953  0.1263E+02  0.6004E+02
     -3.888  0.1034E+02  0.6070E+02
     -3.823  0.1033E+02  0.6137E+02
     -3.759  0.1229E+02  0.6217E+02
     -3.694  0.1402E+02  0.6307E+02
     -3.630  0.1401E+02  0.6398E+02
     -3.565  0.1339E+02  0.6484E+02
     -3.501  0.1385E+02  0.6573E+02
     -3.436  0.1464E+02  0.6668E+02
     -3.371  0.1443E+02  0.6761E+02
     -3.307  0.1389E+02  0.6851E+02
     -3.242  0.1418E+02  0.6943E+02
     -3.178  0.1569E+02  0.7044E+02
     -3.113  0.1728E+02  0.7155E+02
     -3.048  0.1801E+02  0.7272E+02
     -2.984  0.1795E+02  0.7388E+02
     -2.919  0.1638E+02  0.7494E+02
     -2.855  0.1477E+02  0.7589E+02
     -2.790  0.1532E+02  0.7688E+02
     -2.725  0.1728E+02  0.7800E+02
     -2.661  0.1880E+02  0.7921E+02
     -2.596  0.1888E+02  0.8043E+02
     -2.532  0.1807E+02  0.8160E+02
     -2.467  0.1703E+02  0.8270E+02
     -2.403  0.1529E+02  0.8368E+02
     -2.338  0.1351E+02  0.8456E+02
     -2.273  0.1401E+02  0.8546E+02
     -2.209  0.1624E+02  0.8651E+02
     -2.144  0.1771E+02  0.8765E+02
     -2.080  0.1852E+02  0.8885E+02
     -2.015  0.1872E+02  0.9006E+02
     -1.950  0.1778E+02  0.9121E+02
     -1.886  0.1685E+02  0.9230E+02
     -1.821  0.1637E+02  0.9335E+02
     -1.757  0.1488E+02  0.9431E+02
     -1.692  0.1156E+02  0.9506E+02
     -1.627  0.9027E+01  0.9564E+02
     -1.563  0.9342E+01  0.9625E+02
     -1.498  0.1075E+02  0.9694E+02
     -1.434  0.1099E+02  0.9765E+02
     -1.369  0.1039E+02  0.9832E+02
     -1.305  0.1023E+02  0.9898E+02
     -1.240  0.1042E+02  0.9966E+02
     -1.175  0.1020E+02  0.1003E+03
     -1.111  0.9418E+01  0.1009E+03
     -1.046  0.8420E+01  0.1015E+03
     -0.982  0.7908E+01  0.1020E+03
     -0.917  0.8360E+01  0.1025E+03
     -0.852  0.7653E+01  0.1030E+03
     -0.788  0.5535E+01  0.1034E+03
     -0.723  0.4846E+01  0.1037E+03
     -0.659  0.6313E+01  0.1041E+03
     -0.594  0.7587E+01  0.1046E+03
     -0.529  0.6822E+01  0.1050E+03
     -0.465  0.5090E+01  0.1053E+03
     -0.400  0.3854E+01  0.1056E+03
     -0.336  0.3163E+01  0.1058E+03
     -0.271  0.2523E+01  0.1060E+03
     -0.207  0.2009E+01  0.1061E+03
     -0.142  0.2427E+01  0.1063E+03
     -0.077  0.4212E+01  0.1065E+03
     -0.013  0.6047E+01  0.1069E+03
      0.052  0.5728E+01  0.1073E+03
      0.116  0.4486E+01  0.1076E+03
      0.181  0.4630E+01  0.1079E+03
      0.246  0.5914E+01  0.1083E+03
      0.310  0.6861E+01  0.1087E+03
      0.375  0.6413E+01  0.1091E+03
      0.439  0.5227E+01  0.1095E+03
      0.504  0.4824E+01  0.1098E+03
      0.569  0.5223E+01  0.1101E+03
      0.633  0.5043E+01  0.1104E+03
      0.698  0.4707E+01  0.1107E+03
      0.762  0.5504E+01  0.1111E+03
      0.827  0.5913E+01  0.1115E+03
      0.891  0.5259E+01  0.1118E+03
      0.956  0.4779E+01  0.1121E+03
      1.021  0.4571E+01  0.1124E+03
      1.085  0.4822E+01  0.1127E+03
      1.150  0.5741E+01  0.1131E+03
      1.214  0.6764E+01  0.1135E+03
      1.279  0.7500E+01  0.1140E+03
      1.344  0.7659E+01  0.1145E+03
      1.408  0.7566E+01  0.1150E+03
      1.473  0.8890E+01  0.1156E+03
      1.537  0.1149E+02  0.1163E+03
      1.602  0.1281E+02  0.1171E+03
      1.667  0.1238E+02  0.1179E+03
      1.731  0.1217E+02  0.1187E+03
      1.796  0.1214E+02  0.1195E+03
      1.860  0.1135E+02  0.1202E+03
      1.925  0.1075E+02  0.1209E+03
      1.989  0.1100E+02  0.1216E+03
      2.054  0.1169E+02  0.1224E+03
      2.119  0.1316E+02  0.1233E+03
      2.183  0.1516E+02  0.1242E+03
      2.248  0.1542E+02  0.1252E+03
      2.312  0.1319E+02  0.1261E+03
      2.377  0.1171E+02  0.1268E+03
      2.442  0.1212E+02  0.1276E+03
      2.506  0.1345E+02  0.1285E+03
      2.571  0.1526E+02  0.1295E+03
      2.635  0.1580E+02  0.1305E+03
      2.700  0.1446E+02  0.1314E+03
      2.765  0.1294E+02  0.1323E+03
      2.829  0.1166E+02  0.1330E+03
      2.894  0.1069E+02  0.1337E+03
      2.958  0.9981E+01  0.1344E+03
      3.023  0.8578E+01  0.1349E+03
      3.087  0.6479E+01  0.1353E+03
      3.152  0.4628E+01  0.1356E+03
      3.217  0.3221E+01  0.1358E+03
      3.281  0.1796E+01  0.1359E+03
      3.346  0.6547E+00  0.1360E+03
      3.410  0.1377E+00  0.1360E+03
      3.475  0.1524E-01  0.1360E+03
      3.540  0.8328E-03  0.1360E+03
      3.604  0.2152E-04  0.1360E+03
      3.669  0.2565E-06  0.1360E+03
      3.733  0.1387E-08  0.1360E+03
      3.798  0.3367E-11  0.1360E+03
      3.863  0.3636E-14  0.1360E+03
      3.927  0.0000E+00  0.1360E+03
      3.992  0.0000E+00  0.1360E+03
      4.056  0.0000E+00  0.1360E+03
      4.121  0.0000E+00  0.1360E+03
      4.185  0.0000E+00  0.1360E+03
      4.250  0.0000E+00  0.1360E+03
