   24   24    1    1
  0.4176334E+02  0.3540400E-09  0.1044544E-08  0.2750143E-08  0.5000000E-15
  1.000000000000000E-004
  CAR 
 unknown system                          
    108     54     68
 
  0.0000000E+00  0.0000000E+00  0.0000000E+00  0.9615385E-02
    1      -14.126345
    2      -13.584424
    3      -12.845157
    4      -12.794328
    5      -12.531657
    6      -12.220432
    7      -12.146324
    8      -12.086869
    9      -11.477444
   10      -11.261262
   11      -11.036807
   12      -10.877661
   13       -8.086880
   14       -7.911176
   15       -7.867399
   16       -7.046904
   17       -6.916996
   18       -6.746210
   19       -6.536383
   20       -6.465230
   21       -5.872414
   22       -5.630886
   23       -4.790723
   24       -4.488156
   25       -4.062986
   26       -3.734356
   27       -3.702234
   28       -3.491610
   29       -3.164770
   30       -3.100392
   31       -2.888129
   32       -2.854498
   33       -2.730497
   34       -2.597248
   35       -2.492978
   36       -2.429290
   37       -2.363951
   38       -2.281614
   39       -2.176513
   40       -2.075335
   41       -1.882563
   42       -1.772829
   43       -1.688593
   44       -1.660718
   45       -1.618678
   46       -1.546765
   47       -1.476611
   48       -1.406017
   49       -1.244550
   50       -1.027975
   51       -0.728400
   52       -0.412302
   53       -0.133297
   54        0.196845
   55        0.308458
   56        0.608998
   57        0.809787
   58        1.158799
   59        1.270919
   60        1.543308
   61        1.669564
   62        1.845172
   63        1.944052
   64        2.070232
   65        2.184589
   66        2.386989
   67        2.585716
   68        2.623989
 
  0.7692308E-01 -0.1387779E-16  0.0000000E+00  0.1923077E-01
    1      -14.080660
    2      -13.523082
    3      -12.793028
    4      -12.742249
    5      -12.476065
    6      -12.165227
    7      -12.086027
    8      -12.028243
    9      -11.428532
   10      -11.215318
   11      -10.988282
   12      -10.825328
   13       -8.119553
   14       -7.902570
   15       -7.828472
   16       -7.045386
   17       -6.884009
   18       -6.726425
   19       -6.530762
   20       -6.446143
   21       -5.838587
   22       -5.606250
   23       -4.793353
   24       -4.458204
   25       -4.060178
   26       -3.779187
   27       -3.720313
   28       -3.622793
   29       -3.467325
   30       -3.319640
   31       -3.303620
   32       -3.221107
   33       -2.927894
   34       -2.840917
   35       -2.760757
   36       -2.613236
   37       -2.520207
   38       -2.365819
   39       -2.245184
   40       -2.185843
   41       -2.070061
   42       -2.009417
   43       -1.909316
   44       -1.873514
   45       -1.828771
   46       -1.752186
   47       -1.562113
   48       -1.524195
   49       -1.224552
   50       -1.073840
   51       -0.910076
   52       -0.421448
   53       -0.030723
   54        0.275554
   55        0.379131
   56        0.767955
   57        1.119168
   58        1.529237
   59        1.679168
   60        1.745639
   61        2.070300
   62        2.142753
   63        2.196318
   64        2.261861
   65        2.531343
   66        2.565125
   67        2.723848
   68        2.901651
 
  0.1538462E+00 -0.2775558E-16  0.0000000E+00  0.1923077E-01
    1      -13.947931
    2      -13.340122
    3      -12.637349
    4      -12.586895
    5      -12.311300
    6      -12.002042
    7      -11.910978
    8      -11.855318
    9      -11.286628
   10      -11.081403
   11      -10.849046
   12      -10.671774
   13       -8.212457
   14       -7.889037
   15       -7.788522
   16       -7.049500
   17       -6.819963
   18       -6.704303
   19       -6.543199
   20       -6.399567
   21       -5.763255
   22       -5.567934
   23       -4.909818
   24       -4.608604
   25       -4.278776
   26       -4.236954
   27       -4.132469
   28       -4.054311
   29       -3.960124
   30       -3.859241
   31       -3.718542
   32       -3.517524
   33       -3.427678
   34       -3.264076
   35       -3.182598
   36       -3.027646
   37       -3.008209
   38       -2.881931
   39       -2.684844
   40       -2.568805
   41       -2.417313
   42       -2.261117
   43       -2.192099
   44       -2.081954
   45       -1.994331
   46       -1.849060
   47       -1.774100
   48       -1.676379
   49       -1.290394
   50       -1.186305
   51       -0.948126
   52       -0.503438
   53       -0.038226
   54        0.283178
   55        0.355618
   56        1.000722
   57        1.525592
   58        1.809500
   59        1.935396
   60        2.218553
   61        2.379556
   62        2.564052
   63        2.609666
   64        2.760492
   65        2.885022
   66        2.888205
   67        2.950779
   68        3.039613
 
  0.2307692E+00 -0.4163336E-16  0.0000000E+00  0.1923077E-01
    1      -13.743065
    2      -13.039112
    3      -12.381176
    4      -12.331588
    5      -12.044527
    6      -11.739505
    7      -11.641246
    8      -11.578293
    9      -11.069931
   10      -10.874556
   11      -10.645300
   12      -10.429294
   13       -8.402767
   14       -7.974960
   15       -7.866559
   16       -7.092679
   17       -6.890317
   18       -6.731968
   19       -6.677231
   20       -6.370594
   21       -5.781853
   22       -5.712577
   23       -5.382937
   24       -5.268382
   25       -4.856696
   26       -4.747936
   27       -4.651620
   28       -4.554106
   29       -4.307960
   30       -4.205681
   31       -4.005134
   32       -3.921281
   33       -3.825410
   34       -3.746312
   35       -3.511526
   36       -3.473625
   37       -3.248969
   38       -3.072657
   39       -2.997391
   40       -2.728855
   41       -2.583421
   42       -2.489526
   43       -2.433537
   44       -2.153945
   45       -1.986760
   46       -1.921640
   47       -1.844608
   48       -1.739928
   49       -1.509878
   50       -1.242539
   51       -1.104667
   52       -0.683244
   53       -0.163342
   54       -0.011122
   55        0.228499
   56        1.104025
   57        1.343945
   58        1.752291
   59        1.850387
   60        1.985296
   61        2.222911
   62        2.314480
   63        2.513895
   64        2.648498
   65        2.772081
   66        2.841419
   67        2.919691
   68        3.025042
 
  0.3076923E+00 -0.5551115E-16  0.0000000E+00  0.1923077E-01
    1      -13.496254
    2      -12.627342
    3      -12.032945
    4      -11.984343
    5      -11.692437
    6      -11.398494
    7      -11.313839
    8      -11.227216
    9      -10.825871
   10      -10.636141
   11      -10.458843
   12      -10.126744
   13       -8.697536
   14       -8.277004
   15       -8.128275
   16       -7.304558
   17       -7.140181
   18       -7.037120
   19       -6.945041
   20       -6.558326
   21       -6.230343
   22       -6.199879
   23       -6.007311
   24       -5.754394
   25       -5.254156
   26       -5.064382
   27       -4.839242
   28       -4.748770
   29       -4.656117
   30       -4.414551
   31       -4.314171
   32       -4.260844
   33       -4.122496
   34       -3.849532
   35       -3.461730
   36       -3.426178
   37       -3.155889
   38       -3.097423
   39       -3.052870
   40       -2.873847
   41       -2.794691
   42       -2.644223
   43       -2.463468
   44       -2.289391
   45       -2.101522
   46       -2.024124
   47       -1.915534
   48       -1.893377
   49       -1.750113
   50       -1.366947
   51       -1.292361
   52       -0.923642
   53       -0.501258
   54       -0.317375
   55        0.155698
   56        0.941121
   57        1.086082
   58        1.546860
   59        1.612553
   60        1.791516
   61        1.941908
   62        2.152526
   63        2.231671
   64        2.384046
   65        2.559317
   66        2.667298
   67        2.777315
   68        2.862701
 
  0.3846154E+00 -0.8326673E-16  0.0000000E+00  0.1923077E-01
    1      -13.260142
    2      -12.118961
    3      -11.613767
    4      -11.564321
    5      -11.293339
    6      -11.038527
    7      -10.980644
    8      -10.888257
    9      -10.671501
   10      -10.499298
   11      -10.479289
   12       -9.832396
   13       -8.873960
   14       -8.629980
   15       -8.420730
   16       -7.715585
   17       -7.503563
   18       -7.473207
   19       -7.443593
   20       -7.120373
   21       -6.803797
   22       -6.705030
   23       -6.584556
   24       -6.163268
   25       -5.256919
   26       -5.177584
   27       -4.885283
   28       -4.692937
   29       -4.570841
   30       -4.406710
   31       -4.266492
   32       -4.119499
   33       -3.971580
   34       -3.702187
   35       -3.695978
   36       -3.398452
   37       -3.310587
   38       -3.202949
   39       -3.062162
   40       -2.981074
   41       -2.835394
   42       -2.610195
   43       -2.537500
   44       -2.437122
   45       -2.335071
   46       -2.249283
   47       -2.084112
   48       -2.039406
   49       -1.873346
   50       -1.517846
   51       -1.407354
   52       -1.102254
   53       -0.853149
   54       -0.544043
   55        0.110265
   56        0.708118
   57        0.862102
   58        1.367219
   59        1.545168
   60        1.668504
   61        1.713966
   62        1.989148
   63        2.185795
   64        2.229077
   65        2.259694
   66        2.379663
   67        2.636737
   68        2.763665
 
  0.4615385E+00 -0.8326673E-16  0.0000000E+00  0.1923077E-01
    1      -13.109577
    2      -11.545167
    3      -11.190778
    4      -11.133860
    5      -10.988665
    6      -10.889053
    7      -10.820555
    8      -10.772294
    9      -10.719759
   10      -10.679393
   11      -10.559037
   12       -9.680747
   13       -8.732033
   14       -8.685588
   15       -8.483709
   16       -8.122849
   17       -8.029485
   18       -7.899363
   19       -7.613850
   20       -7.353688
   21       -7.323686
   22       -7.223482
   23       -7.028949
   24       -6.333764
   25       -5.222894
   26       -4.959389
   27       -4.844925
   28       -4.546180
   29       -4.335907
   30       -4.188617
   31       -4.092049
   32       -3.995111
   33       -3.873783
   34       -3.755624
   35       -3.632803
   36       -3.596035
   37       -3.532187
   38       -3.298496
   39       -3.134663
   40       -3.030906
   41       -2.970032
   42       -2.739949
   43       -2.673555
   44       -2.534876
   45       -2.410514
   46       -2.278704
   47       -2.226972
   48       -2.096407
   49       -1.763110
   50       -1.607222
   51       -1.543026
   52       -1.234216
   53       -1.060960
   54       -0.605156
   55       -0.015773
   56        0.597691
   57        0.787844
   58        1.325272
   59        1.490046
   60        1.592638
   61        1.633778
   62        1.831116
   63        2.028173
   64        2.133749
   65        2.193188
   66        2.353598
   67        2.475965
   68        2.606370
 
  0.0000000E+00  0.2500000E+00  0.0000000E+00  0.1923077E-01
    1      -14.118162
    2      -13.529019
    3      -13.018911
    4      -12.868011
    5      -12.529842
    6      -12.204022
    7      -12.012497
    8      -11.908378
    9      -11.522388
   10      -11.302902
   11      -11.045143
   12      -10.872464
   13       -8.560333
   14       -7.934229
   15       -7.439488
   16       -7.352146
   17       -6.732226
   18       -6.711809
   19       -6.614208
   20       -6.199460
   21       -5.793100
   22       -5.532667
   23       -4.688015
   24       -4.308781
   25       -4.115587
   26       -4.039532
   27       -3.676245
   28       -3.631913
   29       -3.376107
   30       -3.172061
   31       -2.898518
   32       -2.764963
   33       -2.752469
   34       -2.613331
   35       -2.463793
   36       -2.429169
   37       -2.386658
   38       -2.255119
   39       -2.178124
   40       -2.128540
   41       -2.008617
   42       -1.926264
   43       -1.673764
   44       -1.644943
   45       -1.592442
   46       -1.473691
   47       -1.407197
   48       -1.374522
   49       -1.183675
   50       -0.986100
   51       -0.805609
   52       -0.618845
   53       -0.150441
   54        0.303615
   55        0.415686
   56        0.740131
   57        1.035689
   58        1.175729
   59        1.350592
   60        1.554408
   61        1.681216
   62        1.801264
   63        1.922535
   64        2.123248
   65        2.215312
   66        2.515577
   67        2.609321
   68        2.705682
 
  0.7692308E-01  0.2500000E+00  0.0000000E+00  0.1923077E-01
    1      -14.070991
    2      -13.452161
    3      -12.999807
    4      -12.827829
    5      -12.472718
    6      -12.144466
    7      -11.939815
    8      -11.810053
    9      -11.481014
   10      -11.260292
   11      -11.000669
   12      -10.821490
   13       -8.618654
   14       -7.933195
   15       -7.414654
   16       -7.346750
   17       -6.729790
   18       -6.691113
   19       -6.559600
   20       -6.119125
   21       -5.743474
   22       -5.478459
   23       -4.732467
   24       -4.372249
   25       -4.151941
   26       -4.085547
   27       -3.723220
   28       -3.650931
   29       -3.562120
   30       -3.430926
   31       -3.343081
   32       -3.073280
   33       -2.946537
   34       -2.828786
   35       -2.713289
   36       -2.610189
   37       -2.531923
   38       -2.486482
   39       -2.347640
   40       -2.213340
   41       -2.164176
   42       -2.055306
   43       -2.008697
   44       -1.885043
   45       -1.811860
   46       -1.780056
   47       -1.467845
   48       -1.379143
   49       -1.132367
   50       -1.048639
   51       -0.904119
   52       -0.674792
   53       -0.018168
   54        0.360856
   55        0.486026
   56        0.990578
   57        1.264082
   58        1.562187
   59        1.681427
   60        1.808936
   61        1.918699
   62        2.130803
   63        2.192828
   64        2.461515
   65        2.510902
   66        2.612794
   67        2.897227
   68        2.966393
 
  0.1538462E+00  0.2500000E+00  0.0000000E+00  0.1923077E-01
    1      -13.938326
    2      -13.255610
    3      -12.863292
    4      -12.673347
    5      -12.306386
    6      -11.977762
    7      -11.777155
    8      -11.613031
    9      -11.341574
   10      -11.118244
   11      -10.859184
   12      -10.672715
   13       -8.684116
   14       -7.933347
   15       -7.380759
   16       -7.322763
   17       -6.704815
   18       -6.646375
   19       -6.530078
   20       -6.077682
   21       -5.695224
   22       -5.502851
   23       -4.885985
   24       -4.741129
   25       -4.428585
   26       -4.347657
   27       -4.255515
   28       -4.033402
   29       -3.992777
   30       -3.720706
   31       -3.645538
   32       -3.496840
   33       -3.408857
   34       -3.172530
   35       -3.129071
   36       -3.007314
   37       -2.952990
   38       -2.834763
   39       -2.717379
   40       -2.644053
   41       -2.554213
   42       -2.472595
   43       -2.355936
   44       -2.080100
   45       -1.993228
   46       -1.907740
   47       -1.746510
   48       -1.525930
   49       -1.256768
   50       -1.175970
   51       -0.921805
   52       -0.650597
   53       -0.046752
   54        0.259153
   55        0.437709
   56        1.221126
   57        1.525317
   58        1.680409
   59        1.844967
   60        2.069210
   61        2.304952
   62        2.650990
   63        2.692998
   64        2.808623
   65        2.973348
   66        3.005295
   67        3.056518
   68        3.166642
 
  0.2307692E+00  0.2500000E+00  0.0000000E+00  0.1923077E-01
    1      -13.735164
    2      -12.944220
    3      -12.611898
    4      -12.407803
    5      -12.038697
    6      -11.712204
    7      -11.541576
    8      -11.336926
    9      -11.119876
   10      -10.892228
   11      -10.641503
   12      -10.437980
   13       -8.815229
   14       -8.027091
   15       -7.438884
   16       -7.307940
   17       -6.740217
   18       -6.707552
   19       -6.650159
   20       -6.196996
   21       -5.907362
   22       -5.858574
   23       -5.271196
   24       -5.237853
   25       -5.073747
   26       -4.712506
   27       -4.653928
   28       -4.594751
   29       -4.368731
   30       -4.160841
   31       -4.059767
   32       -3.884775
   33       -3.769219
   34       -3.507456
   35       -3.320654
   36       -3.244047
   37       -3.159467
   38       -3.135092
   39       -3.067983
   40       -2.763675
   41       -2.704572
   42       -2.572133
   43       -2.533416
   44       -2.136858
   45       -2.065195
   46       -1.979713
   47       -1.857740
   48       -1.804128
   49       -1.433416
   50       -1.269739
   51       -1.074610
   52       -0.718618
   53       -0.303429
   54       -0.012733
   55        0.251879
   56        1.128891
   57        1.193879
   58        1.428104
   59        1.573113
   60        1.769676
   61        2.177928
   62        2.446408
   63        2.563907
   64        2.672813
   65        2.784729
   66        2.998833
   67        3.130657
   68        3.214654
 
  0.3076923E+00  0.2500000E+00  0.0000000E+00  0.1923077E-01
    1      -13.491196
    2      -12.527507
    3      -12.252813
    4      -12.041000
    5      -11.687261
    6      -11.368160
    7      -11.260120
    8      -11.023600
    9      -10.856406
   10      -10.634881
   11      -10.435466
   12      -10.143476
   13       -9.014455
   14       -8.282972
   15       -7.751255
   16       -7.380171
   17       -7.157079
   18       -7.009434
   19       -6.981050
   20       -6.673713
   21       -6.299933
   22       -6.216641
   23       -5.962003
   24       -5.744791
   25       -5.424110
   26       -5.010840
   27       -4.972706
   28       -4.804604
   29       -4.480216
   30       -4.423829
   31       -4.298545
   32       -4.108532
   33       -4.052931
   34       -3.698131
   35       -3.386992
   36       -3.203591
   37       -3.115791
   38       -3.049718
   39       -2.970801
   40       -2.900865
   41       -2.793604
   42       -2.605204
   43       -2.534659
   44       -2.417904
   45       -2.236690
   46       -2.037576
   47       -1.978341
   48       -1.899667
   49       -1.787099
   50       -1.390347
   51       -1.306993
   52       -0.913850
   53       -0.627520
   54       -0.372166
   55        0.136596
   56        0.739954
   57        0.937151
   58        1.192431
   59        1.258450
   60        1.588373
   61        2.089021
   62        2.225982
   63        2.294557
   64        2.452277
   65        2.532469
   66        2.603929
   67        2.876162
   68        3.022155
 
  0.3846154E+00  0.2500000E+00  0.0000000E+00  0.1923077E-01
    1      -13.257943
    2      -12.023959
    3      -11.802742
    4      -11.596684
    5      -11.291602
    6      -11.007568
    7      -10.966159
    8      -10.766142
    9      -10.645948
   10      -10.511814
   11      -10.483980
   12       -9.846930
   13       -9.004748
   14       -8.566720
   15       -8.155032
   16       -7.823700
   17       -7.760101
   18       -7.472728
   19       -7.399191
   20       -7.116626
   21       -6.739571
   22       -6.704954
   23       -6.613905
   24       -6.199321
   25       -5.387500
   26       -5.145305
   27       -5.001289
   28       -4.829829
   29       -4.545544
   30       -4.326001
   31       -4.165495
   32       -3.935583
   33       -3.903752
   34       -3.568669
   35       -3.398800
   36       -3.345883
   37       -3.318457
   38       -3.167302
   39       -3.063193
   40       -2.960508
   41       -2.837833
   42       -2.691735
   43       -2.625148
   44       -2.498217
   45       -2.364388
   46       -2.243588
   47       -2.124528
   48       -2.040310
   49       -1.893536
   50       -1.600479
   51       -1.437502
   52       -1.138484
   53       -0.847209
   54       -0.639074
   55        0.057391
   56        0.608301
   57        0.740027
   58        1.155902
   59        1.275825
   60        1.491428
   61        1.770505
   62        1.973953
   63        2.047659
   64        2.211293
   65        2.393687
   66        2.558054
   67        2.623304
   68        2.770850
 
  0.4615385E+00  0.2500000E+00  0.0000000E+00  0.1923077E-01
    1      -13.109104
    2      -11.474229
    3      -11.307477
    4      -11.145070
    5      -11.001575
    6      -10.909330
    7      -10.823672
    8      -10.743018
    9      -10.696878
   10      -10.625236
   11      -10.567559
   12       -9.674414
   13       -8.696798
   14       -8.598451
   15       -8.443804
   16       -8.371238
   17       -8.100108
   18       -7.799068
   19       -7.559738
   20       -7.360959
   21       -7.310087
   22       -7.183046
   23       -7.055233
   24       -6.400737
   25       -5.274997
   26       -5.062487
   27       -4.820321
   28       -4.517016
   29       -4.282744
   30       -4.185680
   31       -4.075898
   32       -3.977215
   33       -3.783578
   34       -3.701658
   35       -3.592255
   36       -3.540190
   37       -3.483733
   38       -3.306462
   39       -3.141281
   40       -3.023089
   41       -2.981011
   42       -2.715028
   43       -2.675534
   44       -2.635638
   45       -2.546374
   46       -2.272453
   47       -2.178536
   48       -2.129198
   49       -1.770276
   50       -1.630030
   51       -1.530298
   52       -1.271805
   53       -1.018905
   54       -0.643758
   55        0.076296
   56        0.556521
   57        0.774317
   58        1.361459
   59        1.434155
   60        1.481036
   61        1.523893
   62        1.740676
   63        2.001288
   64        2.070190
   65        2.277998
   66        2.407874
   67        2.465788
   68        2.591699
 
 -0.4615385E+00  0.2500000E+00  0.0000000E+00  0.1923077E-01
    1      -13.109978
    2      -11.578860
    3      -11.139503
    4      -11.114061
    5      -10.974818
    6      -10.852846
    7      -10.810682
    8      -10.797543
    9      -10.747299
   10      -10.705479
   11      -10.574863
   12       -9.674187
   13       -8.801248
   14       -8.770460
   15       -8.477569
   16       -8.045047
   17       -7.987314
   18       -7.806749
   19       -7.647279
   20       -7.324175
   21       -7.280159
   22       -7.257002
   23       -7.023174
   24       -6.423004
   25       -5.319957
   26       -4.779411
   27       -4.687241
   28       -4.620733
   29       -4.409911
   30       -4.148298
   31       -4.061310
   32       -4.031766
   33       -3.928088
   34       -3.801579
   35       -3.689294
   36       -3.639759
   37       -3.482650
   38       -3.396370
   39       -3.164533
   40       -3.003868
   41       -2.852148
   42       -2.762930
   43       -2.731412
   44       -2.681370
   45       -2.431119
   46       -2.249575
   47       -2.204677
   48       -2.107026
   49       -1.747712
   50       -1.574799
   51       -1.483845
   52       -1.205333
   53       -0.957718
   54       -0.604436
   55        0.123255
   56        0.589161
   57        0.931865
   58        1.319651
   59        1.485586
   60        1.618822
   61        1.697115
   62        1.762600
   63        2.009257
   64        2.091494
   65        2.212814
   66        2.345136
   67        2.520578
   68        2.556014
 
 -0.3846154E+00  0.2500000E+00  0.0000000E+00  0.1923077E-01
    1      -13.261298
    2      -12.145515
    3      -11.553535
    4      -11.528232
    5      -11.291565
    6      -11.063134
    7      -10.976838
    8      -10.934663
    9      -10.674247
   10      -10.514810
   11      -10.494497
   12       -9.844432
   13       -8.785914
   14       -8.539500
   15       -8.527152
   16       -7.910294
   17       -7.487157
   18       -7.464833
   19       -7.371831
   20       -6.906532
   21       -6.852522
   22       -6.708288
   23       -6.536857
   24       -6.288378
   25       -5.256455
   26       -5.094837
   27       -4.893807
   28       -4.745700
   29       -4.455001
   30       -4.389652
   31       -4.292274
   32       -4.141281
   33       -4.050350
   34       -3.765559
   35       -3.663065
   36       -3.451921
   37       -3.375399
   38       -3.221977
   39       -3.128307
   40       -3.015995
   41       -2.781342
   42       -2.658141
   43       -2.609065
   44       -2.535718
   45       -2.304517
   46       -2.221404
   47       -2.026869
   48       -1.988218
   49       -1.839549
   50       -1.477086
   51       -1.344838
   52       -1.056098
   53       -0.777228
   54       -0.547361
   55        0.189924
   56        0.757051
   57        1.070710
   58        1.336326
   59        1.574917
   60        1.720743
   61        1.852083
   62        2.013055
   63        2.087653
   64        2.156974
   65        2.251489
   66        2.401091
   67        2.571734
   68        2.734218
 
 -0.3076923E+00  0.2500000E+00  0.0000000E+00  0.1923077E-01
    1      -13.497461
    2      -12.639631
    3      -11.991723
    4      -11.970837
    5      -11.692302
    6      -11.421100
    7      -11.307995
    8      -11.260687
    9      -10.817605
   10      -10.653061
   11      -10.464880
   12      -10.138966
   13       -8.598974
   14       -8.231092
   15       -8.096272
   16       -7.592179
   17       -7.110277
   18       -7.042730
   19       -6.916251
   20       -6.531361
   21       -6.199434
   22       -6.039443
   23       -6.012132
   24       -5.853366
   25       -5.192383
   26       -5.007242
   27       -4.932518
   28       -4.755480
   29       -4.685786
   30       -4.366023
   31       -4.312956
   32       -4.256994
   33       -4.182374
   34       -3.841395
   35       -3.514055
   36       -3.467088
   37       -3.150228
   38       -3.109684
   39       -3.002013
   40       -2.892602
   41       -2.812171
   42       -2.648817
   43       -2.479624
   44       -2.317729
   45       -2.074281
   46       -2.035791
   47       -1.917875
   48       -1.881972
   49       -1.747333
   50       -1.346870
   51       -1.224275
   52       -0.905634
   53       -0.478213
   54       -0.408458
   55        0.353672
   56        0.896218
   57        1.071304
   58        1.586969
   59        1.710370
   60        1.882686
   61        1.949537
   62        2.156136
   63        2.257759
   64        2.346368
   65        2.443518
   66        2.632549
   67        2.719649
   68        2.958722
 
 -0.2307692E+00  0.2500000E+00  0.0000000E+00  0.1923077E-01
    1      -13.742930
    2      -13.034862
    3      -12.395770
    4      -12.333780
    5      -12.044713
    6      -11.748469
    7      -11.621706
    8      -11.561246
    9      -11.073645
   10      -10.883215
   11      -10.643875
   12      -10.436973
   13       -8.443207
   14       -7.854255
   15       -7.816058
   16       -7.311317
   17       -6.792559
   18       -6.740290
   19       -6.681379
   20       -6.461519
   21       -5.784191
   22       -5.634901
   23       -5.377472
   24       -5.198924
   25       -4.878353
   26       -4.685168
   27       -4.644780
   28       -4.556722
   29       -4.424194
   30       -4.223751
   31       -4.093287
   32       -3.903135
   33       -3.820572
   34       -3.636244
   35       -3.492167
   36       -3.441231
   37       -3.247105
   38       -3.041617
   39       -2.933500
   40       -2.808214
   41       -2.658188
   42       -2.490900
   43       -2.313197
   44       -2.270077
   45       -2.002641
   46       -1.928052
   47       -1.841969
   48       -1.770595
   49       -1.505110
   50       -1.237158
   51       -1.092278
   52       -0.629437
   53       -0.255944
   54       -0.006005
   55        0.493090
   56        0.746893
   57        1.307393
   58        1.785848
   59        1.894454
   60        1.963894
   61        2.214115
   62        2.338439
   63        2.557442
   64        2.672461
   65        2.730110
   66        2.872787
   67        2.938896
   68        3.170449
 
 -0.1538462E+00  0.2500000E+00  0.0000000E+00  0.1923077E-01
    1      -13.945277
    2      -13.318614
    3      -12.710902
    4      -12.613717
    5      -12.311225
    6      -11.999554
    7      -11.853839
    8      -11.781424
    9      -11.305961
   10      -11.097878
   11      -10.846962
   12      -10.673489
   13       -8.423362
   14       -7.840552
   15       -7.577627
   16       -7.253194
   17       -6.733694
   18       -6.602658
   19       -6.545730
   20       -6.462724
   21       -5.738216
   22       -5.535610
   23       -4.885240
   24       -4.492107
   25       -4.352664
   26       -4.322509
   27       -4.208110
   28       -4.085964
   29       -3.959912
   30       -3.770411
   31       -3.707147
   32       -3.527740
   33       -3.432875
   34       -3.216696
   35       -3.104896
   36       -3.015348
   37       -2.964731
   38       -2.937972
   39       -2.689739
   40       -2.558425
   41       -2.516203
   42       -2.245166
   43       -2.176452
   44       -2.163116
   45       -1.980236
   46       -1.931011
   47       -1.788555
   48       -1.646077
   49       -1.274192
   50       -1.206406
   51       -0.935615
   52       -0.505623
   53       -0.042040
   54        0.221621
   55        0.570288
   56        0.787129
   57        1.483491
   58        1.759763
   59        1.953807
   60        2.185388
   61        2.406079
   62        2.617190
   63        2.734428
   64        2.797766
   65        2.853951
   66        2.914170
   67        3.073412
   68        3.128158
 
 -0.7692308E-01  0.2500000E+00  0.0000000E+00  0.1923077E-01
    1      -14.075046
    2      -13.484346
    3      -12.921332
    4      -12.794992
    5      -12.475356