 vasp.5.3.5 31Mar14 (build Oct 29 2014 16:16:03) complex                        
  
 executed on          Linux-UFHPC date 2016.02.09  18:31:06
 running on    8 total cores
 distrk:  each k-point on    8 cores,    1 groups
 distr:  one band on NCORES_PER_BAND=   2 cores,    4 groups


--------------------------------------------------------------------------------------------------------


 INCAR:
 POTCAR:    PAW_PBE P 17Jan2003                   
 POTCAR:   PAW_PBE Si 05Jan2001                   

 ----------------------------------------------------------------------------- 
|                                                                             |
|  ADVICE TO THIS USER RUNNING 'VASP/VAMP'   (HEAR YOUR MASTER'S VOICE ...):  |
|                                                                             |
|      You have switched on vdW-DFT.                                          |
|      This routine was written and supplied by Jiri Klimes.                  |
|      We recommed that you carefully read and cite the following             |
|      publication                                                            |
|      J. Klimes, D.R. Bowler, A. Michelides                                  |
|        J. Phys.: Cond Matt. 22 022201 (2010)                                |
|      J. Klimes, D.R. Bowler, A. Michelides                                  |
|        Phys. Rev. B. 83, 195131 (2011)                                      |
|      and references therein.                                                |
|                                                                             |
 ----------------------------------------------------------------------------- 

 POTCAR:    PAW_PBE P 17Jan2003                   
   VRHFIN =P : s2p3                                                             
   LEXCH  = PE                                                                  
   EATOM  =   176.0430 eV,   12.9388 Ry                                         
                                                                                
   TITEL  = PAW_PBE P 17Jan2003                                                 
   LULTRA =        F    use ultrasoft PP ?                                      
   IUNSCR =        1    unscreen: 0-lin 1-nonlin 2-no                           
   RPACOR =    1.500    partial core radius                                     
   POMASS =   30.974; ZVAL   =    5.000    mass and valenz                      
   RCORE  =    1.900    outmost cutoff radius                                   
   RWIGS  =    2.330; RWIGS  =    1.233    wigner-seitz radius (au A)           
   ENMAX  =  270.000; ENMIN  =  191.280 eV                                      
   ICORE  =        2    local potential                                         
   LCOR   =        T    correct aug charges                                     
   LPAW   =        T    paw PP                                                  
   EAUG   =  342.924                                                            
   DEXC   =    -.002                                                            
   RMAX   =    2.887    core radius for proj-oper                               
   RAUG   =    1.300    factor for augmentation sphere                          
   RDEP   =    1.931    radius for radial grids                                 
   QCUT   =   -4.330; QGAM   =    8.659    optimization parameters              
                                                                                
   Description                                                                  
     l     E      TYP  RCUT    TYP  RCUT                                        
     0   .000     23  1.900                                                     
     0   .000     23  1.900                                                     
     1   .000     23  1.900                                                     
     1   .000     23  1.900                                                     
     2   .000     23  1.900                                                     
  local pseudopotential read in
  partial core-charges read in
  atomic valenz-charges read in
  non local Contribution for L=           0  read in
    real space projection operators read in
  non local Contribution for L=           0  read in
    real space projection operators read in
  non local Contribution for L=           1  read in
    real space projection operators read in
  non local Contribution for L=           1  read in
    real space projection operators read in
    PAW grid and wavefunctions read in
 
   number of l-projection  operators is LMAX  =           4
   number of lm-projection operators is LMMAX =           8
 
 POTCAR:   PAW_PBE Si 05Jan2001                   
   VRHFIN =Si: s2p2                                                             
   LEXCH  = PE                                                                  
   EATOM  =   103.0669 eV,    7.5752 Ry                                         
                                                                                
   TITEL  = PAW_PBE Si 05Jan2001                                                
   LULTRA =        F    use ultrasoft PP ?                                      
   IUNSCR =        1    unscreen: 0-lin 1-nonlin 2-no                           
   RPACOR =    1.500    partial core radius                                     
   POMASS =   28.085; ZVAL   =    4.000    mass and valenz                      
   RCORE  =    1.900    outmost cutoff radius                                   
   RWIGS  =    2.480; RWIGS  =    1.312    wigner-seitz radius (au A)           
   ENMAX  =  245.345; ENMIN  =  184.009 eV                                      
   ICORE  =        2    local potential                                         
   LCOR   =        T    correct aug charges                                     
   LPAW   =        T    paw PP                                                  
   EAUG   =  322.069                                                            
   DEXC   =    -.007                                                            
   RMAX   =    2.944    core radius for proj-oper                               
   RAUG   =    1.300    factor for augmentation sphere                          
   RDEP   =    1.993    radius for radial grids                                 
   QCUT   =   -4.246; QGAM   =    8.493    optimization parameters              
                                                                                
   Description                                                                  
     l     E      TYP  RCUT    TYP  RCUT                                        
     0   .000     23  1.900                                                     
     0   .000     23  1.900                                                     
     1   .000     23  1.900                                                     
     1   .000     23  1.900                                                     
     2   .000      7  1.900                                                     
  local pseudopotential read in
  partial core-charges read in
  atomic valenz-charges read in
  non local Contribution for L=           0  read in
    real space projection operators read in
  non local Contribution for L=           0  read in
    real space projection operators read in
  non local Contribution for L=           1  read in
    real space projection operators read in
  non local Contribution for L=           1  read in
    real space projection operators read in
    PAW grid and wavefunctions read in
 
   number of l-projection  operators is LMAX  =           4
   number of lm-projection operators is LMMAX =           8
 
 Optimization of the real space projectors (new method)

 maximal supplied QI-value         = 19.84
 optimisation between [QCUT,QGAM] = [  8.73, 17.66] = [ 21.34, 87.33] Ry 
 Optimized for a Real-space Cutoff    1.50 Angstroem

   l    n(q)    QCUT    max X(q) W(low)/X(q) W(high)/X(q)  e(spline) 
   0      8     8.731     6.651    0.16E-04    0.15E-04    0.77E-08
   0      8     8.731    90.285    0.16E-03    0.90E-04    0.16E-06
   1      7     8.731     4.328    0.47E-04    0.36E-04    0.45E-07
   1      7     8.731    54.583    0.13E-03    0.39E-03    0.20E-06
 Optimization of the real space projectors (new method)

 maximal supplied QI-value         = 19.84
 optimisation between [QCUT,QGAM] = [  8.73, 17.66] = [ 21.34, 87.33] Ry 
 Optimized for a Real-space Cutoff    1.46 Angstroem

   l    n(q)    QCUT    max X(q) W(low)/X(q) W(high)/X(q)  e(spline) 
   0      8     8.731     8.708    0.16E-04    0.11E-04    0.68E-08
   0      8     8.731   106.241    0.24E-03    0.77E-04    0.13E-06
   1      7     8.731     5.901    0.34E-04    0.38E-04    0.36E-07
   1      7     8.731    73.241    0.12E-03    0.39E-03    0.15E-06

 ----------------------------------------------------------------------------- 
|                                                                             |
|  ADVICE TO THIS USER RUNNING 'VASP/VAMP'   (HEAR YOUR MASTER'S VOICE ...):  |
|                                                                             |
|      You enforced a specific xc-type in the INCAR file,                     |
|      a different type was found on the POTCAR file                          |
|          I HOPE YOU KNOW, WHAT YOU ARE  DOING                               |
|                                                                             |
 ----------------------------------------------------------------------------- 

  PAW_PBE P 17Jan2003                   :
 energy of atom  1       EATOM= -176.0430
 kinetic energy error for atom=    0.0040 (will be added to EATOM!!)
 PAW_PBE Si 05Jan2001                   :
 energy of atom  2       EATOM= -103.0669
 kinetic energy error for atom=    0.0021 (will be added to EATOM!!)
 
 
 POSCAR: Si12                                    
  positions in direct lattice
  No initial velocities read in
 exchange correlation table for  LEXCH =       42
   RHO(1)=    0.500       N(1)  =     2000
   RHO(2)=  100.500       N(2)  =     4000
 


--------------------------------------------------------------------------------------------------------


 ion  position               nearest neighbor table
   1  0.114  0.228  0.233-  15 2.28  21 2.29  21 2.29
   2  0.814  0.128  0.515-  16 2.28  22 2.29  22 2.29
   3  0.458  0.916  0.209-  21 2.28  13 2.30  13 2.30
   4  0.158  0.816  0.491-  22 2.28  14 2.30  14 2.30
   5  0.311  0.622  0.084-  17 2.28  23 2.30  23 2.30
   6  0.311  0.622  0.366-  24 1.79  18 2.28  14 2.74
   7  0.999  0.998  0.086-  19 2.29  19 2.29  13 2.32
   8  0.999  0.998  0.368-  20 2.29  20 2.29
   9  0.655  0.310  0.060-  19 2.28  17 2.29  17 2.29
  10  0.655  0.310  0.342-  20 2.28  18 2.29  18 2.29
  11  0.770  0.539  0.207-  15 2.29  15 2.29  23 2.32
  12  0.470  0.439  0.489-  16 2.29  16 2.29  24 2.32
  13  0.940  0.879  0.158-   3 2.30   3 2.30   7 2.32  23 2.35
  14  0.640  0.779  0.440-   4 2.30   4 2.30  24 2.35   6 2.74
  15  0.205  0.410  0.186-   1 2.28  11 2.29  11 2.29  17 2.37
  16  0.905  0.310  0.468-   2 2.28  12 2.29  12 2.29  18 2.70  20 2.99
  17  0.202  0.404  0.100-   5 2.28   9 2.29   9 2.29  15 2.37
  18  0.202  0.404  0.382-  24 2.07   6 2.28  10 2.29  10 2.29  16 2.70
  19  0.564  0.128  0.108-   9 2.28   7 2.29   7 2.29  21 2.37
  20  0.564  0.128  0.390-  10 2.28   8 2.29   8 2.29  22 2.70  16 2.99
  21  0.567  0.134  0.194-   3 2.28   1 2.29   1 2.29  19 2.37
  22  0.267  0.034  0.476-   4 2.28   2 2.29   2 2.29  20 2.70
  23  0.829  0.658  0.136-   5 2.30   5 2.30  11 2.32  13 2.35
  24  0.529  0.558  0.418-   6 1.79  18 2.07  12 2.32  14 2.35
 
  LATTYP: Found a base centered orthorhombic cell.
 ALAT       =     3.5404000000
 B/A-ratio  =     5.8153587165
 C/A-ratio  =     7.7678875268
  
  Lattice vectors:
  
 A1 = (   1.7702000000,  10.2943480000,   0.0000000000)
 A2 = (   1.7702000000, -10.2943480000,   0.0000000000)
 A3 = (   0.0000000000,   0.0000000000, -27.5014290000)


Analysis of symmetry for initial positions (statically):
=====================================================================
 Subroutine PRICEL returns:
 Original cell was already a primitive cell.
 

 Routine SETGRP: Setting up the symmetry group for a 
 base centered orthorhombic supercell.


 Subroutine GETGRP returns: Found  1 space group operations
 (whereof  1 operations were pure point group operations)
 out of a pool of  8 trial point group operations.


The static configuration has the point symmetry C_1 .


Analysis of symmetry for dynamics (positions and initial velocities):
=====================================================================
 Subroutine PRICEL returns:
 Original cell was already a primitive cell.
 

 Routine SETGRP: Setting up the symmetry group for a 
 base centered orthorhombic supercell.


 Subroutine GETGRP returns: Found  1 space group operations
 (whereof  1 operations were pure point group operations)
 out of a pool of  8 trial point group operations.


The dynamic configuration has the point symmetry C_1 .
 
 
 KPOINTS: pymatgen generated KPOINTS with grid den

Automatic generation of k-mesh.
Space group operators:
 irot       det(A)        alpha          n_x          n_y          n_z        tau_x        tau_y        tau_z
    1     1.000000     0.000000     1.000000     0.000000     0.000000     0.000000     0.000000     0.000000
 
 Subroutine IBZKPT returns following result:
 ===========================================
 
 Found     54 irreducible k-points:
 
 Following reciprocal coordinates:
            Coordinates               Weight
  0.000000  0.000000  0.000000      1.000000
  0.076923 -0.000000  0.000000      2.000000
  0.153846 -0.000000  0.000000      2.000000
  0.230769 -0.000000  0.000000      2.000000
  0.307692 -0.000000  0.000000      2.000000
  0.384615 -0.000000  0.000000      2.000000
  0.461538 -0.000000  0.000000      2.000000
  0.000000  0.250000  0.000000      2.000000
  0.076923  0.250000  0.000000      2.000000
  0.153846  0.250000  0.000000      2.000000
  0.230769  0.250000  0.000000      2.000000
  0.307692  0.250000  0.000000      2.000000
  0.384615  0.250000  0.000000      2.000000
  0.461538  0.250000  0.000000      2.000000
 -0.461538  0.250000  0.000000      2.000000
 -0.384615  0.250000  0.000000      2.000000
 -0.307692  0.250000  0.000000      2.000000
 -0.230769  0.250000  0.000000      2.000000
 -0.153846  0.250000  0.000000      2.000000
 -0.076923  0.250000  0.000000      2.000000
  0.000000  0.500000  0.000000      1.000000
  0.076923  0.500000  0.000000      2.000000
  0.153846  0.500000  0.000000      2.000000
  0.230769  0.500000  0.000000      2.000000
  0.307692  0.500000  0.000000      2.000000
  0.384615  0.500000  0.000000      2.000000
  0.461538  0.500000  0.000000      2.000000
  0.000000  0.000000  0.500000      1.000000
  0.076923 -0.000000  0.500000      2.000000
  0.153846 -0.000000  0.500000      2.000000
  0.230769 -0.000000  0.500000      2.000000
  0.307692 -0.000000  0.500000      2.000000
  0.384615 -0.000000  0.500000      2.000000
  0.461538 -0.000000  0.500000      2.000000
  0.000000  0.250000  0.500000      2.000000
  0.076923  0.250000  0.500000      2.000000
  0.153846  0.250000  0.500000      2.000000
  0.230769  0.250000  0.500000      2.000000
  0.307692  0.250000  0.500000      2.000000
  0.384615  0.250000  0.500000      2.000000
  0.461538  0.250000  0.500000      2.000000
 -0.461538  0.250000  0.500000      2.000000
 -0.384615  0.250000  0.500000      2.000000
 -0.307692  0.250000  0.500000      2.000000
 -0.230769  0.250000  0.500000      2.000000
 -0.153846  0.250000  0.500000      2.000000
 -0.076923  0.250000  0.500000      2.000000
  0.000000  0.500000  0.500000      1.000000
  0.076923  0.500000  0.500000      2.000000
  0.153846  0.500000  0.500000      2.000000
  0.230769  0.500000  0.500000      2.000000
  0.307692  0.500000  0.500000      2.000000
  0.384615  0.500000  0.500000      2.000000
  0.461538  0.500000  0.500000      2.000000
 
 Following cartesian coordinates:
            Coordinates               Weight
  0.000000  0.000000  0.000000      1.000000
  0.021727  0.003736  0.000000      2.000000
  0.043454  0.007472  0.000000      2.000000
  0.065182  0.011209  0.000000      2.000000
  0.086909  0.014945  0.000000      2.000000
  0.108636  0.018681  0.000000      2.000000
  0.130363  0.022417  0.000000      2.000000
  0.000000  0.024285  0.000000      2.000000
  0.021727  0.028021  0.000000      2.000000
  0.043454  0.031758  0.000000      2.000000
  0.065182  0.035494  0.000000      2.000000
  0.086909  0.039230  0.000000      2.000000
  0.108636  0.042966  0.000000      2.000000
  0.130363  0.046702  0.000000      2.000000
 -0.130363  0.001868  0.000000      2.000000
 -0.108636  0.005604  0.000000      2.000000
 -0.086909  0.009340  0.000000      2.000000
 -0.065182  0.013077  0.000000      2.000000
 -0.043454  0.016813  0.000000      2.000000
 -0.021727  0.020549  0.000000      2.000000
  0.000000  0.048570  0.000000      1.000000
  0.021727  0.052307  0.000000      2.000000
  0.043454  0.056043  0.000000      2.000000
  0.065182  0.059779  0.000000      2.000000
  0.086909  0.063515  0.000000      2.000000
  0.108636  0.067251  0.000000      2.000000
  0.130363  0.070987  0.000000      2.000000
  0.000000  0.000000  0.018181      1.000000
  0.021727  0.003736  0.018181      2.000000
  0.043454  0.007472  0.018181      2.000000
  0.065182  0.011209  0.018181      2.000000
  0.086909  0.014945  0.018181      2.000000
  0.108636  0.018681  0.018181      2.000000
  0.130363  0.022417  0.018181      2.000000
  0.000000  0.024285  0.018181      2.000000
  0.021727  0.028021  0.018181      2.000000
  0.043454  0.031758  0.018181      2.000000
  0.065182  0.035494  0.018181      2.000000
  0.086909  0.039230  0.018181      2.000000
  0.108636  0.042966  0.018181      2.000000
  0.130363  0.046702  0.018181      2.000000
 -0.130363  0.001868  0.018181      2.000000
 -0.108636  0.005604  0.018181      2.000000
 -0.086909  0.009340  0.018181      2.000000
 -0.065182  0.013077  0.018181      2.000000
 -0.043454  0.016813  0.018181      2.000000
 -0.021727  0.020549  0.018181      2.000000
  0.000000  0.048570  0.018181      1.000000
  0.021727  0.052307  0.018181      2.000000
  0.043454  0.056043  0.018181      2.000000
  0.065182  0.059779  0.018181      2.000000
  0.086909  0.063515  0.018181      2.000000
  0.108636  0.067251  0.018181      2.000000
  0.130363  0.070987  0.018181      2.000000
 


--------------------------------------------------------------------------------------------------------




 Dimension of arrays:
   k-points           NKPTS =     54   k-points in BZ     NKDIM =     54   number of bands    NBANDS=     68
   number of dos      NEDOS =    301   number of ions     NIONS =     24
   non local maximal  LDIM  =      4   non local SUM 2l+1 LMDIM =      8
   total plane-waves  NPLWV = 192000
   max r-space proj   IRMAX =   2772   max aug-charges    IRDMAX=   6603
   dimension x,y,z NGX =    20 NGY =   60 NGZ =  160
   dimension x,y,z NGXF=    40 NGYF=  120 NGZF=  320
   support grid    NGXF=    40 NGYF=  120 NGZF=  320
   ions per type =              12  12
 NGX,Y,Z   is equivalent  to a cutoff of   9.39,  9.55,  9.67 a.u.
 NGXF,Y,Z  is equivalent  to a cutoff of  18.78, 19.10, 19.34 a.u.


 I would recommend the setting:
   dimension x,y,z NGX =    20 NGY =   59 NGZ =  155
 SYSTEM =  unknown system                          
 POSCAR =  Si12                                    

 Startparameter for this run:
   NWRITE =      2    write-flag & timer
   PREC   = accura    normal or accurate (medium, high low for compatibility)
   ISTART =      0    job   : 0-new  1-cont  2-samecut
   ICHARG =      2    charge: 1-file 2-atom 10-const
   ISPIN  =      1    spin polarized calculation?
   LNONCOLLINEAR =      F non collinear calculations
   LSORBIT =      F    spin-orbit coupling
   INIWAV =      1    electr: 0-lowe 1-rand  2-diag
   LASPH  =      F    aspherical Exc in radial PAW
   METAGGA=      F    non-selfconsistent MetaGGA calc.

 Electronic Relaxation 1
   ENCUT  =  300.0 eV  22.05 Ry    4.70 a.u.   5.00 14.75 38.84*2*pi/ulx,y,z
   ENINI  =  300.0     initial cutoff
   ENAUG  =  342.9 eV  augmentation charge cutoff
   NELM   =     60;   NELMIN=  2; NELMDL= -5     # of ELM steps 
   EDIFF  = 0.1E-05   stopping-criterion for ELM
   LREAL  =      T    real-space projection
   NLSPLINE    = F    spline interpolate recip. space projectors
   LCOMPAT=      F    compatible to vasp.4.4
   GGA_COMPAT  = T    GGA compatible to vasp.4.4-vasp.4.6
   LMAXPAW     = -100 max onsite density
   LMAXMIX     =    2 max onsite mixed and CHGCAR
   VOSKOWN=      0    Vosko Wilk Nusair interpolation
   ROPT   =   -0.00025  -0.00025
 Ionic relaxation
   EDIFFG = 0.1E-04   stopping-criterion for IOM
   NSW    =      0    number of steps for IOM
   NBLOCK =      1;   KBLOCK =      1    inner block; outer block 
   IBRION =     -1    ionic relax: 0-MD 1-quasi-New 2-CG
   NFREE  =      1    steps in history (QN), initial steepest desc. (CG)
   ISIF   =      3    stress and relaxation
   IWAVPR =     10    prediction:  0-non 1-charg 2-wave 3-comb
   ISYM   =      2    0-nonsym 1-usesym 2-fastsym
   LCORR  =      T    Harris-Foulkes like correction to forces

   POTIM  = 0.5000    time-step for ionic-motion
   TEIN   =    0.0    initial temperature
   TEBEG  =    0.0;   TEEND  =   0.0 temperature during run
   SMASS  =  -3.00    Nose mass-parameter (am)
   estimated Nose-frequenzy (Omega)   =  0.10E-29 period in steps =****** mass=  -0.286E-27a.u.
   SCALEE = 1.0000    scale energy and forces
   NPACO  =    256;   APACO  = 16.0  distance and # of slots for P.C.
   PSTRESS=    0.0 pullay stress

  Mass of Ions in am
   POMASS =  30.97 28.09
  Ionic Valenz
   ZVAL   =   5.00  4.00
  Atomic Wigner-Seitz radii
   RWIGS  =  -1.00 -1.00
  virtual crystal weights 
   VCA    =   1.00  1.00
   NELECT =     108.0000    total number of electrons
   NUPDOWN=      -1.0000    fix difference up-down

 DOS related values:
   EMIN   =  10.00;   EMAX   =-10.00  energy-range for DOS
   EFERMI =   0.00
   ISMEAR =     0;   SIGMA  =   0.10  broadening in eV -4-tet -1-fermi 0-gaus

 Electronic relaxation 2 (details)
   IALGO  =     38    algorithm
   LDIAG  =      T    sub-space diagonalisation (order eigenvalues)
   LSUBROT=      F    optimize rotation matrix (better conditioning)
   TURBO    =      0    0=normal 1=particle mesh
   IRESTART =      0    0=no restart 2=restart with 2 vectors
   NREBOOT  =      0    no. of reboots
   NMIN     =      0    reboot dimension
   EREF     =   0.00    reference energy to select bands
   IMIX   =      4    mixing-type and parameters
     AMIX     =   0.40;   BMIX     =  1.00
     AMIX_MAG =   1.60;   BMIX_MAG =  1.00
     AMIN     =   0.10
     WC   =   100.;   INIMIX=   1;  MIXPRE=   1;  MAXMIX= -45

 Intra band minimization:
   WEIMIN = 0.0000     energy-eigenvalue tresh-hold
   EBREAK =  0.37E-08  absolut break condition
   DEPER  =   0.30     relativ break condition  

   TIME   =   0.40     timestep for ELM

  volume/ion in A,a.u.               =      41.76       281.83
  Fermi-wavevector in a.u.,A,eV,Ry     =   0.779018  1.472130  8.256946  0.606868
  Thomas-Fermi vector in A             =   1.882034
 
 Write flags
   LWAVE  =      F    write WAVECAR
   LCHARG =      F    write CHGCAR
   LVTOT  =      F    write LOCPOT, total local potential
   LVHAR  =      F    write LOCPOT, Hartree potential only
   LELF   =      F    write electronic localiz. function (ELF)
   LORBIT =      0    0 simple, 1 ext, 2 COOP (PROOUT)


 Dipole corrections
   LMONO  =      F    monopole corrections only (constant potential shift)
   LDIPOL =      F    correct potential (dipole corrections)
   IDIPOL =      0    1-x, 2-y, 3-z, 4-all directions 
   EPSILON=  1.0000000 bulk dielectric constant

 Exchange correlation treatment:
   GGA     =    BO    GGA type
   LEXCH   =    42    internal setting for exchange type
   VOSKOWN=      0    Vosko Wilk Nusair interpolation
   LHFCALC =     F    Hartree Fock is set to
   LHFONE  =     F    Hartree Fock one center treatment
   AEXX    =    0.0000 exact exchange contribution

 vdW DFT:
   LUSE_VDW   =     T    switch on vdW DFT
   Zab_VDW    =-.8491    correlation parameter
   PARAM1     =0.1833
   PARAM2     =0.2200
   PARAM3     =0.0000

 Linear response parameters
   LEPSILON=     F    determine dielectric tensor
   LRPA    =     F    only Hartree local field effects (RPA)
   LNABLA  =     F    use nabla operator in PAW spheres
   LVEL    =     F    velocity operator in full k-point grid
   LINTERFAST=   F  fast interpolation
   KINTER  =     0    interpolate to denser k-point grid
   CSHIFT  =0.1000    complex shift for real part using Kramers Kronig
   OMEGAMAX=  -1.0    maximum frequency
   DEG_THRESHOLD= 0.2000000E-02 threshold for treating states as degnerate
   RTIME   =    0.100 relaxation time in fs

 Orbital magnetization related:
   ORBITALMAG=     F  switch on orbital magnetization
   LCHIMAG   =     F  perturbation theory with respect to B field
   DQ        =  0.001000  dq finite difference perturbation B field



--------------------------------------------------------------------------------------------------------


 Static calculation
 charge density and potential will be updated during run
 non-spin polarized calculation
 Variant of blocked Davidson
 Davidson routine will perform the subspace rotation
 perform sub-space diagonalisation
    after iterative eigenvector-optimisation
 modified Broyden-mixing scheme, WC =      100.0
 initial mixing is a Kerker type mixing with AMIX =  0.4000 and BMIX =      1.0000
 Hartree-type preconditioning will be used
 using additional bands           14
 real space projection scheme for non local part
 use partial core corrections
 calculate Harris-corrections to forces 
   (improved forces if not selfconsistent)
 use gradient corrections 
 use of overlap-Matrix (Vanderbilt PP)
 Gauss-broadening in eV      SIGMA  =   0.10


--------------------------------------------------------------------------------------------------------


  energy-cutoff  :      300.00
  volume of cell :     1002.32
      direct lattice vectors                 reciprocal lattice vectors
     3.540400000  0.000000000  0.000000000     0.282453960  0.048570342  0.000000000
    -1.770200000 10.294348000  0.000000000     0.000000000  0.097140683  0.000000000
     0.000000000  0.000000000 27.501429000     0.000000000  0.000000000  0.036361747

  length of vectors
     3.540400000 10.445439617 27.501429000     0.286599577  0.097140683  0.036361747


 
 k-points in units of 2pi/SCALE and weight: pymatgen generated KPOINTS with grid den
   0.00000000  0.00000000  0.00000000       0.010
   0.02172723  0.00373618  0.00000000       0.019
   0.04345446  0.00747236  0.00000000       0.019
   0.06518168  0.01120854  0.00000000       0.019
   0.08690891  0.01494472  0.00000000       0.019
   0.10863614  0.01868090  0.00000000       0.019
   0.13036337  0.02241708  0.00000000       0.019
   0.00000000  0.02428517  0.00000000       0.019
   0.02172723  0.02802135  0.00000000       0.019
   0.04345446  0.03175753  0.00000000       0.019
   0.06518168  0.03549371  0.00000000       0.019
   0.08690891  0.03922989  0.00000000       0.019
   0.10863614  0.04296607  0.00000000       0.019
   0.13036337  0.04670225  0.00000000       0.019
  -0.13036337  0.00186809  0.00000000       0.019
  -0.10863614  0.00560427  0.00000000       0.019
  -0.08690891  0.00934045  0.00000000       0.019
  -0.06518168  0.01307663  0.00000000       0.019
  -0.04345446  0.01681281  0.00000000       0.019
  -0.02172723  0.02054899  0.00000000       0.019
   0.00000000  0.04857034  0.00000000       0.010
   0.02172723  0.05230652  0.00000000       0.019
   0.04345446  0.05604270  0.00000000       0.019
   0.06518168  0.05977888  0.00000000       0.019
   0.08690891  0.06351506  0.00000000       0.019
   0.10863614  0.06725124  0.00000000       0.019
   0.13036337  0.07098742  0.00000000       0.019
   0.00000000  0.00000000  0.01818087       0.010
   0.02172723  0.00373618  0.01818087       0.019
   0.04345446  0.00747236  0.01818087       0.019
   0.06518168  0.01120854  0.01818087       0.019
   0.08690891  0.01494472  0.01818087       0.019
   0.10863614  0.01868090  0.01818087       0.019
   0.13036337  0.02241708  0.01818087       0.019
   0.00000000  0.02428517  0.01818087       0.019
   0.02172723  0.02802135  0.01818087       0.019
   0.04345446  0.03175753  0.01818087       0.019
   0.06518168  0.03549371  0.01818087       0.019
   0.08690891  0.03922989  0.01818087       0.019
   0.10863614  0.04296607  0.01818087       0.019
   0.13036337  0.04670225  0.01818087       0.019
  -0.13036337  0.00186809  0.01818087       0.019
  -0.10863614  0.00560427  0.01818087       0.019
  -0.08690891  0.00934045  0.01818087       0.019
  -0.06518168  0.01307663  0.01818087       0.019
  -0.04345446  0.01681281  0.01818087       0.019
  -0.02172723  0.02054899  0.01818087       0.019
   0.00000000  0.04857034  0.01818087       0.010
   0.02172723  0.05230652  0.01818087       0.019
   0.04345446  0.05604270  0.01818087       0.019
   0.06518168  0.05977888  0.01818087       0.019
   0.08690891  0.06351506  0.01818087       0.019
   0.10863614  0.06725124  0.01818087       0.019
   0.13036337  0.07098742  0.01818087       0.019
 
 k-points in reciprocal lattice and weights: pymatgen generated KPOINTS with grid den
   0.00000000  0.00000000  0.00000000       0.010
   0.07692308 -0.00000000  0.00000000       0.019
   0.15384615 -0.00000000  0.00000000       0.019
   0.23076923 -0.00000000  0.00000000       0.019
   0.30769231 -0.00000000  0.00000000       0.019
   0.38461538 -0.00000000  0.00000000       0.019
   0.46153846 -0.00000000  0.00000000       0.019
   0.00000000  0.25000000  0.00000000       0.019
   0.07692308  0.25000000  0.00000000       0.019
   0.15384615  0.25000000  0.00000000       0.019
   0.23076923  0.25000000  0.00000000       0.019
   0.30769231  0.25000000  0.00000000       0.019
   0.38461538  0.25000000  0.00000000       0.019
   0.46153846  0.25000000  0.00000000       0.019
  -0.46153846  0.25000000  0.00000000       0.019
  -0.38461538  0.25000000  0.00000000       0.019
  -0.30769231  0.25000000  0.00000000       0.019
  -0.23076923  0.25000000  0.00000000       0.019
  -0.15384615  0.25000000  0.00000000       0.019
  -0.07692308  0.25000000  0.00000000       0.019
   0.00000000  0.50000000  0.00000000       0.010
   0.07692308  0.50000000  0.00000000       0.019
   0.15384615  0.50000000  0.00000000       0.019
   0.23076923  0.50000000  0.00000000       0.019
   0.30769231  0.50000000  0.00000000       0.019
   0.38461538  0.50000000  0.00000000       0.019
   0.46153846  0.50000000  0.00000000       0.019
   0.00000000  0.00000000  0.50000000       0.010
   0.07692308 -0.00000000  0.50000000       0.019
   0.15384615 -0.00000000  0.50000000       0.019
   0.23076923 -0.00000000  0.50000000       0.019
   0.30769231 -0.00000000  0.50000000       0.019
   0.38461538 -0.00000000  0.50000000       0.019
   0.46153846 -0.00000000  0.50000000       0.019
   0.00000000  0.25000000  0.50000000       0.019
   0.07692308  0.25000000  0.50000000       0.019
   0.15384615  0.25000000  0.50000000       0.019
   0.23076923  0.25000000  0.50000000       0.019
   0.30769231  0.25000000  0.50000000       0.019
   0.38461538  0.25000000  0.50000000       0.019
   0.46153846  0.25000000  0.50000000       0.019
  -0.46153846  0.25000000  0.50000000       0.019
  -0.38461538  0.25000000  0.50000000       0.019
  -0.30769231  0.25000000  0.50000000       0.019
  -0.23076923  0.25000000  0.50000000       0.019
  -0.15384615  0.25000000  0.50000000       0.019
  -0.07692308  0.25000000  0.50000000       0.019
   0.00000000  0.50000000  0.50000000       0.010
   0.07692308  0.50000000  0.50000000       0.019
   0.15384615  0.50000000  0.50000000       0.019
   0.23076923  0.50000000  0.50000000       0.019
   0.30769231  0.50000000  0.50000000       0.019
   0.38461538  0.50000000  0.50000000       0.019
   0.46153846  0.50000000  0.50000000       0.019
 
 position of ions in fractional coordinates (direct lattice) 
   0.11402300  0.22804500  0.23316207
   0.81402300  0.12804500  0.51499159
   0.45808900  0.91617900  0.20939482
   0.15808900  0.81617900  0.49122434
   0.31085400  0.62170900  0.08414979
   0.31085400  0.62170900  0.36597930
   0.99923000  0.99846000  0.08631254
   0.99923000  0.99846000  0.36814206
   0.65492700  0.30985400  0.06041748
   0.65492700  0.30985400  0.34224700
   0.76973800  0.53947500  0.20725292
   0.46973800  0.43947500  0.48908244
   0.93971600  0.87943300  0.15783749
   0.63971600  0.77943300  0.43966701
   0.20515200  0.41030300  0.18578822
   0.90515200  0.31030300  0.46761774
   0.20184900  0.40369900  0.09969156
   0.20184900  0.40369900  0.38152107
   0.56380500  0.12761000  0.10779021
   0.56380500  0.12761000  0.38961973
   0.56710600  0.13421200  0.19387616
   0.26710600  0.03421200  0.47570568
   0.82923400  0.65846800  0.13571444
   0.52923400  0.55846800  0.41754396
 
 position of ions in cartesian coordinates  (Angst):
   0.00000177  2.34757459  6.41229012
   2.65530177  1.31813979 14.16300462
  -0.00000177  9.43146546  5.75865686
  -0.88510177  8.40203066 13.50937136
  -0.00000177  6.40008880  2.31423934
  -0.00000177  6.40008880 10.06495384
   1.77020000 10.27849470  2.37371832
   1.77020000 10.27849470 10.12443282
   1.77020000  3.18974491  1.66156717
   1.77020000  3.18974491  9.41228167
   1.77020177  5.55354339  5.69975143
   0.88510177  4.52410859 13.45046593
   1.77019823  9.05318934  4.34075665
   0.88509823  8.02375454 12.09147115
   0.00000177  4.22380187  5.10944151
   2.65530177  3.19436707 12.86015601
  -0.00000177  4.15581799  2.74166024
  -0.00000177  4.15581799 10.49237474
   1.77020000  1.31366175  2.96438477
   1.77020000  1.31366175 10.71509927
   1.77020000  1.38162503  5.33187152
   0.88510000  0.35219023 13.08258602
   1.77020000  6.77849874  3.73234107
   0.88510000  5.74906394 11.48305557
 


--------------------------------------------------------------------------------------------------------


 k-point  1 :   0.0000 0.0000 0.0000  plane waves:   11717
 k-point  2 :   0.0769-0.0000 0.0000  plane waves:   11762
 k-point  3 :   0.1538-0.0000 0.0000  plane waves:   11805
 k-point  4 :   0.2308-0.0000 0.0000  plane waves:   11824
 k-point  5 :   0.3077-0.0000 0.0000  plane waves:   11875
 k-point  6 :   0.3846-0.0000 0.0000  plane waves:   11864
 k-point  7 :   0.4615-0.0000 0.0000  plane waves:   11883
 k-point  8 :   0.0000 0.2500 0.0000  plane waves:   11683
 k-point  9 :   0.0769 0.2500 0.0000  plane waves:   11756
 k-point 10 :   0.1538 0.2500 0.0000  plane waves:   11807
 k-point 11 :   0.2308 0.2500 0.0000  plane waves:   11853
 k-point 12 :   0.3077 0.2500 0.0000  plane waves:   11866
 k-point 13 :   0.3846 0.2500 0.0000  plane waves:   11889
 k-point 14 :   0.4615 0.2500 0.0000  plane waves:   11885
 k-point 15 :  -0.4615 0.2500 0.0000  plane waves:   11886
 k-point 16 :  -0.3846 0.2500 0.0000  plane waves:   11867
 k-point 17 :  -0.3077 0.2500 0.0000  plane waves:   11849
 k-point 18 :  -0.2308 0.2500 0.0000  plane waves:   11827
 k-point 19 :  -0.1538 0.2500 0.0000  plane waves:   11801
 k-point 20 :  -0.0769 0.2500 0.0000  plane waves:   11757
 k-point 21 :   0.0000 0.5000 0.0000  plane waves:   11710
 k-point 22 :   0.0769 0.5000 0.0000  plane waves:   11762
 k-point 23 :   0.1538 0.5000 0.0000  plane waves:   11782
 k-point 24 :   0.2308 0.5000 0.0000  plane waves:   11841
 k-point 25 :   0.3077 0.5000 0.0000  plane waves:   11876
 k-point 26 :   0.3846 0.5000 0.0000  plane waves:   11889
 k-point 27 :   0.4615 0.5000 0.0000  plane waves:   11881
 k-point 28 :   0.0000 0.0000 0.5000  plane waves:   11698
 k-point 29 :   0.0769-0.0000 0.5000  plane waves:   11752
 k-point 30 :   0.1538-0.0000 0.5000  plane waves:   11800
 k-point 31 :   0.2308-0.0000 0.5000  plane waves:   11834
 k-point 32 :   0.3077-0.0000 0.5000  plane waves:   11850
 k-point 33 :   0.3846-0.0000 0.5000  plane waves:   11888
 k-point 34 :   0.4615-0.0000 0.5000  plane waves:   11896
 k-point 35 :   0.0000 0.2500 0.5000  plane waves:   11714
 k-point 36 :   0.0769 0.2500 0.5000  plane waves:   11754
 k-point 37 :   0.1538 0.2500 0.5000  plane waves:   11802
 k-point 38 :   0.2308 0.2500 0.5000  plane waves:   11840
 k-point 39 :   0.3077 0.2500 0.5000  plane waves:   11858
 k-point 40 :   0.3846 0.2500 0.5000  plane waves:   11896
 k-point 41 :   0.4615 0.2500 0.5000  plane waves:   11886
 k-point 42 :  -0.4615 0.2500 0.5000  plane waves:   11852
 k-point 43 :  -0.3846 0.2500 0.5000  plane waves:   11838
 k-point 44 :  -0.3077 0.2500 0.5000  plane waves:   11842
 k-point 45 :  -0.2308 0.2500 0.5000  plane waves:   11840
 k-point 46 :  -0.1538 0.2500 0.5000  plane waves:   11804
 k-point 47 :  -0.0769 0.2500 0.5000  plane waves:   11748
 k-point 48 :   0.0000 0.5000 0.5000  plane waves:   11724
 k-point 49 :   0.0769 0.5000 0.5000  plane waves:   11748
 k-point 50 :   0.1538 0.5000 0.5000  plane waves:   11814
 k-point 51 :   0.2308 0.5000 0.5000  plane waves:   11832
 k-point 52 :   0.3077 0.5000 0.5000  plane waves:   11868
 k-point 53 :   0.3846 0.5000 0.5000  plane waves:   11892
 k-point 54 :   0.4615 0.5000 0.5000  plane waves:   11878

 maximum and minimum number of plane-waves per node :      5964     5832

 maximum number of plane-waves:     11896
 maximum index in each direction: 
   IXMAX=    5   IYMAX=   14   IZMAX=   38
   IXMIN=   -5   IYMIN=  -15   IZMIN=  -39

 WARNING: aliasing errors must be expected set NGX to  22 to avoid them
 NGY is ok and might be reduce to  60
 NGZ is ok and might be reduce to 156
 aliasing errors are usually negligible using standard VASP settings
 and one can safely disregard these warnings

 real space projection operators:
  total allocation   :       3793.25 KBytes
  max/ min on nodes  :       1899.38       1893.88


 parallel 3D FFT for wavefunctions:
    minimum data exchange during FFTs selected (reduces bandwidth)
 parallel 3D FFT for charge:
    minimum data exchange during FFTs selected (reduces bandwidth)


 total amount of memory used by VASP on root node   146493. kBytes
========================================================================

   base      :      30000. kBytes
   nonlr-proj:       3452. kBytes
   fftplans  :       9347. kBytes
   grid      :      14649. kBytes
   one-center:         36. kBytes
   wavefun   :      89009. kBytes
 
     INWAV:  cpu time    0.00: real time    0.00
 Broyden mixing: mesh for mixing (old mesh)
   NGX =  9   NGY = 29   NGZ = 77
  (NGX  = 40   NGY  =120   NGZ  =320)
  gives a total of  20097 points

 initial charge density was supplied:
 charge density of overlapping atoms calculated
 number of electron     108.0000000 magnetization 
 keeping initial charge density in first step


--------------------------------------------------------------------------------------------------------


 Maximum index for non-local projection operator         1333
 Maximum index for augmentation-charges          822 (set IRDMAX)


--------------------------------------------------------------------------------------------------------


 First call to EWALD:  gamma=   0.177
 Maximum number of real-space cells 7x 3x 1
 Maximum number of reciprocal cells 1x 3x 7

 FEWALD executed in parallel
    FEWALD:  cpu time    0.00: real time    0.00


----------------------------------------- Iteration    1(   1)  ---------------------------------------


vdW kernel read from vdw_kernel.bindat
  0.0000  0.2424  0.5071  0.7962  1.1119  1.4567  1.8333  2.2446  2.6937  3.1842
  3.7199  4.3049  4.9438  5.6415  6.4036  7.2358  8.1446  9.1372 10.2212 11.4050
 12.6979 14.1099 15.6519 17.3360 19.1751 21.1837 23.3773 25.7729 28.3892 31.2465
 34.3669 37.7748 41.4965 45.5611 50.0000
 
    POTLOK:  cpu time   16.48: real time   16.50
    SETDIJ:  cpu time    0.01: real time    0.01
     EDDAV:  cpu time   67.79: real time   67.85
       DOS:  cpu time    0.01: real time    0.01
    --------------------------------------------
      LOOP:  cpu time   84.30: real time   84.38

 eigenvalue-minimisations  :  7360
 total energy-change (2. order) : 0.4894571E+03  (-0.2865267E+04)
 number of electron     108.0000000 magnetization 
 augmentation part      108.0000000 magnetization 

 Free energy of the ion-electron system (eV)
  ---------------------------------------------------
  alpha Z        PSCENC =        36.80884744
  Ewald energy   TEWEN  =     11917.55816911
  -Hartree energ DENC   =    -14966.20024468
  -exchange      EXHF   =         0.00000000
  -V(xc)+E(xc)   XCENC  =       -87.98490267
  PAW double counting   =      1056.43050070     -732.41190547
  entropy T*S    EENTRO =        -0.04262038
  eigenvalues    EBANDS =       -88.74200423
  atomic energy  EATOM  =      3354.04126044
  ---------------------------------------------------
  free energy    TOTEN  =       489.45710027 eV

  energy without entropy =      489.49972065  energy(sigma->0) =      489.47841046


--------------------------------------------------------------------------------------------------------




----------------------------------------- Iteration    1(   2)  ---------------------------------------


     EDDAV:  cpu time   83.99: real time   84.06
       DOS:  cpu time    0.01: real time    0.01
    --------------------------------------------
      LOOP:  cpu time   84.00: real time   84.07

 eigenvalue-minimisations  :  9720
 total energy-change (2. order) :-0.5569084E+03  (-0.5421224E+03)
 number of electron     108.0000000 magnetization 
 augmentation part      108.0000000 magnetization 

 Free energy of the ion-electron system (eV)
  ---------------------------------------------------
  alpha Z        PSCENC =        36.80884744
  Ewald energy   TEWEN  =     11917.55816911
  -Hartree energ DENC   =    -14966.20024468
  -exchange      EXHF   =         0.00000000
  -V(xc)+E(xc)   XCENC  =       -87.98490267
  PAW double counting   =      1056.43050070     -732.41190547
  entropy T*S    EENTRO =        -0.01905697
  eigenvalues    EBANDS =      -645.67395245
  atomic energy  EATOM  =      3354.04126044
  ---------------------------------------------------
  free energy    TOTEN  =       -67.45128454 eV

  energy without entropy =      -67.43222757  energy(sigma->0) =      -67.44175606


--------------------------------------------------------------------------------------------------------




----------------------------------------- Iteration    1(   3)  ---------------------------------------


     EDDAV:  cpu time   79.41: real time   79.47
       DOS:  cpu time    0.01: real time    0.01
    --------------------------------------------
      LOOP:  cpu time   79.42: real time   79.49

 eigenvalue-minimisations  :  8852
 total energy-change (2. order) :-0.5616083E+02  (-0.5533395E+02)
 number of electron     108.0000000 magnetization 
 augmentation part      108.0000000 magnetization 

 Free energy of the ion-electron system (eV)
  ---------------------------------------------------
  alpha Z        PSCENC =        36.80884744
  Ewald energy   TEWEN  =     11917.55816911
  -Hartree energ DENC   =    -14966.20024468
  -exchange      EXHF   =         0.00000000
  -V(xc)+E(xc)   XCENC  =       -87.98490267
  PAW double counting   =      1056.43050070     -732.41190547
  entropy T*S    EENTRO =        -0.03435179
  eigenvalues    EBANDS =      -701.81949179
  atomic energy  EATOM  =      3354.04126044
  ---------------------------------------------------
  free energy    TOTEN  =      -123.61211870 eV

  energy without entropy =     -123.57776691  energy(sigma->0) =     -123.59494280


--------------------------------------------------------------------------------------------------------




----------------------------------------- Iteration    1(   4)  ---------------------------------------


     EDDAV:  cpu time   91.31: real time   91.39
       DOS:  cpu time    0.01: real time    0.01
    --------------------------------------------
      LOOP:  cpu time   91.32: real time   91.40

 eigenvalue-minimisations  : 10848
 total energy-change (2. order) :-0.2521598E+01  (-0.2503583E+01)
 number of electron     108.0000000 magnetization 
 augmentation part      108.0000000 magnetization 

 Free energy of the ion-electron system (eV)
  ---------------------------------------------------
  alpha Z        PSCENC =        36.80884744
  Ewald energy   TEWEN  =     11917.55816911
  -Hartree energ DENC   =    -14966.20024468
  -exchange      EXHF   =         0.00000000
  -V(xc)+E(xc)   XCENC  =       -87.98490267
  PAW double counting   =      1056.43050070     -732.41190547
  entropy T*S    EENTRO =        -0.03433439
  eigenvalues    EBANDS =      -704.34110693
  atomic energy  EATOM  =      3354.04126044
  ---------------------------------------------------
  free energy    TOTEN  =      -126.13371644 eV

  energy without entropy =     -126.09938205  energy(sigma->0) =     -126.11654924


--------------------------------------------------------------------------------------------------------




----------------------------------------- Iteration    1(   5)  ---------------------------------------


     EDDAV:  cpu time   85.70: real time   85.99
       DOS:  cpu time    0.01: real time    0.01
    CHARGE:  cpu time    5.82: real time    5.92
    MIXING:  cpu time    0.01: real time    0.01
    --------------------------------------------
      LOOP:  cpu time   91.55: real time   91.94

 eigenvalue-minimisations  : 10056
 total energy-change (2. order) :-0.6219936E-01  (-0.6211805E-01)
 number of electron     107.9999994 magnetization 
 augmentation part       -9.5860422 magnetization 

 Broyden mixing:
  rms(total) = 0.10571E+01    rms(broyden)= 0.10569E+01
  rms(prec ) = 0.11297E+01
  weight for this iteration     100.00

 Free energy of the ion-electron system (eV)
  ---------------------------------------------------
  alpha Z        PSCENC =        36.80884744
  Ewald energy   TEWEN  =     11917.55816911
  -Hartree energ DENC   =    -14966.20024468
  -exchange      EXHF   =         0.00000000
  -V(xc)+E(xc)   XCENC  =       -87.98490267
  PAW double counting   =      1056.43050070     -732.41190547
  entropy T*S    EENTRO =        -0.03450212
  eigenvalues    EBANDS =      -704.40313856
  atomic energy  EATOM  =      3354.04126044
  ---------------------------------------------------
  free energy    TOTEN  =      -126.19591580 eV

  energy without entropy =     -126.16141368  energy(sigma->0) =     -126.17866474


--------------------------------------------------------------------------------------------------------




----------------------------------------- Iteration    1(   6)  ---------------------------------------


    POTLOK:  cpu time   17.59: real time   17.74
    SETDIJ:  cpu time    0.01: real time    0.01
     EDDAV:  cpu time  102.86: real time  102.94
       DOS:  cpu time    0.01: real time    0.01
    CHARGE:  cpu time    4.33: real time    4.34
    MIXING:  cpu time    0.01: real time    0.01
    --------------------------------------------
      LOOP:  cpu time  124.82: real time  125.05

 eigenvalue-minimisations  :  8704
 total energy-change (2. order) : 0.2760581E+01  (-0.6778389E+00)
 number of electron     107.9999994 magnetization 
 augmentation part       -9.4359364 magnetization 

 Broyden mixing:
  rms(total) = 0.55979E+00    rms(broyden)= 0.55977E+00
  rms(prec ) = 0.59117E+00
  weight for this iteration     100.00

 eigenvalues of (default mixing * dielectric matrix)
  average eigenvalue GAMMA=   1.8017
  1.8017

 Free energy of the ion-electron system (eV)
  ---------------------------------------------------
  alpha Z        PSCENC =        36.80884744
  Ewald energy   TEWEN  =     11917.55816911
  -Hartree energ DENC   =    -15009.38541361
  -exchange      EXHF   =         0.00000000
  -V(xc)+E(xc)   XCENC  =       -84.83755732
  PAW double counting   =      1116.94433702     -794.58984378
  entropy T*S    EENTRO =        -0.03197609
  eigenvalues    EBANDS =      -659.94315837
  atomic energy  EATOM  =      3354.04126044
  ---------------------------------------------------
  free energy    TOTEN  =      -123.43533516 eV

  energy without entropy =     -123.40335907  energy(sigma->0) =     -123.41934711


--------------------------------------------------------------------------------------------------------




----------------------------------------- Iteration    1(   7)  ---------------------------------------


    POTLOK:  cpu time   15.88: real time   15.90
    SETDIJ:  cpu time    0.01: real time    0.01
     EDDAV:  cpu time   75.09: real time   75.15
       DOS:  cpu time    0.01: real time    0.01
    CHARGE:  cpu time    4.62: real time    4.63
    MIXING:  cpu time    0.01: real time    0.01
    --------------------------------------------
      LOOP:  cpu time   95.64: real time   95.72

 eigenvalue-minimisations  :  8528
 total energy-change (2. order) : 0.2377047E+00  (-0.4273328E+00)
 number of electron     107.9999995 magnetization 
 augmentation part       -9.3289311 magnetization 

 Broyden mixing:
  rms(total) = 0.20315E+00    rms(broyden)= 0.20311E+00
  rms(prec ) = 0.21364E+00
  weight for this iteration     100.00

 eigenvalues of (default mixing * dielectric matrix)
  average eigenvalue GAMMA=   1.5997
  1.1450  2.0545

 Free energy of the ion-electron system (eV)
  ---------------------------------------------------
  alpha Z        PSCENC =        36.80884744
  Ewald energy   TEWEN  =     11917.55816911
  -Hartree energ DENC   =    -15038.17965175
  -exchange      EXHF   =         0.00000000
  -V(xc)+E(xc)   XCENC  =       -81.84593422
  PAW double counting   =      1161.85328733     -840.74546231
  entropy T*S    EENTRO =        -0.02591970
  eigenvalues    EBANDS =      -632.66222681
  atomic energy  EATOM  =      3354.04126044
  ---------------------------------------------------
  free energy    TOTEN  =      -123.19763046 eV

  energy without entropy =     -123.17171076  energy(sigma->0) =     -123.18467061


--------------------------------------------------------------------------------------------------------




----------------------------------------- Iteration    1(   8)  ---------------------------------------


    POTLOK:  cpu time   15.90: real time   15.92
    SETDIJ:  cpu time    0.01: real time    0.01
     EDDAV:  cpu time   78.46: real time   78.51
       DOS:  cpu time    0.01: real time    0.01
    CHARGE:  cpu time    4.61: real time    4.61
    MIXING:  cpu time    0.01: real time    0.01
    --------------------------------------------
      LOOP:  cpu time   99.00: real time   99.07

 eigenvalue-minimisations  :  9056
 total energy-change (2. order) :-0.1974924E-01  (-0.5317981E-01)
 number of electron     107.9999995 magnetization 
 augmentation part       -9.3255989 magnetization 

 Broyden mixing:
  rms(total) = 0.95106E-01    rms(broyden)= 0.95097E-01
  rms(prec ) = 0.10008E+00
  weight for this iteration     100.00

 eigenvalues of (default mixing * dielectric matrix)
  average eigenvalue GAMMA=   1.5989
  2.4102  0.9421  1.4443

 Free energy of the ion-electron system (eV)
  ---------------------------------------------------
  alpha Z        PSCENC =        36.80884744
  Ewald energy   TEWEN  =     11917.55816911
  -Hartree energ DENC   =    -15049.09032150
  -exchange      EXHF   =         0.00000000
  -V(xc)+E(xc)   XCENC  =       -80.95090158
  PAW double counting   =      1167.44307780     -846.51386452
  entropy T*S    EENTRO =        -0.02758024
  eigenvalues    EBANDS =      -622.48606667
  atomic energy  EATOM  =      3354.04126044
  ---------------------------------------------------
  free energy    TOTEN  =      -123.21737971 eV

  energy without entropy =     -123.18979946  energy(sigma->0) =     -123.20358958


--------------------------------------------------------------------------------------------------------




----------------------------------------- Iteration    1(   9)  ---------------------------------------


    POTLOK:  cpu time   15.14: real time   15.15
    SETDIJ:  cpu time    0.02: real time    0.02
     EDDAV:  cpu time   79.45: real time   79.49
       DOS:  cpu time    0.01: real time    0.01
    CHARGE:  cpu time    4.52: real time    4.52
    MIXING:  cpu time    0.01: real time    0.01
    --------------------------------------------
      LOOP:  cpu time   99.15: real time   99.21

 eigenvalue-minimisations  :  9280
 total energy-change (2. order) : 0.2018032E-01  (-0.7513627E-02)
 number of electron     107.9999995 magnetization 
 augmentation part       -9.3297633 magnetization 

 Broyden mixing:
  rms(total) = 0.27364E-01    rms(broyden)= 0.27362E-01
  rms(prec ) = 0.29992E-01
  weight for this iteration     100.00

 eigenvalues of (default mixing * dielectric matrix)
  average eigenvalue GAMMA=   1.5513
  2.6052  1.5805  1.0097  1.0097

 Free energy of the ion-electron system (eV)
  ---------------------------------------------------
  alpha Z        PSCENC =        36.80884744
  Ewald energy   TEWEN  =     11917.55816911
  -Hartree energ DENC   =    -15054.34225615
  -exchange      EXHF   =         0.00000000
  -V(xc)+E(xc)   XCENC  =       -80.51416851
  PAW double counting   =      1166.33661262     -845.38505790
  entropy T*S    EENTRO =        -0.02866248
  eigenvalues    EBANDS =      -617.67194397
  atomic energy  EATOM  =      3354.04126044
  ---------------------------------------------------
  free energy    TOTEN  =      -123.19719938 eV

  energy without entropy =     -123.16853690  energy(sigma->0) =     -123.18286814


--------------------------------------------------------------------------------------------------------




----------------------------------------- Iteration    1(  10)  ---------------------------------------


    POTLOK:  cpu time   14.92: real time   14.94
    SETDIJ:  cpu time    0.01: real time    0.01
     EDDAV:  cpu time   78.26: real time   78.30
       DOS:  cpu time    0.01: real time    0.01
    CHARGE:  cpu time    4.53: real time    4.53
    MIXING:  cpu time    0.01: real time    0.01
    --------------------------------------------
      LOOP:  cpu time   97.74: real time   97.80

 eigenvalue-minimisations  :  8904
 total energy-change (2. order) : 0.1111167E-01  (-0.1703316E-02)
 number of electron     107.9999995 magnetization 
 augmentation part       -9.3303702 magnetization 

 Broyden mixing:
  rms(total) = 0.10349E-01    rms(broyden)= 0.10347E-01
  rms(prec ) = 0.12172E-01
  weight for this iteration     100.00

 eigenvalues of (default mixing * dielectric matrix)
  average eigenvalue GAMMA=   1.5375
  2.6352  1.5427  1.5427  0.9833  0.9833

 Free energy of the ion-electron system (eV)
  ---------------------------------------------------
  alpha Z        PSCENC =        36.80884744
  Ewald energy   TEWEN  =     11917.55816911
  -Hartree energ DENC   =    -15055.72314563
  -exchange      EXHF   =         0.00000000
  -V(xc)+E(xc)   XCENC  =       -80.40390894
  PAW double counting   =      1164.92137700     -843.92915492
  entropy T*S    EENTRO =        -0.02835763
  eigenvalues    EBANDS =      -616.43117459
  atomic energy  EATOM  =      3354.04126044
  ---------------------------------------------------
  free energy    TOTEN  =      -123.18608772 eV

  energy without entropy =     -123.15773009  energy(sigma->0) =     -123.17190890


--------------------------------------------------------------------------------------------------------




----------------------------------------- Iteration    1(  11)  ---------------------------------------


    POTLOK:  cpu time   15.02: real time   15.03
    SETDIJ:  cpu time    0.01: real time    0.01
     EDDAV:  cpu time   75.93: real time   76.00
       DOS:  cpu time    0.01: real time    0.01
    CHARGE:  cpu time    4.39: real time    4.40
    MIXING:  cpu time    0.01: real time    0.01
    --------------------------------------------
      LOOP:  cpu time   95.39: real time   95.47

 eigenvalue-minimisations  :  8960
 total energy-change (2. order) : 0.6119316E-02  (-0.3319989E-03)
 number of electron     107.9999995 magnetization 
 augmentation part       -9.3297737 magnetization 

 Broyden mixing:
  rms(total) = 0.51500E-02    rms(broyden)= 0.51495E-02
  rms(prec ) = 0.66168E-02
  weight for this iteration     100.00

 eigenvalues of (default mixing * dielectric matrix)
  average eigenvalue GAMMA=   1.5125
  2.6518  1.9165  0.9257  0.9257  1.3275  1.3275

 Free energy of the ion-electron system (eV)
  ---------------------------------------------------
  alpha Z        PSCENC =        36.80884744
  Ewald energy   TEWEN  =     11917.55816911
  -Hartree energ DENC   =    -15057.23033760
  -exchange      EXHF   =         0.00000000
  -V(xc)+E(xc)   XCENC  =       -80.38126648
  PAW double counting   =      1164.11800004     -843.10342912
  entropy T*S    EENTRO =        -0.02843765
  eigenvalues    EBANDS =      -614.96277460
  atomic energy  EATOM  =      3354.04126044
  ---------------------------------------------------
  free energy    TOTEN  =      -123.17996840 eV

  energy without entropy =     -123.15153075  energy(sigma->0) =     -123.16574958


--------------------------------------------------------------------------------------------------------




----------------------------------------- Iteration    1(  12)  ---------------------------------------


    POTLOK:  cpu time   15.88: real time   15.90
    SETDIJ:  cpu time    0.01: real time    0.01
     EDDAV:  cpu time   82.62: real time   82.71
       DOS:  cpu time    0.01: real time    0.01
    CHARGE:  cpu time    5.44: real time    5.44
    MIXING:  cpu time    0.01: real time    0.01
    --------------------------------------------
      LOOP:  cpu time  103.99: real time  104.09

 eigenvalue-minimisations  :  9344
 total energy-change (2. order) : 0.4779582E-02  (-0.5749268E-04)
 number of electron     107.9999995 magnetization 
 augmentation part       -9.3297784 magnetization 

 Broyden mixing:
  rms(total) = 0.26104E-02    rms(broyden)= 0.26101E-02
  rms(prec ) = 0.39252E-02
  weight for this iteration     100.00

 eigenvalues of (default mixing * dielectric matrix)
  average eigenvalue GAMMA=   1.5189
  2.7145  2.2054  1.4065  1.4065  1.0004  0.9495  0.9495

 Free energy of the ion-electron system (eV)
  ---------------------------------------------------
  alpha Z        PSCENC =        36.80884744
  Ewald energy   TEWEN  =     11917.55816911
  -Hartree energ DENC   =    -15058.36982296
  -exchange      EXHF   =         0.00000000
  -V(xc)+E(xc)   XCENC  =       -80.37559678
  PAW double counting   =      1163.36774637     -842.33371104
  entropy T*S    EENTRO =        -0.02853163
  eigenvalues    EBANDS =      -613.84354978
  atomic energy  EATOM  =      3354.04126044
  ---------------------------------------------------
  free energy    TOTEN  =      -123.17518882 eV

  energy without entropy =     -123.14665719  energy(sigma->0) =     -123.16092300


--------------------------------------------------------------------------------------------------------




----------------------------------------- Iteration    1(  13)  ---------------------------------------


    POTLOK:  cpu time   14.87: real time   14.88
    SETDIJ:  cpu time    0.01: real time    0.01
     EDDAV:  cpu time   84.96: real time   85.24
       DOS:  cpu time    0.01: real time    0.01
    CHARGE:  cpu time    5.23: real time    5.26
    MIXING:  cpu time    0.01: real time    0.01
    --------------------------------------------
      LOOP:  cpu time  105.09: real time  105.42

 eigenvalue-minimisations  :  9256
 total energy-change (2. order) : 0.2458049E-02  (-0.1477671E-04)
 number of electron     107.9999995 magnetization 
 augmentation part       -9.3298291 magnetization 

 Broyden mixing:
  rms(total) = 0.14851E-02    rms(broyden)= 0.14850E-02
  rms(prec ) = 0.26038E-02
  weight for this iteration     100.00

 eigenvalues of (default mixing * dielectric matrix)
  average eigenvalue GAMMA=   1.5499
  2.8182  2.4873  1.6974  1.3336  1.3336  0.9431  0.9431  0.8429

 Free energy of the ion-electron system (eV)
  ---------------------------------------------------
  alpha Z        PSCENC =        36.80884744
  Ewald energy   TEWEN  =     11917.55816911
  -Hartree energ DENC   =    -15059.20250247
  -exchange      EXHF   =         0.00000000
  -V(xc)+E(xc)   XCENC  =       -80.36987328
  PAW double counting   =      1163.02057261     -841.97780111
  entropy T*S    EENTRO =        -0.02855675
  eigenvalues    EBANDS =      -613.02284678
  atomic energy  EATOM  =      3354.04126044
  ---------------------------------------------------
  free energy    TOTEN  =      -123.17273077 eV

  energy without entropy =     -123.14417402  energy(sigma->0) =     -123.15845239


--------------------------------------------------------------------------------------------------------




----------------------------------------- Iteration    1(  14)  ---------------------------------------


    POTLOK:  cpu time   14.75: real time   14.88
    SETDIJ:  cpu time    0.01: real time    0.01
     EDDAV:  cpu time   83.43: real time   84.23
       DOS:  cpu time    0.01: real time    0.01
    CHARGE:  cpu time    5.20: real time    5.24
    MIXING:  cpu time    0.01: real time    0.01
    --------------------------------------------
      LOOP:  cpu time  103.42: real time  104.39

 eigenvalue-minimisations  :  9016
 total energy-change (2. order) : 0.1070613E-02  (-0.9061635E-05)
 number of electron     107.9999995 magnetization 
 augmentation part       -9.3295425 magnetization 

 Broyden mixing:
  rms(total) = 0.91935E-03    rms(broyden)= 0.91931E-03
  rms(prec ) = 0.16621E-02
  weight for this iteration     100.00

 eigenvalues of (default mixing * dielectric matrix)
  average eigenvalue GAMMA=   1.5671
  3.1937  2.6331  1.8134  1.3105  1.3105  1.1210  0.9142  0.9142  0.8937

 Free energy of the ion-electron system (eV)
  ---------------------------------------------------
  alpha Z        PSCENC =        36.80884744
  Ewald energy   TEWEN  =     11917.55816911
  -Hartree energ DENC   =    -15060.15947211
  -exchange      EXHF   =         0.00000000
  -V(xc)+E(xc)   XCENC  =       -80.36315679
  PAW double counting   =      1162.89031435     -841.84443011
  entropy T*S    EENTRO =        -0.02858135
  eigenvalues    EBANDS =      -612.07461114
  atomic energy  EATOM  =      3354.04126044
  ---------------------------------------------------
  free energy    TOTEN  =      -123.17166016 eV

  energy without entropy =     -123.14307880  energy(sigma->0) =     -123.15736948


--------------------------------------------------------------------------------------------------------




----------------------------------------- Iteration    1(  15)  ---------------------------------------


    POTLOK:  cpu time   14.66: real time   14.84
    SETDIJ:  cpu time    0.01: real time    0.01
     EDDAV:  cpu time   80.24: real time   80.96
       DOS:  cpu time    0.01: real time    0.01
    CHARGE:  cpu time    5.27: real time    5.32
    MIXING:  cpu time    0.01: real time    0.01
    --------------------------------------------
      LOOP:  cpu time  100.21: real time  101.17

 eigenvalue-minimisations  :  8392
 total energy-change (2. order) : 0.1161086E-03  (-0.4930361E-05)
 number of electron     107.9999995 magnetization 
 augmentation part       -9.3293929 magnetization 

 Broyden mixing:
  rms(total) = 0.57259E-03    rms(broyden)= 0.57256E-03
  rms(prec ) = 0.10167E-02
  weight for this iteration     100.00

 eigenvalues of (default mixing * dielectric matrix)
  average eigenvalue GAMMA=   1.6533
  3.8932  2.6745  2.0435  1.6752  1.2800  1.2800  0.9287  0.9287  0.9586  0.8711

 Free energy of the ion-electron system (eV)
  ---------------------------------------------------
  alpha Z        PSCENC =        36.80884744
  Ewald energy   TEWEN  =     11917.55816911
  -Hartree energ DENC   =    -15060.92139169
  -exchange      EXHF   =         0.00000000
  -V(xc)+E(xc)   XCENC  =       -80.35864418
  PAW double counting   =      1162.84587353     -841.79905832
  entropy T*S    EENTRO =        -0.02859575
  eigenvalues    EBANDS =      -611.31800463
  atomic energy  EATOM  =      3354.04126044
  ---------------------------------------------------
  free energy    TOTEN  =      -123.17154405 eV

  energy without entropy =     -123.14294830  energy(sigma->0) =     -123.15724617


--------------------------------------------------------------------------------------------------------




----------------------------------------- Iteration    1(  16)  ---------------------------------------


    POTLOK:  cpu time   14.74: real time   14.90
    SETDIJ:  cpu time    0.01: real time    0.01
     EDDAV:  cpu time   71.46: real time   71.72
       DOS:  cpu time    0.01: real time    0.01
    CHARGE:  cpu time    4.73: real time    4.73
    MIXING:  cpu time    0.01: real time    0.01
    --------------------------------------------
      LOOP:  cpu time   90.97: real time   91.39

 eigenvalue-minimisations  :  8192
 total energy-change (2. order) :-0.5179325E-03  (-0.1052796E-04)
 number of electron     107.9999995 magnetization 
 augmentation part       -9.3293355 magnetization 

 Broyden mixing:
  rms(total) = 0.34017E-03    rms(broyden)= 0.34016E-03
  rms(prec ) = 0.58057E-03
  weight for this iteration     100.00

 eigenvalues of (default mixing * dielectric matrix)
  average eigenvalue GAMMA=   1.7837
  5.1674  2.7873  2.4545  1.5832  1.5832  1.2340  1.2340  0.9103  0.9103  0.9191
  0.8371

 Free energy of the ion-electron system (eV)
  ---------------------------------------------------
  alpha Z        PSCENC =        36.80884744
  Ewald energy   TEWEN  =     11917.55816911
  -Hartree energ DENC   =    -15061.51203273
  -exchange      EXHF   =         0.00000000
  -V(xc)+E(xc)   XCENC  =       -80.35553786
  PAW double counting   =      1162.86557246     -841.81930816
  entropy T*S    EENTRO =        -0.02860217
  eigenvalues    EBANDS =      -610.73043053
  atomic energy  EATOM  =      3354.04126044
  ---------------------------------------------------
  free energy    TOTEN  =      -123.17206198 eV

  energy without entropy =     -123.14345981  energy(sigma->0) =     -123.15776090


--------------------------------------------------------------------------------------------------------




----------------------------------------- Iteration    1(  17)  ---------------------------------------


    POTLOK:  cpu time   15.87: real time   15.89
    SETDIJ:  cpu time    0.01: real time    0.01
     EDDAV:  cpu time   73.08: real time   73.13
       DOS:  cpu time    0.01: real time    0.01
    CHARGE:  cpu time    5.03: real time    5.04
    MIXING:  cpu time    0.02: real time    0.02
    --------------------------------------------
      LOOP:  cpu time   94.02: real time   94.10

 eigenvalue-minimisations  :  7840
 total energy-change (2. order) :-0.4001394E-03  (-0.1418195E-04)
 number of electron     107.9999995 magnetization 
 augmentation part       -9.3292823 magnetization 

 Broyden mixing:
  rms(total) = 0.18466E-03    rms(broyden)= 0.18465E-03
  rms(prec ) = 0.33561E-03
  weight for this iteration     100.00

 eigenvalues of (default mixing * dielectric matrix)
  average eigenvalue GAMMA=   1.8414
  5.8905  2.8886  2.5464  1.9599  1.2829  1.2829  1.4046  1.2682  0.9058  0.9058
  0.9171  0.8439

 Free energy of the ion-electron system (eV)
  ---------------------------------------------------
  alpha Z        PSCENC =        36.80884744
  Ewald energy   TEWEN  =     11917.55816911
  -Hartree energ DENC   =    -15061.86589061
  -exchange      EXHF   =         0.00000000
  -V(xc)+E(xc)   XCENC  =       -80.35381326
  PAW double counting   =      1162.90479852     -841.85943017
  entropy T*S    EENTRO =        -0.02859730
  eigenvalues    EBANDS =      -610.37780630
  atomic energy  EATOM  =      3354.04126044
  ---------------------------------------------------
  free energy    TOTEN  =      -123.17246212 eV

  energy without entropy =     -123.14386482  energy(sigma->0) =     -123.15816347


--------------------------------------------------------------------------------------------------------




----------------------------------------- Iteration    1(  18)  ---------------------------------------


    POTLOK:  cpu time   15.51: real time   15.52
    SETDIJ:  cpu time    0.01: real time    0.01
     EDDAV:  cpu time   71.73: real time   71.78
       DOS:  cpu time    0.01: real time    0.01
    CHARGE:  cpu time    5.19: real time    5.19
    MIXING:  cpu time    0.01: real time    0.01
    --------------------------------------------
      LOOP:  cpu time   92.47: real time   92.54

 eigenvalue-minimisations  :  7352
 total energy-change (2. order) :-0.4903341E-04  (-0.2808301E-05)
 number of electron     107.9999995 magnetization 
 augmentation part       -9.3292862 magnetization 

 Broyden mixing:
  rms(total) = 0.11639E-03    rms(broyden)= 0.11639E-03
  rms(prec ) = 0.21533E-03
  weight for this iteration     100.00

 eigenvalues of (default mixing * dielectric matrix)
  average eigenvalue GAMMA=   1.8910
  6.4074  3.1128  2.6735  2.1894  1.5360  1.5360  1.2417  1.2417  1.0747  0.9124
  0.9124  0.9059  0.8386

 Free energy of the ion-electron system (eV)
  ---------------------------------------------------
  alpha Z        PSCENC =        36.80884744
  Ewald energy   TEWEN  =     11917.55816911
  -Hartree energ DENC   =    -15062.02937153
  -exchange      EXHF   =         0.00000000
  -V(xc)+E(xc)   XCENC  =       -80.35340970
  PAW double counting   =      1162.90418119     -841.85867344
  entropy T*S    EENTRO =        -0.02859671
  eigenvalues    EBANDS =      -610.21491796
  atomic energy  EATOM  =      3354.04126044
  ---------------------------------------------------
  free energy    TOTEN  =      -123.17251115 eV

  energy without entropy =     -123.14391444  energy(sigma->0) =     -123.15821280


--------------------------------------------------------------------------------------------------------




----------------------------------------- Iteration    1(  19)  ---------------------------------------


    POTLOK:  cpu time   16.17: real time   16.20
    SETDIJ:  cpu time    0.01: real time    0.01
     EDDAV:  cpu time   68.68: real time   68.74
       DOS:  cpu time    0.01: real time    0.01
    CHARGE:  cpu time    5.15: real time    5.15
    MIXING:  cpu time    0.02: real time    0.02
    --------------------------------------------
      LOOP:  cpu time   90.05: real time   90.14

 eigenvalue-minimisations  :  6952
 total energy-change (2. order) :-0.3279734E-04  (-0.2609041E-05)
 number of electron     107.9999995 magnetization 
 augmentation part       -9.3292861 magnetization 

 Broyden mixing:
  rms(total) = 0.81960E-04    rms(broyden)= 0.81956E-04
  rms(prec ) = 0.14116E-03
  weight for this iteration     100.00

 eigenvalues of (default mixing * dielectric matrix)
  average eigenvalue GAMMA=   1.9239
  6.8261  3.3167  2.6811  2.1799  1.9804  1.4400  1.4400  1.2495  1.2495  0.9073
  0.9073  0.9609  0.9609  0.8344

 Free energy of the ion-electron system (eV)
  ---------------------------------------------------
  alpha Z        PSCENC =        36.80884744
  Ewald energy   TEWEN  =     11917.55816911
  -Hartree energ DENC   =    -15062.11124630
  -exchange      EXHF   =         0.00000000
  -V(xc)+E(xc)   XCENC  =       -80.35333458
  PAW double counting   =      1162.90158011     -841.85597764
  entropy T*S    EENTRO =        -0.02859858
  eigenvalues    EBANDS =      -610.13324395
  atomic energy  EATOM  =      3354.04126044
  ---------------------------------------------------
  free energy    TOTEN  =      -123.17254395 eV

  energy without entropy =     -123.14394536  energy(sigma->0) =     -123.15824466


--------------------------------------------------------------------------------------------------------




----------------------------------------- Iteration    1(  20)  ---------------------------------------


    POTLOK:  cpu time   16.53: real time   16.56
    SETDIJ:  cpu time    0.01: real time    0.01
     EDDAV:  cpu time   68.49: real time   68.55
       DOS:  cpu time    0.01: real time    0.01
    CHARGE:  cpu time    4.99: real time    5.00
    MIXING:  cpu time    0.02: real time    0.02
    --------------------------------------------
      LOOP:  cpu time   90.05: real time   90.15

 eigenvalue-minimisations  :  7016
 total energy-change (2. order) :-0.8785232E-06  (-0.2046084E-05)
 number of electron     107.9999995 magnetization 
 augmentation part       -9.3292813 magnetization 

 Broyden mixing:
  rms(total) = 0.53069E-04    rms(broyden)= 0.53066E-04
  rms(prec ) = 0.85406E-04
  weight for this iteration     100.00

 eigenvalues of (default mixing * dielectric matrix)
  average eigenvalue GAMMA=   2.0083
  7.0509  4.3553  2.8309  2.5941  1.8078  1.8078  1.3851  1.3851  1.1793  1.1793
  0.9110  0.9110  0.9420  0.9420  0.8430

 Free energy of the ion-electron system (eV)
  ---------------------------------------------------
  alpha Z        PSCENC =        36.80884744
  Ewald energy   TEWEN  =     11917.55816911
  -Hartree energ DENC   =    -15062.14788374
  -exchange      EXHF   =         0.00000000
  -V(xc)+E(xc)   XCENC  =       -80.35337165
  PAW double counting   =      1162.89978279     -841.85416034
  entropy T*S    EENTRO =        -0.02859886
  eigenvalues    EBANDS =      -610.09659002
  atomic energy  EATOM  =      3354.04126044
  ---------------------------------------------------
  free energy    TOTEN  =      -123.17254483 eV

  energy without entropy =     -123.14394597  energy(sigma->0) =     -123.15824540


--------------------------------------------------------------------------------------------------------




----------------------------------------- Iteration    1(  21)  ---------------------------------------


    POTLOK:  cpu time   15.76: real time   15.76
    SETDIJ:  cpu time    0.01: real time    0.01
     EDDAV:  cpu time   62.55: real time   62.60
       DOS:  cpu time    0.01: real time    0.01
    CHARGE:  cpu time    4.94: real time    4.94
    MIXING:  cpu time    0.02: real time    0.02
    --------------------------------------------
      LOOP:  cpu time   83.29: real time   83.34

 eigenvalue-minimisations  :  6332
 total energy-change (2. order) : 0.7345394E-04  (-0.1324512E-05)
 number of electron     107.9999995 magnetization 
 augmentation part       -9.3292871 magnetization 

 Broyden mixing:
  rms(total) = 0.32211E-04    rms(broyden)= 0.32208E-04
  rms(prec ) = 0.44416E-04
  weight for this iteration     100.00

 eigenvalues of (default mixing * dielectric matrix)
  average eigenvalue GAMMA=   2.0793
  7.4742  5.4351  2.9722  2.6229  1.9298  1.8830  1.4534  1.4534  1.2464  1.2464
  0.9056  0.9056  0.9889  0.9889  0.8538  0.9086

 Free energy of the ion-electron system (eV)
  ---------------------------------------------------
  alpha Z        PSCENC =        36.80884744
  Ewald energy   TEWEN  =     11917.55816911
  -Hartree energ DENC   =    -15062.16473936
  -exchange      EXHF   =         0.00000000
  -V(xc)+E(xc)   XCENC  =       -80.35350727
  PAW double counting   =      1162.89503716     -841.84931334
  entropy T*S    EENTRO =        -0.02859975
  eigenvalues    EBANDS =      -610.07962581
  atomic energy  EATOM  =      3354.04126044
  ---------------------------------------------------
  free energy    TOTEN  =      -123.17247137 eV

  energy without entropy =     -123.14387162  energy(sigma->0) =     -123.15817150


--------------------------------------------------------------------------------------------------------




----------------------------------------- Iteration    1(  22)  ---------------------------------------


    POTLOK:  cpu time   14.77: real time   14.78
    SETDIJ:  cpu time    0.01: real time    0.01
     EDDAV:  cpu time   61.80: real time   61.84
       DOS:  cpu time    0.01: real time    0.01
    CHARGE:  cpu time    4.98: real time    4.99
    MIXING:  cpu time    0.01: real time    0.01
    --------------------------------------------
      LOOP:  cpu time   81.59: real time   81.65

 eigenvalue-minimisations  :  6464
 total energy-change (2. order) : 0.4533889E-04  (-0.4569770E-06)
 number of electron     107.9999995 magnetization 
 augmentation part       -9.3292846 magnetization 

 Broyden mixing:
  rms(total) = 0.18187E-04    rms(broyden)= 0.18185E-04
  rms(prec ) = 0.22823E-04
  weight for this iteration     100.00

 eigenvalues of (default mixing * dielectric matrix)
  average eigenvalue GAMMA=   2.1603
  7.9670  6.3688  3.1183  2.7398  2.3429  1.6877  1.6877  1.3775  1.3775  1.2417
  1.2417  0.9084  0.9084  1.0310  0.8556  0.9355  0.9355

 Free energy of the ion-electron system (eV)
  ---------------------------------------------------
  alpha Z        PSCENC =        36.80884744
  Ewald energy   TEWEN  =     11917.55816911
  -Hartree energ DENC   =    -15062.17730500
  -exchange      EXHF   =         0.00000000
  -V(xc)+E(xc)   XCENC  =       -80.35345530
  PAW double counting   =      1162.89515271     -841.84943976
  entropy T*S    EENTRO =        -0.02860034
  eigenvalues    EBANDS =      -610.06705533
  atomic energy  EATOM  =      3354.04126044
  ---------------------------------------------------
  free energy    TOTEN  =      -123.17242603 eV

  energy without entropy =     -123.14382569  energy(sigma->0) =     -123.15812586


--------------------------------------------------------------------------------------------------------




----------------------------------------- Iteration    1(  23)  ---------------------------------------


    POTLOK:  cpu time   15.46: real time   15.48
    SETDIJ:  cpu time    0.01: real time    0.01
     EDDAV:  cpu time   62.51: real time   62.54
       DOS:  cpu time    0.01: real time    0.01
    CHARGE:  cpu time    4.74: real time    4.75
    MIXING:  cpu time    0.01: real time    0.02
    --------------------------------------------
      LOOP:  cpu time   82.76: real time   82.82

 eigenvalue-minimisations  :  6684
 total energy-change (2. order) : 0.1910767E-04  (-0.8701898E-06)
 number of electron     107.9999995 magnetization 
 augmentation part       -9.3292843 magnetization 

 Broyden mixing:
  rms(total) = 0.86279E-05    rms(broyden)= 0.86251E-05
  rms(prec ) = 0.10656E-04
  weight for this iteration     100.00

 eigenvalues of (default mixing * dielectric matrix)
  average eigenvalue GAMMA=   2.1746
  8.6333  6.6325  3.2297  2.6977  2.4390  1.7518  1.4271  1.4271  1.3831  1.3831
  1.3353  1.1228  1.1228  0.9083  0.9083  0.8488  0.9458  0.9458

 Free energy of the ion-electron system (eV)
  ---------------------------------------------------
  alpha Z        PSCENC =        36.80884744
  Ewald energy   TEWEN  =     11917.55816911
  -Hartree energ DENC   =    -15062.17312044
  -exchange      EXHF   =         0.00000000
  -V(xc)+E(xc)   XCENC  =       -80.35348748
  PAW double counting   =      1162.89649623     -841.85082046
  entropy T*S    EENTRO =        -0.02860039
  eigenvalues    EBANDS =      -610.07115139
  atomic energy  EATOM  =      3354.04126044
  ---------------------------------------------------
  free energy    TOTEN  =      -123.17240693 eV

  energy without entropy =     -123.14380654  energy(sigma->0) =     -123.15810673


[...]
     31      -4.0483      2.00000
     32      -3.8289      2.00000
     33      -3.7665      2.00000
     34      -3.4948      2.00000
     35      -3.3581      2.00000
     36      -3.2775      2.00000
     37      -3.1896      2.00000
     38      -3.1068      2.00000
     39      -2.9890      2.00000
     40      -2.7638      2.00000
     41      -2.6635      2.00000
     42      -2.5831      2.00000
     43      -2.4752      2.00000
     44      -2.2047      2.00000
     45      -2.0764      2.00000
     46      -2.0191      2.00000
     47      -1.8947      2.00000
     48      -1.8057      2.00000
     49      -1.4318      2.00000
     50      -1.2992      2.00000
     51      -1.0730      2.00000
     52      -0.6452      2.00000
     53      -0.3178      2.00000
     54      -0.0209      1.99854
     55       0.3757      0.01527
     56       0.7957      0.00000
     57       1.2491      0.00000
     58       1.4210      0.00000
     59       1.5603      0.00000
     60       1.9023      0.00000
     61       2.2043      0.00000
     62       2.4896      0.00000
     63       2.5632      0.00000
     64       2.6683      0.00000
     65       2.7775      0.00000
     66       2.9763      0.00000
     67       3.0040      0.00000
     68       3.2386      0.00000

 k-point    52 :       0.3077    0.5000    0.5000
  band No.  band energies     occupation 
      1     -13.4924      2.00000
      2     -12.5532      2.00000
      3     -12.2085      2.00000
      4     -12.0299      2.00000
      5     -11.6887      2.00000
      6     -11.3887      2.00000
      7     -11.2383      2.00000
      8     -11.0569      2.00000
      9     -10.8539      2.00000
     10     -10.6583      2.00000
     11     -10.4384      2.00000
     12     -10.1528      2.00000
     13      -8.9666      2.00000
     14      -8.0999      2.00000
     15      -7.8191      2.00000
     16      -7.6274      2.00000
     17      -7.1098      2.00000
     18      -7.0401      2.00000
     19      -7.0074      2.00000
     20      -6.5913      2.00000
     21      -6.2366      2.00000
     22      -6.1688      2.00000
     23      -5.9691      2.00000
     24      -5.7662      2.00000
     25      -5.4020      2.00000
     26      -5.0062      2.00000
     27      -4.9428      2.00000
     28      -4.7993      2.00000
     29      -4.5464      2.00000
     30      -4.4066      2.00000
     31      -4.3482      2.00000
     32      -4.1350      2.00000
     33      -4.0767      2.00000
     34      -3.6269      2.00000
     35      -3.3807      2.00000
     36      -3.2814      2.00000
     37      -3.1335      2.00000
     38      -3.0363      2.00000
     39      -2.9906      2.00000
     40      -2.9171      2.00000
     41      -2.7845      2.00000
     42      -2.5921      2.00000
     43      -2.5811      2.00000
     44      -2.3652      2.00000
     45      -2.2428      2.00000
     46      -2.0737      2.00000
     47      -1.9702      2.00000
     48      -1.9065      2.00000
     49      -1.7843      2.00000
     50      -1.3708      2.00000
     51      -1.2579      2.00000
     52      -0.9154      2.00000
     53      -0.5556      2.00000
     54      -0.4129      2.00000
     55       0.2878      0.23699
     56       0.5814      0.00000
     57       0.9909      0.00000
     58       1.2580      0.00000
     59       1.3418      0.00000
     60       1.7124      0.00000
     61       2.1134      0.00000
     62       2.1485      0.00000
     63       2.3544      0.00000
     64       2.4115      0.00000
     65       2.4683      0.00000
     66       2.5444      0.00000
     67       2.7776      0.00000
     68       2.9649      0.00000

 k-point    53 :       0.3846    0.5000    0.5000
  band No.  band energies     occupation 
      1     -13.2591      2.00000
      2     -12.0769      2.00000
      3     -11.7116      2.00000
      4     -11.5860      2.00000
      5     -11.2929      2.00000
      6     -11.0383      2.00000
      7     -10.9185      2.00000
      8     -10.8124      2.00000
      9     -10.6630      2.00000
     10     -10.5238      2.00000
     11     -10.5053      2.00000
     12      -9.8581      2.00000
     13      -8.9511      2.00000
     14      -8.4395      2.00000
     15      -8.2932      2.00000
     16      -8.0015      2.00000
     17      -7.6594      2.00000
     18      -7.4360      2.00000
     19      -7.4196      2.00000
     20      -6.9605      2.00000
     21      -6.7643      2.00000
     22      -6.7023      2.00000
     23      -6.5534      2.00000
     24      -6.3105      2.00000
     25      -5.3437      2.00000
     26      -5.2459      2.00000
     27      -4.8624      2.00000
     28      -4.7201      2.00000
     29      -4.5758      2.00000
     30      -4.3193      2.00000
     31      -4.1818      2.00000
     32      -4.0887      2.00000
     33      -3.9879      2.00000
     34      -3.5756      2.00000
     35      -3.4804      2.00000
     36      -3.3447      2.00000
     37      -3.2466      2.00000
     38      -3.2164      2.00000
     39      -3.1598      2.00000
     40      -2.9158      2.00000
     41      -2.8335      2.00000
     42      -2.7002      2.00000
     43      -2.6536      2.00000
     44      -2.5466      2.00000
     45      -2.3707      2.00000
     46      -2.2313      2.00000
     47      -2.1139      2.00000
     48      -2.0323      2.00000
     49      -1.8752      2.00000
     50      -1.5295      2.00000
     51      -1.3689      2.00000
     52      -1.0929      2.00000
     53      -0.8040      2.00000
     54      -0.6885      2.00000
     55       0.2561      0.46293
     56       0.6229      0.00000
     57       0.8429      0.00000
     58       1.2288      0.00000
     59       1.4567      0.00000
     60       1.5604      0.00000
     61       1.7965      0.00000
     62       1.9437      0.00000
     63       2.0831      0.00000
     64       2.1070      0.00000
     65       2.2363      0.00000
     66       2.3490      0.00000
     67       2.5857      0.00000
     68       2.6775      0.00000

 k-point    54 :       0.4615    0.5000    0.5000
  band No.  band energies     occupation 
      1     -13.1095      2.00000
      2     -11.5337      2.00000
      3     -11.2130      2.00000
      4     -11.1499      2.00000
      5     -10.9916      2.00000
      6     -10.8948      2.00000
      7     -10.8125      2.00000
      8     -10.7649      2.00000
      9     -10.6760      2.00000
     10     -10.6657      2.00000
     11     -10.5892      2.00000
     12      -9.6676      2.00000
     13      -8.7800      2.00000
     14      -8.7084      2.00000
     15      -8.4841      2.00000
     16      -8.1636      2.00000
     17      -8.1080      2.00000
     18      -7.6900      2.00000
     19      -7.6033      2.00000
     20      -7.3346      2.00000
     21      -7.2849      2.00000
     22      -7.2124      2.00000
     23      -7.0249      2.00000
     24      -6.4910      2.00000
     25      -5.3456      2.00000
     26      -4.9897      2.00000
     27      -4.7270      2.00000
     28      -4.5205      2.00000
     29      -4.3295      2.00000
     30      -4.1380      2.00000
     31      -4.0142      2.00000
     32      -3.9746      2.00000
     33      -3.8281      2.00000
     34      -3.8019      2.00000
     35      -3.6092      2.00000
     36      -3.5903      2.00000
     37      -3.3447      2.00000
     38      -3.3016      2.00000
     39      -3.2290      2.00000
     40      -3.1047      2.00000
     41      -3.0365      2.00000
     42      -2.8586      2.00000
     43      -2.7331      2.00000
     44      -2.6684      2.00000
     45      -2.4224      2.00000
     46      -2.2649      2.00000
     47      -2.1671      2.00000
     48      -2.0928      2.00000
     49      -1.7714      2.00000
     50      -1.6142      2.00000
     51      -1.4969      2.00000
     52      -1.1831      2.00000
     53      -0.8765      2.00000
     54      -0.7067      2.00000
     55       0.2018      1.02620
     56       0.5267      0.00001
     57       0.9306      0.00000
     58       1.3002      0.00000
     59       1.5019      0.00000
     60       1.5576      0.00000
     61       1.6150      0.00000
     62       1.8213      0.00000
     63       1.8748      0.00000
     64       1.9492      0.00000
     65       2.0716      0.00000
     66       2.3429      0.00000
     67       2.4452      0.00000
     68       2.5818      0.00000


--------------------------------------------------------------------------------------------------------


 soft charge-density along one line, spin component           1
         0         1         2         3         4         5         6         7         8         9
 total charge-density along one line
 
 pseudopotential strength for first ion, spin component:           1
 29.786   0.008  -0.001  -0.023   0.000  -0.000  -0.001   0.000
  0.008   0.009  -0.000  -0.000  -0.000   0.000   0.000   0.000
 -0.001  -0.000   6.550  -0.001  -0.000  -0.003   0.000   0.000
 -0.023  -0.000  -0.001   6.545   0.000   0.000  -0.002  -0.000
  0.000  -0.000  -0.000   0.000   6.551   0.000  -0.000  -0.003
 -0.000   0.000  -0.003   0.000   0.000   0.015  -0.000  -0.000
 -0.001   0.000   0.000  -0.002  -0.000  -0.000   0.015  -0.000
  0.000   0.000   0.000  -0.000  -0.003  -0.000  -0.000   0.015
 total augmentation occupancy for first ion, spin component:           1
  1.816  -0.350   0.006   0.254  -0.000   0.004   0.115   0.000
 -0.350   1.296   0.022   0.860  -0.000   0.004  -0.433   0.000
  0.006   0.022   1.142   0.012  -0.000  -0.502   0.014   0.000
  0.254   0.860   0.012   1.287  -0.001   0.014  -0.417   0.000
 -0.000  -0.000  -0.000  -0.001   1.144   0.000   0.000  -0.526
  0.004   0.004  -0.502   0.014   0.000   0.291  -0.015  -0.000
  0.115  -0.433   0.014  -0.417   0.000  -0.015   0.226  -0.000
  0.000   0.000   0.000   0.000  -0.526  -0.000  -0.000   0.325


------------------------ aborting loop because EDIFF is reached ----------------------------------------


    CHARGE:  cpu time    5.30: real time    5.41
    FORLOC:  cpu time    0.06: real time    0.06
    FORNL :  cpu time   22.82: real time   23.34
    STRESS:  cpu time   67.33: real time   68.42
    FORCOR:  cpu time   14.90: real time   15.16
    FORHAR:  cpu time    0.16: real time    0.16
    MIXING:  cpu time    0.02: real time    0.02
    OFIELD:  cpu time    0.00: real time    0.00

  FORCE on cell =-STRESS in cart. coord.  units (eV):
  Direction    XX          YY          ZZ          XY          YZ          ZX
  --------------------------------------------------------------------------------------
  Alpha Z    36.80885    36.80885    36.80885
  Ewald   14368.20537 13982.22196-16432.87673    13.77880     1.22482    51.75043
  Hartree 14896.06395 14602.54557-14436.43224     3.46048     7.03444     8.83963
  E(xc)    -357.13957  -356.71856  -355.41876     0.30088    -0.09042    -0.20648
  Local  -30816.62188-30140.30544 29286.34021   -15.87681   -12.25955   -61.03645
  n-local  1155.00534  1155.37150  1145.76125    -2.17384    -1.20296    10.47049
  augment  -202.01097  -202.50188  -204.25910     0.08255    -0.48463    -1.08298
  Kinetic   926.07609   930.02869   974.89197     0.81614     5.98870     8.22449
  Fock        0.00000     0.00000     0.00000     0.00000     0.00000     0.00000
  -------------------------------------------------------------------------------------
  Total       6.38719     7.45069    14.81544     0.38819     0.21041    16.95913
  in kB      10.20972    11.90969    23.68201     0.62051     0.33634    27.10865
  external pressure =       15.27 kB  Pullay stress =        0.00 kB


 VOLUME and BASIS-vectors are now :
 -----------------------------------------------------------------------------
  energy-cutoff  :      300.00
  volume of cell :     1002.32
      direct lattice vectors                 reciprocal lattice vectors
     3.540400000  0.000000000  0.000000000     0.282453960  0.048570342  0.000000000
    -1.770200000 10.294348000  0.000000000     0.000000000  0.097140683  0.000000000
     0.000000000  0.000000000 27.501429000     0.000000000  0.000000000  0.036361747

  length of vectors
     3.540400000 10.445439617 27.501429000     0.286599577  0.097140683  0.036361747


 FORCES acting on ions
    electron-ion (+dipol)            ewald-force                    non-local-force                 convergence-correction
 -----------------------------------------------------------------------------------------------
   -.530E-01 0.103E+02 0.273E+02   -.320E-02 -.102E+02 -.228E+02   0.325E-01 -.194E+00 -.453E+01   -.596E-07 -.734E-06 -.450E-05
   -.207E+00 0.622E+01 -.571E+03   0.429E+00 -.629E+01 0.576E+03   0.193E+00 -.738E-01 -.382E+01   -.584E-06 0.256E-05 0.128E-04
   0.410E-04 0.622E+02 0.476E+02   -.279E-02 -.637E+02 -.434E+02   0.430E-03 0.154E+01 -.412E+01   0.147E-08 0.210E-05 -.597E-05
   -.200E+00 0.444E+02 -.516E+03   -.900E-01 -.455E+02 0.520E+03   0.546E+00 0.140E+01 -.323E+01   -.201E-06 0.252E-05 0.946E-05
   0.349E-02 -.573E+02 0.526E+03   0.680E-04 0.589E+02 -.531E+03   -.156E-02 -.154E+01 0.429E+01   0.394E-07 -.442E-05 -.128E-04
   0.311E+02 -.102E+03 -.164E+02   -.292E+02 0.102E+03 0.181E+02   -.819E+01 0.380E+01 -.112E+02   -.293E-06 -.474E-05 -.620E-06
   -.558E-02 0.538E+02 0.526E+03   0.208E-04 -.557E+02 -.530E+03   0.162E-02 0.192E+01 0.417E+01   -.136E-07 0.101E-05 -.527E-05
   -.320E+00 0.798E+02 -.788E+02   -.307E-01 -.817E+02 0.754E+02   -.416E+00 0.195E+01 0.402E+01   0.138E-06 0.650E-05 -.928E-06
   -.735E-04 0.189E+01 0.572E+03   -.832E-04 -.210E+01 -.577E+03   0.118E-02 0.207E+00 0.478E+01   0.450E-07 0.536E-05 -.146E-04
   -.549E+00 0.178E+01 -.170E+02   0.431E+00 -.241E+01 0.140E+02   -.400E+00 0.685E+00 0.270E+01   -.707E-07 -.195E-05 0.391E-05
   -.422E-02 -.642E+02 0.606E+02   0.864E-02 0.661E+02 -.565E+02   -.444E-02 -.192E+01 -.403E+01   -.894E-07 -.226E-05 -.802E-05
   -.126E+01 -.510E+02 -.539E+03   0.160E+01 0.533E+02 0.544E+03   0.198E+00 -.225E+01 -.431E+01   -.831E-06 -.623E-05 0.578E-05
   0.968E-02 0.304E+02 0.208E+03   0.221E-03 -.326E+02 -.209E+03   -.643E-02 0.213E+01 0.343E+00   0.108E-07 0.262E-05 -.432E-05
   -.117E+01 -.113E+02 -.236E+03   0.211E+01 0.854E+01 0.237E+03   -.330E+00 0.342E+01 -.369E+00   0.164E-06 0.249E-05 0.543E-05
   0.703E-02 -.117E+02 0.139E+03   -.151E-02 0.119E+02 -.142E+03   -.716E-02 -.234E+00 0.253E+01   0.136E-07 -.235E-05 -.699E-05
   0.148E+01 -.159E+01 -.334E+03   -.903E+00 0.116E+01 0.333E+03   -.339E+00 0.189E+00 0.107E+01   0.620E-07 -.268E-05 0.422E-05
   -.147E-02 -.504E+01 0.346E+03   0.505E-04 0.552E+01 -.343E+03   -.316E-03 -.472E+00 -.252E+01   0.594E-08 0.391E-06 -.998E-05
   0.112E+02 0.804E+01 -.119E+03   -.977E+01 -.674E+01 0.120E+03   -.369E+01 -.529E+01 -.390E+01   -.273E-06 -.670E-05 0.317E-05
   -.413E-02 0.989E+01 0.335E+03   -.484E-05 -.101E+02 -.332E+03   -.299E-02 0.234E+00 -.251E+01   0.197E-08 0.334E-05 -.486E-05
   -.198E+00 0.256E+02 -.150E+03   0.728E+00 -.269E+02 0.149E+03   -.420E+00 0.767E+00 0.126E+01   0.656E-07 0.350E-05 0.238E-05
   0.515E-01 0.118E+02 0.126E+03   0.138E-03 -.121E+02 -.128E+03   -.453E-01 0.369E+00 0.254E+01   -.477E-08 0.940E-06 -.481E-05
   0.160E+01 0.195E+02 -.327E+03   -.132E+01 -.195E+02 0.328E+03   -.157E+00 0.168E-01 -.148E+01   0.458E-07 0.672E-05 0.738E-05
   -.490E-02 -.316E+02 0.254E+03   0.944E-04 0.337E+02 -.254E+03   0.528E-02 -.213E+01 -.373E+00   -.120E-07 -.339E-05 -.874E-05
   -.411E+02 -.304E+02 -.260E+03   0.360E+02 0.344E+02 0.255E+03   0.127E+02 -.394E+01 0.162E+02   0.612E-06 -.769E-05 0.535E-05
 -----------------------------------------------------------------------------------------------
   0.386E+00 -.585E+00 0.245E+01   -.142E-13 0.355E-13 -.853E-13   -.380E+00 0.585E+00 -.244E+01   -.122E-05 -.308E-05 -.326E-04
 
 
 POSITION                                       TOTAL-FORCE (eV/Angst)
 -----------------------------------------------------------------------------------
      0.00000      2.34757      6.41229        -0.023914     -0.042225      0.032222
      2.65530      1.31814     14.16300         0.414444     -0.143032      0.374038
     -0.00000      9.43147      5.75866        -0.002593     -0.011654      0.086390
     -0.88510      8.40203     13.50937         0.256078      0.350546     -0.053771
     -0.00000      6.40009      2.31424         0.001724     -0.004345      0.006831
     -0.00000      6.40009     10.06495        -6.308604      3.539456     -9.493789
      1.77020     10.27849      2.37372        -0.004221     -0.000406     -0.000324
      1.77020     10.27849     10.12443        -0.766855      0.061675      0.608744
      1.77020      3.18974      1.66157         0.000754     -0.000258      0.017025
      1.77020      3.18974      9.41228        -0.518643      0.060088     -0.315569
      1.77020      5.55354      5.69975        -0.000295      0.009049      0.090979
      0.88510      4.52411     13.45047         0.536907      0.091150      0.663770
      1.77020      9.05319      4.34076         0.003192     -0.001722      0.006004
      0.88510      8.02375     12.09147         0.610813      0.716148      0.422331
      0.00000      4.22380      5.10944        -0.001918      0.010694      0.062273
      2.65530      3.19437     12.86016         0.238027     -0.243786     -0.564988
     -0.00000      4.15582      2.74166        -0.002011      0.002226     -0.026952
     -0.00000      4.15582     10.49237        -2.255235     -3.996277     -2.826522
      1.77020      1.31366      2.96438        -0.007399     -0.013881     -0.016612
      1.77020      1.31366     10.71510         0.110109     -0.558258     -0.040415
      1.77020      1.38163      5.33187         0.006015     -0.025071      0.016554
      0.88510      0.35219     13.08259         0.118375      0.054999     -0.263592
      1.77020      6.77850      3.73234         0.000198      0.014693     -0.003517
      0.88510      5.74906     11.48306         7.595052      0.130188     11.218888
 -----------------------------------------------------------------------------------
    total drift:                                0.006553     -0.000240      0.003867


--------------------------------------------------------------------------------------------------------



  FREE ENERGIE OF THE ION-ELECTRON SYSTEM (eV)
  ---------------------------------------------------
  free  energy   TOTEN  =      -123.17238986 eV

  energy  without entropy=     -123.14378951  energy(sigma->0) =     -123.15808969
 


--------------------------------------------------------------------------------------------------------


    POTLOK:  cpu time   14.51: real time   14.72


--------------------------------------------------------------------------------------------------------


     LOOP+:  cpu time 2603.35: real time 2610.93
    4ORBIT:  cpu time    0.00: real time    0.00

 total amount of memory used by VASP on root node   146493. kBytes
========================================================================

   base      :      30000. kBytes
   nonlr-proj:       3452. kBytes
   fftplans  :       9347. kBytes
   grid      :      14649. kBytes
   one-center:         36. kBytes
   wavefun   :      89009. kBytes
 
  
  
 General timing and accounting informations for this job:
 ========================================================
  
                  Total CPU time used (sec):     2620.581
                            User time (sec):     2573.210
                          System time (sec):       47.371
                         Elapsed time (sec):     2629.506
  
                   Maximum memory used (kb):      335168.
                   Average memory used (kb):           0.
  
                          Minor page faults:      7899565
                          Major page faults:           16
                 Voluntary context switches:         1779
