<?xml version="1.0" encoding="ISO-8859-1"?>
<modeling>
 <generator>
  <i name="program" type="string">vasp </i>
  <i name="version" type="string">5.3.5  </i>
  <i name="subversion" type="string">31Mar14 (build Oct 29 2014 16:16:03) complex                          parallel </i>
  <i name="platform" type="string">Linux-UFHPC </i>
  <i name="date" type="string">2016 02 09 </i>
  <i name="time" type="string">18:31:06 </i>
 </generator>
 <incar>
  <i type="string" name="PREC">accurate</i>
  <i type="int" name="IBRION">     2</i>
  <i name="EDIFF">      0.00000100</i>
  <i type="int" name="NSW">     0</i>
  <i type="int" name="ISIF">     3</i>
  <i name="ENCUT">    300.00000000</i>
  <i type="string" name="LREAL"> Auto</i>
  <i type="int" name="ISMEAR">     0</i>
  <i name="SIGMA">      0.10000000</i>
  <i type="logical" name="LWAVE"> F  </i>
  <i type="logical" name="LCHARG"> F  </i>
  <i type="logical" name="LAECHG"> F  </i>
  <i type="string" name="GGA"> Bo</i>
  <i name="PARAM1">      0.18333333</i>
  <i name="PARAM2">      0.22000000</i>
  <i type="logical" name="LUSE_VDW"> T  </i>
  <i name="AGGAC">      0.00000000</i>
 </incar>
 <kpoints>
  <generation param="Gamma">
   <v type="int" name="divisions">      13        4        2 </v>
   <v name="usershift">      0.00000000       0.00000000       0.00000000 </v>
   <v name="genvec1">      0.07692308      -0.00000000       0.00000000 </v>
   <v name="genvec2">      0.00000000       0.25000000       0.00000000 </v>
   <v name="genvec3">      0.00000000       0.00000000       0.50000000 </v>
   <v name="shift">      0.00000000       0.00000000       0.00000000 </v>
  </generation>
  <varray name="kpointlist" >
   <v>       0.00000000       0.00000000       0.00000000 </v>
   <v>       0.07692308      -0.00000000       0.00000000 </v>
   <v>       0.15384615      -0.00000000       0.00000000 </v>
   <v>       0.23076923      -0.00000000       0.00000000 </v>
   <v>       0.30769231      -0.00000000       0.00000000 </v>
   <v>       0.38461538      -0.00000000       0.00000000 </v>
   <v>       0.46153846      -0.00000000       0.00000000 </v>
   <v>       0.00000000       0.25000000       0.00000000 </v>
   <v>       0.07692308       0.25000000       0.00000000 </v>
   <v>       0.15384615       0.25000000       0.00000000 </v>
   <v>       0.23076923       0.25000000       0.00000000 </v>
   <v>       0.30769231       0.25000000       0.00000000 </v>
   <v>       0.38461538       0.25000000       0.00000000 </v>
   <v>       0.46153846       0.25000000       0.00000000 </v>
   <v>      -0.46153846       0.25000000       0.00000000 </v>
   <v>      -0.38461538       0.25000000       0.00000000 </v>
   <v>      -0.30769231       0.25000000       0.00000000 </v>
   <v>      -0.23076923       0.25000000       0.00000000 </v>
   <v>      -0.15384615       0.25000000       0.00000000 </v>
   <v>      -0.07692308       0.25000000       0.00000000 </v>
   <v>       0.00000000       0.50000000       0.00000000 </v>
   <v>       0.07692308       0.50000000       0.00000000 </v>
   <v>       0.15384615       0.50000000       0.00000000 </v>
   <v>       0.23076923       0.50000000       0.00000000 </v>
   <v>       0.30769231       0.50000000       0.00000000 </v>
   <v>       0.38461538       0.50000000       0.00000000 </v>
   <v>       0.46153846       0.50000000       0.00000000 </v>
   <v>       0.00000000       0.00000000       0.50000000 </v>
   <v>       0.07692308      -0.00000000       0.50000000 </v>
   <v>       0.15384615      -0.00000000       0.50000000 </v>
   <v>       0.23076923      -0.00000000       0.50000000 </v>
   <v>       0.30769231      -0.00000000       0.50000000 </v>
   <v>       0.38461538      -0.00000000       0.50000000 </v>
   <v>       0.46153846      -0.00000000       0.50000000 </v>
   <v>       0.00000000       0.25000000       0.50000000 </v>
   <v>       0.07692308       0.25000000       0.50000000 </v>
   <v>       0.15384615       0.25000000       0.50000000 </v>
   <v>       0.23076923       0.25000000       0.50000000 </v>
   <v>       0.30769231       0.25000000       0.50000000 </v>
   <v>       0.38461538       0.25000000       0.50000000 </v>
   <v>       0.46153846       0.25000000       0.50000000 </v>
   <v>      -0.46153846       0.25000000       0.50000000 </v>
   <v>      -0.38461538       0.25000000       0.50000000 </v>
   <v>      -0.30769231       0.25000000       0.50000000 </v>
   <v>      -0.23076923       0.25000000       0.50000000 </v>
   <v>      -0.15384615       0.25000000       0.50000000 </v>
   <v>      -0.07692308       0.25000000       0.50000000 </v>
   <v>       0.00000000       0.50000000       0.50000000 </v>
   <v>       0.07692308       0.50000000       0.50000000 </v>
   <v>       0.15384615       0.50000000       0.50000000 </v>
   <v>       0.23076923       0.50000000       0.50000000 </v>
   <v>       0.30769231       0.50000000       0.50000000 </v>
   <v>       0.38461538       0.50000000       0.50000000 </v>
   <v>       0.46153846       0.50000000       0.50000000 </v>
  </varray>
  <varray name="weights" >
   <v>       0.00961538 </v>
   <v>       0.01923077 </v>
   <v>       0.01923077 </v>
   <v>       0.01923077 </v>
   <v>       0.01923077 </v>
   <v>       0.01923077 </v>
   <v>       0.01923077 </v>
   <v>       0.01923077 </v>
   <v>       0.01923077 </v>
   <v>       0.01923077 </v>
   <v>       0.01923077 </v>
   <v>       0.01923077 </v>
   <v>       0.01923077 </v>
   <v>       0.01923077 </v>
   <v>       0.01923077 </v>
   <v>       0.01923077 </v>
   <v>       0.01923077 </v>
   <v>       0.01923077 </v>
   <v>       0.01923077 </v>
   <v>       0.01923077 </v>
   <v>       0.00961538 </v>
   <v>       0.01923077 </v>
   <v>       0.01923077 </v>
   <v>       0.01923077 </v>
   <v>       0.01923077 </v>
   <v>       0.01923077 </v>
   <v>       0.01923077 </v>
   <v>       0.00961538 </v>
   <v>       0.01923077 </v>
   <v>       0.01923077 </v>
   <v>       0.01923077 </v>
   <v>       0.01923077 </v>
   <v>       0.01923077 </v>
   <v>       0.01923077 </v>
   <v>       0.01923077 </v>
   <v>       0.01923077 </v>
   <v>       0.01923077 </v>
   <v>       0.01923077 </v>
   <v>       0.01923077 </v>
   <v>       0.01923077 </v>
   <v>       0.01923077 </v>
   <v>       0.01923077 </v>
   <v>       0.01923077 </v>
   <v>       0.01923077 </v>
   <v>       0.01923077 </v>
   <v>       0.01923077 </v>
   <v>       0.01923077 </v>
   <v>       0.00961538 </v>
   <v>       0.01923077 </v>
   <v>       0.01923077 </v>
   <v>       0.01923077 </v>
   <v>       0.01923077 </v>
   <v>       0.01923077 </v>
   <v>       0.01923077 </v>
  </varray>
 </kpoints>
 <parameters>
  <separator name="general" >
   <i type="string" name="SYSTEM">unknown system</i>
   <i type="logical" name="LCOMPAT"> F  </i>
  </separator>
  <separator name="electronic" >
   <i type="string" name="PREC">accura</i>
   <i name="ENMAX">    300.00000000</i>
   <i name="ENAUG">    342.92400000</i>
   <i name="EDIFF">      0.00000100</i>
   <i type="int" name="IALGO">    38</i>
   <i type="int" name="IWAVPR">    10</i>
   <i type="int" name="NBANDS">    68</i>
   <i name="NELECT">    108.00000000</i>
   <i type="int" name="TURBO">     0</i>
   <i type="int" name="IRESTART">     0</i>
   <i type="int" name="NREBOOT">     0</i>
   <i type="int" name="NMIN">     0</i>
   <i name="EREF">      0.00000000</i>
   <separator name="electronic smearing" >
    <i type="int" name="ISMEAR">     0</i>
    <i name="SIGMA">      0.10000000</i>
    <i name="KSPACING">      0.50000000</i>
    <i type="logical" name="KGAMMA"> T  </i>
   </separator>
   <separator name="electronic projectors" >
    <i type="logical" name="LREAL"> T  </i>
    <v name="ROPT">     -0.00025000     -0.00025000</v>
    <i type="int" name="LMAXPAW">  -100</i>
    <i type="int" name="LMAXMIX">     2</i>
    <i type="logical" name="NLSPLINE"> F  </i>
   </separator>
   <separator name="electronic startup" >
    <i type="int" name="ISTART">     0</i>
    <i type="int" name="ICHARG">     2</i>
    <i type="int" name="INIWAV">     1</i>
   </separator>
   <separator name="electronic spin" >
    <i type="int" name="ISPIN">     1</i>
    <i type="logical" name="LNONCOLLINEAR"> F  </i>
    <v name="MAGMOM">      1.00000000      1.00000000      1.00000000      1.00000000      1.00000000      1.00000000      1.00000000      1.00000000      1.00000000      1.00000000      1.00000000      1.00000000      1.00000000      1.00000000      1.00000000      1.00000000      1.00000000      1.00000000      1.00000000      1.00000000
      1.00000000      1.00000000      1.00000000      1.00000000</v>
    <i name="NUPDOWN">     -1.00000000</i>
    <i type="logical" name="LSORBIT"> F  </i>
    <v name="SAXIS">      0.00000000      0.00000000      1.00000000</v>
    <i type="logical" name="LSPIRAL"> F  </i>
    <v name="QSPIRAL">      0.00000000      0.00000000      0.00000000</v>
    <i type="logical" name="LZEROZ"> F  </i>
   </separator>
   <separator name="electronic exchange-correlation" >
    <i type="logical" name="LASPH"> F  </i>
    <i type="logical" name="LMETAGGA"> F  </i>
   </separator>
   <separator name="electronic convergence" >
    <i type="int" name="NELM">    60</i>
    <i type="int" name="NELMDL">    -5</i>
    <i type="int" name="NELMIN">     2</i>
    <i name="ENINI">    300.00000000</i>
    <separator name="electronic convergence detail" >
     <i type="logical" name="LDIAG"> T  </i>
     <i type="logical" name="LSUBROT"> F  </i>
     <i name="WEIMIN">      0.00000000</i>
     <i name="EBREAK">      0.00000000</i>
     <i name="DEPER">      0.30000000</i>
     <i type="int" name="NRMM">     4</i>
     <i name="TIME">      0.40000000</i>
    </separator>
   </separator>
   <separator name="electronic mixer" >
    <i name="AMIX">      0.40000000</i>
    <i name="BMIX">      1.00000000</i>
    <i name="AMIN">      0.10000000</i>
    <i name="AMIX_MAG">      1.60000000</i>
    <i name="BMIX_MAG">      1.00000000</i>
    <separator name="electronic mixer details" >
     <i type="int" name="IMIX">     4</i>
     <i type="int" name="MAXMIX">   -45</i>
     <i name="WC">    100.00000000</i>
     <i type="int" name="INIMIX">     1</i>
     <i type="int" name="MIXPRE">     1</i>
     <i type="int" name="MREMOVE">     5</i>
    </separator>
   </separator>
   <separator name="electronic dipolcorrection" >
    <i type="logical" name="LDIPOL"> F  </i>
    <i type="logical" name="LMONO"> F  </i>
    <i type="int" name="IDIPOL">     0</i>
    <i name="EPSILON">      1.00000000</i>
    <v name="DIPOL">   -100.00000000   -100.00000000   -100.00000000</v>
    <i name="EFIELD">      0.00000000</i>
   </separator>
  </separator>
  <separator name="grids" >
   <i type="int" name="NGX">    20</i>
   <i type="int" name="NGY">    60</i>
   <i type="int" name="NGZ">   160</i>
   <i type="int" name="NGXF">    40</i>
   <i type="int" name="NGYF">   120</i>
   <i type="int" name="NGZF">   320</i>
   <i type="logical" name="ADDGRID"> F  </i>
  </separator>
  <separator name="ionic" >
   <i type="int" name="NSW">     0</i>
   <i type="int" name="IBRION">    -1</i>
   <i type="int" name="ISIF">     3</i>
   <i name="PSTRESS">      0.00000000</i>
   <i name="EDIFFG">      0.00001000</i>
   <i type="int" name="NFREE">     1</i>
   <i name="POTIM">      0.50000000</i>
   <i name="SMASS">     -3.00000000</i>
   <i name="SCALEE">      1.00000000</i>
  </separator>
  <separator name="ionic md" >
   <i name="TEBEG">      0.00010000</i>
   <i name="TEEND">      0.00010000</i>
   <i type="int" name="NBLOCK">     1</i>
   <i type="int" name="KBLOCK">     1</i>
   <i type="int" name="NPACO">   256</i>
   <i name="APACO">     16.00000000</i>
  </separator>
  <separator name="symmetry" >
   <i type="int" name="ISYM">     2</i>
   <i name="SYMPREC">      0.00001000</i>
  </separator>
  <separator name="dos" >
   <i type="logical" name="LORBIT"> F  </i>
   <v name="RWIGS">     -1.00000000     -1.00000000</v>
   <i type="int" name="NEDOS">   301</i>
   <i name="EMIN">     10.00000000</i>
   <i name="EMAX">    -10.00000000</i>
   <i name="EFERMI">      0.00000000</i>
  </separator>
  <separator name="writing" >
   <i type="int" name="NWRITE">     2</i>
   <i type="logical" name="LWAVE"> F  </i>
   <i type="logical" name="LCHARG"> F  </i>
   <i type="logical" name="LPARD"> F  </i>
   <i type="logical" name="LVTOT"> F  </i>
   <i type="logical" name="LVHAR"> F  </i>
   <i type="logical" name="LELF"> F  </i>
   <i type="logical" name="LOPTICS"> F  </i>
   <v name="STM">      0.00000000      0.00000000      0.00000000      0.00000000      0.00000000      0.00000000      0.00000000</v>
  </separator>
  <separator name="performance" >
   <i type="int" name="NPAR">     4</i>
   <i type="int" name="NSIM">     4</i>
   <i type="int" name="NBLK">    -1</i>
   <i type="logical" name="LPLANE"> T  </i>
   <i type="logical" name="LSCALAPACK"> T  </i>
   <i type="logical" name="LSCAAWARE"> F  </i>
   <i type="logical" name="LSCALU"> F  </i>
   <i type="logical" name="LASYNC"> F  </i>
   <i type="logical" name="LORBITALREAL"> F  </i>
  </separator>
  <separator name="miscellaneous" >
   <i type="int" name="IDIOT">     3</i>
   <i type="logical" name="LMUSIC"> F  </i>
   <v name="POMASS">     30.97400000     28.08500000</v>
   <v name="DARWINR">      0.00000000      0.00000000</v>
   <v name="DARWINV">      1.00000000      1.00000000</v>
   <i type="logical" name="LCORR"> T  </i>
  </separator>
  <i type="logical" name="GGA_COMPAT"> T  </i>
  <i type="logical" name="LBERRY"> F  </i>
  <i type="int" name="ICORELEVEL">     0</i>
  <i type="logical" name="LDAU"> F  </i>
  <i type="int" name="I_CONSTRAINED_M">     0</i>
  <separator name="electronic exchange-correlation" >
   <i type="string" name="GGA">BO</i>
   <i type="int" name="VOSKOWN">     0</i>
   <i type="logical" name="LHFCALC"> F  </i>
   <i type="string" name="PRECFOCK"></i>
   <i type="logical" name="LSYMGRAD"> F  </i>
   <i type="logical" name="LHFONE"> F  </i>
   <i type="logical" name="LRHFCALC"> F  </i>
   <i type="logical" name="LTHOMAS"> F  </i>
   <i type="logical" name="LMODELHF"> F  </i>
   <i name="ENCUT4O">     -1.00000000</i>
   <i type="int" name="EXXOEP">     0</i>
   <i type="int" name="FOURORBIT">     0</i>
   <i name="AEXX">      0.00000000</i>
   <i name="HFALPHA">      0.00000000</i>
   <i name="MCALPHA">      0.00000000</i>
   <i name="ALDAX">      1.00000000</i>
   <i name="AGGAX">      1.00000000</i>
   <i name="ALDAC">      1.00000000</i>
   <i name="AGGAC">      0.00000000</i>
   <i type="int" name="NKREDX">     1</i>
   <i type="int" name="NKREDY">     1</i>
   <i type="int" name="NKREDZ">     1</i>
   <i type="logical" name="SHIFTRED"> F  </i>
   <i type="logical" name="ODDONLY"> F  </i>
   <i type="logical" name="EVENONLY"> F  </i>
   <i type="int" name="LMAXFOCK">     0</i>
   <i type="int" name="NMAXFOCKAE">     0</i>
   <i type="logical" name="LFOCKAEDFT"> F  </i>
   <i name="HFSCREEN">      0.00000000</i>
   <i name="HFSCREENC">      0.00000000</i>
   <i type="int" name="NBANDSGWLOW">     0</i>
  </separator>
  <separator name="vdW DFT" >
   <i type="logical" name="LUSE_VDW"> T  </i>
   <i name="Zab_VDW">     -0.84910000</i>
   <i name="PARAM1">      0.18333333</i>
   <i name="PARAM2">      0.22000000</i>
   <i name="PARAM3">      0.00000000</i>
  </separator>
  <separator name="model GW" >
   <i type="int" name="MODEL_GW">     0</i>
   <i name="MODEL_EPS0">     25.05800243</i>
   <i name="MODEL_ALPHA">      1.00000000</i>
  </separator>
  <separator name="linear response parameters" >
   <i type="logical" name="LEPSILON"> F  </i>
   <i type="logical" name="LRPA"> F  </i>
   <i type="logical" name="LNABLA"> F  </i>
   <i type="logical" name="LVEL"> F  </i>
   <i type="int" name="KINTER">     0</i>
   <i name="CSHIFT">      0.10000000</i>
   <i name="OMEGAMAX">     -1.00000000</i>
   <i name="DEG_THRESHOLD">      0.00200000</i>
  </separator>
  <separator name="orbital magnetization" >
   <i type="logical" name="NUCIND"> F  </i>
   <v name="MAGPOS">      0.00000000      0.00000000      0.00000000</v>
   <i type="logical" name="LNICSALL"> T  </i>
   <i type="logical" name="ORBITALMAG"> F  </i>
   <i type="logical" name="LMAGBLOCH"> F  </i>
   <i type="logical" name="LCHIMAG"> F  </i>
   <i type="logical" name="LGAUGE"> T  </i>
   <i type="int" name="MAGATOM">     0</i>
   <v name="MAGDIPOL">      0.00000000      0.00000000      0.00000000</v>
   <v name="AVECCONST">      0.00000000      0.00000000      0.00000000</v>
  </separator>
  <separator name="response functions" >
   <i type="logical" name="LADDER"> F  </i>
   <i type="logical" name="LFXC"> F  </i>
   <i type="logical" name="LHARTREE"> T  </i>
   <i type="int" name="IBSE">     0</i>
   <i type="logical" name="LTCTE"> F  </i>
   <i type="logical" name="LTETE"> F  </i>
   <i type="logical" name="LTRIPLET"> F  </i>
   <i type="logical" name="LFXCEPS"> F  </i>
   <i type="logical" name="LFXHEG"> F  </i>
   <i type="logical" name="L2ORDER"> F  </i>
   <i type="logical" name="LUSEW"> F  </i>
   <i name="ENCUTGW">     -2.00000000</i>
   <i name="ENCUTGWSOFT">     -2.00000000</i>
   <i name="ENCUTLF">     -1.00000000</i>
   <i type="int" name="LMAXMP2">    -1</i>
   <i name="SCISSOR">      0.00000000</i>
   <i type="int" name="NOMEGA">     0</i>
   <i type="int" name="NOMEGAR">     0</i>
   <i type="int" name="NBANDSGW">    -1</i>
   <i type="int" name="NBANDSO">    -1</i>
   <i type="int" name="NBANDSV">    -1</i>
   <i type="int" name="NELM">     1</i>
   <i type="int" name="DIM">     3</i>
   <i type="int" name="ANTIRES">     0</i>
   <i name="OMEGAMAX">    -30.00000000</i>
   <i name="OMEGAMIN">    -30.00000000</i>
   <i name="OMEGATL">   -200.00000000</i>
   <i type="int" name="OMEGAGRID">     0</i>
   <i name="CSHIFT">     -0.10000000</i>
   <i type="logical" name="SELFENERGY"> F  </i>
   <i type="logical" name="LSPECTRAL"> F  </i>
   <i type="logical" name="ODDONLYGW"> F  </i>
   <i type="logical" name="EVENONLYGW"> F  </i>
   <i type="int" name="NKREDLFX">     1</i>
   <i type="int" name="NKREDLFY">     1</i>
   <i type="int" name="NKREDLFZ">     1</i>
   <i type="int" name="MAXMEM">  1800</i>
   <i type="int" name="TELESCOPE">     0</i>
   <i type="int" name="TAUPAR">     1</i>
  </separator>
  <separator name="External order field" >
   <i name="OFIELD_KAPPA">      0.00000000</i>
   <v name="OFIELD_K">      0.00000000      0.00000000      0.00000000</v>
   <i name="OFIELD_Q6_NEAR">      0.00000000</i>
   <i name="OFIELD_Q6_FAR">      0.00000000</i>
   <i name="OFIELD_A">      0.00000000</i>
  </separator>
 </parameters>
 <atominfo>
  <atoms>      24 </atoms>
  <types>       2 </types>
  <array name="atoms" >
   <dimension dim="1">ion</dimension>
   <field type="string">element</field>
   <field type="int">atomtype</field>
   <set>
    <rc><c>P </c><c>   1</c></rc>
    <rc><c>P </c><c>   1</c></rc>
    <rc><c>P </c><c>   1</c></rc>
    <rc><c>P </c><c>   1</c></rc>
    <rc><c>P </c><c>   1</c></rc>
    <rc><c>P </c><c>   1</c></rc>
    <rc><c>P </c><c>   1</c></rc>
    <rc><c>P </c><c>   1</c></rc>
    <rc><c>P </c><c>   1</c></rc>
    <rc><c>P </c><c>   1</c></rc>
    <rc><c>P </c><c>   1</c></rc>
    <rc><c>P </c><c>   1</c></rc>
    <rc><c>Si</c><c>   2</c></rc>
    <rc><c>Si</c><c>   2</c></rc>
    <rc><c>Si</c><c>   2</c></rc>
    <rc><c>Si</c><c>   2</c></rc>
    <rc><c>Si</c><c>   2</c></rc>
    <rc><c>Si</c><c>   2</c></rc>
    <rc><c>Si</c><c>   2</c></rc>
    <rc><c>Si</c><c>   2</c></rc>
    <rc><c>Si</c><c>   2</c></rc>
    <rc><c>Si</c><c>   2</c></rc>
    <rc><c>Si</c><c>   2</c></rc>
    <rc><c>Si</c><c>   2</c></rc>
   </set>
  </array>
  <array name="atomtypes" >
   <dimension dim="1">type</dimension>
   <field type="int">atomspertype</field>
   <field type="string">element</field>
   <field>mass</field>
   <field>valence</field>
   <field type="string">pseudopotential</field>
   <set>
    <rc><c>  12</c><c>P </c><c>     30.97400000</c><c>      5.00000000</c><c>  PAW_PBE P 17Jan2003                   </c></rc>
    <rc><c>  12</c><c>Si</c><c>     28.08500000</c><c>      4.00000000</c><c> PAW_PBE Si 05Jan2001                   </c></rc>
   </set>
  </array>
 </atominfo>
 <structure name="initialpos" >
  <crystal>
   <varray name="basis" >
    <v>       3.54040000       0.00000000       0.00000000 </v>
    <v>      -1.77020000      10.29434800       0.00000000 </v>
    <v>       0.00000000       0.00000000      27.50142900 </v>
   </varray>
   <i name="volume">   1002.32009712 </i>
   <varray name="rec_basis" >
    <v>       0.28245396       0.04857034       0.00000000 </v>
    <v>       0.00000000       0.09714068       0.00000000 </v>
    <v>       0.00000000       0.00000000       0.03636175 </v>
   </varray>
  </crystal>
  <varray name="positions" >
   <v>       0.11402300       0.22804500       0.23316207 </v>
   <v>       0.81402300       0.12804500       0.51499159 </v>
   <v>       0.45808900       0.91617900       0.20939482 </v>
   <v>       0.15808900       0.81617900       0.49122434 </v>
   <v>       0.31085400       0.62170900       0.08414979 </v>
   <v>       0.31085400       0.62170900       0.36597930 </v>
   <v>       0.99923000       0.99846000       0.08631254 </v>
   <v>       0.99923000       0.99846000       0.36814206 </v>
   <v>       0.65492700       0.30985400       0.06041748 </v>
   <v>       0.65492700       0.30985400       0.34224700 </v>
   <v>       0.76973800       0.53947500       0.20725292 </v>
   <v>       0.46973800       0.43947500       0.48908244 </v>
   <v>       0.93971600       0.87943300       0.15783749 </v>
   <v>       0.63971600       0.77943300       0.43966701 </v>
   <v>       0.20515200       0.41030300       0.18578822 </v>
   <v>       0.90515200       0.31030300       0.46761774 </v>
   <v>       0.20184900       0.40369900       0.09969156 </v>
   <v>       0.20184900       0.40369900       0.38152107 </v>
   <v>       0.56380500       0.12761000       0.10779021 </v>
   <v>       0.56380500       0.12761000       0.38961973 </v>
   <v>       0.56710600       0.13421200       0.19387616 </v>
   <v>       0.26710600       0.03421200       0.47570568 </v>
   <v>       0.82923400       0.65846800       0.13571444 </v>
   <v>       0.52923400       0.55846800       0.41754396 </v>
  </varray>
 </structure>
 <calculation>
  <scstep>
   <time name="dav">   67.79   67.85</time>
   <time name="total">   84.30   84.38</time>
   <energy>
    <i name="alphaZ">     36.80884744 </i>
    <i name="ewald">  11917.55816911 </i>
    <i name="hartreedc"> -14966.20024468 </i>
    <i name="XCdc">    -87.98490267 </i>
    <i name="pawpsdc">   1056.43050070 </i>
    <i name="pawaedc">   -732.41190547 </i>
    <i name="eentropy">     -0.04262038 </i>
    <i name="bandstr">    -88.74200423 </i>
    <i name="atom">   3354.04126044 </i>
    <i name="e_fr_energy">    489.45710027 </i>
    <i name="e_wo_entrp">    489.49972065 </i>
    <i name="e_0_energy">    489.47841046 </i>
   </energy>
  </scstep>
  <scstep>
   <time name="dav">   83.99   84.06</time>
   <time name="total">   84.00   84.07</time>
   <energy>
    <i name="e_fr_energy">    -67.45128454 </i>
    <i name="e_wo_entrp">    -67.43222757 </i>
    <i name="e_0_energy">    -67.44175606 </i>
   </energy>
  </scstep>
  <scstep>
   <time name="dav">   79.41   79.47</time>
   <time name="total">   79.42   79.49</time>
   <energy>
    <i name="e_fr_energy">   -123.61211870 </i>
    <i name="e_wo_entrp">   -123.57776691 </i>
    <i name="e_0_energy">   -123.59494280 </i>
   </energy>
  </scstep>
  <scstep>
   <time name="dav">   91.31   91.39</time>
   <time name="total">   91.32   91.40</time>
   <energy>
    <i name="e_fr_energy">   -126.13371644 </i>
    <i name="e_wo_entrp">   -126.09938205 </i>
    <i name="e_0_energy">   -126.11654924 </i>
   </energy>
  </scstep>
  <scstep>
   <time name="dav">   85.70   85.99</time>
   <time name="total">   91.55   91.94</time>
   <energy>
    <i name="e_fr_energy">   -126.19591580 </i>
    <i name="e_wo_entrp">   -126.16141368 </i>
    <i name="e_0_energy">   -126.17866474 </i>
   </energy>
  </scstep>
  <scstep>
   <time name="dav">  102.86  102.94</time>
   <time name="total">  124.82  125.05</time>
   <energy>
    <i name="e_fr_energy">   -123.43533516 </i>
    <i name="e_wo_entrp">   -123.40335907 </i>
    <i name="e_0_energy">   -123.41934711 </i>
   </energy>
  </scstep>
  <scstep>
   <time name="dav">   75.09   75.15</time>
   <time name="total">   95.64   95.72</time>
   <energy>
    <i name="e_fr_energy">   -123.19763046 </i>
    <i name="e_wo_entrp">   -123.17171076 </i>
    <i name="e_0_energy">   -123.18467061 </i>
   </energy>
  </scstep>
  <scstep>
   <time name="dav">   78.46   78.51</time>
   <time name="total">   99.00   99.07</time>
   <energy>
    <i name="e_fr_energy">   -123.21737971 </i>
    <i name="e_wo_entrp">   -123.18979946 </i>
    <i name="e_0_energy">   -123.20358958 </i>
   </energy>
  </scstep>
  <scstep>
   <time name="dav">   79.45   79.49</time>
   <time name="total">   99.15   99.21</time>
   <energy>
    <i name="e_fr_energy">   -123.19719938 </i>
    <i name="e_wo_entrp">   -123.16853690 </i>
    <i name="e_0_energy">   -123.18286814 </i>
   </energy>
  </scstep>
  <scstep>
   <time name="dav">   78.26   78.30</time>
   <time name="total">   97.74   97.80</time>
   <energy>
    <i name="e_fr_energy">   -123.18608772 </i>
    <i name="e_wo_entrp">   -123.15773009 </i>
    <i name="e_0_energy">   -123.17190890 </i>
   </energy>
  </scstep>
  <scstep>
   <time name="dav">   75.93   76.00</time>
   <time name="total">   95.39   95.47</time>
   <energy>
    <i name="e_fr_energy">   -123.17996840 </i>
    <i name="e_wo_entrp">   -123.15153075 </i>
    <i name="e_0_energy">   -123.16574958 </i>
   </energy>
  </scstep>
  <scstep>
   <time name="dav">   82.62   82.71</time>
   <time name="total">  103.99  104.09</time>
   <energy>
    <i name="e_fr_energy">   -123.17518882 </i>
    <i name="e_wo_entrp">   -123.14665719 </i>
    <i name="e_0_energy">   -123.16092300 </i>
   </energy>
  </scstep>
  <scstep>
   <time name="dav">   84.96   85.24</time>
   <time name="total">  105.09  105.42</time>
   <energy>
    <i name="e_fr_energy">   -123.17273077 </i>
    <i name="e_wo_entrp">   -123.14417402 </i>
    <i name="e_0_energy">   -123.15845239 </i>
   </energy>
  </scstep>
  <scstep>
   <time name="dav">   83.43   84.23</time>
   <time name="total">  103.42  104.39</time>
   <energy>
    <i name="e_fr_energy">   -123.17166016 </i>
    <i name="e_wo_entrp">   -123.14307880 </i>
    <i name="e_0_energy">   -123.15736948 </i>
   </energy>
  </scstep>
  <scstep>
   <time name="dav">   80.24   80.96</time>
   <time name="total">  100.21  101.17</time>
   <energy>
    <i name="e_fr_energy">   -123.17154405 </i>
    <i name="e_wo_entrp">   -123.14294830 </i>
    <i name="e_0_energy">   -123.15724617 </i>
   </energy>
  </scstep>
  <scstep>
   <time name="dav">   71.46   71.72</time>
   <time name="total">   90.97   91.39</time>
   <energy>
    <i name="e_fr_energy">   -123.17206198 </i>
    <i name="e_wo_entrp">   -123.14345981 </i>
    <i name="e_0_energy">   -123.15776090 </i>
   </energy>
  </scstep>
  <scstep>
   <time name="dav">   73.08   73.13</time>
   <time name="total">   94.02   94.10</time>
   <energy>
    <i name="e_fr_energy">   -123.17246212 </i>
    <i name="e_wo_entrp">   -123.14386482 </i>
    <i name="e_0_energy">   -123.15816347 </i>
   </energy>
  </scstep>
  <scstep>
   <time name="dav">   71.73   71.78</time>
   <time name="total">   92.47   92.54</time>
   <energy>
    <i name="e_fr_energy">   -123.17251115 </i>
    <i name="e_wo_entrp">   -123.14391444 </i>
    <i name="e_0_energy">   -123.15821280 </i>
   </energy>
  </scstep>
  <scstep>
   <time name="dav">   68.68   68.74</time>
   <time name="total">   90.05   90.14</time>
   <energy>
    <i name="e_fr_energy">   -123.17254395 </i>
    <i name="e_wo_entrp">   -123.14394536 </i>
    <i name="e_0_energy">   -123.15824466 </i>
   </energy>
  </scstep>
  <scstep>
   <time name="dav">   68.49   68.55</time>
   <time name="total">   90.05   90.15</time>
   <energy>
    <i name="e_fr_energy">   -123.17254483 </i>
    <i name="e_wo_entrp">   -123.14394597 </i>
    <i name="e_0_energy">   -123.15824540 </i>
   </energy>
  </scstep>
  <scstep>
   <time name="dav">   62.55   62.60</time>
   <time name="total">   83.29   83.34</time>
   <energy>
    <i name="e_fr_energy">   -123.17247137 </i>
    <i name="e_wo_entrp">   -123.14387162 </i>
    <i name="e_0_energy">   -123.15817150 </i>
   </energy>
  </scstep>
  <scstep>
   <time name="dav">   61.80   61.84</time>
   <time name="total">   81.59   81.65</time>
   <energy>
    <i name="e_fr_energy">   -123.17242603 </i>
    <i name="e_wo_entrp">   -123.14382569 </i>
    <i name="e_0_energy">   -123.15812586 </i>
   </energy>
  </scstep>
  <scstep>
   <time name="dav">   62.51   62.54</time>
   <time name="total">   82.76   82.82</time>
   <energy>
    <i name="e_fr_energy">   -123.17240693 </i>
    <i name="e_wo_entrp">   -123.14380654 </i>
    <i name="e_0_energy">   -123.15810673 </i>
   </energy>
  </scstep>
  <scstep>
   <time name="dav">   63.16   63.22</time>
   <time name="total">   83.02   83.09</time>
   <energy>
    <i name="e_fr_energy">   -123.17239601 </i>
    <i name="e_wo_entrp">   -123.14379545 </i>
    <i name="e_0_energy">   -123.15809573 </i>
   </energy>
  </scstep>
  <scstep>
   <time name="dav">   60.53   60.58</time>
   <time name="total">   81.08   81.14</time>
   <energy>
    <i name="e_fr_energy">   -123.17239110 </i>
    <i name="e_wo_entrp">   -123.14379058 </i>
    <i name="e_0_energy">   -123.15809084 </i>
   </energy>
  </scstep>
  <scstep>
   <time name="dav">   60.43   60.48</time>
   <time name="total">   80.66   80.72</time>
   <energy>
    <i name="e_fr_energy">   -123.17238958 </i>
    <i name="e_wo_entrp">   -123.14378913 </i>
    <i name="e_0_energy">   -123.15808936 </i>
   </energy>
  </scstep>
  <scstep>
   <time name="dav">   57.31   57.92</time>
   <time name="total">   73.14   73.78</time>
   <energy>
    <i name="alphaZ">     36.80884744 </i>
    <i name="ewald">  11917.55816911 </i>
    <i name="hartreedc"> -15062.17657533 </i>
    <i name="XCdc">    -80.35348364 </i>
    <i name="pawpsdc">   1162.89628293 </i>
    <i name="pawaedc">   -841.85059787 </i>
    <i name="eentropy">     -0.02860035 </i>
    <i name="bandstr">   -610.06769261 </i>
    <i name="atom">   3354.04126044 </i>
    <i name="e_fr_energy">   -123.17238986 </i>
    <i name="e_wo_entrp">   -123.14378951 </i>
    <i name="e_0_energy">   -123.15808969 </i>
   </energy>
  </scstep>
  <structure>
   <crystal>
    <varray name="basis" >
     <v>       3.54040000       0.00000000       0.00000000 </v>
     <v>      -1.77020000      10.29434800       0.00000000 </v>
     <v>       0.00000000       0.00000000      27.50142900 </v>
    </varray>
    <i name="volume">   1002.32009712 </i>
    <varray name="rec_basis" >
     <v>       0.28245396       0.04857034       0.00000000 </v>
     <v>       0.00000000       0.09714068       0.00000000 </v>
     <v>       0.00000000       0.00000000       0.03636175 </v>
    </varray>
   </crystal>
   <varray name="positions" >
    <v>       0.11402300       0.22804500       0.23316207 </v>
    <v>       0.81402300       0.12804500       0.51499159 </v>
    <v>       0.45808900       0.91617900       0.20939482 </v>
    <v>       0.15808900       0.81617900       0.49122434 </v>
    <v>       0.31085400       0.62170900       0.08414979 </v>
    <v>       0.31085400       0.62170900       0.36597930 </v>
    <v>       0.99923000       0.99846000       0.08631254 </v>
    <v>       0.99923000       0.99846000       0.36814206 </v>
    <v>       0.65492700       0.30985400       0.06041748 </v>
    <v>       0.65492700       0.30985400       0.34224700 </v>
    <v>       0.76973800       0.53947500       0.20725292 </v>
    <v>       0.46973800       0.43947500       0.48908244 </v>
    <v>       0.93971600       0.87943300       0.15783749 </v>
    <v>       0.63971600       0.77943300       0.43966701 </v>
    <v>       0.20515200       0.41030300       0.18578822 </v>
    <v>       0.90515200       0.31030300       0.46761774 </v>
    <v>       0.20184900       0.40369900       0.09969156 </v>
    <v>       0.20184900       0.40369900       0.38152107 </v>
    <v>       0.56380500       0.12761000       0.10779021 </v>
    <v>       0.56380500       0.12761000       0.38961973 </v>
    <v>       0.56710600       0.13421200       0.19387616 </v>
    <v>       0.26710600       0.03421200       0.47570568 </v>
    <v>       0.82923400       0.65846800       0.13571444 </v>
    <v>       0.52923400       0.55846800       0.41754396 </v>
   </varray>
  </structure>
  <varray name="forces" >
   <v>      -0.02391415      -0.04222498       0.03222229 </v>
   <v>       0.41444435      -0.14303157       0.37403770 </v>
   <v>      -0.00259343      -0.01165379       0.08639033 </v>
   <v>       0.25607768       0.35054641      -0.05377138 </v>
   <v>       0.00172353      -0.00434471       0.00683101 </v>
   <v>      -6.30860385       3.53945569      -9.49378880 </v>
   <v>      -0.00422069      -0.00040593      -0.00032359 </v>
   <v>      -0.76685508       0.06167537       0.60874351 </v>
   <v>       0.00075422      -0.00025823       0.01702530 </v>
   <v>      -0.51864280       0.06008834      -0.31556866 </v>
   <v>      -0.00029483       0.00904898       0.09097886 </v>
   <v>       0.53690667       0.09114956       0.66376980 </v>
   <v>       0.00319248      -0.00172165       0.00600419 </v>
   <v>       0.61081349       0.71614842       0.42233120 </v>
   <v>      -0.00191796       0.01069399       0.06227325 </v>
   <v>       0.23802709      -0.24378632      -0.56498785 </v>
   <v>      -0.00201075       0.00222569      -0.02695245 </v>
   <v>      -2.25523538      -3.99627671      -2.82652178 </v>
   <v>      -0.00739910      -0.01388103      -0.01661154 </v>
   <v>       0.11010850      -0.55825780      -0.04041482 </v>
   <v>       0.00601489      -0.02507064       0.01655393 </v>
   <v>       0.11837500       0.05499917      -0.26359239 </v>
   <v>       0.00019847       0.01469348      -0.00351659 </v>
   <v>       7.59505163       0.13018826      11.21888846 </v>
  </varray>
  <varray name="stress" >
   <v>      10.20971954       0.62051113      27.10864552 </v>
   <v>       0.62051097      11.90968934       0.33633545 </v>
   <v>      27.10864567       0.33633518      23.68201092 </v>
  </varray>
  <energy>
   <i name="e_fr_energy">   -123.17238986 </i>
   <i name="e_wo_entrp">   -123.15808969 </i>
   <i name="e_0_energy">     -0.02860035 </i>
  </energy>
  <time name="totalsc"> 2603.35 2610.93</time>
  <eigenvalues>
   <array>
    <dimension dim="1">band</dimension>
    <dimension dim="2">kpoint</dimension>
    <dimension dim="3">spin</dimension>
    <field>eigene</field>
    <field>occ</field>
    <set>
     <set comment="spin 1">
      <set comment="kpoint 1">
       <r>  -14.1263    1.0000 </r>
       <r>  -13.5844    1.0000 </r>
       <r>  -12.8452    1.0000 </r>
       <r>  -12.7943    1.0000 </r>
       <r>  -12.5317    1.0000 </r>
       <r>  -12.2204    1.0000 </r>
       <r>  -12.1463    1.0000 </r>
       <r>  -12.0869    1.0000 </r>
       <r>  -11.4774    1.0000 </r>
       <r>  -11.2613    1.0000 </r>
       <r>  -11.0368    1.0000 </r>
       <r>  -10.8777    1.0000 </r>
       <r>   -8.0869    1.0000 </r>
       <r>   -7.9112    1.0000 </r>
       <r>   -7.8674    1.0000 </r>
       <r>   -7.0469    1.0000 </r>
       <r>   -6.9170    1.0000 </r>
       <r>   -6.7462    1.0000 </r>
       <r>   -6.5364    1.0000 </r>
       <r>   -6.4652    1.0000 </r>
       <r>   -5.8724    1.0000 </r>
       <r>   -5.6309    1.0000 </r>
       <r>   -4.7907    1.0000 </r>
       <r>   -4.4882    1.0000 </r>
       <r>   -4.0630    1.0000 </r>
       <r>   -3.7344    1.0000 </r>
       <r>   -3.7022    1.0000 </r>
       <r>   -3.4916    1.0000 </r>
       <r>   -3.1648    1.0000 </r>
       <r>   -3.1004    1.0000 </r>
       <r>   -2.8881    1.0000 </r>
       <r>   -2.8545    1.0000 </r>
       <r>   -2.7305    1.0000 </r>
       <r>   -2.5972    1.0000 </r>
       <r>   -2.4930    1.0000 </r>
       <r>   -2.4293    1.0000 </r>
       <r>   -2.3640    1.0000 </r>
       <r>   -2.2816    1.0000 </r>
       <r>   -2.1765    1.0000 </r>
       <r>   -2.0753    1.0000 </r>
       <r>   -1.8826    1.0000 </r>
       <r>   -1.7728    1.0000 </r>
       <r>   -1.6886    1.0000 </r>
       <r>   -1.6607    1.0000 </r>
       <r>   -1.6187    1.0000 </r>
       <r>   -1.5468    1.0000 </r>
       <r>   -1.4766    1.0000 </r>
       <r>   -1.4060    1.0000 </r>
       <r>   -1.2446    1.0000 </r>
       <r>   -1.0280    1.0000 </r>
       <r>   -0.7284    1.0000 </r>
       <r>   -0.4123    1.0000 </r>
       <r>   -0.1333    1.0000 </r>
       <r>    0.1968    0.5412 </r>
       <r>    0.3085    0.0701 </r>
       <r>    0.6090    0.0000 </r>
       <r>    0.8098    0.0000 </r>
       <r>    1.1588    0.0000 </r>
       <r>    1.2709    0.0000 </r>
       <r>    1.5433    0.0000 </r>
       <r>    1.6696    0.0000 </r>
       <r>    1.8452    0.0000 </r>
       <r>    1.9441    0.0000 </r>
       <r>    2.0702    0.0000 </r>
       <r>    2.1846    0.0000 </r>
       <r>    2.3870    0.0000 </r>
       <r>    2.5857    0.0000 </r>
       <r>    2.6240    0.0000 </r>
      </set>
      <set comment="kpoint 2">
       <r>  -14.0807    1.0000 </r>
       <r>  -13.5231    1.0000 </r>
       <r>  -12.7930    1.0000 </r>
       <r>  -12.7422    1.0000 </r>
       <r>  -12.4761    1.0000 </r>
       <r>  -12.1652    1.0000 </r>
       <r>  -12.0860    1.0000 </r>
       <r>  -12.0282    1.0000 </r>
       <r>  -11.4285    1.0000 </r>
       <r>  -11.2153    1.0000 </r>
       <r>  -10.9883    1.0000 </r>
       <r>  -10.8253    1.0000 </r>
       <r>   -8.1196    1.0000 </r>
       <r>   -7.9026    1.0000 </r>
       <r>   -7.8285    1.0000 </r>
       <r>   -7.0454    1.0000 </r>
       <r>   -6.8840    1.0000 </r>
       <r>   -6.7264    1.0000 </r>
       <r>   -6.5308    1.0000 </r>
       <r>   -6.4461    1.0000 </r>
       <r>   -5.8386    1.0000 </r>
       <r>   -5.6062    1.0000 </r>
       <r>   -4.7934    1.0000 </r>
       <r>   -4.4582    1.0000 </r>
       <r>   -4.0602    1.0000 </r>
       <r>   -3.7792    1.0000 </r>
       <r>   -3.7203    1.0000 </r>
       <r>   -3.6228    1.0000 </r>
       <r>   -3.4673    1.0000 </r>
       <r>   -3.3196    1.0000 </r>
       <r>   -3.3036    1.0000 </r>
       <r>   -3.2211    1.0000 </r>
       <r>   -2.9279    1.0000 </r>
       <r>   -2.8409    1.0000 </r>
       <r>   -2.7608    1.0000 </r>
       <r>   -2.6132    1.0000 </r>
       <r>   -2.5202    1.0000 </r>
       <r>   -2.3658    1.0000 </r>
       <r>   -2.2452    1.0000 </r>
       <r>   -2.1858    1.0000 </r>
       <r>   -2.0701    1.0000 </r>
       <r>   -2.0094    1.0000 </r>
       <r>   -1.9093    1.0000 </r>
       <r>   -1.8735    1.0000 </r>
       <r>   -1.8288    1.0000 </r>
       <r>   -1.7522    1.0000 </r>
       <r>   -1.5621    1.0000 </r>
       <r>   -1.5242    1.0000 </r>
       <r>   -1.2246    1.0000 </r>
       <r>   -1.0738    1.0000 </r>
       <r>   -0.9101    1.0000 </r>
       <r>   -0.4214    1.0000 </r>
       <r>   -0.0307    0.9996 </r>
       <r>    0.2756    0.1564 </r>
       <r>    0.3791    0.0067 </r>
       <r>    0.7680    0.0000 </r>
       <r>    1.1192    0.0000 </r>
       <r>    1.5292    0.0000 </r>
       <r>    1.6792    0.0000 </r>
       <r>    1.7456    0.0000 </r>
       <r>    2.0703    0.0000 </r>
       <r>    2.1428    0.0000 </r>
       <r>    2.1963    0.0000 </r>
       <r>    2.2619    0.0000 </r>
       <r>    2.5313    0.0000 </r>
       <r>    2.5651    0.0000 </r>
       <r>    2.7238    0.0000 </r>
       <r>    2.9017    0.0000 </r>
      </set>
      <set comment="kpoint 3">
       <r>  -13.9479    1.0000 </r>
       <r>  -13.3401    1.0000 </r>
       <r>  -12.6373    1.0000 </r>
       <r>  -12.5869    1.0000 </r>
       <r>  -12.3113    1.0000 </r>
       <r>  -12.0020    1.0000 </r>
       <r>  -11.9110    1.0000 </r>
       <r>  -11.8553    1.0000 </r>
       <r>  -11.2866    1.0000 </r>
       <r>  -11.0814    1.0000 </r>
       <r>  -10.8490    1.0000 </r>
       <r>  -10.6718    1.0000 </r>
       <r>   -8.2125    1.0000 </r>
       <r>   -7.8890    1.0000 </r>
       <r>   -7.7885    1.0000 </r>
       <r>   -7.0495    1.0000 </r>
       <r>   -6.8200    1.0000 </r>
       <r>   -6.7043    1.0000 </r>
       <r>   -6.5432    1.0000 </r>
       <r>   -6.3996    1.0000 </r>
       <r>   -5.7633    1.0000 </r>
       <r>   -5.5679    1.0000 </r>
       <r>   -4.9098    1.0000 </r>
       <r>   -4.6086    1.0000 </r>
       <r>   -4.2788    1.0000 </r>
       <r>   -4.2370    1.0000 </r>
       <r>   -4.1325    1.0000 </r>
       <r>   -4.0543    1.0000 </r>
       <r>   -3.9601    1.0000 </r>
       <r>   -3.8592    1.0000 </r>
       <r>   -3.7185    1.0000 </r>
       <r>   -3.5175    1.0000 </r>
       <r>   -3.4277    1.0000 </r>
       <r>   -3.2641    1.0000 </r>
       <r>   -3.1826    1.0000 </r>
       <r>   -3.0276    1.0000 </r>
       <r>   -3.0082    1.0000 </r>
       <r>   -2.8819    1.0000 </r>
       <r>   -2.6848    1.0000 </r>
       <r>   -2.5688    1.0000 </r>
       <r>   -2.4173    1.0000 </r>
       <r>   -2.2611    1.0000 </r>
       <r>   -2.1921    1.0000 </r>
       <r>   -2.0820    1.0000 </r>
       <r>   -1.9943    1.0000 </r>
       <r>   -1.8491    1.0000 </r>
       <r>   -1.7741    1.0000 </r>
       <r>   -1.6764    1.0000 </r>
       <r>   -1.2904    1.0000 </r>
       <r>   -1.1863    1.0000 </r>
       <r>   -0.9481    1.0000 </r>
       <r>   -0.5034    1.0000 </r>
       <r>   -0.0382    0.9997 </r>
       <r>    0.2832    0.1319 </r>
       <r>    0.3556    0.0161 </r>
       <r>    1.0007    0.0000 </r>
       <r>    1.5256    0.0000 </r>
       <r>    1.8095    0.0000 </r>
       <r>    1.9354    0.0000 </r>
       <r>    2.2186    0.0000 </r>
       <r>    2.3796    0.0000 </r>
       <r>    2.5641    0.0000 </r>
       <r>    2.6097    0.0000 </r>
       <r>    2.7605    0.0000 </r>
       <r>    2.8850    0.0000 </r>
       <r>    2.8882    0.0000 </r>
       <r>    2.9508    0.0000 </r>
       <r>    3.0396    0.0000 </r>
      </set>
      <set comment="kpoint 4">
       <r>  -13.7431    1.0000 </r>
       <r>  -13.0391    1.0000 </r>
       <r>  -12.3812    1.0000 </r>
       <r>  -12.3316    1.0000 </r>
       <r>  -12.0445    1.0000 </r>
       <r>  -11.7395    1.0000 </r>
       <r>  -11.6412    1.0000 </r>
       <r>  -11.5783    1.0000 </r>
       <r>  -11.0699    1.0000 </r>
       <r>  -10.8746    1.0000 </r>
       <r>  -10.6453    1.0000 </r>
       <r>  -10.4293    1.0000 </r>
       <r>   -8.4028    1.0000 </r>
       <r>   -7.9750    1.0000 </r>
       <r>   -7.8666    1.0000 </r>
       <r>   -7.0927    1.0000 </r>
       <r>   -6.8903    1.0000 </r>
       <r>   -6.7320    1.0000 </r>
       <r>   -6.6772    1.0000 </r>
       <r>   -6.3706    1.0000 </r>
       <r>   -5.7819    1.0000 </r>
       <r>   -5.7126    1.0000 </r>
       <r>   -5.3829    1.0000 </r>
       <r>   -5.2684    1.0000 </r>
       <r>   -4.8567    1.0000 </r>
       <r>   -4.7479    1.0000 </r>
       <r>   -4.6516    1.0000 </r>
       <r>   -4.5541    1.0000 </r>
       <r>   -4.3080    1.0000 </r>
       <r>   -4.2057    1.0000 </r>
       <r>   -4.0051    1.0000 </r>
       <r>   -3.9213    1.0000 </r>
       <r>   -3.8254    1.0000 </r>
       <r>   -3.7463    1.0000 </r>
       <r>   -3.5115    1.0000 </r>
       <r>   -3.4736    1.0000 </r>
       <r>   -3.2490    1.0000 </r>
       <r>   -3.0727    1.0000 </r>
       <r>   -2.9974    1.0000 </r>
       <r>   -2.7289    1.0000 </r>
       <r>   -2.5834    1.0000 </r>
       <r>   -2.4895    1.0000 </r>
       <r>   -2.4335    1.0000 </r>
       <r>   -2.1539    1.0000 </r>
       <r>   -1.9868    1.0000 </r>
       <r>   -1.9216    1.0000 </r>
       <r>   -1.8446    1.0000 </r>
       <r>   -1.7399    1.0000 </r>
       <r>   -1.5099    1.0000 </r>
       <r>   -1.2425    1.0000 </r>
       <r>   -1.1047    1.0000 </r>
       <r>   -0.6832    1.0000 </r>
       <r>   -0.1633    1.0000 </r>
       <r>   -0.0111    0.9988 </r>
       <r>    0.2285    0.3654 </r>
       <r>    1.1040    0.0000 </r>
       <r>    1.3439    0.0000 </r>
       <r>    1.7523    0.0000 </r>
       <r>    1.8504    0.0000 </r>
       <r>    1.9853    0.0000 </r>
       <r>    2.2229    0.0000 </r>
       <r>    2.3145    0.0000 </r>
       <r>    2.5139    0.0000 </r>
       <r>    2.6485    0.0000 </r>
       <r>    2.7721    0.0000 </r>
       <r>    2.8414    0.0000 </r>
       <r>    2.9197    0.0000 </r>
       <r>    3.0250    0.0000 </r>
      </set>
      <set comment="kpoint 5">
       <r>  -13.4963    1.0000 </r>
       <r>  -12.6273    1.0000 </r>
       <r>  -12.0329    1.0000 </r>
       <r>  -11.9843    1.0000 </r>
       <r>  -11.6924    1.0000 </r>
       <r>  -11.3985    1.0000 </r>
       <r>  -11.3138    1.0000 </r>
       <r>  -11.2272    1.0000 </r>
       <r>  -10.8259    1.0000 </r>
       <r>  -10.6361    1.0000 </r>
       <r>  -10.4588    1.0000 </r>
       <r>  -10.1267    1.0000 </r>
       <r>   -8.6975    1.0000 </r>
       <r>   -8.2770    1.0000 </r>
       <r>   -8.1283    1.0000 </r>
       <r>   -7.3046    1.0000 </r>
       <r>   -7.1402    1.0000 </r>
       <r>   -7.0371    1.0000 </r>
       <r>   -6.9450    1.0000 </r>
       <r>   -6.5583    1.0000 </r>
       <r>   -6.2303    1.0000 </r>
       <r>   -6.1999    1.0000 </r>
       <r>   -6.0073    1.0000 </r>
       <r>   -5.7544    1.0000 </r>
       <r>   -5.2542    1.0000 </r>
       <r>   -5.0644    1.0000 </r>
       <r>   -4.8392    1.0000 </r>
       <r>   -4.7488    1.0000 </r>
       <r>   -4.6561    1.0000 </r>
       <r>   -4.4146    1.0000 </r>
       <r>   -4.3142    1.0000 </r>
       <r>   -4.2608    1.0000 </r>
       <r>   -4.1225    1.0000 </r>
       <r>   -3.8495    1.0000 </r>
       <r>   -3.4617    1.0000 </r>
       <r>   -3.4262    1.0000 </r>
       <r>   -3.1559    1.0000 </r>
       <r>   -3.0974    1.0000 </r>
       <r>   -3.0529    1.0000 </r>
       <r>   -2.8738    1.0000 </r>
       <r>   -2.7947    1.0000 </r>
       <r>   -2.6442    1.0000 </r>
       <r>   -2.4635    1.0000 </r>
       <r>   -2.2894    1.0000 </r>
       <r>   -2.1015    1.0000 </r>
       <r>   -2.0241    1.0000 </r>
       <r>   -1.9155    1.0000 </r>
       <r>   -1.8934    1.0000 </r>
       <r>   -1.7501    1.0000 </r>
       <r>   -1.3669    1.0000 </r>
       <r>   -1.2924    1.0000 </r>
       <r>   -0.9236    1.0000 </r>
       <r>   -0.5013    1.0000 </r>
       <r>   -0.3174    1.0000 </r>
       <r>    0.1557    0.7535 </r>
       <r>    0.9411    0.0000 </r>
       <r>    1.0861    0.0000 </r>
       <r>    1.5469    0.0000 </r>
       <r>    1.6126    0.0000 </r>
       <r>    1.7915    0.0000 </r>
       <r>    1.9419    0.0000 </r>
       <r>    2.1525    0.0000 </r>
       <r>    2.2317    0.0000 </r>
       <r>    2.3840    0.0000 </r>
       <r>    2.5593    0.0000 </r>
       <r>    2.6673    0.0000 </r>
       <r>    2.7773    0.0000 </r>
       <r>    2.8627    0.0000 </r>
      </set>
      <set comment="kpoint 6">
       <r>  -13.2601    1.0000 </r>
       <r>  -12.1190    1.0000 </r>
       <r>  -11.6138    1.0000 </r>
       <r>  -11.5643    1.0000 </r>
       <r>  -11.2933    1.0000 </r>
       <r>  -11.0385    1.0000 </r>
       <r>  -10.9806    1.0000 </r>
       <r>  -10.8883    1.0000 </r>
       <r>  -10.6715    1.0000 </r>
       <r>  -10.4993    1.0000 </r>
       <r>  -10.4793    1.0000 </r>
       <r>   -9.8324    1.0000 </r>
       <r>   -8.8740    1.0000 </r>
       <r>   -8.6300    1.0000 </r>
       <r>   -8.4207    1.0000 </r>
       <r>   -7.7156    1.0000 </r>
       <r>   -7.5036    1.0000 </r>
       <r>   -7.4732    1.0000 </r>
       <r>   -7.4436    1.0000 </r>
       <r>   -7.1204    1.0000 </r>
       <r>   -6.8038    1.0000 </r>
       <r>   -6.7050    1.0000 </r>
       <r>   -6.5846    1.0000 </r>
       <r>   -6.1633    1.0000 </r>
       <r>   -5.2569    1.0000 </r>
       <r>   -5.1776    1.0000 </r>
       <r>   -4.8853    1.0000 </r>
       <r>   -4.6929    1.0000 </r>
       <r>   -4.5708    1.0000 </r>
       <r>   -4.4067    1.0000 </r>
       <r>   -4.2665    1.0000 </r>
       <r>   -4.1195    1.0000 </r>
       <r>   -3.9716    1.0000 </r>
       <r>   -3.7022    1.0000 </r>
       <r>   -3.6960    1.0000 </r>
       <r>   -3.3985    1.0000 </r>
       <r>   -3.3106    1.0000 </r>
       <r>   -3.2029    1.0000 </r>
       <r>   -3.0622    1.0000 </r>
       <r>   -2.9811    1.0000 </r>
       <r>   -2.8354    1.0000 </r>
       <r>   -2.6102    1.0000 </r>
       <r>   -2.5375    1.0000 </r>
       <r>   -2.4371    1.0000 </r>
       <r>   -2.3351    1.0000 </r>
       <r>   -2.2493    1.0000 </r>
       <r>   -2.0841    1.0000 </r>
       <r>   -2.0394    1.0000 </r>
       <r>   -1.8733    1.0000 </r>
       <r>   -1.5178    1.0000 </r>
       <r>   -1.4074    1.0000 </r>
       <r>   -1.1023    1.0000 </r>
       <r>   -0.8531    1.0000 </r>
       <r>   -0.5440    1.0000 </r>
       <r>    0.1103    0.9079 </r>
       <r>    0.7081    0.0000 </r>
       <r>    0.8621    0.0000 </r>
       <r>    1.3672    0.0000 </r>
       <r>    1.5452    0.0000 </r>
       <r>    1.6685    0.0000 </r>
       <r>    1.7140    0.0000 </r>
       <r>    1.9891    0.0000 </r>
       <r>    2.1858    0.0000 </r>
       <r>    2.2291    0.0000 </r>
       <r>    2.2597    0.0000 </r>
       <r>    2.3797    0.0000 </r>
       <r>    2.6367    0.0000 </r>
       <r>    2.7637    0.0000 </r>
      </set>
      <set comment="kpoint 7">
       <r>  -13.1096    1.0000 </r>
       <r>  -11.5452    1.0000 </r>
       <r>  -11.1908    1.0000 </r>
       <r>  -11.1339    1.0000 </r>
       <r>  -10.9887    1.0000 </r>
       <r>  -10.8891    1.0000 </r>
       <r>  -10.8206    1.0000 </r>
       <r>  -10.7723    1.0000 </r>
       <r>  -10.7198    1.0000 </r>
       <r>  -10.6794    1.0000 </r>
       <r>  -10.5590    1.0000 </r>
       <r>   -9.6807    1.0000 </r>
       <r>   -8.7320    1.0000 </r>
       <r>   -8.6856    1.0000 </r>
       <r>   -8.4837    1.0000 </r>
       <r>   -8.1228    1.0000 </r>
       <r>   -8.0295    1.0000 </r>
       <r>   -7.8994    1.0000 </r>
       <r>   -7.6139    1.0000 </r>
       <r>   -7.3537    1.0000 </r>
       <r>   -7.3237    1.0000 </r>
       <r>   -7.2235    1.0000 </r>
       <r>   -7.0289    1.0000 </r>
       <r>   -6.3338    1.0000 </r>
       <r>   -5.2229    1.0000 </r>
       <r>   -4.9594    1.0000 </r>
       <r>   -4.8449    1.0000 </r>
       <r>   -4.5462    1.0000 </r>
       <r>   -4.3359    1.0000 </r>
       <r>   -4.1886    1.0000 </r>
       <r>   -4.0920    1.0000 </r>
       <r>   -3.9951    1.0000 </r>
       <r>   -3.8738    1.0000 </r>
       <r>   -3.7556    1.0000 </r>
       <r>   -3.6328    1.0000 </r>
       <r>   -3.5960    1.0000 </r>
       <r>   -3.5322    1.0000 </r>
       <r>   -3.2985    1.0000 </r>
       <r>   -3.1347    1.0000 </r>
       <r>   -3.0309    1.0000 </r>
       <r>   -2.9700    1.0000 </r>
       <r>   -2.7399    1.0000 </r>
       <r>   -2.6736    1.0000 </r>
       <r>   -2.5349    1.0000 </r>
       <r>   -2.4105    1.0000 </r>
       <r>   -2.2787    1.0000 </r>
       <r>   -2.2270    1.0000 </r>
       <r>   -2.0964    1.0000 </r>
       <r>   -1.7631    1.0000 </r>
       <r>   -1.6072    1.0000 </r>
       <r>   -1.5430    1.0000 </r>
       <r>   -1.2342    1.0000 </r>
       <r>   -1.0610    1.0000 </r>
       <r>   -0.6052    1.0000 </r>
       <r>   -0.0158    0.9991 </r>
       <r>    0.5977    0.0000 </r>
       <r>    0.7878    0.0000 </r>
       <r>    1.3253    0.0000 </r>
       <r>    1.4900    0.0000 </r>
       <r>    1.5926    0.0000 </r>
       <r>    1.6338    0.0000 </r>
       <r>    1.8311    0.0000 </r>
       <r>    2.0282    0.0000 </r>
       <r>    2.1337    0.0000 </r>
       <r>    2.1932    0.0000 </r>
       <r>    2.3536    0.0000 </r>
       <r>    2.4760    0.0000 </r>
       <r>    2.6064    0.0000 </r>
      </set>
      <set comment="kpoint 8">
       <r>  -14.1182    1.0000 </r>
       <r>  -13.5290    1.0000 </r>
       <r>  -13.0189    1.0000 </r>
       <r>  -12.8680    1.0000 </r>
       <r>  -12.5298    1.0000 </r>
       <r>  -12.2040    1.0000 </r>
       <r>  -12.0125    1.0000 </r>
       <r>  -11.9084    1.0000 </r>
       <r>  -11.5224    1.0000 </r>
       <r>  -11.3029    1.0000 </r>
       <r>  -11.0451    1.0000 </r>
       <r>  -10.8725    1.0000 </r>
       <r>   -8.5603    1.0000 </r>
       <r>   -7.9342    1.0000 </r>
       <r>   -7.4395    1.0000 </r>
       <r>   -7.3521    1.0000 </r>
       <r>   -6.7322    1.0000 </r>
       <r>   -6.7118    1.0000 </r>
       <r>   -6.6142    1.0000 </r>
       <r>   -6.1995    1.0000 </r>
       <r>   -5.7931    1.0000 </r>
       <r>   -5.5327    1.0000 </r>
       <r>   -4.6880    1.0000 </r>
       <r>   -4.3088    1.0000 </r>
       <r>   -4.1156    1.0000 </r>
       <r>   -4.0395    1.0000 </r>
       <r>   -3.6762    1.0000 </r>
       <r>   -3.6319    1.0000 </r>
       <r>   -3.3761    1.0000 </r>
       <r>   -3.1721    1.0000 </r>
       <r>   -2.8985    1.0000 </r>
       <r>   -2.7650    1.0000 </r>
       <r>   -2.7525    1.0000 </r>
       <r>   -2.6133    1.0000 </r>
       <r>   -2.4638    1.0000 </r>
       <r>   -2.4292    1.0000 </r>
       <r>   -2.3867    1.0000 </r>
       <r>   -2.2551    1.0000 </r>
       <r>   -2.1781    1.0000 </r>
       <r>   -2.1285    1.0000 </r>
       <r>   -2.0086    1.0000 </r>
       <r>   -1.9263    1.0000 </r>
       <r>   -1.6738    1.0000 </r>
       <r>   -1.6449    1.0000 </r>
       <r>   -1.5924    1.0000 </r>
       <r>   -1.4737    1.0000 </r>
       <r>   -1.4072    1.0000 </r>
       <r>   -1.3745    1.0000 </r>
       <r>   -1.1837    1.0000 </r>
       <r>   -0.9861    1.0000 </r>
       <r>   -0.8056    1.0000 </r>
       <r>   -0.6188    1.0000 </r>
       <r>   -0.1504    1.0000 </r>
       <r>    0.3036    0.0798 </r>
       <r>    0.4157    0.0014 </r>
       <r>    0.7401    0.0000 </r>
       <r>    1.0357    0.0000 </r>
       <r>    1.1757    0.0000 </r>
       <r>    1.3506    0.0000 </r>
       <r>    1.5544    0.0000 </r>
       <r>    1.6812    0.0000 </r>
       <r>    1.8013    0.0000 </r>
       <r>    1.9225    0.0000 </r>
       <r>    2.1232    0.0000 </r>
       <r>    2.2153    0.0000 </r>
       <r>    2.5156    0.0000 </r>
       <r>    2.6093    0.0000 </r>
       <r>    2.7057    0.0000 </r>
      </set>
      <set comment="kpoint 9">
       <r>  -14.0710    1.0000 </r>
       <r>  -13.4522    1.0000 </r>
       <r>  -12.9998    1.0000 </r>
       <r>  -12.8278    1.0000 </r>
       <r>  -12.4727    1.0000 </r>
       <r>  -12.1445    1.0000 </r>
       <r>  -11.9398    1.0000 </r>
       <r>  -11.8101    1.0000 </r>
       <r>  -11.4810    1.0000 </r>
       <r>  -11.2603    1.0000 </r>
       <r>  -11.0007    1.0000 </r>
       <r>  -10.8215    1.0000 </r>
       <r>   -8.6187    1.0000 </r>
       <r>   -7.9332    1.0000 </r>
       <r>   -7.4147    1.0000 </r>
       <r>   -7.3467    1.0000 </r>
       <r>   -6.7298    1.0000 </r>
       <r>   -6.6911    1.0000 </r>
       <r>   -6.5596    1.0000 </r>
       <r>   -6.1191    1.0000 </r>
       <r>   -5.7435    1.0000 </r>
       <r>   -5.4785    1.0000 </r>
       <r>   -4.7325    1.0000 </r>
       <r>   -4.3722    1.0000 </r>
       <r>   -4.1519    1.0000 </r>
       <r>   -4.0855    1.0000 </r>
       <r>   -3.7232    1.0000 </r>
       <r>   -3.6509    1.0000 </r>
       <r>   -3.5621    1.0000 </r>
       <r>   -3.4309    1.0000 </r>
       <r>   -3.3431    1.0000 </r>
       <r>   -3.0733    1.0000 </r>
       <r>   -2.9465    1.0000 </r>
       <r>   -2.8288    1.0000 </r>
       <r>   -2.7133    1.0000 </r>
       <r>   -2.6102    1.0000 </r>
       <r>   -2.5319    1.0000 </r>
       <r>   -2.4865    1.0000 </r>
       <r>   -2.3476    1.0000 </r>
       <r>   -2.2133    1.0000 </r>
       <r>   -2.1642    1.0000 </r>
       <r>   -2.0553    1.0000 </r>
       <r>   -2.0087    1.0000 </r>
       <r>   -1.8850    1.0000 </r>
       <r>   -1.8119    1.0000 </r>
       <r>   -1.7801    1.0000 </r>
       <r>   -1.4678    1.0000 </r>
       <r>   -1.3791    1.0000 </r>
       <r>   -1.1324    1.0000 </r>
       <r>   -1.0486    1.0000 </r>
       <r>   -0.9041    1.0000 </r>
       <r>   -0.6748    1.0000 </r>
       <r>   -0.0182    0.9992 </r>
       <r>    0.3609    0.0133 </r>
       <r>    0.4860    0.0000 </r>
       <r>    0.9906    0.0000 </r>
       <r>    1.2641    0.0000 </r>
       <r>    1.5622    0.0000 </r>
       <r>    1.6814    0.0000 </r>
       <r>    1.8089    0.0000 </r>
       <r>    1.9187    0.0000 </r>
       <r>    2.1308    0.0000 </r>
       <r>    2.1928    0.0000 </r>
       <r>    2.4615    0.0000 </r>
       <r>    2.5109    0.0000 </r>
       <r>    2.6128    0.0000 </r>
       <r>    2.8972    0.0000 </r>
       <r>    2.9664    0.0000 </r>
      </set>
      <set comment="kpoint 10">
       <r>  -13.9383    1.0000 </r>
       <r>  -13.2556    1.0000 </r>
       <r>  -12.8633    1.0000 </r>
       <r>  -12.6733    1.0000 </r>
       <r>  -12.3064    1.0000 </r>
       <r>  -11.9778    1.0000 </r>
       <r>  -11.7772    1.0000 </r>
       <r>  -11.6130    1.0000 </r>
       <r>  -11.3416    1.0000 </r>
       <r>  -11.1182    1.0000 </r>
       <r>  -10.8592    1.0000 </r>
       <r>  -10.6727    1.0000 </r>
       <r>   -8.6841    1.0000 </r>
       <r>   -7.9333    1.0000 </r>
       <r>   -7.3808    1.0000 </r>
       <r>   -7.3228    1.0000 </r>
       <r>   -6.7048    1.0000 </r>
       <r>   -6.6464    1.0000 </r>
       <r>   -6.5301    1.0000 </r>
       <r>   -6.0777    1.0000 </r>
       <r>   -5.6952    1.0000 </r>
       <r>   -5.5029    1.0000 </r>
       <r>   -4.8860    1.0000 </r>
       <r>   -4.7411    1.0000 </r>
       <r>   -4.4286    1.0000 </r>
       <r>   -4.3477    1.0000 </r>
       <r>   -4.2555    1.0000 </r>
       <r>   -4.0334    1.0000 </r>
       <r>   -3.9928    1.0000 </r>
       <r>   -3.7207    1.0000 </r>
       <r>   -3.6455    1.0000 </r>
       <r>   -3.4968    1.0000 </r>
       <r>   -3.4089    1.0000 </r>
       <r>   -3.1725    1.0000 </r>
       <r>   -3.1291    1.0000 </r>
       <r>   -3.0073    1.0000 </r>
       <r>   -2.9530    1.0000 </r>
       <r>   -2.8348    1.0000 </r>
       <r>   -2.7174    1.0000 </r>
       <r>   -2.6441    1.0000 </r>
       <r>   -2.5542    1.0000 </r>
       <r>   -2.4726    1.0000 </r>
       <r>   -2.3559    1.0000 </r>
       <r>   -2.0801    1.0000 </r>
       <r>   -1.9932    1.0000 </r>
       <r>   -1.9077    1.0000 </r>
       <r>   -1.7465    1.0000 </r>
       <r>   -1.5259    1.0000 </r>
       <r>   -1.2568    1.0000 </r>
       <r>   -1.1760    1.0000 </r>
       <r>   -0.9218    1.0000 </r>
       <r>   -0.6506    1.0000 </r>
       <r>   -0.0468    0.9998 </r>
       <r>    0.2592    0.2184 </r>
       <r>    0.4377    0.0005 </r>
       <r>    1.2211    0.0000 </r>
       <r>    1.5253    0.0000 </r>
       <r>    1.6804    0.0000 </r>
       <r>    1.8450    0.0000 </r>
       <r>    2.0692    0.0000 </r>
       <r>    2.3050    0.0000 </r>
       <r>    2.6510    0.0000 </r>
       <r>    2.6930    0.0000 </r>
       <r>    2.8086    0.0000 </r>
       <r>    2.9733    0.0000 </r>
       <r>    3.0053    0.0000 </r>
       <r>    3.0565    0.0000 </r>
       <r>    3.1666    0.0000 </r>
      </set>
      <set comment="kpoint 11">
       <r>  -13.7352    1.0000 </r>
       <r>  -12.9442    1.0000 </r>
       <r>  -12.6119    1.0000 </r>
       <r>  -12.4078    1.0000 </r>
       <r>  -12.0387    1.0000 </r>
       <r>  -11.7122    1.0000 </r>
       <r>  -11.5416    1.0000 </r>
       <r>  -11.3369    1.0000 </r>
       <r>  -11.1199    1.0000 </r>
       <r>  -10.8922    1.0000 </r>
       <r>  -10.6415    1.0000 </r>
       <r>  -10.4380    1.0000 </r>
       <r>   -8.8152    1.0000 </r>
       <r>   -8.0271    1.0000 </r>
       <r>   -7.4389    1.0000 </r>
       <r>   -7.3079    1.0000 </r>
       <r>   -6.7402    1.0000 </r>
       <r>   -6.7076    1.0000 </r>
       <r>   -6.6502    1.0000 </r>
       <r>   -6.1970    1.0000 </r>
       <r>   -5.9074    1.0000 </r>
       <r>   -5.8586    1.0000 </r>
       <r>   -5.2712    1.0000 </r>
       <r>   -5.2379    1.0000 </r>
       <r>   -5.0737    1.0000 </r>
       <r>   -4.7125    1.0000 </r>
       <r>   -4.6539    1.0000 </r>
       <r>   -4.5948    1.0000 </r>
       <r>   -4.3687    1.0000 </r>
       <r>   -4.1608    1.0000 </r>
       <r>   -4.0598    1.0000 </r>
       <r>   -3.8848    1.0000 </r>
       <r>   -3.7692    1.0000 </r>
       <r>   -3.5075    1.0000 </r>
       <r>   -3.3207    1.0000 </r>
       <r>   -3.2440    1.0000 </r>
       <r>   -3.1595    1.0000 </r>
       <r>   -3.1351    1.0000 </r>
       <r>   -3.0680    1.0000 </r>
       <r>   -2.7637    1.0000 </r>
       <r>   -2.7046    1.0000 </r>
       <r>   -2.5721    1.0000 </r>
       <r>   -2.5334    1.0000 </r>
       <r>   -2.1369    1.0000 </r>
       <r>   -2.0652    1.0000 </r>
       <r>   -1.9797    1.0000 </r>
       <r>   -1.8577    1.0000 </r>
       <r>   -1.8041    1.0000 </r>
       <r>   -1.4334    1.0000 </r>
       <r>   -1.2697    1.0000 </r>
       <r>   -1.0746    1.0000 </r>
       <r>   -0.7186    1.0000 </r>
       <r>   -0.3034    1.0000 </r>
       <r>   -0.0127    0.9989 </r>
       <r>    0.2519    0.2499 </r>
       <r>    1.1289    0.0000 </r>
       <r>    1.1939    0.0000 </r>
       <r>    1.4281    0.0000 </r>
       <r>    1.5731    0.0000 </r>
       <r>    1.7697    0.0000 </r>
       <r>    2.1779    0.0000 </r>
       <r>    2.4464    0.0000 </r>
       <r>    2.5639    0.0000 </r>
       <r>    2.6728    0.0000 </r>
       <r>    2.7847    0.0000 </r>
       <r>    2.9988    0.0000 </r>
       <r>    3.1307    0.0000 </r>
       <r>    3.2147    0.0000 </r>
      </set>
      <set comment="kpoint 12">
       <r>  -13.4912    1.0000 </r>
       <r>  -12.5275    1.0000 </r>
       <r>  -12.2528    1.0000 </r>
       <r>  -12.0410    1.0000 </r>
       <r>  -11.6873    1.0000 </r>
       <r>  -11.3682    1.0000 </r>
       <r>  -11.2601    1.0000 </r>
       <r>  -11.0236    1.0000 </r>
       <r>  -10.8564    1.0000 </r>
       <r>  -10.6349    1.0000 </r>
       <r>  -10.4355    1.0000 </r>
       <r>  -10.1435    1.0000 </r>
       <r>   -9.0145    1.0000 </r>
       <r>   -8.2830    1.0000 </r>
       <r>   -7.7513    1.0000 </r>
       <r>   -7.3802    1.0000 </r>
       <r>   -7.1571    1.0000 </r>
       <r>   -7.0094    1.0000 </r>
       <r>   -6.9810    1.0000 </r>
       <r>   -6.6737    1.0000 </r>
       <r>   -6.2999    1.0000 </r>
       <r>   -6.2166    1.0000 </r>
       <r>   -5.9620    1.0000 </r>
       <r>   -5.7448    1.0000 </r>
       <r>   -5.4241    1.0000 </r>
       <r>   -5.0108    1.0000 </r>
       <r>   -4.9727    1.0000 </r>
       <r>   -4.8046    1.0000 </r>
       <r>   -4.4802    1.0000 </r>
       <r>   -4.4238    1.0000 </r>
       <r>   -4.2985    1.0000 </r>
       <r>   -4.1085    1.0000 </r>
       <r>   -4.0529    1.0000 </r>
       <r>   -3.6981    1.0000 </r>
       <r>   -3.3870    1.0000 </r>
       <r>   -3.2036    1.0000 </r>
       <r>   -3.1158    1.0000 </r>
       <r>   -3.0497    1.0000 </r>
       <r>   -2.9708    1.0000 </r>
       <r>   -2.9009    1.0000 </r>
       <r>   -2.7936    1.0000 </r>
       <r>   -2.6052    1.0000 </r>
       <r>   -2.5347    1.0000 </r>
       <r>   -2.4179    1.0000 </r>
       <r>   -2.2367    1.0000 </r>
       <r>   -2.0376    1.0000 </r>
       <r>   -1.9783    1.0000 </r>
       <r>   -1.8997    1.0000 </r>
       <r>   -1.7871    1.0000 </r>
       <r>   -1.3903    1.0000 </r>
       <r>   -1.3070    1.0000 </r>
       <r>   -0.9139    1.0000 </r>
       <r>   -0.6275    1.0000 </r>
       <r>   -0.3722    1.0000 </r>
       <r>    0.1366    0.8304 </r>
       <r>    0.7400    0.0000 </r>
       <r>    0.9372    0.0000 </r>
       <r>    1.1924    0.0000 </r>
       <r>    1.2584    0.0000 </r>
       <r>    1.5884    0.0000 </r>
       <r>    2.0890    0.0000 </r>
       <r>    2.2260    0.0000 </r>
       <r>    2.2946    0.0000 </r>
       <r>    2.4523    0.0000 </r>
       <r>    2.5325    0.0000 </r>
       <r>    2.6039    0.0000 </r>
       <r>    2.8762    0.0000 </r>
       <r>    3.0222    0.0000 </r>
      </set>
      <set comment="kpoint 13">
       <r>  -13.2579    1.0000 </r>
       <r>  -12.0240    1.0000 </r>
       <r>  -11.8027    1.0000 </r>
       <r>  -11.5967    1.0000 </r>
       <r>  -11.2916    1.0000 </r>
       <r>  -11.0076    1.0000 </r>
       <r>  -10.9662    1.0000 </r>
       <r>  -10.7661    1.0000 </r>
       <r>  -10.6459    1.0000 </r>
       <r>  -10.5118    1.0000 </r>
       <r>  -10.4840    1.0000 </r>
       <r>   -9.8469    1.0000 </r>
       <r>   -9.0047    1.0000 </r>
       <r>   -8.5667    1.0000 </r>
       <r>   -8.1550    1.0000 </r>
       <r>   -7.8237    1.0000 </r>
       <r>   -7.7601    1.0000 </r>
       <r>   -7.4727    1.0000 </r>
       <r>   -7.3992    1.0000 </r>
       <r>   -7.1166    1.0000 </r>
       <r>   -6.7396    1.0000 </r>
       <r>   -6.7050    1.0000 </r>
       <r>   -6.6139    1.0000 </r>
       <r>   -6.1993    1.0000 </r>
       <r>   -5.3875    1.0000 </r>
       <r>   -5.1453    1.0000 </r>
       <r>   -5.0013    1.0000 </r>
       <r>   -4.8298    1.0000 </r>
       <r>   -4.5455    1.0000 </r>
       <r>   -4.3260    1.0000 </r>
       <r>   -4.1655    1.0000 </r>
       <r>   -3.9356    1.0000 </r>
       <r>   -3.9038    1.0000 </r>
       <r>   -3.5687    1.0000 </r>
       <r>   -3.3988    1.0000 </r>
       <r>   -3.3459    1.0000 </r>
       <r>   -3.3185    1.0000 </r>
       <r>   -3.1673    1.0000 </r>
       <r>   -3.0632    1.0000 </r>
       <r>   -2.9605    1.0000 </r>
       <r>   -2.8378    1.0000 </r>
       <r>   -2.6917    1.0000 </r>
       <r>   -2.6251    1.0000 </r>
       <r>   -2.4982    1.0000 </r>
       <r>   -2.3644    1.0000 </r>
       <r>   -2.2436    1.0000 </r>
       <r>   -2.1245    1.0000 </r>
       <r>   -2.0403    1.0000 </r>
       <r>   -1.8935    1.0000 </r>
       <r>   -1.6005    1.0000 </r>
       <r>   -1.4375    1.0000 </r>
       <r>   -1.1385    1.0000 </r>
       <r>   -0.8472    1.0000 </r>
       <r>   -0.6391    1.0000 </r>
       <r>    0.0574    0.9810 </r>
       <r>    0.6083    0.0000 </r>
       <r>    0.7400    0.0000 </r>
       <r>    1.1559    0.0000 </r>
       <r>    1.2758    0.0000 </r>
       <r>    1.4914    0.0000 </r>
       <r>    1.7705    0.0000 </r>
       <r>    1.9740    0.0000 </r>
       <r>    2.0477    0.0000 </r>
       <r>    2.2113    0.0000 </r>
       <r>    2.3937    0.0000 </r>
       <r>    2.5581    0.0000 </r>
       <r>    2.6233    0.0000 </r>
       <r>    2.7709    0.0000 </r>
      </set>
      <set comment="kpoint 14">
       <r>  -13.1091    1.0000 </r>
       <r>  -11.4742    1.0000 </r>
       <r>  -11.3075    1.0000 </r>
       <r>  -11.1451    1.0000 </r>
       <r>  -11.0016    1.0000 </r>
       <r>  -10.9093    1.0000 </r>
       <r>  -10.8237    1.0000 </r>
       <r>  -10.7430    1.0000 </r>
       <r>  -10.6969    1.0000 </r>
       <r>  -10.6252    1.0000 </r>
       <r>  -10.5676    1.0000 </r>
       <r>   -9.6744    1.0000 </r>
       <r>   -8.6968    1.0000 </r>
       <r>   -8.5985    1.0000 </r>
       <r>   -8.4438    1.0000 </r>
       <r>   -8.3712    1.0000 </r>
       <r>   -8.1001    1.0000 </r>
       <r>   -7.7991    1.0000 </r>
       <r>   -7.5597    1.0000 </r>
       <r>   -7.3610    1.0000 </r>
       <r>   -7.3101    1.0000 </r>
       <r>   -7.1830    1.0000 </r>
       <r>   -7.0552    1.0000 </r>
       <r>   -6.4007    1.0000 </r>
       <r>   -5.2750    1.0000 </r>
       <r>   -5.0625    1.0000 </r>
       <r>   -4.8203    1.0000 </r>
       <r>   -4.5170    1.0000 </r>
       <r>   -4.2827    1.0000 </r>
       <r>   -4.1857    1.0000 </r>
       <r>   -4.0759    1.0000 </r>
       <r>   -3.9772    1.0000 </r>
       <r>   -3.7836    1.0000 </r>
       <r>   -3.7017    1.0000 </r>
       <r>   -3.5923    1.0000 </r>
       <r>   -3.5402    1.0000 </r>
       <r>   -3.4837    1.0000 </r>
       <r>   -3.3065    1.0000 </r>
       <r>   -3.1413    1.0000 </r>
       <r>   -3.0231    1.0000 </r>
       <r>   -2.9810    1.0000 </r>
       <r>   -2.7150    1.0000 </r>
       <r>   -2.6755    1.0000 </r>
       <r>   -2.6356    1.0000 </r>
       <r>   -2.5464    1.0000 </r>
       <r>   -2.2725    1.0000 </r>
       <r>   -2.1785    1.0000 </r>
       <r>   -2.1292    1.0000 </r>
       <r>   -1.7703    1.0000 </r>
       <r>   -1.6300    1.0000 </r>
       <r>   -1.5303    1.0000 </r>
       <r>   -1.2718    1.0000 </r>
       <r>   -1.0189    1.0000 </r>
       <r>   -0.6438    1.0000 </r>
       <r>    0.0763    0.9647 </r>
       <r>    0.5565    0.0000 </r>
       <r>    0.7743    0.0000 </r>
       <r>    1.3615    0.0000 </r>
       <r>    1.4342    0.0000 </r>
       <r>    1.4810    0.0000 </r>
       <r>    1.5239    0.0000 </r>
       <r>    1.7407    0.0000 </r>
       <r>    2.0013    0.0000 </r>
       <r>    2.0702    0.0000 </r>
       <r>    2.2780    0.0000 </r>
       <r>    2.4079    0.0000 </r>
       <r>    2.4658    0.0000 </r>
       <r>    2.5917    0.0000 </r>
      </set>
      <set comment="kpoint 15">
       <r>  -13.1100    1.0000 </r>
       <r>  -11.5789    1.0000 </r>
       <r>  -11.1395    1.0000 </r>
       <r>  -11.1141    1.0000 </r>
       <r>  -10.9748    1.0000 </r>
       <r>  -10.8528    1.0000 </r>
       <r>  -10.8107    1.0000 </r>
       <r>  -10.7975    1.0000 </r>
       <r>  -10.7473    1.0000 </r>
       <r>  -10.7055    1.0000 </r>
       <r>  -10.5749    1.0000 </r>
       <r>   -9.6742    1.0000 </r>
       <r>   -8.8012    1.0000 </r>
       <r>   -8.7705    1.0000 </r>
       <r>   -8.4776    1.0000 </r>
       <r>   -8.0450    1.0000 </r>
       <r>   -7.9873    1.0000 </r>
       <r>   -7.8067    1.0000 </r>
       <r>   -7.6473    1.0000 </r>
       <r>   -7.3242    1.0000 </r>
       <r>   -7.2802    1.0000 </r>
       <r>   -7.2570    1.0000 </r>
       <r>   -7.0232    1.0000 </r>
       <r>   -6.4230    1.0000 </r>
       <r>   -5.3200    1.0000 </r>
       <r>   -4.7794    1.0000 </r>
       <r>   -4.6872    1.0000 </r>
       <r>   -4.6207    1.0000 </r>
       <r>   -4.4099    1.0000 </r>
       <r>   -4.1483    1.0000 </r>
       <r>   -4.0613    1.0000 </r>
       <r>   -4.0318    1.0000 </r>
       <r>   -3.9281    1.0000 </r>
       <r>   -3.8016    1.0000 </r>
       <r>   -3.6893    1.0000 </r>
       <r>   -3.6398    1.0000 </r>
       <r>   -3.4826    1.0000 </r>
       <r>   -3.3964    1.0000 </r>
       <r>   -3.1645    1.0000 </r>
       <r>   -3.0039    1.0000 </r>
       <r>   -2.8521    1.0000 </r>
       <r>   -2.7629    1.0000 </r>
       <r>   -2.7314    1.0000 </r>
       <r>   -2.6814    1.0000 </r>
       <r>   -2.4311    1.0000 </r>
       <r>   -2.2496    1.0000 </r>
       <r>   -2.2047    1.0000 </r>
       <r>   -2.1070    1.0000 </r>
       <r>   -1.7477    1.0000 </r>
       <r>   -1.5748    1.0000 </r>
       <r>   -1.4838    1.0000 </r>
       <r>   -1.2053    1.0000 </r>
       <r>   -0.9577    1.0000 </r>
       <r>   -0.6044    1.0000 </r>
       <r>    0.1233    0.8738 </r>
       <r>    0.5892    0.0000 </r>
       <r>    0.9319    0.0000 </r>
       <r>    1.3197    0.0000 </r>
       <r>    1.4856    0.0000 </r>
       <r>    1.6188    0.0000 </r>
       <r>    1.6971    0.0000 </r>
       <r>    1.7626    0.0000 </r>
       <r>    2.0093    0.0000 </r>
       <r>    2.0915    0.0000 </r>
       <r>    2.2128    0.0000 </r>
       <r>    2.3451    0.0000 </r>
       <r>    2.5206    0.0000 </r>
       <r>    2.5560    0.0000 </r>
      </set>
      <set comment="kpoint 16">
       <r>  -13.2613    1.0000 </r>
       <r>  -12.1455    1.0000 </r>
       <r>  -11.5535    1.0000 </r>
       <r>  -11.5282    1.0000 </r>
       <r>  -11.2916    1.0000 </r>
       <r>  -11.0631    1.0000 </r>
       <r>  -10.9768    1.0000 </r>
       <r>  -10.9347    1.0000 </r>
       <r>  -10.6742    1.0000 </r>
       <r>  -10.5148    1.0000 </r>
       <r>  -10.4945    1.0000 </r>
       <r>   -9.8444    1.0000 </r>
       <r>   -8.7859    1.0000 </r>
       <r>   -8.5395    1.0000 </r>
       <r>   -8.5272    1.0000 </r>
       <r>   -7.9103    1.0000 </r>
       <r>   -7.4872    1.0000 </r>
       <r>   -7.4648    1.0000 </r>
       <r>   -7.3718    1.0000 </r>
       <r>   -6.9065    1.0000 </r>
       <r>   -6.8525    1.0000 </r>
       <r>   -6.7083    1.0000 </r>
       <r>   -6.5369    1.0000 </r>
       <r>   -6.2884    1.0000 </r>
       <r>   -5.2565    1.0000 </r>
       <r>   -5.0948    1.0000 </r>
       <r>   -4.8938    1.0000 </r>
       <r>   -4.7457    1.0000 </r>
       <r>   -4.4550    1.0000 </r>
       <r>   -4.3897    1.0000 </r>
       <r>   -4.2923    1.0000 </r>
       <r>   -4.1413    1.0000 </r>
       <r>   -4.0504    1.0000 </r>
       <r>   -3.7656    1.0000 </r>
       <r>   -3.6631    1.0000 </r>
       <r>   -3.4519    1.0000 </r>
       <r>   -3.3754    1.0000 </r>
       <r>   -3.2220    1.0000 </r>
       <r>   -3.1283    1.0000 </r>
       <r>   -3.0160    1.0000 </r>
       <r>   -2.7813    1.0000 </r>
       <r>   -2.6581    1.0000 </r>
       <r>   -2.6091    1.0000 </r>
       <r>   -2.5357    1.0000 </r>
       <r>   -2.3045    1.0000 </r>
       <r>   -2.2214    1.0000 </r>
       <r>   -2.0269    1.0000 </r>
       <r>   -1.9882    1.0000 </r>
       <r>   -1.8395    1.0000 </r>
       <r>   -1.4771    1.0000 </r>
       <r>   -1.3448    1.0000 </r>
       <r>   -1.0561    1.0000 </r>
       <r>   -0.7772    1.0000 </r>
       <r>   -0.5474    1.0000 </r>
       <r>    0.1899    0.5798 </r>
       <r>    0.7571    0.0000 </r>
       <r>    1.0707    0.0000 </r>
       <r>    1.3363    0.0000 </r>
       <r>    1.5749    0.0000 </r>
       <r>    1.7207    0.0000 </r>
       <r>    1.8521    0.0000 </r>
       <r>    2.0131    0.0000 </r>
       <r>    2.0877    0.0000 </r>
       <r>    2.1570    0.0000 </r>
       <r>    2.2515    0.0000 </r>
       <r>    2.4011    0.0000 </r>
       <r>    2.5717    0.0000 </r>
       <r>    2.7342    0.0000 </r>
      </set>
      <set comment="kpoint 17">
       <r>  -13.4975    1.0000 </r>
       <r>  -12.6396    1.0000 </r>
       <r>  -11.9917    1.0000 </r>
       <r>  -11.9708    1.0000 </r>
       <r>  -11.6923    1.0000 </r>
       <r>  -11.4211    1.0000 </r>
       <r>  -11.3080    1.0000 </r>
       <r>  -11.2607    1.0000 </r>
       <r>  -10.8176    1.0000 </r>
       <r>  -10.6531    1.0000 </r>
       <r>  -10.4649    1.0000 </r>
       <r>  -10.1390    1.0000 </r>
       <r>   -8.5990    1.0000 </r>
       <r>   -8.2311    1.0000 </r>
       <r>   -8.0963    1.0000 </r>
       <r>   -7.5922    1.0000 </r>
       <r>   -7.1103    1.0000 </r>
       <r>   -7.0427    1.0000 </r>
       <r>   -6.9163    1.0000 </r>
       <r>   -6.5314    1.0000 </r>
       <r>   -6.1994    1.0000 </r>
       <r>   -6.0394    1.0000 </r>
       <r>   -6.0121    1.0000 </r>
       <r>   -5.8534    1.0000 </r>
       <r>   -5.1924    1.0000 </r>
       <r>   -5.0072    1.0000 </r>
       <r>   -4.9325    1.0000 </r>
       <r>   -4.7555    1.0000 </r>
       <r>   -4.6858    1.0000 </r>
       <r>   -4.3660    1.0000 </r>
       <r>   -4.3130    1.0000 </r>
       <r>   -4.2570    1.0000 </r>
       <r>   -4.1824    1.0000 </r>
       <r>   -3.8414    1.0000 </r>
       <r>   -3.5141    1.0000 </r>
       <r>   -3.4671    1.0000 </r>
       <r>   -3.1502    1.0000 </r>
       <r>   -3.1097    1.0000 </r>
       <r>   -3.0020    1.0000 </r>
       <r>   -2.8926    1.0000 </r>
       <r>   -2.8122    1.0000 </r>
       <r>   -2.6488    1.0000 </r>
       <r>   -2.4796    1.0000 </r>
       <r>   -2.3177    1.0000 </r>
       <r>   -2.0743    1.0000 </r>
       <r>   -2.0358    1.0000 </r>
       <r>   -1.9179    1.0000 </r>
       <r>   -1.8820    1.0000 </r>
       <r>   -1.7473    1.0000 </r>
       <r>   -1.3469    1.0000 </r>
       <r>   -1.2243    1.0000 </r>
       <r>   -0.9056    1.0000 </r>
       <r>   -0.4782    1.0000 </r>
       <r>   -0.4085    1.0000 </r>
       <r>    0.3537    0.0172 </r>
       <r>    0.8962    0.0000 </r>
       <r>    1.0713    0.0000 </r>
       <r>    1.5870    0.0000 </r>
       <r>    1.7104    0.0000 </r>
       <r>    1.8827    0.0000 </r>
       <r>    1.9495    0.0000 </r>
       <r>    2.1561    0.0000 </r>
       <r>    2.2578    0.0000 </r>
       <r>    2.3464    0.0000 </r>
       <r>    2.4435    0.0000 </r>
       <r>    2.6325    0.0000 </r>
       <r>    2.7196    0.0000 </r>
       <r>    2.9587    0.0000 </r>
      </set>
      <set comment="kpoint 18">
       <r>  -13.7429    1.0000 </r>
       <r>  -13.0349    1.0000 </r>
       <r>  -12.3958    1.0000 </r>
       <r>  -12.3338    1.0000 </r>
       <r>  -12.0447    1.0000 </r>
       <r>  -11.7485    1.0000 </r>
       <r>  -11.6217    1.0000 </r>
       <r>  -11.5612    1.0000 </r>
       <r>  -11.0736    1.0000 </r>
       <r>  -10.8832    1.0000 </r>
       <r>  -10.6439    1.0000 </r>
       <r>  -10.4370    1.0000 </r>
       <r>   -8.4432    1.0000 </r>
       <r>   -7.8543    1.0000 </r>
       <r>   -7.8161    1.0000 </r>
       <r>   -7.3113    1.0000 </r>
       <r>   -6.7926    1.0000 </r>
       <r>   -6.7403    1.0000 </r>
       <r>   -6.6814    1.0000 </r>
       <r>   -6.4615    1.0000 </r>
       <r>   -5.7842    1.0000 </r>
       <r>   -5.6349    1.0000 </r>
       <r>   -5.3775    1.0000 </r>
       <r>   -5.1989    1.0000 </r>
       <r>   -4.8784    1.0000 </r>
       <r>   -4.6852    1.0000 </r>
       <r>   -4.6448    1.0000 </r>
       <r>   -4.5567    1.0000 </r>
       <r>   -4.4242    1.0000 </r>
       <r>   -4.2238    1.0000 </r>
       <r>   -4.0933    1.0000 </r>
       <r>   -3.9031    1.0000 </r>
       <r>   -3.8206    1.0000 </r>
       <r>   -3.6362    1.0000 </r>
       <r>   -3.4922    1.0000 </r>
       <r>   -3.4412    1.0000 </r>
       <r>   -3.2471    1.0000 </r>
       <r>   -3.0416    1.0000 </r>
       <r>   -2.9335    1.0000 </r>
       <r>   -2.8082    1.0000 </r>
       <r>   -2.6582    1.0000 </r>
       <r>   -2.4909    1.0000 </r>
       <r>   -2.3132    1.0000 </r>
       <r>   -2.2701    1.0000 </r>
       <r>   -2.0026    1.0000 </r>
       <r>   -1.9281    1.0000 </r>
       <r>   -1.8420    1.0000 </r>
       <r>   -1.7706    1.0000 </r>
       <r>   -1.5051    1.0000 </r>
       <r>   -1.2372    1.0000 </r>
       <r>   -1.0923    1.0000 </r>
       <r>   -0.6294    1.0000 </r>
       <r>   -0.2559    1.0000 </r>
       <r>   -0.0060    0.9985 </r>
       <r>    0.4931    0.0000 </r>
       <r>    0.7469    0.0000 </r>
       <r>    1.3074    0.0000 </r>
       <r>    1.7858    0.0000 </r>
       <r>    1.8945    0.0000 </r>
       <r>    1.9639    0.0000 </r>
       <r>    2.2141    0.0000 </r>
       <r>    2.3384    0.0000 </r>
       <r>    2.5574    0.0000 </r>
       <r>    2.6725    0.0000 </r>
       <r>    2.7301    0.0000 </r>
       <r>    2.8728    0.0000 </r>
       <r>    2.9389    0.0000 </r>
[...]
       <r>    2.6775    0.0000 </r>
      </set>
      <set comment="kpoint 54">
       <r>  -13.1095    1.0000 </r>
       <r>  -11.5337    1.0000 </r>
       <r>  -11.2130    1.0000 </r>
       <r>  -11.1499    1.0000 </r>
       <r>  -10.9916    1.0000 </r>
       <r>  -10.8948    1.0000 </r>
       <r>  -10.8125    1.0000 </r>
       <r>  -10.7649    1.0000 </r>
       <r>  -10.6760    1.0000 </r>
       <r>  -10.6657    1.0000 </r>
       <r>  -10.5892    1.0000 </r>
       <r>   -9.6676    1.0000 </r>
       <r>   -8.7800    1.0000 </r>
       <r>   -8.7084    1.0000 </r>
       <r>   -8.4841    1.0000 </r>
       <r>   -8.1636    1.0000 </r>
       <r>   -8.1080    1.0000 </r>
       <r>   -7.6900    1.0000 </r>
       <r>   -7.6033    1.0000 </r>
       <r>   -7.3346    1.0000 </r>
       <r>   -7.2849    1.0000 </r>
       <r>   -7.2124    1.0000 </r>
       <r>   -7.0249    1.0000 </r>
       <r>   -6.4910    1.0000 </r>
       <r>   -5.3456    1.0000 </r>
       <r>   -4.9897    1.0000 </r>
       <r>   -4.7270    1.0000 </r>
       <r>   -4.5205    1.0000 </r>
       <r>   -4.3295    1.0000 </r>
       <r>   -4.1380    1.0000 </r>
       <r>   -4.0142    1.0000 </r>
       <r>   -3.9746    1.0000 </r>
       <r>   -3.8281    1.0000 </r>
       <r>   -3.8019    1.0000 </r>
       <r>   -3.6092    1.0000 </r>
       <r>   -3.5903    1.0000 </r>
       <r>   -3.3447    1.0000 </r>
       <r>   -3.3016    1.0000 </r>
       <r>   -3.2290    1.0000 </r>
       <r>   -3.1047    1.0000 </r>
       <r>   -3.0365    1.0000 </r>
       <r>   -2.8586    1.0000 </r>
       <r>   -2.7331    1.0000 </r>
       <r>   -2.6684    1.0000 </r>
       <r>   -2.4224    1.0000 </r>
       <r>   -2.2649    1.0000 </r>
       <r>   -2.1671    1.0000 </r>
       <r>   -2.0928    1.0000 </r>
       <r>   -1.7714    1.0000 </r>
       <r>   -1.6142    1.0000 </r>
       <r>   -1.4969    1.0000 </r>
       <r>   -1.1831    1.0000 </r>
       <r>   -0.8765    1.0000 </r>
       <r>   -0.7067    1.0000 </r>
       <r>    0.2018    0.5131 </r>
       <r>    0.5267    0.0000 </r>
       <r>    0.9306    0.0000 </r>
       <r>    1.3002    0.0000 </r>
       <r>    1.5019    0.0000 </r>
       <r>    1.5576    0.0000 </r>
       <r>    1.6150    0.0000 </r>
       <r>    1.8213    0.0000 </r>
       <r>    1.8748    0.0000 </r>
       <r>    1.9492    0.0000 </r>
       <r>    2.0716    0.0000 </r>
       <r>    2.3429    0.0000 </r>
       <r>    2.4452    0.0000 </r>
       <r>    2.5818    0.0000 </r>
      </set>
     </set>
    </set>
   </array>
  </eigenvalues>
  <separator name="orbital magnetization" >
   <v name="MAGDIPOLOUT">      0.00000000      0.00000000      0.00000000</v>
  </separator>
  <dos>
   <i name="efermi">      0.20416951 </i>
   <total>
    <array>
     <dimension dim="1">gridpoints</dimension>
     <dimension dim="2">spin</dimension>
     <field>energy</field>
     <field>total</field>
     <field>integrated</field>
     <set>
      <set comment="spin 1">
       <r>   -15.1264     0.0000     0.0000 </r>
       <r>   -15.0618     0.0000     0.0000 </r>
       <r>   -14.9972     0.0000     0.0000 </r>
       <r>   -14.9326     0.0000     0.0000 </r>
       <r>   -14.8680     0.0000     0.0000 </r>
       <r>   -14.8034     0.0000     0.0000 </r>
       <r>   -14.7388     0.0000     0.0000 </r>
       <r>   -14.6742     0.0000     0.0000 </r>
       <r>   -14.6096     0.0000     0.0000 </r>
       <r>   -14.5451     0.0000     0.0000 </r>
       <r>   -14.4805     0.0000     0.0000 </r>
       <r>   -14.4159     0.0000     0.0000 </r>
       <r>   -14.3513     0.0014     0.0001 </r>
       <r>   -14.2867     0.0256     0.0017 </r>
       <r>   -14.2221     0.2276     0.0164 </r>
       <r>   -14.1575     0.9952     0.0807 </r>
       <r>   -14.0929     2.2032     0.2230 </r>
       <r>   -14.0284     2.7151     0.3984 </r>
       <r>   -13.9638     2.4529     0.5568 </r>
       <r>   -13.8992     2.0037     0.6862 </r>
       <r>   -13.8346     1.3947     0.7763 </r>
       <r>   -13.7700     1.4342     0.8689 </r>
       <r>   -13.7054     1.7533     0.9822 </r>
       <r>   -13.6408     1.4372     1.0750 </r>
       <r>   -13.5762     1.6402     1.1809 </r>
       <r>   -13.5117     2.9764     1.3732 </r>
       <r>   -13.4471     3.6708     1.6103 </r>
       <r>   -13.3825     3.0690     1.8085 </r>
       <r>   -13.3179     2.8978     1.9957 </r>
       <r>   -13.2533     3.4540     2.2187 </r>
       <r>   -13.1887     3.5717     2.4494 </r>
       <r>   -13.1241     3.4627     2.6731 </r>
       <r>   -13.0595     3.6075     2.9061 </r>
       <r>   -12.9949     3.7113     3.1458 </r>
       <r>   -12.9304     3.9306     3.3997 </r>
       <r>   -12.8658     4.1217     3.6659 </r>
       <r>   -12.8012     3.9139     3.9187 </r>
       <r>   -12.7366     3.6237     4.1527 </r>
       <r>   -12.6720     4.0052     4.4114 </r>
       <r>   -12.6074     4.7662     4.7192 </r>
       <r>   -12.5428     4.9377     5.0382 </r>
       <r>   -12.4782     4.6963     5.3415 </r>
       <r>   -12.4137     4.4855     5.6312 </r>
       <r>   -12.3491     4.4624     5.9194 </r>
       <r>   -12.2845     4.4607     6.2075 </r>
       <r>   -12.2199     4.4782     6.4967 </r>
       <r>   -12.1553     5.2632     6.8367 </r>
       <r>   -12.0907     6.9308     7.2843 </r>
       <r>   -12.0261     8.8631     7.8568 </r>
       <r>   -11.9615     9.1184     8.4457 </r>
       <r>   -11.8970     7.1813     8.9095 </r>
       <r>   -11.8324     5.5617     9.2688 </r>
       <r>   -11.7678     5.7052     9.6372 </r>
       <r>   -11.7032     6.8490    10.0796 </r>
       <r>   -11.6386     7.7375    10.5794 </r>
       <r>   -11.5740     8.5991    11.1348 </r>
       <r>   -11.5094     8.7965    11.7029 </r>
       <r>   -11.4448     7.4945    12.1870 </r>
       <r>   -11.3802     7.0888    12.6448 </r>
       <r>   -11.3157     8.9803    13.2248 </r>
       <r>   -11.2511    10.2490    13.8868 </r>
       <r>   -11.1865     9.2832    14.4864 </r>
       <r>   -11.1219     9.0019    15.0678 </r>
       <r>   -11.0573    10.2937    15.7326 </r>
       <r>   -10.9927    11.2990    16.4624 </r>
       <r>   -10.9281    11.9440    17.2338 </r>
       <r>   -10.8635    13.4112    18.1001 </r>
       <r>   -10.7990    13.8123    18.9922 </r>
       <r>   -10.7344    12.3855    19.7921 </r>
       <r>   -10.6698    12.0687    20.5716 </r>
       <r>   -10.6052    11.3732    21.3062 </r>
       <r>   -10.5406     9.1240    21.8955 </r>
       <r>   -10.4760     7.8393    22.4018 </r>
       <r>   -10.4114     6.2563    22.8059 </r>
       <r>   -10.3468     3.2035    23.0128 </r>
       <r>   -10.2823     0.9772    23.0759 </r>
       <r>   -10.2177     0.6729    23.1194 </r>
       <r>   -10.1531     1.3910    23.2092 </r>
       <r>   -10.0885     1.6073    23.3130 </r>
       <r>   -10.0239     0.8944    23.3708 </r>
       <r>    -9.9593     0.4504    23.3999 </r>
       <r>    -9.8947     0.9328    23.4601 </r>
       <r>    -9.8301     1.6842    23.5689 </r>
       <r>    -9.7656     1.7561    23.6823 </r>
       <r>    -9.7010     1.7347    23.7944 </r>
       <r>    -9.6364     1.7630    23.9082 </r>
       <r>    -9.5718     1.0673    23.9772 </r>
       <r>    -9.5072     0.3095    23.9972 </r>
       <r>    -9.4426     0.0413    23.9998 </r>
       <r>    -9.3780     0.0025    24.0000 </r>
       <r>    -9.3134     0.0001    24.0000 </r>
       <r>    -9.2488     0.0009    24.0001 </r>
       <r>    -9.1843     0.0173    24.0012 </r>
       <r>    -9.1197     0.1539    24.0111 </r>
       <r>    -9.0551     0.6665    24.0542 </r>
       <r>    -8.9905     1.4835    24.1500 </r>
       <r>    -8.9259     2.0232    24.2807 </r>
       <r>    -8.8613     2.6785    24.4536 </r>
       <r>    -8.7967     4.1723    24.7231 </r>
       <r>    -8.7321     5.3327    25.0676 </r>
       <r>    -8.6676     5.2134    25.4043 </r>
       <r>    -8.6030     4.7534    25.7113 </r>
       <r>    -8.5384     4.8185    26.0225 </r>
       <r>    -8.4738     5.2205    26.3597 </r>
       <r>    -8.4092     4.9788    26.6813 </r>
       <r>    -8.3446     3.7407    26.9229 </r>
       <r>    -8.2800     2.8806    27.1089 </r>
       <r>    -8.2154     3.0990    27.3091 </r>
       <r>    -8.1509     4.1214    27.5753 </r>
       <r>    -8.0863     5.2008    27.9112 </r>
       <r>    -8.0217     5.5027    28.2666 </r>
       <r>    -7.9571     6.2010    28.6671 </r>
       <r>    -7.8925     7.9709    29.1819 </r>
       <r>    -7.8279     8.6798    29.7425 </r>
       <r>    -7.7633     7.0429    30.1974 </r>
       <r>    -7.6987     5.0481    30.5235 </r>
       <r>    -7.6341     4.6644    30.8247 </r>
       <r>    -7.5696     5.2671    31.1649 </r>
       <r>    -7.5050     6.3172    31.5729 </r>
       <r>    -7.4404     8.2498    32.1058 </r>
       <r>    -7.3758    10.0872    32.7573 </r>
       <r>    -7.3112    10.7108    33.4491 </r>
       <r>    -7.2466     9.1585    34.0406 </r>
       <r>    -7.1820     6.6211    34.4683 </r>
       <r>    -7.1174     6.0251    34.8574 </r>
       <r>    -7.0529     7.1503    35.3192 </r>
       <r>    -6.9883     7.3972    35.7970 </r>
       <r>    -6.9237     6.2022    36.1976 </r>
       <r>    -6.8591     5.6656    36.5635 </r>
       <r>    -6.7945     7.5905    37.0538 </r>
       <r>    -6.7299    11.7288    37.8113 </r>
       <r>    -6.6653    13.9743    38.7139 </r>
       <r>    -6.6007    12.4575    39.5185 </r>
       <r>    -6.5362    10.1214    40.1722 </r>
       <r>    -6.4716     8.0416    40.6916 </r>
       <r>    -6.4070     6.4472    41.1080 </r>
       <r>    -6.3424     5.6241    41.4713 </r>
       <r>    -6.2778     5.4429    41.8228 </r>
       <r>    -6.2132     5.6177    42.1856 </r>
       <r>    -6.1486     5.1913    42.5209 </r>
       <r>    -6.0840     4.1008    42.7858 </r>
       <r>    -6.0194     3.6756    43.0232 </r>
       <r>    -5.9549     3.8188    43.2698 </r>
       <r>    -5.8903     4.0523    43.5316 </r>
       <r>    -5.8257     4.9650    43.8523 </r>
       <r>    -5.7611     6.2507    44.2560 </r>
       <r>    -5.6965     6.2373    44.6588 </r>
       <r>    -5.6319     5.0252    44.9834 </r>
       <r>    -5.5673     4.3096    45.2617 </r>
       <r>    -5.5027     4.1089    45.5271 </r>
       <r>    -5.4382     4.0113    45.7862 </r>
       <r>    -5.3736     4.5487    46.0800 </r>
       <r>    -5.3090     5.8303    46.4566 </r>
       <r>    -5.2444     6.9956    46.9084 </r>
       <r>    -5.1798     6.5887    47.3340 </r>
       <r>    -5.1152     5.2736    47.6746 </r>
       <r>    -5.0506     5.3211    48.0182 </r>
       <r>    -4.9860     6.4667    48.4359 </r>
       <r>    -4.9215     7.4501    48.9171 </r>
       <r>    -4.8569     8.2391    49.4493 </r>
       <r>    -4.7923     9.1316    50.0390 </r>
       <r>    -4.7277    10.2867    50.7034 </r>
       <r>    -4.6631    10.8880    51.4067 </r>
       <r>    -4.5985    10.2981    52.0718 </r>
       <r>    -4.5339     9.3395    52.6750 </r>
       <r>    -4.4693     9.0699    53.2608 </r>
       <r>    -4.4048    10.4159    53.9336 </r>
       <r>    -4.3402    12.5452    54.7438 </r>
       <r>    -4.2756    13.2107    55.5971 </r>
       <r>    -4.2110    12.4986    56.4044 </r>
       <r>    -4.1464    13.2389    57.2594 </r>
       <r>    -4.0818    15.2128    58.2420 </r>
       <r>    -4.0172    15.1512    59.2206 </r>
       <r>    -3.9526    12.6341    60.0366 </r>
       <r>    -3.8880    10.3387    60.7043 </r>
       <r>    -3.8235    10.3254    61.3712 </r>
       <r>    -3.7589    12.2937    62.1653 </r>
       <r>    -3.6943    14.0197    63.0708 </r>
       <r>    -3.6297    14.0078    63.9755 </r>
       <r>    -3.5651    13.3881    64.8402 </r>
       <r>    -3.5005    13.8533    65.7350 </r>
       <r>    -3.4359    14.6374    66.6804 </r>
       <r>    -3.3713    14.4329    67.6126 </r>
       <r>    -3.3068    13.8907    68.5097 </r>
       <r>    -3.2422    14.1790    69.4255 </r>
       <r>    -3.1776    15.6910    70.4390 </r>
       <r>    -3.1130    17.2756    71.5548 </r>
       <r>    -3.0484    18.0141    72.7183 </r>
       <r>    -2.9838    17.9539    73.8779 </r>
       <r>    -2.9192    16.3766    74.9356 </r>
       <r>    -2.8546    14.7697    75.8896 </r>
       <r>    -2.7901    15.3227    76.8792 </r>
       <r>    -2.7255    17.2760    77.9950 </r>
       <r>    -2.6609    18.7972    79.2091 </r>
       <r>    -2.5963    18.8807    80.4286 </r>
       <r>    -2.5317    18.0708    81.5957 </r>
       <r>    -2.4671    17.0285    82.6956 </r>
       <r>    -2.4025    15.2874    83.6830 </r>
       <r>    -2.3379    13.5060    84.5553 </r>
       <r>    -2.2733    14.0108    85.4602 </r>
       <r>    -2.2088    16.2390    86.5090 </r>
       <r>    -2.1442    17.7109    87.6530 </r>
       <r>    -2.0796    18.5236    88.8494 </r>
       <r>    -2.0150    18.7238    90.0587 </r>
       <r>    -1.9504    17.7814    91.2072 </r>
       <r>    -1.8858    16.8543    92.2957 </r>
       <r>    -1.8212    16.3740    93.3533 </r>
       <r>    -1.7566    14.8812    94.3145 </r>
       <r>    -1.6921    11.5575    95.0609 </r>
       <r>    -1.6275     9.0269    95.6440 </r>
       <r>    -1.5629     9.3418    96.2473 </r>
       <r>    -1.4983    10.7496    96.9416 </r>
       <r>    -1.4337    10.9850    97.6511 </r>
       <r>    -1.3691    10.3898    98.3222 </r>
       <r>    -1.3045    10.2316    98.9830 </r>
       <r>    -1.2399    10.4180    99.6559 </r>
       <r>    -1.1754    10.2028   100.3149 </r>
       <r>    -1.1108     9.4176   100.9231 </r>
       <r>    -1.0462     8.4199   101.4670 </r>
       <r>    -0.9816     7.9080   101.9777 </r>
       <r>    -0.9170     8.3597   102.5177 </r>
       <r>    -0.8524     7.6530   103.0119 </r>
       <r>    -0.7878     5.5351   103.3694 </r>
       <r>    -0.7232     4.8461   103.6824 </r>
       <r>    -0.6586     6.3132   104.0902 </r>
       <r>    -0.5941     7.5868   104.5802 </r>
       <r>    -0.5295     6.8217   105.0208 </r>
       <r>    -0.4649     5.0899   105.3496 </r>
       <r>    -0.4003     3.8539   105.5985 </r>
       <r>    -0.3357     3.1633   105.8028 </r>
       <r>    -0.2711     2.5235   105.9658 </r>
       <r>    -0.2065     2.0088   106.0955 </r>
       <r>    -0.1419     2.4266   106.2523 </r>
       <r>    -0.0774     4.2116   106.5243 </r>
       <r>    -0.0128     6.0475   106.9149 </r>
       <r>     0.0518     5.7284   107.2848 </r>
       <r>     0.1164     4.4859   107.5746 </r>
       <r>     0.1810     4.6300   107.8736 </r>
       <r>     0.2456     5.9141   108.2556 </r>
       <r>     0.3102     6.8608   108.6987 </r>
       <r>     0.3748     6.4125   109.1129 </r>
       <r>     0.4393     5.2272   109.4505 </r>
       <r>     0.5039     4.8245   109.7621 </r>
       <r>     0.5685     5.2228   110.0994 </r>
       <r>     0.6331     5.0432   110.4252 </r>
       <r>     0.6977     4.7066   110.7292 </r>
       <r>     0.7623     5.5042   111.0847 </r>
       <r>     0.8269     5.9128   111.4666 </r>
       <r>     0.8915     5.2593   111.8063 </r>
       <r>     0.9560     4.7795   112.1150 </r>
       <r>     1.0206     4.5706   112.4102 </r>
       <r>     1.0852     4.8224   112.7216 </r>
       <r>     1.1498     5.7406   113.0924 </r>
       <r>     1.2144     6.7642   113.5293 </r>
       <r>     1.2790     7.4995   114.0137 </r>
       <r>     1.3436     7.6590   114.5083 </r>
       <r>     1.4082     7.5661   114.9970 </r>
       <r>     1.4728     8.8900   115.5712 </r>
       <r>     1.5373    11.4922   116.3135 </r>
       <r>     1.6019    12.8059   117.1406 </r>
       <r>     1.6665    12.3773   117.9400 </r>
       <r>     1.7311    12.1688   118.7260 </r>
       <r>     1.7957    12.1450   119.5104 </r>
       <r>     1.8603    11.3505   120.2435 </r>
       <r>     1.9249    10.7452   120.9375 </r>
       <r>     1.9895    11.0041   121.6482 </r>
       <r>     2.0540    11.6925   122.4034 </r>
       <r>     2.1186    13.1628   123.2536 </r>
       <r>     2.1832    15.1581   124.2326 </r>
       <r>     2.2478    15.4247   125.2289 </r>
       <r>     2.3124    13.1936   126.0810 </r>
       <r>     2.3770    11.7066   126.8371 </r>
       <r>     2.4416    12.1187   127.6198 </r>
       <r>     2.5062    13.4456   128.4883 </r>
       <r>     2.5707    15.2576   129.4737 </r>
       <r>     2.6353    15.7992   130.4942 </r>
       <r>     2.6999    14.4642   131.4284 </r>
       <r>     2.7645    12.9414   132.2642 </r>
       <r>     2.8291    11.6593   133.0173 </r>
       <r>     2.8937    10.6896   133.7077 </r>
       <r>     2.9583     9.9806   134.3523 </r>
       <r>     3.0229     8.5781   134.9064 </r>
       <r>     3.0875     6.4786   135.3248 </r>
       <r>     3.1520     4.6282   135.6237 </r>
       <r>     3.2166     3.2209   135.8318 </r>
       <r>     3.2812     1.7962   135.9478 </r>
       <r>     3.3458     0.6547   135.9901 </r>
       <r>     3.4104     0.1377   135.9990 </r>
       <r>     3.4750     0.0152   135.9999 </r>
       <r>     3.5396     0.0008   136.0000 </r>
       <r>     3.6042     0.0000   136.0000 </r>
       <r>     3.6687     0.0000   136.0000 </r>
       <r>     3.7333     0.0000   136.0000 </r>
       <r>     3.7979     0.0000   136.0000 </r>
       <r>     3.8625     0.0000   136.0000 </r>
       <r>     3.9271     0.0000   136.0000 </r>
       <r>     3.9917     0.0000   136.0000 </r>
       <r>     4.0563     0.0000   136.0000 </r>
       <r>     4.1209     0.0000   136.0000 </r>
       <r>     4.1854     0.0000   136.0000 </r>
       <r>     4.2500     0.0000   136.0000 </r>
      </set>
     </set>
    </array>
   </total>
  </dos>
 </calculation>
 <structure name="finalpos" >
  <crystal>
   <varray name="basis" >
    <v>       3.54040000       0.00000000       0.00000000 </v>
    <v>      -1.77020000      10.29434800       0.00000000 </v>
    <v>       0.00000000       0.00000000      27.50142900 </v>
   </varray>
   <i name="volume">   1002.32009712 </i>
   <varray name="rec_basis" >
    <v>       0.28245396       0.04857034       0.00000000 </v>
    <v>       0.00000000       0.09714068       0.00000000 </v>
    <v>       0.00000000       0.00000000       0.03636175 </v>
   </varray>
  </crystal>
  <varray name="positions" >
   <v>       0.11402300       0.22804500       0.23316207 </v>
   <v>       0.81402300       0.12804500       0.51499159 </v>
   <v>       0.45808900       0.91617900       0.20939482 </v>
   <v>       0.15808900       0.81617900       0.49122434 </v>
   <v>       0.31085400       0.62170900       0.08414979 </v>
   <v>       0.31085400       0.62170900       0.36597930 </v>
   <v>       0.99923000       0.99846000       0.08631254 </v>
   <v>       0.99923000       0.99846000       0.36814206 </v>
   <v>       0.65492700       0.30985400       0.06041748 </v>
   <v>       0.65492700       0.30985400       0.34224700 </v>
   <v>       0.76973800       0.53947500       0.20725292 </v>
   <v>       0.46973800       0.43947500       0.48908244 </v>
   <v>       0.93971600       0.87943300       0.15783749 </v>
   <v>       0.63971600       0.77943300       0.43966701 </v>
   <v>       0.20515200       0.41030300       0.18578822 </v>
   <v>       0.90515200       0.31030300       0.46761774 </v>
   <v>       0.20184900       0.40369900       0.09969156 </v>
   <v>       0.20184900       0.40369900       0.38152107 </v>
   <v>       0.56380500       0.12761000       0.10779021 </v>
   <v>       0.56380500       0.12761000       0.38961973 </v>
   <v>       0.56710600       0.13421200       0.19387616 </v>
   <v>       0.26710600       0.03421200       0.47570568 </v>
   <v>       0.82923400       0.65846800       0.13571444 </v>
   <v>       0.52923400       0.55846800       0.41754396 </v>
  </varray>
 </structure>
</modeling>
