<?xml version="1.0" encoding="ISO-8859-1"?>
<modeling>
 <generator>
  <i name="program" type="string">vasp </i>
  <i name="version" type="string">5.4.1  </i>
  <i name="subversion" type="string">24Jun15 (build May 10 2016 14:18:23) complex                          parallel </i>
  <i name="platform" type="string">IFC91_ompi </i>
  <i name="date" type="string">2016 12 09 </i>
  <i name="time" type="string">14:22:24 </i>
 </generator>
 <incar>
  <i type="string" name="PREC">accurate</i>
  <i type="string" name="ALGO"> Fast</i>
  <i type="int" name="ISPIN">     2</i>
  <i type="int" name="IBRION">     2</i>
  <i name="EDIFF">      0.00010000</i>
  <i type="int" name="NSW">     0</i>
  <i type="int" name="ISIF">     3</i>
  <i name="ENCUT">    500.00000000</i>
  <v name="MAGMOM">      6.00000000      0.50000000      0.50000000      6.00000000      0.50000000      0.50000000</v>
  <i type="string" name="LREAL"> Auto</i>
  <i type="int" name="ISMEAR">     1</i>
  <i name="SIGMA">      0.10000000</i>
  <i type="logical" name="LWAVE"> F  </i>
  <i type="logical" name="LCHARG"> F  </i>
  <i type="logical" name="LVTOT"> T  </i>
  <i type="logical" name="LVHAR"> T  </i>
  <i type="logical" name="LAECHG"> F  </i>
  <v type="int" name="KPOINT_BSE">    -1     0     0     0</v>
  <i type="string" name="GGA"> Bo</i>
  <i name="PARAM1">      0.18333333</i>
  <i name="PARAM2">      0.22000000</i>
  <i type="logical" name="LUSE_VDW"> T  </i>
  <i name="AGGAC">      0.00000000</i>
 </incar>
 <kpoints>
  <generation param="Gamma">
   <v type="int" name="divisions">      13       13        1 </v>
   <v name="usershift">      0.00000000       0.00000000       0.00000000 </v>
   <v name="genvec1">      0.07692308       0.00000000       0.00000000 </v>
   <v name="genvec2">      0.00000000       0.07692308       0.00000000 </v>
   <v name="genvec3">      0.00000000       0.00000000       1.00000000 </v>
   <v name="shift">      0.00000000       0.00000000       0.00000000 </v>
  </generation>
  <varray name="kpointlist" >
   <v>       0.00000000       0.00000000       0.00000000 </v>
   <v>       0.07692308      -0.00000000       0.00000000 </v>
   <v>       0.15384615       0.00000000       0.00000000 </v>
   <v>       0.23076923       0.00000000       0.00000000 </v>
   <v>       0.30769231      -0.00000000       0.00000000 </v>
   <v>       0.38461538       0.00000000       0.00000000 </v>
   <v>       0.46153846       0.00000000       0.00000000 </v>
   <v>       0.00000000       0.07692308       0.00000000 </v>
   <v>       0.07692308       0.07692308       0.00000000 </v>
   <v>       0.15384615       0.07692308       0.00000000 </v>
   <v>       0.23076923       0.07692308       0.00000000 </v>
   <v>       0.30769231       0.07692308       0.00000000 </v>
   <v>       0.38461538       0.07692308       0.00000000 </v>
   <v>       0.46153846       0.07692308       0.00000000 </v>
   <v>      -0.46153846       0.07692308       0.00000000 </v>
   <v>      -0.38461538       0.07692308       0.00000000 </v>
   <v>      -0.30769231       0.07692308       0.00000000 </v>
   <v>      -0.23076923       0.07692308       0.00000000 </v>
   <v>      -0.15384615       0.07692308       0.00000000 </v>
   <v>      -0.07692308       0.07692308       0.00000000 </v>
   <v>       0.00000000       0.15384615       0.00000000 </v>
   <v>       0.07692308       0.15384615       0.00000000 </v>
   <v>       0.15384615       0.15384615       0.00000000 </v>
   <v>       0.23076923       0.15384615       0.00000000 </v>
   <v>       0.30769231       0.15384615       0.00000000 </v>
   <v>       0.38461538       0.15384615       0.00000000 </v>
   <v>       0.46153846       0.15384615       0.00000000 </v>
   <v>      -0.46153846       0.15384615       0.00000000 </v>
   <v>      -0.38461538       0.15384615       0.00000000 </v>
   <v>      -0.30769231       0.15384615       0.00000000 </v>
   <v>      -0.23076923       0.15384615       0.00000000 </v>
   <v>      -0.15384615       0.15384615       0.00000000 </v>
   <v>      -0.07692308       0.15384615       0.00000000 </v>
   <v>       0.00000000       0.23076923       0.00000000 </v>
   <v>       0.07692308       0.23076923       0.00000000 </v>
   <v>       0.15384615       0.23076923       0.00000000 </v>
   <v>       0.23076923       0.23076923       0.00000000 </v>
   <v>       0.30769231       0.23076923       0.00000000 </v>
   <v>       0.38461538       0.23076923       0.00000000 </v>
   <v>       0.46153846       0.23076923       0.00000000 </v>
   <v>      -0.46153846       0.23076923       0.00000000 </v>
   <v>      -0.38461538       0.23076923       0.00000000 </v>
   <v>      -0.30769231       0.23076923       0.00000000 </v>
   <v>      -0.23076923       0.23076923       0.00000000 </v>
   <v>      -0.15384615       0.23076923       0.00000000 </v>
   <v>      -0.07692308       0.23076923       0.00000000 </v>
   <v>       0.00000000       0.30769231       0.00000000 </v>
   <v>       0.07692308       0.30769231       0.00000000 </v>
   <v>       0.15384615       0.30769231       0.00000000 </v>
   <v>       0.23076923       0.30769231       0.00000000 </v>
   <v>       0.30769231       0.30769231       0.00000000 </v>
   <v>       0.38461538       0.30769231       0.00000000 </v>
   <v>       0.46153846       0.30769231       0.00000000 </v>
   <v>      -0.46153846       0.30769231       0.00000000 </v>
   <v>      -0.38461538       0.30769231       0.00000000 </v>
   <v>      -0.30769231       0.30769231       0.00000000 </v>
   <v>      -0.23076923       0.30769231       0.00000000 </v>
   <v>      -0.15384615       0.30769231       0.00000000 </v>
   <v>      -0.07692308       0.30769231       0.00000000 </v>
   <v>       0.00000000       0.38461538       0.00000000 </v>
   <v>       0.07692308       0.38461538       0.00000000 </v>
   <v>       0.15384615       0.38461538       0.00000000 </v>
   <v>       0.23076923       0.38461538       0.00000000 </v>
   <v>       0.30769231       0.38461538       0.00000000 </v>
   <v>       0.38461538       0.38461538       0.00000000 </v>
   <v>       0.46153846       0.38461538       0.00000000 </v>
   <v>      -0.46153846       0.38461538       0.00000000 </v>
   <v>      -0.38461538       0.38461538       0.00000000 </v>
   <v>      -0.30769231       0.38461538       0.00000000 </v>
   <v>      -0.23076923       0.38461538       0.00000000 </v>
   <v>      -0.15384615       0.38461538       0.00000000 </v>
   <v>      -0.07692308       0.38461538       0.00000000 </v>
   <v>       0.00000000       0.46153846       0.00000000 </v>
   <v>       0.07692308       0.46153846       0.00000000 </v>
   <v>       0.15384615       0.46153846       0.00000000 </v>
   <v>       0.23076923       0.46153846       0.00000000 </v>
   <v>       0.30769231       0.46153846       0.00000000 </v>
   <v>       0.38461538       0.46153846       0.00000000 </v>
   <v>       0.46153846       0.46153846       0.00000000 </v>
   <v>      -0.46153846       0.46153846       0.00000000 </v>
   <v>      -0.38461538       0.46153846       0.00000000 </v>
   <v>      -0.30769231       0.46153846       0.00000000 </v>
   <v>      -0.23076923       0.46153846       0.00000000 </v>
   <v>      -0.15384615       0.46153846       0.00000000 </v>
   <v>      -0.07692308       0.46153846       0.00000000 </v>
  </varray>
  <varray name="weights" >
   <v>       0.00591716 </v>
   <v>       0.01183432 </v>
   <v>       0.01183432 </v>
   <v>       0.01183432 </v>
   <v>       0.01183432 </v>
   <v>       0.01183432 </v>
   <v>       0.01183432 </v>
   <v>       0.01183432 </v>
   <v>       0.01183432 </v>
   <v>       0.01183432 </v>
   <v>       0.01183432 </v>
   <v>       0.01183432 </v>
   <v>       0.01183432 </v>
   <v>       0.01183432 </v>
   <v>       0.01183432 </v>
   <v>       0.01183432 </v>
   <v>       0.01183432 </v>
   <v>       0.01183432 </v>
   <v>       0.01183432 </v>
   <v>       0.01183432 </v>
   <v>       0.01183432 </v>
   <v>       0.01183432 </v>
   <v>       0.01183432 </v>
   <v>       0.01183432 </v>
   <v>       0.01183432 </v>
   <v>       0.01183432 </v>
   <v>       0.01183432 </v>
   <v>       0.01183432 </v>
   <v>       0.01183432 </v>
   <v>       0.01183432 </v>
   <v>       0.01183432 </v>
   <v>       0.01183432 </v>
   <v>       0.01183432 </v>
   <v>       0.01183432 </v>
   <v>       0.01183432 </v>
   <v>       0.01183432 </v>
   <v>       0.01183432 </v>
   <v>       0.01183432 </v>
   <v>       0.01183432 </v>
   <v>       0.01183432 </v>
   <v>       0.01183432 </v>
   <v>       0.01183432 </v>
   <v>       0.01183432 </v>
   <v>       0.01183432 </v>
   <v>       0.01183432 </v>
   <v>       0.01183432 </v>
   <v>       0.01183432 </v>
   <v>       0.01183432 </v>
   <v>       0.01183432 </v>
   <v>       0.01183432 </v>
   <v>       0.01183432 </v>
   <v>       0.01183432 </v>
   <v>       0.01183432 </v>
   <v>       0.01183432 </v>
   <v>       0.01183432 </v>
   <v>       0.01183432 </v>
   <v>       0.01183432 </v>
   <v>       0.01183432 </v>
   <v>       0.01183432 </v>
   <v>       0.01183432 </v>
   <v>       0.01183432 </v>
   <v>       0.01183432 </v>
   <v>       0.01183432 </v>
   <v>       0.01183432 </v>
   <v>       0.01183432 </v>
   <v>       0.01183432 </v>
   <v>       0.01183432 </v>
   <v>       0.01183432 </v>
   <v>       0.01183432 </v>
   <v>       0.01183432 </v>
   <v>       0.01183432 </v>
   <v>       0.01183432 </v>
   <v>       0.01183432 </v>
   <v>       0.01183432 </v>
   <v>       0.01183432 </v>
   <v>       0.01183432 </v>
   <v>       0.01183432 </v>
   <v>       0.01183432 </v>
   <v>       0.01183432 </v>
   <v>       0.01183432 </v>
   <v>       0.01183432 </v>
   <v>       0.01183432 </v>
   <v>       0.01183432 </v>
   <v>       0.01183432 </v>
   <v>       0.01183432 </v>
  </varray>
 </kpoints>
 <parameters>
  <separator name="general" >
   <i type="string" name="SYSTEM">unknown system</i>
   <i type="logical" name="LCOMPAT"> F  </i>
  </separator>
  <separator name="electronic" >
   <i type="string" name="PREC">accura</i>
   <i name="ENMAX">    500.00000000</i>
   <i name="ENAUG">    392.42700000</i>
   <i name="EDIFF">      0.00010000</i>
   <i type="int" name="IALGO">    68</i>
   <i type="int" name="IWAVPR">    10</i>
   <i type="int" name="NBANDS">    36</i>
   <i name="NELECT">     48.00000000</i>
   <i type="int" name="TURBO">     0</i>
   <i type="int" name="IRESTART">     0</i>
   <i type="int" name="NREBOOT">     0</i>
   <i type="int" name="NMIN">     0</i>
   <i name="EREF">      0.00000000</i>
   <separator name="electronic smearing" >
    <i type="int" name="ISMEAR">     1</i>
    <i name="SIGMA">      0.10000000</i>
    <i name="KSPACING">      0.50000000</i>
    <i type="logical" name="KGAMMA"> T  </i>
   </separator>
   <separator name="electronic projectors" >
    <i type="logical" name="LREAL"> T  </i>
    <v name="ROPT">     -0.00025000     -0.00025000     -0.00025000     -0.00025000</v>
    <i type="int" name="LMAXPAW">  -100</i>
    <i type="int" name="LMAXMIX">     2</i>
    <i type="logical" name="NLSPLINE"> F  </i>
   </separator>
   <separator name="electronic startup" >
    <i type="int" name="ISTART">     0</i>
    <i type="int" name="ICHARG">     2</i>
    <i type="int" name="INIWAV">     1</i>
   </separator>
   <separator name="electronic spin" >
    <i type="int" name="ISPIN">     2</i>
    <i type="logical" name="LNONCOLLINEAR"> F  </i>
    <v name="MAGMOM">      6.00000000      0.50000000      0.50000000      6.00000000      0.50000000      0.50000000</v>
    <i name="NUPDOWN">     -1.00000000</i>
    <i type="logical" name="LSORBIT"> F  </i>
    <v name="SAXIS">      0.00000000      0.00000000      1.00000000</v>
    <i type="logical" name="LSPIRAL"> F  </i>
    <v name="QSPIRAL">      0.00000000      0.00000000      0.00000000</v>
    <i type="logical" name="LZEROZ"> F  </i>
   </separator>
   <separator name="electronic exchange-correlation" >
    <i type="logical" name="LASPH"> F  </i>
    <i type="logical" name="LMETAGGA"> F  </i>
   </separator>
   <separator name="electronic convergence" >
    <i type="int" name="NELM">    60</i>
    <i type="int" name="NELMDL">     0</i>
    <i type="int" name="NELMIN">     2</i>
    <i name="ENINI">    500.00000000</i>
    <separator name="electronic convergence detail" >
     <i type="logical" name="LDIAG"> T  </i>
     <i type="logical" name="LSUBROT"> F  </i>
     <i name="WEIMIN">      0.00000000</i>
     <i name="EBREAK">      0.00000069</i>
     <i name="DEPER">      0.30000000</i>
     <i type="int" name="NRMM">     4</i>
     <i name="TIME">      0.40000000</i>
    </separator>
   </separator>
   <separator name="electronic mixer" >
    <i name="AMIX">      0.40000000</i>
    <i name="BMIX">      1.00000000</i>
    <i name="AMIN">      0.10000000</i>
    <i name="AMIX_MAG">      1.60000000</i>
    <i name="BMIX_MAG">      1.00000000</i>
    <separator name="electronic mixer details" >
     <i type="int" name="IMIX">     4</i>
     <i type="logical" name="MIXFIRST"> F  </i>
     <i type="int" name="MAXMIX">   -45</i>
     <i name="WC">    100.00000000</i>
     <i type="int" name="INIMIX">     1</i>
     <i type="int" name="MIXPRE">     1</i>
     <i type="int" name="MREMOVE">     5</i>
    </separator>
   </separator>
   <separator name="electronic dipolcorrection" >
    <i type="logical" name="LDIPOL"> F  </i>
    <i type="logical" name="LMONO"> F  </i>
    <i type="int" name="IDIPOL">     0</i>
    <i name="EPSILON">      1.00000000</i>
    <v name="DIPOL">   -100.00000000   -100.00000000   -100.00000000</v>
    <i name="EFIELD">      0.00000000</i>
   </separator>
  </separator>
  <separator name="grids" >
   <i type="int" name="NGX">    24</i>
   <i type="int" name="NGY">    24</i>
   <i type="int" name="NGZ">   180</i>
   <i type="int" name="NGXF">    48</i>
   <i type="int" name="NGYF">    48</i>
   <i type="int" name="NGZF">   360</i>
   <i type="logical" name="ADDGRID"> F  </i>
  </separator>
  <separator name="ionic" >
   <i type="int" name="NSW">     0</i>
   <i type="int" name="IBRION">    -1</i>
   <i type="int" name="ISIF">     3</i>
   <i name="PSTRESS">      0.00000000</i>
   <i name="EDIFFG">      0.00100000</i>
   <i type="int" name="NFREE">     1</i>
   <i name="POTIM">      0.50000000</i>
   <i name="SMASS">     -3.00000000</i>
   <i name="SCALEE">      1.00000000</i>
  </separator>
  <separator name="ionic md" >
   <i name="TEBEG">      0.00010000</i>
   <i name="TEEND">      0.00010000</i>
   <i type="int" name="NBLOCK">     1</i>
   <i type="int" name="KBLOCK">     1</i>
   <i type="int" name="NPACO">   256</i>
   <i name="APACO">     16.00000000</i>
  </separator>
  <separator name="symmetry" >
   <i type="int" name="ISYM">     2</i>
   <i name="SYMPREC">      0.00001000</i>
  </separator>
  <separator name="dos" >
   <i type="logical" name="LORBIT"> F  </i>
   <v name="RWIGS">     -1.00000000     -1.00000000     -1.00000000     -1.00000000</v>
   <i type="int" name="NEDOS">   301</i>
   <i name="EMIN">     10.00000000</i>
   <i name="EMAX">    -10.00000000</i>
   <i name="EFERMI">      0.00000000</i>
  </separator>
  <separator name="writing" >
   <i type="int" name="NWRITE">     2</i>
   <i type="logical" name="LWAVE"> F  </i>
   <i type="logical" name="LCHARG"> F  </i>
   <i type="logical" name="LPARD"> F  </i>
   <i type="logical" name="LVTOT"> F  </i>
   <i type="logical" name="LVHAR"> T  </i>
   <i type="logical" name="LELF"> F  </i>
   <i type="logical" name="LOPTICS"> F  </i>
   <v name="STM">      0.00000000      0.00000000      0.00000000      0.00000000      0.00000000      0.00000000      0.00000000</v>
  </separator>
  <separator name="performance" >
   <i type="int" name="NPAR">     4</i>
   <i type="int" name="NSIM">     4</i>
   <i type="int" name="NBLK">    -1</i>
   <i type="logical" name="LPLANE"> T  </i>
   <i type="logical" name="LSCALAPACK"> T  </i>
   <i type="logical" name="LSCAAWARE"> F  </i>
   <i type="logical" name="LSCALU"> F  </i>
   <i type="logical" name="LASYNC"> F  </i>
   <i type="logical" name="LORBITALREAL"> F  </i>
  </separator>
  <separator name="miscellaneous" >
   <i type="int" name="IDIOT">     3</i>
   <i type="logical" name="LMUSIC"> F  </i>
   <v name="POMASS">     95.94000000     32.06600000     95.94000000     32.06600000</v>
   <v name="DARWINR">      0.00000000      0.00000000      0.00000000      0.00000000</v>
   <v name="DARWINV">      1.00000000      1.00000000      1.00000000      1.00000000</v>
   <i type="logical" name="LCORR"> T  </i>
  </separator>
  <i type="logical" name="GGA_COMPAT"> T  </i>
  <i type="logical" name="LBERRY"> F  </i>
  <i type="int" name="ICORELEVEL">     0</i>
  <i type="logical" name="LDAU"> F  </i>
  <i type="int" name="I_CONSTRAINED_M">     0</i>
  <separator name="electronic exchange-correlation" >
   <i type="string" name="GGA">BO</i>
   <i type="int" name="VOSKOWN">     0</i>
   <i type="logical" name="LHFCALC"> F  </i>
   <i type="string" name="PRECFOCK"></i>
   <i type="logical" name="LSYMGRAD"> F  </i>
   <i type="logical" name="LHFONE"> F  </i>
   <i type="logical" name="LRHFCALC"> F  </i>
   <i type="logical" name="LTHOMAS"> F  </i>
   <i type="logical" name="LMODELHF"> F  </i>
   <i name="ENCUT4O">     -1.00000000</i>
   <i type="int" name="EXXOEP">     0</i>
   <i type="int" name="FOURORBIT">     0</i>
   <i name="AEXX">      0.00000000</i>
   <i name="HFALPHA">      0.00000000</i>
   <i name="MCALPHA">      0.00000000</i>
   <i name="ALDAX">      1.00000000</i>
   <i name="AGGAX">      1.00000000</i>
   <i name="ALDAC">      1.00000000</i>
   <i name="AGGAC">      0.00000000</i>
   <i type="int" name="NKREDX">     1</i>
   <i type="int" name="NKREDY">     1</i>
   <i type="int" name="NKREDZ">     1</i>
   <i type="logical" name="SHIFTRED"> F  </i>
   <i type="logical" name="ODDONLY"> F  </i>
   <i type="logical" name="EVENONLY"> F  </i>
   <i type="int" name="LMAXFOCK">     0</i>
   <i type="int" name="NMAXFOCKAE">     0</i>
   <i type="logical" name="LFOCKAEDFT"> F  </i>
   <i name="HFSCREEN">      0.00000000</i>
   <i name="HFSCREENC">      0.00000000</i>
   <i type="int" name="NBANDSGWLOW">     0</i>
  </separator>
  <separator name="vdW DFT" >
   <i type="logical" name="LUSE_VDW"> T  </i>
   <i name="Zab_VDW">     -0.84910000</i>
   <i name="PARAM1">      0.18333333</i>
   <i name="PARAM2">      0.22000000</i>
   <i name="PARAM3">      0.00000000</i>
  </separator>
  <separator name="model GW" >
   <i type="int" name="MODEL_GW">     0</i>
   <i name="MODEL_EPS0">     20.39722663</i>
   <i name="MODEL_ALPHA">      1.00000000</i>
  </separator>
  <separator name="linear response parameters" >
   <i type="logical" name="LEPSILON"> F  </i>
   <i type="logical" name="LRPA"> F  </i>
   <i type="logical" name="LNABLA"> F  </i>
   <i type="logical" name="LVEL"> F  </i>
   <i type="int" name="KINTER">     0</i>
   <i name="CSHIFT">      0.10000000</i>
   <i name="OMEGAMAX">     -1.00000000</i>
   <i name="DEG_THRESHOLD">      0.00200000</i>
  </separator>
  <separator name="orbital magnetization" >
   <i type="logical" name="NUCIND"> F  </i>
   <v name="MAGPOS">      0.00000000      0.00000000      0.00000000</v>
   <i type="logical" name="LNICSALL"> T  </i>
   <i type="logical" name="ORBITALMAG"> F  </i>
   <i type="logical" name="LMAGBLOCH"> F  </i>
   <i type="logical" name="LCHIMAG"> F  </i>
   <i type="logical" name="LGAUGE"> T  </i>
   <i type="int" name="MAGATOM">     0</i>
   <v name="MAGDIPOL">      0.00000000      0.00000000      0.00000000</v>
   <v name="AVECCONST">      0.00000000      0.00000000      0.00000000</v>
  </separator>
  <separator name="response functions" >
   <i type="logical" name="LADDER"> F  </i>
   <i type="logical" name="LFXC"> F  </i>
   <i type="logical" name="LHARTREE"> T  </i>
   <i type="int" name="IBSE">     0</i>
   <v type="int" name="KPOINT">    -1     0     0     0</v>
   <i type="logical" name="LTCTE"> F  </i>
   <i type="logical" name="LTETE"> F  </i>
   <i type="logical" name="LTRIPLET"> F  </i>
   <i type="logical" name="LFXCEPS"> F  </i>
   <i type="logical" name="LFXHEG"> F  </i>
   <i type="int" name="NATURALO">     0</i>
   <i type="logical" name="L2ORDER"> F  </i>
   <i type="logical" name="LUSEW"> F  </i>
   <i name="ENCUTGW">     -2.00000000</i>
   <i name="ENCUTGWSOFT">     -2.00000000</i>
   <i name="ENCUTLF">     -1.00000000</i>
   <i type="int" name="LMAXMP2">    -1</i>
   <i name="SCISSOR">      0.00000000</i>
   <i type="int" name="NOMEGA">     0</i>
   <i type="int" name="NOMEGAR">     0</i>
   <i type="int" name="NBANDSGW">    -1</i>
   <i type="int" name="NBANDSO">    -1</i>
   <i type="int" name="NBANDSV">    -1</i>
   <i type="int" name="NELM">     1</i>
   <i type="int" name="NELMHF">     1</i>
   <i type="int" name="DIM">     3</i>
   <i type="int" name="ANTIRES">     0</i>
   <i name="OMEGAMAX">    -30.00000000</i>
   <i name="OMEGAMIN">    -30.00000000</i>
   <i name="OMEGATL">   -200.00000000</i>
   <i type="int" name="OMEGAGRID">     0</i>
   <i name="CSHIFT">     -0.10000000</i>
   <i type="logical" name="SELFENERGY"> F  </i>
   <i type="logical" name="LSPECTRAL"> F  </i>
   <i type="logical" name="LSPECTRALGW"> F  </i>
   <i type="logical" name="LSINGLES"> F  </i>
   <i type="logical" name="LFERMIGW"> F  </i>
   <i type="logical" name="ODDONLYGW"> F  </i>
   <i type="logical" name="EVENONLYGW"> F  </i>
   <i type="int" name="NKREDLFX">     1</i>
   <i type="int" name="NKREDLFY">     1</i>
   <i type="int" name="NKREDLFZ">     1</i>
   <i type="int" name="MAXMEM">  1800</i>
   <i type="int" name="TELESCOPE">     0</i>
   <i type="int" name="TAUPAR">     1</i>
   <i type="int" name="OMEGAPAR">    -1</i>
   <i name="LAMBDA">      1.00000000</i>
  </separator>
  <separator name="External order field" >
   <i name="OFIELD_KAPPA">      0.00000000</i>
   <v name="OFIELD_K">      0.00000000      0.00000000      0.00000000</v>
   <i name="OFIELD_Q6_NEAR">      0.00000000</i>
   <i name="OFIELD_Q6_FAR">      0.00000000</i>
   <i name="OFIELD_A">      0.00000000</i>
  </separator>
 </parameters>
 <atominfo>
  <atoms>       6 </atoms>
  <types>       4 </types>
  <array name="atoms" >
   <dimension dim="1">ion</dimension>
   <field type="string">element</field>
   <field type="int">atomtype</field>
   <set>
    <rc><c>Mo</c><c>   1</c></rc>
    <rc><c>S </c><c>   2</c></rc>
    <rc><c>S </c><c>   2</c></rc>
    <rc><c>Mo</c><c>   3</c></rc>
    <rc><c>S </c><c>   4</c></rc>
    <rc><c>S </c><c>   4</c></rc>
   </set>
  </array>
  <array name="atomtypes" >
   <dimension dim="1">type</dimension>
   <field type="int">atomspertype</field>
   <field type="string">element</field>
   <field>mass</field>
   <field>valence</field>
   <field type="string">pseudopotential</field>
   <set>
    <rc><c>   1</c><c>Mo</c><c>     95.94000000</c><c>     12.00000000</c><c> PAW_PBE Mo_pv 08Apr2002                </c></rc>
    <rc><c>   2</c><c>S </c><c>     32.06600000</c><c>      6.00000000</c><c>  PAW_PBE S 17Jan2003                   </c></rc>
    <rc><c>   1</c><c>Mo</c><c>     95.94000000</c><c>     12.00000000</c><c> PAW_PBE Mo_pv 08Apr2002                </c></rc>
    <rc><c>   2</c><c>S </c><c>     32.06600000</c><c>      6.00000000</c><c>  PAW_PBE S 17Jan2003                   </c></rc>
   </set>
  </array>
 </atominfo>
 <structure name="initialpos" >
  <crystal>
   <varray name="basis" >
    <v>       3.19031700       0.00000000       0.00000000 </v>
    <v>      -1.59515800       2.76289700       0.00000000 </v>
    <v>       0.00000000       0.00000000      23.14049200 </v>
   </varray>
   <i name="volume">    203.97226633 </i>
   <varray name="rec_basis" >
    <v>       0.31344848       0.18096941       0.00000000 </v>
    <v>       0.00000000       0.36193894       0.00000000 </v>
    <v>       0.00000000       0.00000000       0.04321429 </v>
   </varray>
  </crystal>
  <varray name="positions" >
   <v>       0.66666700       0.33333300       0.06785900 </v>
   <v>       0.33333300       0.66666700       0.00000000 </v>
   <v>       0.33333300       0.66666700       0.13571500 </v>
   <v>       0.66666700       0.19047586       0.35482300 </v>
   <v>       0.33333300       0.52380986       0.28696500 </v>
   <v>       0.33333300       0.52380986       0.42267900 </v>
  </varray>
 </structure>
 <calculation>
  <scstep>
   <time name="dav">   57.08   58.16</time>
   <time name="total">   67.26   68.50</time>
   <energy>
    <i name="alphaZ">    104.15310261 </i>
    <i name="ewald">   7699.34191986 </i>
    <i name="hartreedc"> -11109.37444472 </i>
    <i name="XCdc">    128.47089470 </i>
    <i name="pawpsdc">   2252.92270536 </i>
    <i name="pawaedc">  -2205.68654582 </i>
    <i name="eentropy">     -0.00023488 </i>
    <i name="bandstr">   -158.79864162 </i>
    <i name="atom">   3688.31848598 </i>
    <i name="e_fr_energy">    399.34724148 </i>
    <i name="e_wo_entrp">    399.34747636 </i>
    <i name="e_0_energy">    399.34731978 </i>
   </energy>
  </scstep>
  <scstep>
   <time name="dav">   62.07   63.18</time>
   <time name="total">   62.08   63.19</time>
   <energy>
    <i name="e_fr_energy">     -1.35214969 </i>
    <i name="e_wo_entrp">     -1.35261565 </i>
    <i name="e_0_energy">     -1.35230501 </i>
   </energy>
  </scstep>
  <scstep>
   <time name="dav">   63.84   64.80</time>
   <time name="total">   63.84   64.81</time>
   <energy>
    <i name="e_fr_energy">    -32.93236252 </i>
    <i name="e_wo_entrp">    -32.93321890 </i>
    <i name="e_0_energy">    -32.93264798 </i>
   </energy>
  </scstep>
  <scstep>
   <time name="dav">   61.21   61.44</time>
   <time name="total">   61.22   61.46</time>
   <energy>
    <i name="e_fr_energy">    -33.82632042 </i>
    <i name="e_wo_entrp">    -33.82702452 </i>
    <i name="e_0_energy">    -33.82655512 </i>
   </energy>
  </scstep>
  <scstep>
   <time name="dav">   64.22   64.29</time>
   <time name="total">   68.97   69.05</time>
   <energy>
    <i name="e_fr_energy">    -33.85381112 </i>
    <i name="e_wo_entrp">    -33.85450495 </i>
    <i name="e_0_energy">    -33.85404240 </i>
   </energy>
  </scstep>
  <scstep>
   <time name="diag">   11.53   11.58</time>
   <time name="diis">   41.57   41.81</time>
   <time name="orth">    0.39    0.39</time>
   <time name="total">   68.10   68.47</time>
   <energy>
    <i name="e_fr_energy">    -30.07340127 </i>
    <i name="e_wo_entrp">    -30.07368650 </i>
    <i name="e_0_energy">    -30.07349634 </i>
   </energy>
  </scstep>
  <scstep>
   <time name="diag">   11.49   11.55</time>
   <time name="diis">   41.73   41.90</time>
   <time name="orth">    0.39    0.39</time>
   <time name="total">   68.41   68.75</time>
   <energy>
    <i name="e_fr_energy">    -32.09340172 </i>
    <i name="e_wo_entrp">    -32.09406946 </i>
    <i name="e_0_energy">    -32.09362430 </i>
   </energy>
  </scstep>
  <scstep>
   <time name="diag">   11.57   11.65</time>
   <time name="diis">   41.18   41.45</time>
   <time name="orth">    0.40    0.40</time>
   <time name="total">   67.80   68.42</time>
   <energy>
    <i name="e_fr_energy">    -34.37267841 </i>
    <i name="e_wo_entrp">    -34.37284421 </i>
    <i name="e_0_energy">    -34.37273368 </i>
   </energy>
  </scstep>
  <scstep>
   <time name="diag">   11.49   11.56</time>
   <time name="diis">   42.83   43.18</time>
   <time name="orth">    0.39    0.40</time>
   <time name="total">   69.81   70.63</time>
   <energy>
    <i name="e_fr_energy">    -36.11900922 </i>
    <i name="e_wo_entrp">    -36.11917147 </i>
    <i name="e_0_energy">    -36.11906331 </i>
   </energy>
  </scstep>
  <scstep>
   <time name="diag">   11.53   11.58</time>
   <time name="diis">   39.15   39.41</time>
   <time name="orth">    0.39    0.39</time>
   <time name="total">   65.99   66.58</time>
   <energy>
    <i name="e_fr_energy">    -38.54598557 </i>
    <i name="e_wo_entrp">    -38.54614868 </i>
    <i name="e_0_energy">    -38.54603994 </i>
   </energy>
  </scstep>
  <scstep>
   <time name="diag">   11.50   11.52</time>
   <time name="diis">   41.52   41.70</time>
   <time name="orth">    0.39    0.39</time>
   <time name="total">   68.81   69.21</time>
   <energy>
    <i name="e_fr_energy">    -39.28194962 </i>
    <i name="e_wo_entrp">    -39.28222190 </i>
    <i name="e_0_energy">    -39.28204038 </i>
   </energy>
  </scstep>
  <scstep>
   <time name="diag">   11.45   11.47</time>
   <time name="diis">   42.89   43.24</time>
   <time name="orth">    0.39    0.39</time>
   <time name="total">   69.65   70.45</time>
   <energy>
    <i name="e_fr_energy">    -39.36686640 </i>
    <i name="e_wo_entrp">    -39.36718991 </i>
    <i name="e_0_energy">    -39.36697423 </i>
   </energy>
  </scstep>
  <scstep>
   <time name="diag">   11.48   11.68</time>
   <time name="diis">   44.05   44.18</time>
   <time name="orth">    0.39    0.39</time>
   <time name="total">   70.87   71.50</time>
   <energy>
    <i name="e_fr_energy">    -39.38331305 </i>
    <i name="e_wo_entrp">    -39.38364113 </i>
    <i name="e_0_energy">    -39.38342241 </i>
   </energy>
  </scstep>
  <scstep>
   <time name="diag">   11.59   11.65</time>
   <time name="diis">   43.90   44.20</time>
   <time name="orth">    0.39    0.39</time>
   <time name="total">   70.97   71.43</time>
   <energy>
    <i name="e_fr_energy">    -39.39113678 </i>
    <i name="e_wo_entrp">    -39.39146513 </i>
    <i name="e_0_energy">    -39.39124623 </i>
   </energy>
  </scstep>
  <scstep>
   <time name="diag">   11.61   11.68</time>
   <time name="diis">   39.32   39.58</time>
   <time name="orth">    0.39    0.39</time>
   <time name="total">   66.49   66.97</time>
   <energy>
    <i name="e_fr_energy">    -39.39154198 </i>
    <i name="e_wo_entrp">    -39.39187021 </i>
    <i name="e_0_energy">    -39.39165139 </i>
   </energy>
  </scstep>
  <scstep>
   <time name="diag">   11.49   12.00</time>
   <time name="diis">   29.86   30.89</time>
   <time name="orth">    0.39    0.39</time>
   <time name="total">   51.47   53.37</time>
   <energy>
    <i name="alphaZ">    104.15310261 </i>
    <i name="ewald">   7699.34191986 </i>
    <i name="hartreedc"> -11093.51367674 </i>
    <i name="XCdc">    122.68435785 </i>
    <i name="pawpsdc">   2398.93368690 </i>
    <i name="pawaedc">  -2361.10571034 </i>
    <i name="eentropy">      0.00032837 </i>
    <i name="bandstr">   -598.20404081 </i>
    <i name="atom">   3688.31848598 </i>
    <i name="e_fr_energy">    -39.39154631 </i>
    <i name="e_wo_entrp">    -39.39187468 </i>
    <i name="e_0_energy">    -39.39165577 </i>
   </energy>
  </scstep>
  <structure>
   <crystal>
    <varray name="basis" >
     <v>       3.19031700       0.00000000       0.00000000 </v>
     <v>      -1.59515800       2.76289700       0.00000000 </v>
     <v>       0.00000000       0.00000000      23.14049200 </v>
    </varray>
    <i name="volume">    203.97226633 </i>
    <varray name="rec_basis" >
     <v>       0.31344848       0.18096941       0.00000000 </v>
     <v>       0.00000000       0.36193894       0.00000000 </v>
     <v>       0.00000000       0.00000000       0.04321429 </v>
    </varray>
   </crystal>
   <varray name="positions" >
    <v>       0.66666700       0.33333300       0.06785900 </v>
    <v>       0.33333300       0.66666700       0.00000000 </v>
    <v>       0.33333300       0.66666700       0.13571500 </v>
    <v>       0.66666700       0.19047586       0.35482300 </v>
    <v>       0.33333300       0.52380986       0.28696500 </v>
    <v>       0.33333300       0.52380986       0.42267900 </v>
   </varray>
  </structure>
  <varray name="forces" >
   <v>      -0.00185937       0.00346993      -0.01849999 </v>
   <v>      -0.00366762       0.00404531      -0.05349219 </v>
   <v>      -0.01416898       0.02501496       0.03568835 </v>
   <v>       0.00275777      -0.00397884       0.01685519 </v>
   <v>       0.01616463      -0.02827247      -0.04611632 </v>
   <v>       0.00077357      -0.00027890       0.06556496 </v>
  </varray>
  <varray name="stress" >
   <v>       3.25991975      -0.08360686       0.49634220 </v>
   <v>      -0.08360689       3.37594053      -0.87537877 </v>
   <v>       0.49634211      -0.87537870       2.98914638 </v>
  </varray>
  <energy>
   <i name="e_fr_energy">    -39.39154631 </i>
   <i name="e_wo_entrp">    -39.39165577 </i>
   <i name="e_0_energy">      0.00032837 </i>
  </energy>
  <time name="totalsc"> 1163.68 1175.95</time>
  <eigenvalues>
   <array>
    <dimension dim="1">band</dimension>
    <dimension dim="2">kpoint</dimension>
    <dimension dim="3">spin</dimension>
    <field>eigene</field>
    <field>occ</field>
    <set>
     <set comment="spin 1">
      <set comment="kpoint 1">
       <r>  -34.9807    1.0000 </r>
       <r>  -34.9787    1.0000 </r>
       <r>  -34.7888    1.0000 </r>
       <r>  -34.7886    1.0000 </r>
       <r>  -34.7869    1.0000 </r>
       <r>  -34.7868    1.0000 </r>
       <r>  -13.9679    1.0000 </r>
       <r>  -13.9080    1.0000 </r>
       <r>  -12.7037    1.0000 </r>
       <r>  -12.6039    1.0000 </r>
       <r>   -5.6901    1.0000 </r>
       <r>   -5.3822    1.0000 </r>
       <r>   -2.6113    1.0000 </r>
       <r>   -2.6106    1.0000 </r>
       <r>   -2.6072    1.0000 </r>
       <r>   -2.6065    1.0000 </r>
       <r>   -2.1938    1.0000 </r>
       <r>   -1.5205    1.0000 </r>
       <r>   -1.5198    1.0000 </r>
       <r>   -1.5125    1.0000 </r>
       <r>   -1.5113    1.0000 </r>
       <r>   -1.4490    1.0000 </r>
       <r>   -0.2246    1.0000 </r>
       <r>    0.2509    0.8044 </r>
       <r>    2.6958   -0.0000 </r>
       <r>    2.7017   -0.0000 </r>
       <r>    2.7260   -0.0000 </r>
       <r>    2.7300   -0.0000 </r>
       <r>    2.8775   -0.0000 </r>
       <r>    2.8828   -0.0000 </r>
       <r>    2.9137   -0.0000 </r>
       <r>    2.9209   -0.0000 </r>
       <r>    5.0673    0.0000 </r>
       <r>    5.6204    0.0000 </r>
       <r>    6.2472    0.0000 </r>
       <r>    6.5633    0.0000 </r>
      </set>
      <set comment="kpoint 2">
       <r>  -34.9766    1.0000 </r>
       <r>  -34.9746    1.0000 </r>
       <r>  -34.8100    1.0000 </r>
       <r>  -34.8081    1.0000 </r>
       <r>  -34.7935    1.0000 </r>
       <r>  -34.7917    1.0000 </r>
       <r>  -13.8814    1.0000 </r>
       <r>  -13.8214    1.0000 </r>
       <r>  -12.6671    1.0000 </r>
       <r>  -12.5693    1.0000 </r>
       <r>   -5.5914    1.0000 </r>
       <r>   -5.2831    1.0000 </r>
       <r>   -2.7999    1.0000 </r>
       <r>   -2.7921    1.0000 </r>
       <r>   -2.5201    1.0000 </r>
       <r>   -2.5167    1.0000 </r>
       <r>   -2.4686    1.0000 </r>
       <r>   -2.0565    1.0000 </r>
       <r>   -1.6569    1.0000 </r>
       <r>   -1.6500    1.0000 </r>
       <r>   -1.3714    1.0000 </r>
       <r>   -1.0431    1.0000 </r>
       <r>   -0.2460    1.0000 </r>
       <r>    0.1817    1.0317 </r>
       <r>    2.5602   -0.0000 </r>
       <r>    2.6213   -0.0000 </r>
       <r>    2.6411   -0.0000 </r>
       <r>    2.7504   -0.0000 </r>
       <r>    2.7832   -0.0000 </r>
       <r>    2.8174   -0.0000 </r>
       <r>    2.8538   -0.0000 </r>
       <r>    2.8762   -0.0000 </r>
       <r>    5.1966    0.0000 </r>
       <r>    5.7614    0.0000 </r>
       <r>    6.5880    0.0000 </r>
       <r>    6.9406    0.0000 </r>
      </set>
      <set comment="kpoint 3">
       <r>  -34.9652    1.0000 </r>
       <r>  -34.9632    1.0000 </r>
       <r>  -34.8684    1.0000 </r>
       <r>  -34.8666    1.0000 </r>
       <r>  -34.8069    1.0000 </r>
       <r>  -34.8051    1.0000 </r>
       <r>  -13.6333    1.0000 </r>
       <r>  -13.5733    1.0000 </r>
       <r>  -12.5624    1.0000 </r>
       <r>  -12.4705    1.0000 </r>
       <r>   -5.3321    1.0000 </r>
       <r>   -5.0286    1.0000 </r>
       <r>   -3.2576    1.0000 </r>
       <r>   -3.2343    1.0000 </r>
       <r>   -2.9605    1.0000 </r>
       <r>   -2.6737    1.0000 </r>
       <r>   -2.2653    1.0000 </r>
       <r>   -2.2601    1.0000 </r>
       <r>   -1.9923    1.0000 </r>
       <r>   -1.9848    1.0000 </r>
       <r>   -1.3081    1.0000 </r>
       <r>   -0.9020    1.0000 </r>
       <r>   -0.3784    1.0000 </r>
       <r>   -0.0820    1.0000 </r>
       <r>    2.1519   -0.0000 </r>
       <r>    2.3758   -0.0000 </r>
       <r>    2.4910   -0.0000 </r>
       <r>    2.5580   -0.0000 </r>
       <r>    2.5911   -0.0000 </r>
       <r>    2.6527   -0.0000 </r>
       <r>    3.1968    0.0000 </r>
       <r>    3.2255    0.0000 </r>
       <r>    5.5434    0.0000 </r>
       <r>    6.1110    0.0000 </r>
       <r>    6.9901    0.0000 </r>
       <r>    7.8286    0.0000 </r>
      </set>
      <set comment="kpoint 4">
       <r>  -34.9499    1.0000 </r>
       <r>  -34.9491    1.0000 </r>
       <r>  -34.9481    1.0000 </r>
       <r>  -34.9471    1.0000 </r>
       <r>  -34.8258    1.0000 </r>
       <r>  -34.8239    1.0000 </r>
       <r>  -13.2589    1.0000 </r>
       <r>  -13.1993    1.0000 </r>
       <r>  -12.4052    1.0000 </r>
       <r>  -12.3222    1.0000 </r>
       <r>   -5.0662    1.0000 </r>
       <r>   -4.8140    1.0000 </r>
       <r>   -3.7407    1.0000 </r>
       <r>   -3.6490    1.0000 </r>
       <r>   -3.4873    1.0000 </r>
       <r>   -3.2906    1.0000 </r>
       <r>   -2.3878    1.0000 </r>
       <r>   -2.3795    1.0000 </r>
       <r>   -1.8973    1.0000 </r>
       <r>   -1.8896    1.0000 </r>
       <r>   -1.4991    1.0000 </r>
       <r>   -1.0773    1.0000 </r>
       <r>   -0.6981    1.0000 </r>
       <r>   -0.5265    1.0000 </r>
       <r>    1.9299   -0.0000 </r>
       <r>    2.2515   -0.0000 </r>
       <r>    2.3111   -0.0000 </r>
       <r>    2.3399   -0.0000 </r>
       <r>    2.6850   -0.0000 </r>
       <r>    2.9268   -0.0000 </r>
       <r>    3.5766    0.0000 </r>
       <r>    3.6130    0.0000 </r>
       <r>    6.0945    0.0000 </r>
       <r>    6.6192    0.0000 </r>
       <r>    7.4072    0.0000 </r>
       <r>    8.2369    0.0000 </r>
      </set>
      <set comment="kpoint 5">
       <r>  -35.0352    1.0000 </r>
       <r>  -35.0334    1.0000 </r>
       <r>  -34.9320    1.0000 </r>
       <r>  -34.9300    1.0000 </r>
       <r>  -34.8457    1.0000 </r>
       <r>  -34.8438    1.0000 </r>
       <r>  -12.8200    1.0000 </r>
       <r>  -12.7619    1.0000 </r>
       <r>  -12.2237    1.0000 </r>
       <r>  -12.1512    1.0000 </r>
       <r>   -5.1131    1.0000 </r>
       <r>   -4.9850    1.0000 </r>
       <r>   -4.0776    1.0000 </r>
       <r>   -3.9087    1.0000 </r>
       <r>   -3.8903    1.0000 </r>
       <r>   -3.7022    1.0000 </r>
       <r>   -2.7434    1.0000 </r>
       <r>   -2.7345    1.0000 </r>
       <r>   -1.7836    1.0000 </r>
       <r>   -1.5047    1.0000 </r>
       <r>   -1.4908    1.0000 </r>
       <r>   -1.3599    1.0000 </r>
       <r>   -0.9892    1.0000 </r>
       <r>   -0.8561    1.0000 </r>
       <r>    2.0296   -0.0000 </r>
       <r>    2.1446   -0.0000 </r>
       <r>    2.1686   -0.0000 </r>
       <r>    2.3329   -0.0000 </r>
       <r>    3.0857    0.0000 </r>
       <r>    3.3800    0.0000 </r>
       <r>    3.8768    0.0000 </r>
       <r>    3.9228    0.0000 </r>
       <r>    6.7862    0.0000 </r>
       <r>    7.2130    0.0000 </r>
       <r>    7.7751    0.0000 </r>
       <r>    8.0398    0.0000 </r>
      </set>
      <set comment="kpoint 6">
       <r>  -35.1049    1.0000 </r>
       <r>  -35.1031    1.0000 </r>
       <r>  -34.9178    1.0000 </r>
       <r>  -34.9157    1.0000 </r>
       <r>  -34.8621    1.0000 </r>
       <r>  -34.8603    1.0000 </r>
       <r>  -12.4112    1.0000 </r>
       <r>  -12.3553    1.0000 </r>
       <r>  -12.0587    1.0000 </r>
       <r>  -11.9962    1.0000 </r>
       <r>   -5.4306    1.0000 </r>
       <r>   -5.3531    1.0000 </r>
       <r>   -4.4889    1.0000 </r>
       <r>   -4.3638    1.0000 </r>
       <r>   -3.9980    1.0000 </r>
       <r>   -3.7705    1.0000 </r>
       <r>   -3.0034    1.0000 </r>
       <r>   -2.9942    1.0000 </r>
       <r>   -2.0023    1.0000 </r>
       <r>   -1.5803    1.0000 </r>
       <r>   -1.1894    1.0000 </r>
       <r>   -1.1705    1.0000 </r>
       <r>   -0.9512    1.0000 </r>
       <r>   -0.7889    1.0000 </r>
       <r>    2.1040   -0.0000 </r>
       <r>    2.1185   -0.0000 </r>
       <r>    2.2993   -0.0000 </r>
       <r>    2.5060   -0.0000 </r>
       <r>    3.4623    0.0000 </r>
       <r>    3.7799    0.0000 </r>
       <r>    4.0631    0.0000 </r>
       <r>    4.1178    0.0000 </r>
       <r>    6.7120    0.0000 </r>
       <r>    7.2437    0.0000 </r>
       <r>    7.5718    0.0000 </r>
       <r>    7.9665    0.0000 </r>
      </set>
      <set comment="kpoint 7">
       <r>  -35.1440    1.0000 </r>
       <r>  -35.1422    1.0000 </r>
       <r>  -34.9097    1.0000 </r>
       <r>  -34.9077    1.0000 </r>
       <r>  -34.8714    1.0000 </r>
       <r>  -34.8695    1.0000 </r>
       <r>  -12.1564    1.0000 </r>
       <r>  -12.1018    1.0000 </r>
       <r>  -11.9574    1.0000 </r>
       <r>  -11.9018    1.0000 </r>
       <r>   -5.6728    1.0000 </r>
       <r>   -5.6032    1.0000 </r>
       <r>   -4.7405    1.0000 </r>
       <r>   -4.6285    1.0000 </r>
       <r>   -4.0993    1.0000 </r>
       <r>   -3.8844    1.0000 </r>
       <r>   -3.1394    1.0000 </r>
       <r>   -3.1301    1.0000 </r>
       <r>   -2.1098    1.0000 </r>
       <r>   -1.6895    1.0000 </r>
       <r>   -1.0245    1.0000 </r>
       <r>   -1.0008    1.0000 </r>
       <r>   -0.7442    1.0000 </r>
       <r>   -0.5458    1.0000 </r>
       <r>    2.1333   -0.0000 </r>
       <r>    2.1408   -0.0000 </r>
       <r>    2.5544   -0.0000 </r>
       <r>    2.6573   -0.0000 </r>
       <r>    3.6567    0.0000 </r>
       <r>    3.9875    0.0000 </r>
       <r>    4.1470    0.0000 </r>
       <r>    4.2071    0.0000 </r>
       <r>    5.9246    0.0000 </r>
       <r>    6.6092    0.0000 </r>
       <r>    7.8455    0.0000 </r>
       <r>    8.1215    0.0000 </r>
      </set>
      <set comment="kpoint 8">
       <r>  -34.9766    1.0000 </r>
       <r>  -34.9746    1.0000 </r>
       <r>  -34.8099    1.0000 </r>
       <r>  -34.8081    1.0000 </r>
       <r>  -34.7936    1.0000 </r>
       <r>  -34.7916    1.0000 </r>
       <r>  -13.8814    1.0000 </r>
       <r>  -13.8214    1.0000 </r>
       <r>  -12.6671    1.0000 </r>
       <r>  -12.5694    1.0000 </r>
       <r>   -5.5913    1.0000 </r>
       <r>   -5.2831    1.0000 </r>
       <r>   -2.7997    1.0000 </r>
       <r>   -2.7923    1.0000 </r>
       <r>   -2.5207    1.0000 </r>
       <r>   -2.5158    1.0000 </r>
       <r>   -2.4691    1.0000 </r>
       <r>   -2.0565    1.0000 </r>
       <r>   -1.6580    1.0000 </r>
       <r>   -1.6488    1.0000 </r>
       <r>   -1.3694    1.0000 </r>
       <r>   -1.0448    1.0000 </r>
       <r>   -0.2458    1.0000 </r>
       <r>    0.1801    1.0325 </r>
       <r>    2.5672   -0.0000 </r>
       <r>    2.6208   -0.0000 </r>
       <r>    2.6423   -0.0000 </r>
       <r>    2.7441   -0.0000 </r>
       <r>    2.7755   -0.0000 </r>
       <r>    2.8207   -0.0000 </r>
       <r>    2.8521   -0.0000 </r>
       <r>    2.8821   -0.0000 </r>
       <r>    5.1961    0.0000 </r>
       <r>    5.7612    0.0000 </r>
       <r>    6.5838    0.0000 </r>
       <r>    6.9422    0.0000 </r>
      </set>
      <set comment="kpoint 9">
       <r>  -34.9689    1.0000 </r>
       <r>  -34.9668    1.0000 </r>
       <r>  -34.8488    1.0000 </r>
       <r>  -34.8471    1.0000 </r>
       <r>  -34.8037    1.0000 </r>
       <r>  -34.8017    1.0000 </r>
       <r>  -13.7140    1.0000 </r>
       <r>  -13.6540    1.0000 </r>
       <r>  -12.5963    1.0000 </r>
       <r>  -12.5026    1.0000 </r>
       <r>   -5.4104    1.0000 </r>
       <r>   -5.1038    1.0000 </r>
       <r>   -3.1176    1.0000 </r>
       <r>   -3.1022    1.0000 </r>
       <r>   -2.8008    1.0000 </r>
       <r>   -2.4721    1.0000 </r>
       <r>   -2.3530    1.0000 </r>
       <r>   -2.3471    1.0000 </r>
       <r>   -1.9747    1.0000 </r>
       <r>   -1.9586    1.0000 </r>
       <r>   -1.2268    1.0000 </r>
       <r>   -0.8548    1.0000 </r>
       <r>   -0.3215    1.0000 </r>
       <r>    0.0138    1.0003 </r>
       <r>    2.2680   -0.0000 </r>
       <r>    2.4315   -0.0000 </r>
       <r>    2.4566   -0.0000 </r>
       <r>    2.5842   -0.0000 </r>
       <r>    2.6115   -0.0000 </r>
       <r>    2.6627   -0.0000 </r>
       <r>    3.1222    0.0000 </r>
       <r>    3.1638    0.0000 </r>
       <r>    5.4331    0.0000 </r>
       <r>    6.0029    0.0000 </r>
       <r>    7.0079    0.0000 </r>
       <r>    7.5950    0.0000 </r>
      </set>
      <set comment="kpoint 10">
       <r>  -34.9551    1.0000 </r>
       <r>  -34.9531    1.0000 </r>
       <r>  -34.9164    1.0000 </r>
       <r>  -34.9147    1.0000 </r>
       <r>  -34.8221    1.0000 </r>
       <r>  -34.8202    1.0000 </r>
       <r>  -13.4021    1.0000 </r>
       <r>  -13.3424    1.0000 </r>
       <r>  -12.4648    1.0000 </r>
       <r>  -12.3784    1.0000 </r>
       <r>   -5.1310    1.0000 </r>
       <r>   -4.8460    1.0000 </r>
       <r>   -3.5725    1.0000 </r>
       <r>   -3.5230    1.0000 </r>
       <r>   -3.2311    1.0000 </r>
       <r>   -2.9932    1.0000 </r>
       <r>   -2.4681    1.0000 </r>
       <r>   -2.4259    1.0000 </r>
       <r>   -2.0703    1.0000 </r>
       <r>   -2.0615    1.0000 </r>
       <r>   -1.2249    1.0000 </r>
       <r>   -0.8517    1.0000 </r>
       <r>   -0.5536    1.0000 </r>
       <r>   -0.3468    1.0000 </r>
       <r>    1.9365   -0.0000 </r>
       <r>    2.2018   -0.0000 </r>
       <r>    2.3821   -0.0000 </r>
       <r>    2.4419   -0.0000 </r>
       <r>    2.4622   -0.0000 </r>
       <r>    2.6505   -0.0000 </r>
       <r>    3.5205    0.0000 </r>
       <r>    3.5871    0.0000 </r>
       <r>    5.8831    0.0000 </r>
       <r>    6.4346    0.0000 </r>
       <r>    7.2702    0.0000 </r>
       <r>    8.3643    0.0000 </r>
      </set>
      <set comment="kpoint 11">
       <r>  -34.9968    1.0000 </r>
       <r>  -34.9950    1.0000 </r>
       <r>  -34.9385    1.0000 </r>
       <r>  -34.9365    1.0000 </r>
       <r>  -34.8445    1.0000 </r>
       <r>  -34.8426    1.0000 </r>
       <r>  -12.9933    1.0000 </r>
       <r>  -12.9346    1.0000 </r>
       <r>  -12.2935    1.0000 </r>
       <r>  -12.2168    1.0000 </r>
       <r>   -5.0003    1.0000 </r>
       <r>   -4.8198    1.0000 </r>
       <r>   -3.9026    1.0000 </r>
       <r>   -3.7342    1.0000 </r>
       <r>   -3.7236    1.0000 </r>
       <r>   -3.5787    1.0000 </r>
       <r>   -2.8649    1.0000 </r>
       <r>   -2.7870    1.0000 </r>
       <r>   -1.7922    1.0000 </r>
       <r>   -1.7743    1.0000 </r>
       <r>   -1.4480    1.0000 </r>
       <r>   -1.0857    1.0000 </r>
       <r>   -0.8559    1.0000 </r>
       <r>   -0.7324    1.0000 </r>
       <r>    1.8389   -0.0000 </r>
       <r>    2.0821   -0.0000 </r>
       <r>    2.2680   -0.0000 </r>
       <r>    2.3900   -0.0000 </r>
       <r>    2.7375   -0.0000 </r>
       <r>    2.9717   -0.0000 </r>
       <r>    3.8629    0.0000 </r>
       <r>    3.9605    0.0000 </r>
       <r>    6.5166    0.0000 </r>
       <r>    7.0068    0.0000 </r>
       <r>    7.8444    0.0000 </r>
       <r>    8.3472    0.0000 </r>
      </set>
      <set comment="kpoint 12">
       <r>  -35.0714    1.0000 </r>
       <r>  -35.0696    1.0000 </r>
       <r>  -34.9228    1.0000 </r>
       <r>  -34.9208    1.0000 </r>
       <r>  -34.8655    1.0000 </r>
       <r>  -34.8636    1.0000 </r>
       <r>  -12.5643    1.0000 </r>
       <r>  -12.5075    1.0000 </r>
       <r>  -12.1166    1.0000 </r>
       <r>  -12.0502    1.0000 </r>
       <r>   -5.2186    1.0000 </r>
       <r>   -5.1273    1.0000 </r>
       <r>   -4.3020    1.0000 </r>
       <r>   -4.1868    1.0000 </r>
       <r>   -3.9211    1.0000 </r>
       <r>   -3.6900    1.0000 </r>
       <r>   -3.0773    1.0000 </r>
       <r>   -3.0003    1.0000 </r>
       <r>   -1.7736    1.0000 </r>
       <r>   -1.6231    1.0000 </r>
       <r>   -1.6061    1.0000 </r>
       <r>   -1.3691    1.0000 </r>
       <r>   -0.8790    1.0000 </r>
       <r>   -0.7853    1.0000 </r>
       <r>    1.9528   -0.0000 </r>
       <r>    2.1148   -0.0000 </r>
       <r>    2.3122   -0.0000 </r>
       <r>    2.4492   -0.0000 </r>
       <r>    3.1557    0.0000 </r>
       <r>    3.3997    0.0000 </r>
       <r>    4.0513    0.0000 </r>
       <r>    4.1876    0.0000 </r>
       <r>    7.1911    0.0000 </r>
       <r>    7.4083    0.0000 </r>
       <r>    7.5845    0.0000 </r>
       <r>    8.1335    0.0000 </r>
      </set>
      <set comment="kpoint 13">
       <r>  -35.1238    1.0000 </r>
       <r>  -35.1220    1.0000 </r>
       <r>  -34.9117    1.0000 </r>
       <r>  -34.9096    1.0000 </r>
       <r>  -34.8803    1.0000 </r>
       <r>  -34.8785    1.0000 </r>
       <r>  -12.2248    1.0000 </r>
       <r>  -12.1699    1.0000 </r>
       <r>  -11.9789    1.0000 </r>
       <r>  -11.9212    1.0000 </r>
       <r>   -5.5027    1.0000 </r>
       <r>   -5.4319    1.0000 </r>
       <r>   -4.6881    1.0000 </r>
       <r>   -4.5923    1.0000 </r>
       <r>   -4.0255    1.0000 </r>
       <r>   -3.8000    1.0000 </r>
       <r>   -3.1637    1.0000 </r>
       <r>   -3.1070    1.0000 </r>
       <r>   -2.0069    1.0000 </r>
       <r>   -1.6292    1.0000 </r>
       <r>   -1.5039    1.0000 </r>
       <r>   -1.4157    1.0000 </r>
       <r>   -0.6706    1.0000 </r>
       <r>   -0.5562    1.0000 </r>
       <r>    2.1043   -0.0000 </r>
       <r>    2.1784   -0.0000 </r>
       <r>    2.4919   -0.0000 </r>
       <r>    2.6061   -0.0000 </r>
       <r>    3.5447    0.0000 </r>
       <r>    3.7700    0.0000 </r>
       <r>    4.0430    0.0000 </r>
       <r>    4.2283    0.0000 </r>
       <r>    6.3364    0.0000 </r>
       <r>    7.0037    0.0000 </r>
       <r>    7.9976    0.0000 </r>
       <r>    8.2073    0.0000 </r>
      </set>
      <set comment="kpoint 14">
       <r>  -35.1426    1.0000 </r>
       <r>  -35.1408    1.0000 </r>
       <r>  -34.9077    1.0000 </r>
       <r>  -34.9056    1.0000 </r>
       <r>  -34.8857    1.0000 </r>
       <r>  -34.8839    1.0000 </r>
       <r>  -12.0937    1.0000 </r>
       <r>  -12.0392    1.0000 </r>
       <r>  -11.9254    1.0000 </r>
       <r>  -11.8716    1.0000 </r>
       <r>   -5.6213    1.0000 </r>
       <r>   -5.5527    1.0000 </r>
       <r>   -4.8309    1.0000 </r>
       <r>   -4.7391    1.0000 </r>
       <r>   -4.0921    1.0000 </r>
       <r>   -3.8764    1.0000 </r>
       <r>   -3.1833    1.0000 </r>
       <r>   -3.1380    1.0000 </r>
       <r>   -2.0979    1.0000 </r>
       <r>   -1.7044    1.0000 </r>
       <r>   -1.4410    1.0000 </r>
       <r>   -1.3522    1.0000 </r>
       <r>   -0.5420    1.0000 </r>
       <r>   -0.4076    1.0000 </r>
       <r>    2.1422   -0.0000 </r>
       <r>    2.1766   -0.0000 </r>
       <r>    2.6394   -0.0000 </r>
       <r>    2.7272   -0.0000 </r>
       <r>    3.7961    0.0000 </r>
       <r>    3.8972    0.0000 </r>
       <r>    3.9794    0.0000 </r>
       <r>    4.1533    0.0000 </r>
       <r>    5.8990    0.0000 </r>
       <r>    6.6265    0.0000 </r>
       <r>    8.2600    0.0000 </r>
       <r>    8.4630    0.0000 </r>
      </set>
      <set comment="kpoint 15">
       <r>  -35.1238    1.0000 </r>
       <r>  -35.1220    1.0000 </r>
       <r>  -34.9117    1.0000 </r>
       <r>  -34.9096    1.0000 </r>
       <r>  -34.8803    1.0000 </r>
       <r>  -34.8785    1.0000 </r>
       <r>  -12.2248    1.0000 </r>
       <r>  -12.1699    1.0000 </r>
       <r>  -11.9789    1.0000 </r>
       <r>  -11.9212    1.0000 </r>
       <r>   -5.5027    1.0000 </r>
       <r>   -5.4319    1.0000 </r>
       <r>   -4.6881    1.0000 </r>
       <r>   -4.5923    1.0000 </r>
       <r>   -4.0255    1.0000 </r>
       <r>   -3.8000    1.0000 </r>
       <r>   -3.1637    1.0000 </r>
       <r>   -3.1070    1.0000 </r>
       <r>   -2.0069    1.0000 </r>
       <r>   -1.6292    1.0000 </r>
       <r>   -1.5039    1.0000 </r>
       <r>   -1.4158    1.0000 </r>
       <r>   -0.6706    1.0000 </r>
       <r>   -0.5561    1.0000 </r>
       <r>    2.1043   -0.0000 </r>
       <r>    2.1784   -0.0000 </r>
       <r>    2.4919   -0.0000 </r>
       <r>    2.6060   -0.0000 </r>
       <r>    3.5448    0.0000 </r>
       <r>    3.7701    0.0000 </r>
       <r>    4.0428    0.0000 </r>
       <r>    4.2283    0.0000 </r>
       <r>    6.3366    0.0000 </r>
       <r>    7.0036    0.0000 </r>
       <r>    8.0431    0.0000 </r>
       <r>    8.2556    0.0000 </r>
      </set>
      <set comment="kpoint 16">
       <r>  -35.0715    1.0000 </r>
       <r>  -35.0696    1.0000 </r>
       <r>  -34.9228    1.0000 </r>
       <r>  -34.9208    1.0000 </r>
       <r>  -34.8655    1.0000 </r>
       <r>  -34.8637    1.0000 </r>
       <r>  -12.5643    1.0000 </r>
       <r>  -12.5075    1.0000 </r>
       <r>  -12.1166    1.0000 </r>
       <r>  -12.0502    1.0000 </r>
       <r>   -5.2186    1.0000 </r>
       <r>   -5.1273    1.0000 </r>
       <r>   -4.3020    1.0000 </r>
       <r>   -4.1868    1.0000 </r>
       <r>   -3.9211    1.0000 </r>
       <r>   -3.6900    1.0000 </r>
       <r>   -3.0774    1.0000 </r>
       <r>   -3.0003    1.0000 </r>
       <r>   -1.7736    1.0000 </r>
       <r>   -1.6230    1.0000 </r>
       <r>   -1.6061    1.0000 </r>
       <r>   -1.3691    1.0000 </r>
       <r>   -0.8791    1.0000 </r>
       <r>   -0.7852    1.0000 </r>
       <r>    1.9528   -0.0000 </r>
       <r>    2.1149   -0.0000 </r>
       <r>    2.3121   -0.0000 </r>
       <r>    2.4491   -0.0000 </r>
       <r>    3.1558    0.0000 </r>
       <r>    3.3997    0.0000 </r>
       <r>    4.0511    0.0000 </r>
       <r>    4.1876    0.0000 </r>
       <r>    7.1935    0.0000 </r>
       <r>    7.4034    0.0000 </r>
       <r>    7.5925    0.0000 </r>
       <r>    8.1379    0.0000 </r>
      </set>
      <set comment="kpoint 17">
       <r>  -34.9968    1.0000 </r>
       <r>  -34.9949    1.0000 </r>
       <r>  -34.9385    1.0000 </r>
       <r>  -34.9365    1.0000 </r>
       <r>  -34.8444    1.0000 </r>
       <r>  -34.8427    1.0000 </r>
       <r>  -12.9933    1.0000 </r>
       <r>  -12.9346    1.0000 </r>
       <r>  -12.2935    1.0000 </r>
       <r>  -12.2168    1.0000 </r>
       <r>   -5.0003    1.0000 </r>
       <r>   -4.8198    1.0000 </r>
       <r>   -3.9026    1.0000 </r>
       <r>   -3.7342    1.0000 </r>
       <r>   -3.7236    1.0000 </r>
       <r>   -3.5787    1.0000 </r>
       <r>   -2.8649    1.0000 </r>
       <r>   -2.7870    1.0000 </r>
       <r>   -1.7922    1.0000 </r>
       <r>   -1.7742    1.0000 </r>
       <r>   -1.4480    1.0000 </r>
       <r>   -1.0856    1.0000 </r>
       <r>   -0.8559    1.0000 </r>
       <r>   -0.7324    1.0000 </r>
       <r>    1.8390   -0.0000 </r>
       <r>    2.0822   -0.0000 </r>
       <r>    2.2678   -0.0000 </r>
       <r>    2.3900   -0.0000 </r>
       <r>    2.7376   -0.0000 </r>
       <r>    2.9717   -0.0000 </r>
       <r>    3.8628    0.0000 </r>
       <r>    3.9605    0.0000 </r>
       <r>    6.5160    0.0000 </r>
       <r>    7.0066    0.0000 </r>
       <r>    7.8209    0.0000 </r>
       <r>    8.4481    0.0000 </r>
      </set>
      <set comment="kpoint 18">
       <r>  -34.9551    1.0000 </r>
       <r>  -34.9531    1.0000 </r>
       <r>  -34.9165    1.0000 </r>
       <r>  -34.9146    1.0000 </r>
       <r>  -34.8220    1.0000 </r>
       <r>  -34.8203    1.0000 </r>
       <r>  -13.4021    1.0000 </r>
       <r>  -13.3424    1.0000 </r>
       <r>  -12.4648    1.0000 </r>
       <r>  -12.3784    1.0000 </r>
       <r>   -5.1310    1.0000 </r>
       <r>   -4.8460    1.0000 </r>
       <r>   -3.5724    1.0000 </r>
       <r>   -3.5229    1.0000 </r>
       <r>   -3.2311    1.0000 </r>
       <r>   -2.9932    1.0000 </r>
       <r>   -2.4681    1.0000 </r>
       <r>   -2.4259    1.0000 </r>
       <r>   -2.0703    1.0000 </r>
       <r>   -2.0615    1.0000 </r>
       <r>   -1.2249    1.0000 </r>
       <r>   -0.8517    1.0000 </r>
       <r>   -0.5536    1.0000 </r>
       <r>   -0.3468    1.0000 </r>
       <r>    1.9365   -0.0000 </r>
       <r>    2.2018   -0.0000 </r>
       <r>    2.3819   -0.0000 </r>
       <r>    2.4426   -0.0000 </r>
       <r>    2.4616   -0.0000 </r>
       <r>    2.6505   -0.0000 </r>
       <r>    3.5204    0.0000 </r>
       <r>    3.5871    0.0000 </r>
       <r>    5.8897    0.0000 </r>
       <r>    6.4344    0.0000 </r>
       <r>    7.2548    0.0000 </r>
       <r>    8.2539    0.0000 </r>
      </set>
      <set comment="kpoint 19">
       <r>  -34.9689    1.0000 </r>
       <r>  -34.9668    1.0000 </r>
       <r>  -34.8490    1.0000 </r>
       <r>  -34.8470    1.0000 </r>
       <r>  -34.8035    1.0000 </r>
       <r>  -34.8018    1.0000 </r>
       <r>  -13.7140    1.0000 </r>
       <r>  -13.6540    1.0000 </r>
       <r>  -12.5963    1.0000 </r>
       <r>  -12.5026    1.0000 </r>
       <r>   -5.4104    1.0000 </r>
       <r>   -5.1038    1.0000 </r>
       <r>   -3.1175    1.0000 </r>
       <r>   -3.1022    1.0000 </r>
       <r>   -2.8008    1.0000 </r>
       <r>   -2.4721    1.0000 </r>
       <r>   -2.3531    1.0000 </r>
       <r>   -2.3471    1.0000 </r>
       <r>   -1.9747    1.0000 </r>
       <r>   -1.9586    1.0000 </r>
       <r>   -1.2268    1.0000 </r>
       <r>   -0.8548    1.0000 </r>
       <r>   -0.3215    1.0000 </r>
       <r>    0.0139    1.0003 </r>
       <r>    2.2680   -0.0000 </r>
       <r>    2.4317   -0.0000 </r>
       <r>    2.4565   -0.0000 </r>
       <r>    2.5842   -0.0000 </r>
       <r>    2.6115   -0.0000 </r>
       <r>    2.6626   -0.0000 </r>
       <r>    3.1221    0.0000 </r>
       <r>    3.1638    0.0000 </r>
       <r>    5.4323    0.0000 </r>
       <r>    6.0022    0.0000 </r>
       <r>    6.9701    0.0000 </r>
       <r>    7.5829    0.0000 </r>
      </set>
      <set comment="kpoint 20">
       <r>  -34.9766    1.0000 </r>
       <r>  -34.9746    1.0000 </r>
       <r>  -34.8100    1.0000 </r>
       <r>  -34.8080    1.0000 </r>
       <r>  -34.7935    1.0000 </r>
       <r>  -34.7917    1.0000 </r>
       <r>  -13.8814    1.0000 </r>
       <r>  -13.8214    1.0000 </r>
       <r>  -12.6671    1.0000 </r>
       <r>  -12.5694    1.0000 </r>
       <r>   -5.5913    1.0000 </r>
       <r>   -5.2831    1.0000 </r>
       <r>   -2.7997    1.0000 </r>
       <r>   -2.7923    1.0000 </r>
       <r>   -2.5207    1.0000 </r>
       <r>   -2.5158    1.0000 </r>
       <r>   -2.4691    1.0000 </r>
       <r>   -2.0565    1.0000 </r>
       <r>   -1.6580    1.0000 </r>
       <r>   -1.6488    1.0000 </r>
       <r>   -1.3694    1.0000 </r>
       <r>   -1.0447    1.0000 </r>
       <r>   -0.2458    1.0000 </r>
       <r>    0.1802    1.0325 </r>
       <r>    2.5672   -0.0000 </r>
       <r>    2.6208   -0.0000 </r>
       <r>    2.6425   -0.0000 </r>
       <r>    2.7440   -0.0000 </r>
       <r>    2.7756   -0.0000 </r>
       <r>    2.8205   -0.0000 </r>
       <r>    2.8521   -0.0000 </r>
       <r>    2.8821   -0.0000 </r>
       <r>    5.1959    0.0000 </r>
       <r>    5.7610    0.0000 </r>
       <r>    6.5773    0.0000 </r>
       <r>    6.9432    0.0000 </r>
      </set>
      <set comment="kpoint 21">
       <r>  -34.9652    1.0000 </r>
       <r>  -34.9632    1.0000 </r>
       <r>  -34.8683    1.0000 </r>
       <r>  -34.8666    1.0000 </r>
       <r>  -34.8070    1.0000 </r>
       <r>  -34.8050    1.0000 </r>
       <r>  -13.6332    1.0000 </r>
       <r>  -13.5734    1.0000 </r>
       <r>  -12.5622    1.0000 </r>
       <r>  -12.4706    1.0000 </r>
       <r>   -5.3318    1.0000 </r>
       <r>   -5.0289    1.0000 </r>
       <r>   -3.2573    1.0000 </r>
       <r>   -3.2347    1.0000 </r>
       <r>   -2.9607    1.0000 </r>
       <r>   -2.6737    1.0000 </r>
       <r>   -2.2662    1.0000 </r>
       <r>   -2.2592    1.0000 </r>
       <r>   -1.9937    1.0000 </r>
       <r>   -1.9833    1.0000 </r>
       <r>   -1.3030    1.0000 </r>
       <r>   -0.9059    1.0000 </r>
       <r>   -0.3773    1.0000 </r>
       <r>   -0.0876    1.0000 </r>
       <r>    2.1592   -0.0000 </r>
       <r>    2.3753   -0.0000 </r>
       <r>    2.4929   -0.0000 </r>
       <r>    2.5520   -0.0000 </r>
       <r>    2.5964   -0.0000 </r>
       <r>    2.6482   -0.0000 </r>
       <r>    3.1921    0.0000 </r>
       <r>    3.2308    0.0000 </r>
       <r>    5.5417    0.0000 </r>
       <r>    6.1104    0.0000 </r>
       <r>    7.0193    0.0000 </r>
       <r>    7.8375    0.0000 </r>
      </set>
      <set comment="kpoint 22">
       <r>  -34.9551    1.0000 </r>
       <r>  -34.9531    1.0000 </r>
       <r>  -34.9164    1.0000 </r>
       <r>  -34.9147    1.0000 </r>
       <r>  -34.8222    1.0000 </r>
       <r>  -34.8202    1.0000 </r>
       <r>  -13.4020    1.0000 </r>
       <r>  -13.3424    1.0000 </r>
       <r>  -12.4646    1.0000 </r>
       <r>  -12.3785    1.0000 </r>
       <r>   -5.1309    1.0000 </r>
       <r>   -4.8461    1.0000 </r>
       <r>   -3.5718    1.0000 </r>
       <r>   -3.5237    1.0000 </r>
       <r>   -3.2310    1.0000 </r>
       <r>   -2.9935    1.0000 </r>
       <r>   -2.4686    1.0000 </r>
       <r>   -2.4252    1.0000 </r>
       <r>   -2.0709    1.0000 </r>
       <r>   -2.0609    1.0000 </r>
       <r>   -1.2215    1.0000 </r>
       <r>   -0.8540    1.0000 </r>
       <r>   -0.5530    1.0000 </r>
       <r>   -0.3507    1.0000 </r>
       <r>    1.9391   -0.0000 </r>
       <r>    2.2019   -0.0000 </r>
       <r>    2.3806   -0.0000 </r>
       <r>    2.4475   -0.0000 </r>
       <r>    2.4587   -0.0000 </r>
       <r>    2.6497   -0.0000 </r>
       <r>    3.5183    0.0000 </r>
       <r>    3.5892    0.0000 </r>
       <r>    5.8840    0.0000 </r>
       <r>    6.4342    0.0000 </r>
       <r>    7.2694    0.0000 </r>
       <r>    8.2411    0.0000 </r>
      </set>
      <set comment="kpoint 23">
       <r>  -34.9785    1.0000 </r>
       <r>  -34.9768    1.0000 </r>
       <r>  -34.9409    1.0000 </r>
       <r>  -34.9388    1.0000 </r>
       <r>  -34.8485    1.0000 </r>
       <r>  -34.8465    1.0000 </r>
       <r>  -13.0542    1.0000 </r>
       <r>  -12.9955    1.0000 </r>
       <r>  -12.3175    1.0000 </r>
       <r>  -12.2396    1.0000 </r>
       <r>   -4.9533    1.0000 </r>
       <r>   -4.7443    1.0000 </r>
       <r>   -3.8357    1.0000 </r>
       <r>   -3.7010    1.0000 </r>
       <r>   -3.5214    1.0000 </r>
       <r>   -3.3892    1.0000 </r>
       <r>   -3.1035    1.0000 </r>
       <r>   -2.9737    1.0000 </r>
       <r>   -1.9445    1.0000 </r>
       <r>   -1.9254    1.0000 </r>
       <r>   -1.2103    1.0000 </r>
       <r>   -0.8910    1.0000 </r>
       <r>   -0.7869    1.0000 </r>
       <r>   -0.6594    1.0000 </r>
       <r>    1.7466   -0.0000 </r>
       <r>    2.0078   -0.0000 </r>
       <r>    2.3102   -0.0000 </r>
       <r>    2.4278   -0.0000 </r>
       <r>    2.5085   -0.0000 </r>
       <r>    2.7271   -0.0000 </r>
       <r>    3.8999    0.0000 </r>
       <r>    4.0227    0.0000 </r>
       <r>    6.4286    0.0000 </r>
       <r>    6.9404    0.0000 </r>
       <r>    7.7716    0.0000 </r>
       <r>    8.6585    0.0000 </r>
      </set>
      <set comment="kpoint 24">
       <r>  -35.0413    1.0000 </r>
       <r>  -35.0396    1.0000 </r>
       <r>  -34.9257    1.0000 </r>
       <r>  -34.9237    1.0000 </r>
       <r>  -34.8788    1.0000 </r>
       <r>  -34.8769    1.0000 </r>
       <r>  -12.6496    1.0000 </r>
       <r>  -12.5925    1.0000 </r>
       <r>  -12.1463    1.0000 </r>
       <r>  -12.0779    1.0000 </r>
       <r>   -5.0229    1.0000 </r>
       <r>   -4.9134    1.0000 </r>
       <r>   -4.1018    1.0000 </r>
       <r>   -4.0349    1.0000 </r>
       <r>   -3.8425    1.0000 </r>
       <r>   -3.6081    1.0000 </r>
       <r>   -3.3163    1.0000 </r>
       <r>   -3.1426    1.0000 </r>
       <r>   -2.0771    1.0000 </r>
       <r>   -2.0421    1.0000 </r>
       <r>   -1.4260    1.0000 </r>
       <r>   -1.1072    1.0000 </r>
       <r>   -0.8419    1.0000 </r>
       <r>   -0.7824    1.0000 </r>
       <r>    1.7802   -0.0000 </r>
       <r>    2.0591   -0.0000 </r>
       <r>    2.3833   -0.0000 </r>
       <r>    2.4662   -0.0000 </r>
       <r>    2.7671   -0.0000 </r>
       <r>    2.9889   -0.0000 </r>
       <r>    4.1422    0.0000 </r>
       <r>    4.3171    0.0000 </r>
       <r>    7.1250    0.0000 </r>
       <r>    7.5511    0.0000 </r>
       <r>    8.0018    0.0000 </r>
       <r>    8.5114    0.0000 </r>
      </set>
      <set comment="kpoint 25">
       <r>  -35.0920    1.0000 </r>
       <r>  -35.0902    1.0000 </r>
       <r>  -34.9131    1.0000 </r>
       <r>  -34.9111    1.0000 </r>
       <r>  -34.9047    1.0000 </r>
       <r>  -34.9028    1.0000 </r>
       <r>  -12.2779    1.0000 </r>
       <r>  -12.2229    1.0000 </r>
       <r>  -11.9892    1.0000 </r>
       <r>  -11.9299    1.0000 </r>
       <r>   -5.2239    1.0000 </r>
       <r>   -5.1493    1.0000 </r>
       <r>   -4.6450    1.0000 </r>
       <r>   -4.5876    1.0000 </r>
       <r>   -3.8721    1.0000 </r>
       <r>   -3.6250    1.0000 </r>
       <r>   -3.2872    1.0000 </r>
       <r>   -3.1415    1.0000 </r>
       <r>   -2.2266    1.0000 </r>
       <r>   -2.1537    1.0000 </r>
       <r>   -1.7613    1.0000 </r>
       <r>   -1.4343    1.0000 </r>
       <r>   -0.6703    1.0000 </r>
       <r>   -0.6152    1.0000 </r>
       <r>    2.0082   -0.0000 </r>
       <r>    2.2306   -0.0000 </r>
       <r>    2.5063   -0.0000 </r>
       <r>    2.5679   -0.0000 </r>
       <r>    3.1108    0.0000 </r>
       <r>    3.3171    0.0000 </r>
       <r>    4.2010    0.0000 </r>
       <r>    4.4314    0.0000 </r>
       <r>    6.9655    0.0000 </r>
       <r>    7.5743    0.0000 </r>
       <r>    8.0429    0.0000 </r>
       <r>    8.4973    0.0000 </r>
      </set>
      <set comment="kpoint 26">
       <r>  -35.1202    1.0000 </r>
       <r>  -35.1184    1.0000 </r>
       <r>  -34.9196    1.0000 </r>
       <r>  -34.9178    1.0000 </r>
       <r>  -34.9059    1.0000 </r>
       <r>  -34.9039    1.0000 </r>
       <r>  -12.0502    1.0000 </r>
       <r>  -11.9962    1.0000 </r>
       <r>  -11.8916    1.0000 </r>
       <r>  -11.8388    1.0000 </r>
       <r>   -5.3574    1.0000 </r>
       <r>   -5.2899    1.0000 </r>
       <r>   -4.9532    1.0000 </r>
       <r>   -4.8963    1.0000 </r>
       <r>   -4.0013    1.0000 </r>
       <r>   -3.7785    1.0000 </r>
       <r>   -3.1988    1.0000 </r>
       <r>   -3.0883    1.0000 </r>
       <r>   -2.2540    1.0000 </r>
       <r>   -2.1382    1.0000 </r>
       <r>   -2.0112    1.0000 </r>
       <r>   -1.6714    1.0000 </r>
       <r>   -0.4469    1.0000 </r>
       <r>   -0.3693    1.0000 </r>
       <r>    2.0609   -0.0000 </r>
       <r>    2.1249   -0.0000 </r>
       <r>    2.7517   -0.0000 </r>
       <r>    2.8873   -0.0000 </r>
       <r>    3.3656    0.0000 </r>
       <r>    3.5459    0.0000 </r>
       <r>    4.1369    0.0000 </r>
       <r>    4.4220    0.0000 </r>
       <r>    6.2362    0.0000 </r>
       <r>    6.9909    0.0000 </r>
       <r>    8.6577    0.0000 </r>
       <r>    8.8241    0.0000 </r>
      </set>
      <set comment="kpoint 27">
       <r>  -35.1202    1.0000 </r>
       <r>  -35.1184    1.0000 </r>
       <r>  -34.9196    1.0000 </r>
       <r>  -34.9178    1.0000 </r>
       <r>  -34.9059    1.0000 </r>
       <r>  -34.9039    1.0000 </r>
       <r>  -12.0502    1.0000 </r>
       <r>  -11.9962    1.0000 </r>
       <r>  -11.8916    1.0000 </r>
       <r>  -11.8388    1.0000 </r>
       <r>   -5.3573    1.0000 </r>
       <r>   -5.2899    1.0000 </r>
       <r>   -4.9532    1.0000 </r>
       <r>   -4.8963    1.0000 </r>
       <r>   -4.0013    1.0000 </r>
       <r>   -3.7785    1.0000 </r>
       <r>   -3.1988    1.0000 </r>
       <r>   -3.0883    1.0000 </r>
       <r>   -2.2541    1.0000 </r>
       <r>   -2.1382    1.0000 </r>
       <r>   -2.0112    1.0000 </r>
       <r>   -1.6714    1.0000 </r>
       <r>   -0.4469    1.0000 </r>
       <r>   -0.3693    1.0000 </r>
       <r>    2.0609   -0.0000 </r>
       <r>    2.1249   -0.0000 </r>
       <r>    2.7517   -0.0000 </r>
       <r>    2.8873   -0.0000 </r>
       <r>    3.3656    0.0000 </r>
       <r>    3.5458    0.0000 </r>
       <r>    4.1369    0.0000 </r>
       <r>    4.4220    0.0000 </r>
       <r>    6.2363    0.0000 </r>
       <r>    6.9907    0.0000 </r>
       <r>    8.6641    0.0000 </r>
       <r>    8.8305    0.0000 </r>
      </set>
      <set comment="kpoint 28">
       <r>  -35.0921    1.0000 </r>
       <r>  -35.0902    1.0000 </r>
       <r>  -34.9131    1.0000 </r>
       <r>  -34.9111    1.0000 </r>
       <r>  -34.9047    1.0000 </r>
       <r>  -34.9029    1.0000 </r>
       <r>  -12.2779    1.0000 </r>
       <r>  -12.2229    1.0000 </r>
       <r>  -11.9892    1.0000 </r>
       <r>  -11.9299    1.0000 </r>
       <r>   -5.2238    1.0000 </r>
       <r>   -5.1493    1.0000 </r>
       <r>   -4.6450    1.0000 </r>
       <r>   -4.5876    1.0000 </r>
       <r>   -3.8721    1.0000 </r>
       <r>   -3.6250    1.0000 </r>
       <r>   -3.2872    1.0000 </r>
       <r>   -3.1415    1.0000 </r>
       <r>   -2.2266    1.0000 </r>
       <r>   -2.1536    1.0000 </r>
       <r>   -1.7613    1.0000 </r>
       <r>   -1.4343    1.0000 </r>
       <r>   -0.6703    1.0000 </r>
       <r>   -0.6151    1.0000 </r>
       <r>    2.0082   -0.0000 </r>
       <r>    2.2305   -0.0000 </r>
       <r>    2.5063   -0.0000 </r>
       <r>    2.5678   -0.0000 </r>
       <r>    3.1110    0.0000 </r>
       <r>    3.3171    0.0000 </r>
       <r>    4.2009    0.0000 </r>
       <r>    4.4314    0.0000 </r>
       <r>    6.9661    0.0000 </r>
       <r>    7.5750    0.0000 </r>
       <r>    8.0869    0.0000 </r>
       <r>    8.4846    0.0000 </r>
      </set>
      <set comment="kpoint 29">
       <r>  -35.0415    1.0000 </r>
       <r>  -35.0395    1.0000 </r>
       <r>  -34.9257    1.0000 </r>
       <r>  -34.9237    1.0000 </r>
       <r>  -34.8787    1.0000 </r>
       <r>  -34.8770    1.0000 </r>
       <r>  -12.6496    1.0000 </r>
       <r>  -12.5925    1.0000 </r>
       <r>  -12.1463    1.0000 </r>
       <r>  -12.0779    1.0000 </r>
       <r>   -5.0229    1.0000 </r>
       <r>   -4.9134    1.0000 </r>
       <r>   -4.1018    1.0000 </r>
       <r>   -4.0348    1.0000 </r>
       <r>   -3.8425    1.0000 </r>
       <r>   -3.6080    1.0000 </r>
       <r>   -3.3164    1.0000 </r>
       <r>   -3.1426    1.0000 </r>
       <r>   -2.0771    1.0000 </r>
       <r>   -2.0421    1.0000 </r>
       <r>   -1.4260    1.0000 </r>
       <r>   -1.1071    1.0000 </r>
       <r>   -0.8421    1.0000 </r>
       <r>   -0.7822    1.0000 </r>
       <r>    1.7802   -0.0000 </r>
       <r>    2.0591   -0.0000 </r>
       <r>    2.3831   -0.0000 </r>
       <r>    2.4662   -0.0000 </r>
       <r>    2.7672   -0.0000 </r>
       <r>    2.9888   -0.0000 </r>
       <r>    4.1420    0.0000 </r>
       <r>    4.3171    0.0000 </r>
       <r>    7.1249    0.0000 </r>
       <r>    7.5509    0.0000 </r>
       <r>    8.0022    0.0000 </r>
       <r>    8.6215    0.0000 </r>
      </set>
      <set comment="kpoint 30">
       <r>  -34.9787    1.0000 </r>
       <r>  -34.9767    1.0000 </r>
       <r>  -34.9409    1.0000 </r>
       <r>  -34.9388    1.0000 </r>
       <r>  -34.8484    1.0000 </r>
       <r>  -34.8466    1.0000 </r>
       <r>  -13.0542    1.0000 </r>
       <r>  -12.9955    1.0000 </r>
       <r>  -12.3175    1.0000 </r>
       <r>  -12.2396    1.0000 </r>
       <r>   -4.9533    1.0000 </r>
       <r>   -4.7443    1.0000 </r>
       <r>   -3.8357    1.0000 </r>
       <r>   -3.7010    1.0000 </r>
       <r>   -3.5213    1.0000 </r>
       <r>   -3.3892    1.0000 </r>
       <r>   -3.1035    1.0000 </r>
       <r>   -2.9737    1.0000 </r>
       <r>   -1.9446    1.0000 </r>
       <r>   -1.9254    1.0000 </r>
       <r>   -1.2102    1.0000 </r>
       <r>   -0.8909    1.0000 </r>
       <r>   -0.7870    1.0000 </r>
       <r>   -0.6593    1.0000 </r>
       <r>    1.7467   -0.0000 </r>
       <r>    2.0078   -0.0000 </r>
       <r>    2.3100   -0.0000 </r>
       <r>    2.4279   -0.0000 </r>
       <r>    2.5085   -0.0000 </r>
       <r>    2.7271   -0.0000 </r>
       <r>    3.8998    0.0000 </r>
       <r>    4.0226    0.0000 </r>
       <r>    6.4284    0.0000 </r>
       <r>    6.9405    0.0000 </r>
       <r>    7.7674    0.0000 </r>
       <r>    8.5425    0.0000 </r>
      </set>
      <set comment="kpoint 31">
       <r>  -34.9551    1.0000 </r>
       <r>  -34.9531    1.0000 </r>
       <r>  -34.9166    1.0000 </r>
       <r>  -34.9146    1.0000 </r>
       <r>  -34.8220    1.0000 </r>
       <r>  -34.8203    1.0000 </r>
       <r>  -13.4020    1.0000 </r>
       <r>  -13.3424    1.0000 </r>
       <r>  -12.4646    1.0000 </r>
       <r>  -12.3785    1.0000 </r>
       <r>   -5.1308    1.0000 </r>
       <r>   -4.8461    1.0000 </r>
       <r>   -3.5718    1.0000 </r>
       <r>   -3.5236    1.0000 </r>
       <r>   -3.2310    1.0000 </r>
       <r>   -2.9935    1.0000 </r>
       <r>   -2.4685    1.0000 </r>
       <r>   -2.4252    1.0000 </r>
       <r>   -2.0709    1.0000 </r>
       <r>   -2.0609    1.0000 </r>
       <r>   -1.2215    1.0000 </r>
       <r>   -0.8539    1.0000 </r>
       <r>   -0.5530    1.0000 </r>
       <r>   -0.3507    1.0000 </r>
       <r>    1.9391   -0.0000 </r>
       <r>    2.2019   -0.0000 </r>
       <r>    2.3805   -0.0000 </r>
       <r>    2.4489   -0.0000 </r>
       <r>    2.4574   -0.0000 </r>
       <r>    2.6496   -0.0000 </r>
       <r>    3.5182    0.0000 </r>
       <r>    3.5892    0.0000 </r>
       <r>    5.8863    0.0000 </r>
       <r>    6.4347    0.0000 </r>
       <r>    7.2549    0.0000 </r>
       <r>    8.1990    0.0000 </r>
      </set>
      <set comment="kpoint 32">
       <r>  -34.9652    1.0000 </r>
       <r>  -34.9632    1.0000 </r>
       <r>  -34.8685    1.0000 </r>
       <r>  -34.8665    1.0000 </r>
       <r>  -34.8069    1.0000 </r>
       <r>  -34.8051    1.0000 </r>
       <r>  -13.6332    1.0000 </r>
       <r>  -13.5734    1.0000 </r>
       <r>  -12.5622    1.0000 </r>
       <r>  -12.4706    1.0000 </r>
       <r>   -5.3318    1.0000 </r>
       <r>   -5.0289    1.0000 </r>
       <r>   -3.2572    1.0000 </r>
       <r>   -3.2347    1.0000 </r>
       <r>   -2.9608    1.0000 </r>
       <r>   -2.6738    1.0000 </r>
       <r>   -2.2662    1.0000 </r>
       <r>   -2.2592    1.0000 </r>
       <r>   -1.9936    1.0000 </r>
       <r>   -1.9833    1.0000 </r>
       <r>   -1.3029    1.0000 </r>
       <r>   -0.9059    1.0000 </r>
       <r>   -0.3773    1.0000 </r>
       <r>   -0.0876    1.0000 </r>
       <r>    2.1592   -0.0000 </r>
       <r>    2.3752   -0.0000 </r>
       <r>    2.4929   -0.0000 </r>
       <r>    2.5520   -0.0000 </r>
       <r>    2.5963   -0.0000 </r>
       <r>    2.6482   -0.0000 </r>
       <r>    3.1921    0.0000 </r>
       <r>    3.2307    0.0000 </r>
       <r>    5.5421    0.0000 </r>
       <r>    6.1106    0.0000 </r>
       <r>    7.0239    0.0000 </r>
       <r>    7.8288    0.0000 </r>
      </set>
      <set comment="kpoint 33">
       <r>  -34.9689    1.0000 </r>
       <r>  -34.9668    1.0000 </r>
       <r>  -34.8489    1.0000 </r>
       <r>  -34.8471    1.0000 </r>
       <r>  -34.8036    1.0000 </r>
       <r>  -34.8017    1.0000 </r>
       <r>  -13.7139    1.0000 </r>
       <r>  -13.6540    1.0000 </r>
       <r>  -12.5962    1.0000 </r>
       <r>  -12.5027    1.0000 </r>
       <r>   -5.4102    1.0000 </r>
       <r>   -5.1040    1.0000 </r>
       <r>   -3.1176    1.0000 </r>
       <r>   -3.1020    1.0000 </r>
       <r>   -2.8012    1.0000 </r>
       <r>   -2.4716    1.0000 </r>
       <r>   -2.3536    1.0000 </r>
       <r>   -2.3466    1.0000 </r>
       <r>   -1.9751    1.0000 </r>
       <r>   -1.9580    1.0000 </r>
       <r>   -1.2240    1.0000 </r>
       <r>   -0.8569    1.0000 </r>
       <r>   -0.3208    1.0000 </r>
       <r>    0.0101    1.0003 </r>
       <r>    2.2738   -0.0000 </r>
       <r>    2.4321   -0.0000 </r>
       <r>    2.4577   -0.0000 </r>
       <r>    2.5796   -0.0000 </r>
       <r>    2.6087   -0.0000 </r>
       <r>    2.6646   -0.0000 </r>
       <r>    3.1189    0.0000 </r>
       <r>    3.1677    0.0000 </r>
       <r>    5.4316    0.0000 </r>
       <r>    6.0020    0.0000 </r>
       <r>    6.9562    0.0000 </r>
       <r>    7.5948    0.0000 </r>
      </set>
      <set comment="kpoint 34">
       <r>  -34.9502    1.0000 </r>
       <r>  -34.9488    1.0000 </r>
       <r>  -34.9483    1.0000 </r>
       <r>  -34.9469    1.0000 </r>
       <r>  -34.8258    1.0000 </r>
       <r>  -34.8239    1.0000 </r>
       <r>  -13.2586    1.0000 </r>
       <r>  -13.1996    1.0000 </r>
       <r>  -12.4048    1.0000 </r>
       <r>  -12.3226    1.0000 </r>
       <r>   -5.0660    1.0000 </r>
       <r>   -4.8141    1.0000 </r>
       <r>   -3.7382    1.0000 </r>
       <r>   -3.6514    1.0000 </r>
       <r>   -3.4867    1.0000 </r>
       <r>   -3.2916    1.0000 </r>
       <r>   -2.3895    1.0000 </r>
       <r>   -2.3778    1.0000 </r>
       <r>   -1.8987    1.0000 </r>
       <r>   -1.8880    1.0000 </r>
       <r>   -1.4906    1.0000 </r>
       <r>   -1.0839    1.0000 </r>
       <r>   -0.6966    1.0000 </r>
       <r>   -0.5340    1.0000 </r>
       <r>    1.9348   -0.0000 </r>
       <r>    2.2519   -0.0000 </r>
       <r>    2.3045   -0.0000 </r>
       <r>    2.3458   -0.0000 </r>
       <r>    2.6871   -0.0000 </r>
       <r>    2.9245   -0.0000 </r>
       <r>    3.5697    0.0000 </r>
       <r>    3.6201    0.0000 </r>
       <r>    6.0930    0.0000 </r>
       <r>    6.6183    0.0000 </r>
       <r>    7.4265    0.0000 </r>
       <r>    8.2173    0.0000 </r>
      </set>
      <set comment="kpoint 35">
       <r>  -34.9967    1.0000 </r>
       <r>  -34.9950    1.0000 </r>
       <r>  -34.9385    1.0000 </r>
       <r>  -34.9365    1.0000 </r>
       <r>  -34.8446    1.0000 </r>
       <r>  -34.8426    1.0000 </r>
       <r>  -12.9930    1.0000 </r>
       <r>  -12.9348    1.0000 </r>
       <r>  -12.2931    1.0000 </r>
       <r>  -12.2173    1.0000 </r>
       <r>   -5.0004    1.0000 </r>
       <r>   -4.8198    1.0000 </r>
       <r>   -3.8997    1.0000 </r>
       <r>   -3.7419    1.0000 </r>
       <r>   -3.7176    1.0000 </r>
       <r>   -3.5796    1.0000 </r>
       <r>   -2.8655    1.0000 </r>
       <r>   -2.7865    1.0000 </r>
       <r>   -1.7934    1.0000 </r>
       <r>   -1.7732    1.0000 </r>
       <r>   -1.4414    1.0000 </r>
       <r>   -1.0905    1.0000 </r>
       <r>   -0.8554    1.0000 </r>
       <r>   -0.7374    1.0000 </r>
       <r>    1.8390   -0.0000 </r>
       <r>    2.0840   -0.0000 </r>
       <r>    2.2671   -0.0000 </r>
       <r>    2.3920   -0.0000 </r>
       <r>    2.7358   -0.0000 </r>
       <r>    2.9739   -0.0000 </r>
       <r>    3.8592    0.0000 </r>
       <r>    3.9633    0.0000 </r>
       <r>    6.5172    0.0000 </r>
       <r>    7.0051    0.0000 </r>
       <r>    7.7930    0.0000 </r>
       <r>    8.2673    0.0000 </r>
      </set>
      <set comment="kpoint 36">
       <r>  -35.0413    1.0000 </r>
       <r>  -35.0396    1.0000 </r>
       <r>  -34.9257    1.0000 </r>
       <r>  -34.9237    1.0000 </r>
       <r>  -34.8788    1.0000 </r>
       <r>  -34.8769    1.0000 </r>
[...]
       <r>    -2.2794     1.7630    18.3007 </r>
       <r>    -2.1177     2.3167    18.6751 </r>
       <r>    -1.9561     4.4540    19.3949 </r>
       <r>    -1.7945     2.2426    19.7573 </r>
       <r>    -1.6329     3.5035    20.3235 </r>
       <r>    -1.4713     2.7460    20.7673 </r>
       <r>    -1.3097     3.2299    21.2892 </r>
       <r>    -1.1481     1.5225    21.5353 </r>
       <r>    -0.9865     1.7400    21.8165 </r>
       <r>    -0.8249     2.7983    22.2687 </r>
       <r>    -0.6633     3.3783    22.8147 </r>
       <r>    -0.5017     2.4673    23.2134 </r>
       <r>    -0.3401     2.4917    23.6161 </r>
       <r>    -0.1785     1.2618    23.8200 </r>
       <r>    -0.0168     0.7008    23.9333 </r>
       <r>     0.1448     0.2115    23.9674 </r>
       <r>     0.3064     0.2056    24.0007 </r>
       <r>     0.4680    -0.0039    24.0000 </r>
       <r>     0.6296    -0.0002    24.0000 </r>
       <r>     0.7912    -0.0000    24.0000 </r>
       <r>     0.9528    -0.0000    24.0000 </r>
       <r>     1.1144    -0.0000    24.0000 </r>
       <r>     1.2760    -0.0000    24.0000 </r>
       <r>     1.4376    -0.0004    23.9999 </r>
       <r>     1.5992    -0.0208    23.9966 </r>
       <r>     1.7608     0.7083    24.1110 </r>
       <r>     1.9225     1.7621    24.3958 </r>
       <r>     2.0841     3.8959    25.0254 </r>
       <r>     2.2457     4.9064    25.8183 </r>
       <r>     2.4073     3.8212    26.4359 </r>
       <r>     2.5689     5.2555    27.2852 </r>
       <r>     2.7305     4.2370    27.9699 </r>
       <r>     2.8921     3.0953    28.4701 </r>
       <r>     3.0537     2.6925    28.9053 </r>
       <r>     3.2153     2.7212    29.3450 </r>
       <r>     3.3769     1.9706    29.6635 </r>
       <r>     3.5385     1.8514    29.9627 </r>
       <r>     3.7001     1.6150    30.2237 </r>
       <r>     3.8618     1.2602    30.4274 </r>
       <r>     4.0234     2.1226    30.7704 </r>
       <r>     4.1850     2.8052    31.2237 </r>
       <r>     4.3466     1.8653    31.5252 </r>
       <r>     4.5082     1.6354    31.7895 </r>
       <r>     4.6698     0.7217    31.9061 </r>
       <r>     4.8314     0.4833    31.9842 </r>
       <r>     4.9930     0.1022    32.0007 </r>
       <r>     5.1546     0.0717    32.0123 </r>
       <r>     5.3162     0.1795    32.0413 </r>
       <r>     5.4778     0.1982    32.0734 </r>
       <r>     5.6394     0.2635    32.1159 </r>
       <r>     5.8010     0.1783    32.1448 </r>
       <r>     5.9627     0.8372    32.2801 </r>
       <r>     6.1243     0.6139    32.3793 </r>
       <r>     6.2859     0.4795    32.4568 </r>
       <r>     6.4475     1.0563    32.6275 </r>
       <r>     6.6091     1.3887    32.8519 </r>
       <r>     6.7707     0.7446    32.9722 </r>
       <r>     6.9323     1.1775    33.1625 </r>
       <r>     7.0939     2.3072    33.5354 </r>
       <r>     7.2555     1.4199    33.7649 </r>
       <r>     7.4171     1.0858    33.9403 </r>
       <r>     7.5787     1.9943    34.2626 </r>
       <r>     7.7403     1.0285    34.4288 </r>
       <r>     7.9020     1.3297    34.6437 </r>
       <r>     8.0636     1.6131    34.9044 </r>
       <r>     8.2252     2.3588    35.2856 </r>
       <r>     8.3868     1.1608    35.4732 </r>
       <r>     8.5484     1.2820    35.6804 </r>
       <r>     8.7100     0.9692    35.8370 </r>
       <r>     8.8716     0.9147    35.9849 </r>
       <r>     9.0332     0.0981    36.0007 </r>
       <r>     9.1948    -0.0043    36.0000 </r>
       <r>     9.3564    -0.0000    36.0000 </r>
       <r>     9.5180    -0.0000    36.0000 </r>
       <r>     9.6796    -0.0000    36.0000 </r>
       <r>     9.8412     0.0000    36.0000 </r>
       <r>    10.0029     0.0000    36.0000 </r>
       <r>    10.1645     0.0000    36.0000 </r>
       <r>    10.3261     0.0000    36.0000 </r>
       <r>    10.4877     0.0000    36.0000 </r>
       <r>    10.6493     0.0000    36.0000 </r>
       <r>    10.8109     0.0000    36.0000 </r>
       <r>    10.9725     0.0000    36.0000 </r>
       <r>    11.1341     0.0000    36.0000 </r>
      </set>
      <set comment="spin 2">
       <r>   -37.3483     0.0000     0.0000 </r>
       <r>   -37.1867     0.0000     0.0000 </r>
       <r>   -37.0251     0.0000     0.0000 </r>
       <r>   -36.8635     0.0000     0.0000 </r>
       <r>   -36.7019     0.0000     0.0000 </r>
       <r>   -36.5403     0.0000     0.0000 </r>
       <r>   -36.3787     0.0000     0.0000 </r>
       <r>   -36.2170     0.0000     0.0000 </r>
       <r>   -36.0554    -0.0000    -0.0000 </r>
       <r>   -35.8938    -0.0000    -0.0000 </r>
       <r>   -35.7322    -0.0000    -0.0000 </r>
       <r>   -35.5706    -0.0000    -0.0000 </r>
       <r>   -35.4090    -0.0009    -0.0001 </r>
       <r>   -35.2474    -0.1939    -0.0315 </r>
       <r>   -35.0858     4.2698     0.6586 </r>
       <r>   -34.9242    15.5351     3.1692 </r>
       <r>   -34.7626    17.5468     6.0049 </r>
       <r>   -34.6010    -0.0042     6.0042 </r>
       <r>   -34.4394    -0.0259     6.0000 </r>
       <r>   -34.2778    -0.0000     6.0000 </r>
       <r>   -34.1161    -0.0000     6.0000 </r>
       <r>   -33.9545     0.0000     6.0000 </r>
       <r>   -33.7929     0.0000     6.0000 </r>
       <r>   -33.6313     0.0000     6.0000 </r>
       <r>   -33.4697     0.0000     6.0000 </r>
       <r>   -33.3081     0.0000     6.0000 </r>
       <r>   -33.1465     0.0000     6.0000 </r>
       <r>   -32.9849     0.0000     6.0000 </r>
       <r>   -32.8233     0.0000     6.0000 </r>
       <r>   -32.6617     0.0000     6.0000 </r>
       <r>   -32.5001     0.0000     6.0000 </r>
       <r>   -32.3385     0.0000     6.0000 </r>
       <r>   -32.1768     0.0000     6.0000 </r>
       <r>   -32.0152     0.0000     6.0000 </r>
       <r>   -31.8536     0.0000     6.0000 </r>
       <r>   -31.6920     0.0000     6.0000 </r>
       <r>   -31.5304     0.0000     6.0000 </r>
       <r>   -31.3688     0.0000     6.0000 </r>
       <r>   -31.2072     0.0000     6.0000 </r>
       <r>   -31.0456     0.0000     6.0000 </r>
       <r>   -30.8840     0.0000     6.0000 </r>
       <r>   -30.7224     0.0000     6.0000 </r>
       <r>   -30.5608     0.0000     6.0000 </r>
       <r>   -30.3992     0.0000     6.0000 </r>
       <r>   -30.2376     0.0000     6.0000 </r>
       <r>   -30.0759     0.0000     6.0000 </r>
       <r>   -29.9143     0.0000     6.0000 </r>
       <r>   -29.7527     0.0000     6.0000 </r>
       <r>   -29.5911     0.0000     6.0000 </r>
       <r>   -29.4295     0.0000     6.0000 </r>
       <r>   -29.2679     0.0000     6.0000 </r>
       <r>   -29.1063     0.0000     6.0000 </r>
       <r>   -28.9447     0.0000     6.0000 </r>
       <r>   -28.7831     0.0000     6.0000 </r>
       <r>   -28.6215     0.0000     6.0000 </r>
       <r>   -28.4599     0.0000     6.0000 </r>
       <r>   -28.2983     0.0000     6.0000 </r>
       <r>   -28.1366     0.0000     6.0000 </r>
       <r>   -27.9750     0.0000     6.0000 </r>
       <r>   -27.8134     0.0000     6.0000 </r>
       <r>   -27.6518     0.0000     6.0000 </r>
       <r>   -27.4902     0.0000     6.0000 </r>
       <r>   -27.3286     0.0000     6.0000 </r>
       <r>   -27.1670     0.0000     6.0000 </r>
       <r>   -27.0054     0.0000     6.0000 </r>
       <r>   -26.8438     0.0000     6.0000 </r>
       <r>   -26.6822     0.0000     6.0000 </r>
       <r>   -26.5206     0.0000     6.0000 </r>
       <r>   -26.3590     0.0000     6.0000 </r>
       <r>   -26.1973     0.0000     6.0000 </r>
       <r>   -26.0357     0.0000     6.0000 </r>
       <r>   -25.8741     0.0000     6.0000 </r>
       <r>   -25.7125     0.0000     6.0000 </r>
       <r>   -25.5509     0.0000     6.0000 </r>
       <r>   -25.3893     0.0000     6.0000 </r>
       <r>   -25.2277     0.0000     6.0000 </r>
       <r>   -25.0661     0.0000     6.0000 </r>
       <r>   -24.9045     0.0000     6.0000 </r>
       <r>   -24.7429     0.0000     6.0000 </r>
       <r>   -24.5813     0.0000     6.0000 </r>
       <r>   -24.4197     0.0000     6.0000 </r>
       <r>   -24.2581     0.0000     6.0000 </r>
       <r>   -24.0964     0.0000     6.0000 </r>
       <r>   -23.9348     0.0000     6.0000 </r>
       <r>   -23.7732     0.0000     6.0000 </r>
       <r>   -23.6116     0.0000     6.0000 </r>
       <r>   -23.4500     0.0000     6.0000 </r>
       <r>   -23.2884     0.0000     6.0000 </r>
       <r>   -23.1268     0.0000     6.0000 </r>
       <r>   -22.9652     0.0000     6.0000 </r>
       <r>   -22.8036     0.0000     6.0000 </r>
       <r>   -22.6420     0.0000     6.0000 </r>
       <r>   -22.4804     0.0000     6.0000 </r>
       <r>   -22.3188     0.0000     6.0000 </r>
       <r>   -22.1571     0.0000     6.0000 </r>
       <r>   -21.9955     0.0000     6.0000 </r>
       <r>   -21.8339     0.0000     6.0000 </r>
       <r>   -21.6723     0.0000     6.0000 </r>
       <r>   -21.5107     0.0000     6.0000 </r>
       <r>   -21.3491     0.0000     6.0000 </r>
       <r>   -21.1875     0.0000     6.0000 </r>
       <r>   -21.0259     0.0000     6.0000 </r>
       <r>   -20.8643     0.0000     6.0000 </r>
       <r>   -20.7027     0.0000     6.0000 </r>
       <r>   -20.5411     0.0000     6.0000 </r>
       <r>   -20.3795     0.0000     6.0000 </r>
       <r>   -20.2179     0.0000     6.0000 </r>
       <r>   -20.0562     0.0000     6.0000 </r>
       <r>   -19.8946     0.0000     6.0000 </r>
       <r>   -19.7330     0.0000     6.0000 </r>
       <r>   -19.5714     0.0000     6.0000 </r>
       <r>   -19.4098     0.0000     6.0000 </r>
       <r>   -19.2482     0.0000     6.0000 </r>
       <r>   -19.0866     0.0000     6.0000 </r>
       <r>   -18.9250     0.0000     6.0000 </r>
       <r>   -18.7634     0.0000     6.0000 </r>
       <r>   -18.6018     0.0000     6.0000 </r>
       <r>   -18.4402     0.0000     6.0000 </r>
       <r>   -18.2786     0.0000     6.0000 </r>
       <r>   -18.1169     0.0000     6.0000 </r>
       <r>   -17.9553     0.0000     6.0000 </r>
       <r>   -17.7937     0.0000     6.0000 </r>
       <r>   -17.6321     0.0000     6.0000 </r>
       <r>   -17.4705     0.0000     6.0000 </r>
       <r>   -17.3089     0.0000     6.0000 </r>
       <r>   -17.1473     0.0000     6.0000 </r>
       <r>   -16.9857     0.0000     6.0000 </r>
       <r>   -16.8241     0.0000     6.0000 </r>
       <r>   -16.6625     0.0000     6.0000 </r>
       <r>   -16.5009     0.0000     6.0000 </r>
       <r>   -16.3393     0.0000     6.0000 </r>
       <r>   -16.1776     0.0000     6.0000 </r>
       <r>   -16.0160     0.0000     6.0000 </r>
       <r>   -15.8544     0.0000     6.0000 </r>
       <r>   -15.6928     0.0000     6.0000 </r>
       <r>   -15.5312     0.0000     6.0000 </r>
       <r>   -15.3696     0.0000     6.0000 </r>
       <r>   -15.2080     0.0000     6.0000 </r>
       <r>   -15.0464     0.0000     6.0000 </r>
       <r>   -14.8848    -0.0000     6.0000 </r>
       <r>   -14.7232    -0.0000     6.0000 </r>
       <r>   -14.5616    -0.0000     6.0000 </r>
       <r>   -14.4000    -0.0000     6.0000 </r>
       <r>   -14.2384    -0.0000     6.0000 </r>
       <r>   -14.0767    -0.0041     5.9993 </r>
       <r>   -13.9151     0.0987     6.0153 </r>
       <r>   -13.7535     0.4432     6.0869 </r>
       <r>   -13.5919     0.6594     6.1935 </r>
       <r>   -13.4303     0.3158     6.2445 </r>
       <r>   -13.2687     0.8609     6.3836 </r>
       <r>   -13.1071     0.3412     6.4388 </r>
       <r>   -12.9455     0.9615     6.5942 </r>
       <r>   -12.7839     0.5765     6.6873 </r>
       <r>   -12.6223     0.9956     6.8482 </r>
       <r>   -12.4607     2.4769     7.2485 </r>
       <r>   -12.2991     2.1966     7.6035 </r>
       <r>   -12.1374     3.8386     8.2239 </r>
       <r>   -11.9758     4.8174     9.0024 </r>
       <r>   -11.8142     5.1446     9.8338 </r>
       <r>   -11.6526     1.0743    10.0074 </r>
       <r>   -11.4910    -0.0455    10.0000 </r>
       <r>   -11.3294    -0.0003    10.0000 </r>
       <r>   -11.1678    -0.0000    10.0000 </r>
       <r>   -11.0062    -0.0000    10.0000 </r>
       <r>   -10.8446     0.0000    10.0000 </r>
       <r>   -10.6830     0.0000    10.0000 </r>
       <r>   -10.5214     0.0000    10.0000 </r>
       <r>   -10.3598     0.0000    10.0000 </r>
       <r>   -10.1982     0.0000    10.0000 </r>
       <r>   -10.0365     0.0000    10.0000 </r>
       <r>    -9.8749     0.0000    10.0000 </r>
       <r>    -9.7133     0.0000    10.0000 </r>
       <r>    -9.5517     0.0000    10.0000 </r>
       <r>    -9.3901     0.0000    10.0000 </r>
       <r>    -9.2285     0.0000    10.0000 </r>
       <r>    -9.0669     0.0000    10.0000 </r>
       <r>    -8.9053     0.0000    10.0000 </r>
       <r>    -8.7437     0.0000    10.0000 </r>
       <r>    -8.5821     0.0000    10.0000 </r>
       <r>    -8.4205     0.0000    10.0000 </r>
       <r>    -8.2589     0.0000    10.0000 </r>
       <r>    -8.0972     0.0000    10.0000 </r>
       <r>    -7.9356     0.0000    10.0000 </r>
       <r>    -7.7740     0.0000    10.0000 </r>
       <r>    -7.6124     0.0000    10.0000 </r>
       <r>    -7.4508     0.0000    10.0000 </r>
       <r>    -7.2892     0.0000    10.0000 </r>
       <r>    -7.1276     0.0000    10.0000 </r>
       <r>    -6.9660     0.0000    10.0000 </r>
       <r>    -6.8044     0.0000    10.0000 </r>
       <r>    -6.6428    -0.0000    10.0000 </r>
       <r>    -6.4812    -0.0000    10.0000 </r>
       <r>    -6.3196    -0.0000    10.0000 </r>
       <r>    -6.1579    -0.0000    10.0000 </r>
       <r>    -5.9963    -0.0000    10.0000 </r>
       <r>    -5.8347    -0.0079     9.9987 </r>
       <r>    -5.6731     0.1582    10.0243 </r>
       <r>    -5.5115     1.1244    10.2060 </r>
       <r>    -5.3499     1.6709    10.4760 </r>
       <r>    -5.1883     2.5274    10.8845 </r>
       <r>    -5.0267     3.8933    11.5137 </r>
       <r>    -4.8651     4.0816    12.1733 </r>
       <r>    -4.7035     2.0130    12.4986 </r>
       <r>    -4.5419     2.5445    12.9098 </r>
       <r>    -4.3803     0.4015    12.9747 </r>
       <r>    -4.2187     0.6319    13.0768 </r>
       <r>    -4.0570     1.4509    13.3113 </r>
       <r>    -3.8954     2.8778    13.7764 </r>
       <r>    -3.7338     4.5571    14.5128 </r>
       <r>    -3.5722     3.5305    15.0834 </r>
       <r>    -3.4106     1.8760    15.3866 </r>
       <r>    -3.2490     1.9358    15.6994 </r>
       <r>    -3.0874     5.1333    16.5290 </r>
       <r>    -2.9258     4.2169    17.2105 </r>
       <r>    -2.7642     2.3417    17.5889 </r>
       <r>    -2.6026     1.0172    17.7533 </r>
       <r>    -2.4410     1.6277    18.0164 </r>
       <r>    -2.2794     1.7614    18.3010 </r>
       <r>    -2.1177     2.3236    18.6765 </r>
       <r>    -1.9561     4.4540    19.3963 </r>
       <r>    -1.7945     2.2381    19.7580 </r>
       <r>    -1.6329     3.5144    20.3260 </r>
       <r>    -1.4713     2.7390    20.7686 </r>
       <r>    -1.3097     3.2242    21.2897 </r>
       <r>    -1.1481     1.5261    21.5363 </r>
       <r>    -0.9865     1.7390    21.8174 </r>
       <r>    -0.8249     2.8044    22.2706 </r>
       <r>    -0.6633     3.3698    22.8152 </r>
       <r>    -0.5017     2.4670    23.2139 </r>
       <r>    -0.3401     2.4917    23.6165 </r>
       <r>    -0.1785     1.2601    23.8202 </r>
       <r>    -0.0168     0.6994    23.9332 </r>
       <r>     0.1448     0.2117    23.9674 </r>
       <r>     0.3064     0.2056    24.0007 </r>
       <r>     0.4680    -0.0039    24.0000 </r>
       <r>     0.6296    -0.0002    24.0000 </r>
       <r>     0.7912    -0.0000    24.0000 </r>
       <r>     0.9528    -0.0000    24.0000 </r>
       <r>     1.1144    -0.0000    24.0000 </r>
       <r>     1.2760    -0.0000    24.0000 </r>
       <r>     1.4376    -0.0004    23.9999 </r>
       <r>     1.5992    -0.0206    23.9966 </r>
       <r>     1.7608     0.7075    24.1109 </r>
       <r>     1.9225     1.7610    24.3955 </r>
       <r>     2.0841     3.9063    25.0268 </r>
       <r>     2.2457     4.9040    25.8193 </r>
       <r>     2.4073     3.8272    26.4379 </r>
       <r>     2.5689     5.2492    27.2862 </r>
       <r>     2.7305     4.2348    27.9705 </r>
       <r>     2.8921     3.0952    28.4707 </r>
       <r>     3.0537     2.6948    28.9062 </r>
       <r>     3.2153     2.7208    29.3459 </r>
       <r>     3.3769     1.9682    29.6640 </r>
       <r>     3.5385     1.8524    29.9634 </r>
       <r>     3.7001     1.6114    30.2238 </r>
       <r>     3.8618     1.2619    30.4277 </r>
       <r>     4.0234     2.1239    30.7710 </r>
       <r>     4.1850     2.8063    31.2245 </r>
       <r>     4.3466     1.8629    31.5256 </r>
       <r>     4.5082     1.6346    31.7897 </r>
       <r>     4.6698     0.7228    31.9065 </r>
       <r>     4.8314     0.4813    31.9843 </r>
       <r>     4.9930     0.1008    32.0006 </r>
       <r>     5.1546     0.0154    32.0031 </r>
       <r>     5.3162     0.2154    32.0379 </r>
       <r>     5.4778     0.1040    32.0547 </r>
       <r>     5.6394     0.3200    32.1064 </r>
       <r>     5.8010     0.1015    32.1228 </r>
       <r>     5.9627     0.7899    32.2505 </r>
       <r>     6.1243     0.5450    32.3386 </r>
       <r>     6.2859     0.7497    32.4597 </r>
       <r>     6.4475     0.8176    32.5919 </r>
       <r>     6.6091     1.4547    32.8269 </r>
       <r>     6.7707     0.9844    32.9860 </r>
       <r>     6.9323     1.3385    33.2023 </r>
       <r>     7.0939     1.8175    33.4961 </r>
       <r>     7.2555     1.6449    33.7619 </r>
       <r>     7.4171     1.1320    33.9448 </r>
       <r>     7.5787     1.6806    34.2164 </r>
       <r>     7.7403     1.9228    34.5272 </r>
       <r>     7.9020     0.7201    34.6435 </r>
       <r>     8.0636     1.4585    34.8793 </r>
       <r>     8.2252     2.8579    35.3411 </r>
       <r>     8.3868     1.3336    35.5566 </r>
       <r>     8.5484     1.0258    35.7224 </r>
       <r>     8.7100     0.4951    35.8024 </r>
       <r>     8.8716     1.0221    35.9676 </r>
       <r>     9.0332     0.2099    36.0015 </r>
       <r>     9.1948    -0.0095    36.0000 </r>
       <r>     9.3564    -0.0000    36.0000 </r>
       <r>     9.5180    -0.0000    36.0000 </r>
       <r>     9.6796    -0.0000    36.0000 </r>
       <r>     9.8412     0.0000    36.0000 </r>
       <r>    10.0029     0.0000    36.0000 </r>
       <r>    10.1645     0.0000    36.0000 </r>
       <r>    10.3261     0.0000    36.0000 </r>
       <r>    10.4877     0.0000    36.0000 </r>
       <r>    10.6493     0.0000    36.0000 </r>
       <r>    10.8109     0.0000    36.0000 </r>
       <r>    10.9725     0.0000    36.0000 </r>
       <r>    11.1341     0.0000    36.0000 </r>
      </set>
     </set>
    </array>
   </total>
  </dos>
 </calculation>
 <structure name="finalpos" >
  <crystal>
   <varray name="basis" >
    <v>       3.19031700       0.00000000       0.00000000 </v>
    <v>      -1.59515800       2.76289700       0.00000000 </v>
    <v>       0.00000000       0.00000000      23.14049200 </v>
   </varray>
   <i name="volume">    203.97226633 </i>
   <varray name="rec_basis" >
    <v>       0.31344848       0.18096941       0.00000000 </v>
    <v>       0.00000000       0.36193894       0.00000000 </v>
    <v>       0.00000000       0.00000000       0.04321429 </v>
   </varray>
  </crystal>
  <varray name="positions" >
   <v>       0.66666700       0.33333300       0.06785900 </v>
   <v>       0.33333300       0.66666700       0.00000000 </v>
   <v>       0.33333300       0.66666700       0.13571500 </v>
   <v>       0.66666700       0.19047586       0.35482300 </v>
   <v>       0.33333300       0.52380986       0.28696500 </v>
   <v>       0.33333300       0.52380986       0.42267900 </v>
  </varray>
 </structure>
</modeling>
