<?xml version="1.0" encoding="ISO-8859-1"?>
<modeling>
 <generator>
  <i name="program" type="string">vasp </i>
  <i name="version" type="string">5.3.5  </i>
  <i name="subversion" type="string">31Mar14 (build Oct 29 2014 16:16:03) complex                          parallel </i>
  <i name="platform" type="string">Linux-UFHPC </i>
  <i name="date" type="string">2016 02 09 </i>
  <i name="time" type="string">17:25:17 </i>
 </generator>
 <incar>
  <i type="string" name="PREC">accurate</i>
  <i type="int" name="IBRION">     2</i>
  <i name="EDIFF">      0.00000100</i>
  <i type="int" name="NSW">     0</i>
  <i type="int" name="ISIF">     3</i>
  <i name="ENCUT">    300.00000000</i>
  <i type="string" name="LREAL"> Auto</i>
  <i type="int" name="ISMEAR">     0</i>
  <i name="SIGMA">      0.10000000</i>
  <i type="logical" name="LWAVE"> F  </i>
  <i type="logical" name="LCHARG"> F  </i>
  <i type="logical" name="LAECHG"> F  </i>
  <i type="string" name="GGA"> Bo</i>
  <i name="PARAM1">      0.18333333</i>
  <i name="PARAM2">      0.22000000</i>
  <i type="logical" name="LUSE_VDW"> T  </i>
  <i name="AGGAC">      0.00000000</i>
 </incar>
 <kpoints>
  <generation param="Gamma">
   <v type="int" name="divisions">      13        4        2 </v>
   <v name="usershift">      0.00000000       0.00000000       0.00000000 </v>
   <v name="genvec1">      0.07692308      -0.00000000       0.00000000 </v>
   <v name="genvec2">      0.00000000       0.25000000       0.00000000 </v>
   <v name="genvec3">      0.00000000       0.00000000       0.50000000 </v>
   <v name="shift">      0.00000000       0.00000000       0.00000000 </v>
  </generation>
  <varray name="kpointlist" >
   <v>       0.00000000       0.00000000       0.00000000 </v>
   <v>       0.07692308      -0.00000000       0.00000000 </v>
   <v>       0.15384615      -0.00000000       0.00000000 </v>
   <v>       0.23076923      -0.00000000       0.00000000 </v>
   <v>       0.30769231      -0.00000000       0.00000000 </v>
   <v>       0.38461538      -0.00000000       0.00000000 </v>
   <v>       0.46153846      -0.00000000       0.00000000 </v>
   <v>       0.00000000       0.25000000       0.00000000 </v>
   <v>       0.07692308       0.25000000       0.00000000 </v>
   <v>       0.15384615       0.25000000       0.00000000 </v>
   <v>       0.23076923       0.25000000       0.00000000 </v>
   <v>       0.30769231       0.25000000       0.00000000 </v>
   <v>       0.38461538       0.25000000       0.00000000 </v>
   <v>       0.46153846       0.25000000       0.00000000 </v>
   <v>      -0.46153846       0.25000000       0.00000000 </v>
   <v>      -0.38461538       0.25000000       0.00000000 </v>
   <v>      -0.30769231       0.25000000       0.00000000 </v>
   <v>      -0.23076923       0.25000000       0.00000000 </v>
   <v>      -0.15384615       0.25000000       0.00000000 </v>
   <v>      -0.07692308       0.25000000       0.00000000 </v>
   <v>       0.00000000       0.50000000       0.00000000 </v>
   <v>       0.07692308       0.50000000       0.00000000 </v>
   <v>       0.15384615       0.50000000       0.00000000 </v>
   <v>       0.23076923       0.50000000       0.00000000 </v>
   <v>       0.30769231       0.50000000       0.00000000 </v>
   <v>       0.38461538       0.50000000       0.00000000 </v>
   <v>       0.46153846       0.50000000       0.00000000 </v>
   <v>       0.00000000       0.00000000       0.50000000 </v>
   <v>       0.07692308      -0.00000000       0.50000000 </v>
   <v>       0.15384615      -0.00000000       0.50000000 </v>
   <v>       0.23076923      -0.00000000       0.50000000 </v>
   <v>       0.30769231      -0.00000000       0.50000000 </v>
   <v>       0.38461538      -0.00000000       0.50000000 </v>
   <v>       0.46153846      -0.00000000       0.50000000 </v>
   <v>       0.00000000       0.25000000       0.50000000 </v>
   <v>       0.07692308       0.25000000       0.50000000 </v>
   <v>       0.15384615       0.25000000       0.50000000 </v>
   <v>       0.23076923       0.25000000       0.50000000 </v>
   <v>       0.30769231       0.25000000       0.50000000 </v>
   <v>       0.38461538       0.25000000       0.50000000 </v>
   <v>       0.46153846       0.25000000       0.50000000 </v>
   <v>      -0.46153846       0.25000000       0.50000000 </v>
   <v>      -0.38461538       0.25000000       0.50000000 </v>
   <v>      -0.30769231       0.25000000       0.50000000 </v>
   <v>      -0.23076923       0.25000000       0.50000000 </v>
   <v>      -0.15384615       0.25000000       0.50000000 </v>
   <v>      -0.07692308       0.25000000       0.50000000 </v>
   <v>       0.00000000       0.50000000       0.50000000 </v>
   <v>       0.07692308       0.50000000       0.50000000 </v>
   <v>       0.15384615       0.50000000       0.50000000 </v>
   <v>       0.23076923       0.50000000       0.50000000 </v>
   <v>       0.30769231       0.50000000       0.50000000 </v>
   <v>       0.38461538       0.50000000       0.50000000 </v>
   <v>       0.46153846       0.50000000       0.50000000 </v>
  </varray>
  <varray name="weights" >
   <v>       0.00961538 </v>
   <v>       0.01923077 </v>
   <v>       0.01923077 </v>
   <v>       0.01923077 </v>
   <v>       0.01923077 </v>
   <v>       0.01923077 </v>
   <v>       0.01923077 </v>
   <v>       0.01923077 </v>
   <v>       0.01923077 </v>
   <v>       0.01923077 </v>
   <v>       0.01923077 </v>
   <v>       0.01923077 </v>
   <v>       0.01923077 </v>
   <v>       0.01923077 </v>
   <v>       0.01923077 </v>
   <v>       0.01923077 </v>
   <v>       0.01923077 </v>
   <v>       0.01923077 </v>
   <v>       0.01923077 </v>
   <v>       0.01923077 </v>
   <v>       0.00961538 </v>
   <v>       0.01923077 </v>
   <v>       0.01923077 </v>
   <v>       0.01923077 </v>
   <v>       0.01923077 </v>
   <v>       0.01923077 </v>
   <v>       0.01923077 </v>
   <v>       0.00961538 </v>
   <v>       0.01923077 </v>
   <v>       0.01923077 </v>
   <v>       0.01923077 </v>
   <v>       0.01923077 </v>
   <v>       0.01923077 </v>
   <v>       0.01923077 </v>
   <v>       0.01923077 </v>
   <v>       0.01923077 </v>
   <v>       0.01923077 </v>
   <v>       0.01923077 </v>
   <v>       0.01923077 </v>
   <v>       0.01923077 </v>
   <v>       0.01923077 </v>
   <v>       0.01923077 </v>
   <v>       0.01923077 </v>
   <v>       0.01923077 </v>
   <v>       0.01923077 </v>
   <v>       0.01923077 </v>
   <v>       0.01923077 </v>
   <v>       0.00961538 </v>
   <v>       0.01923077 </v>
   <v>       0.01923077 </v>
   <v>       0.01923077 </v>
   <v>       0.01923077 </v>
   <v>       0.01923077 </v>
   <v>       0.01923077 </v>
  </varray>
 </kpoints>
 <parameters>
  <separator name="general" >
   <i type="string" name="SYSTEM">unknown system</i>
   <i type="logical" name="LCOMPAT"> F  </i>
  </separator>
  <separator name="electronic" >
   <i type="string" name="PREC">accura</i>
   <i name="ENMAX">    300.00000000</i>
   <i name="ENAUG">    342.92400000</i>
   <i name="EDIFF">      0.00000100</i>
   <i type="int" name="IALGO">    38</i>
   <i type="int" name="IWAVPR">    10</i>
   <i type="int" name="NBANDS">    68</i>
   <i name="NELECT">    108.00000000</i>
   <i type="int" name="TURBO">     0</i>
   <i type="int" name="IRESTART">     0</i>
   <i type="int" name="NREBOOT">     0</i>
   <i type="int" name="NMIN">     0</i>
   <i name="EREF">      0.00000000</i>
   <separator name="electronic smearing" >
    <i type="int" name="ISMEAR">     0</i>
    <i name="SIGMA">      0.10000000</i>
    <i name="KSPACING">      0.50000000</i>
    <i type="logical" name="KGAMMA"> T  </i>
   </separator>
   <separator name="electronic projectors" >
    <i type="logical" name="LREAL"> T  </i>
    <v name="ROPT">     -0.00025000     -0.00025000</v>
    <i type="int" name="LMAXPAW">  -100</i>
    <i type="int" name="LMAXMIX">     2</i>
    <i type="logical" name="NLSPLINE"> F  </i>
   </separator>
   <separator name="electronic startup" >
    <i type="int" name="ISTART">     0</i>
    <i type="int" name="ICHARG">     2</i>
    <i type="int" name="INIWAV">     1</i>
   </separator>
   <separator name="electronic spin" >
    <i type="int" name="ISPIN">     1</i>
    <i type="logical" name="LNONCOLLINEAR"> F  </i>
    <v name="MAGMOM">      1.00000000      1.00000000      1.00000000      1.00000000      1.00000000      1.00000000      1.00000000      1.00000000      1.00000000      1.00000000      1.00000000      1.00000000      1.00000000      1.00000000      1.00000000      1.00000000      1.00000000      1.00000000      1.00000000      1.00000000
      1.00000000      1.00000000      1.00000000      1.00000000</v>
    <i name="NUPDOWN">     -1.00000000</i>
    <i type="logical" name="LSORBIT"> F  </i>
    <v name="SAXIS">      0.00000000      0.00000000      1.00000000</v>
    <i type="logical" name="LSPIRAL"> F  </i>
    <v name="QSPIRAL">      0.00000000      0.00000000      0.00000000</v>
    <i type="logical" name="LZEROZ"> F  </i>
   </separator>
   <separator name="electronic exchange-correlation" >
    <i type="logical" name="LASPH"> F  </i>
    <i type="logical" name="LMETAGGA"> F  </i>
   </separator>
   <separator name="electronic convergence" >
    <i type="int" name="NELM">    60</i>
    <i type="int" name="NELMDL">    -5</i>
    <i type="int" name="NELMIN">     2</i>
    <i name="ENINI">    300.00000000</i>
    <separator name="electronic convergence detail" >
     <i type="logical" name="LDIAG"> T  </i>
     <i type="logical" name="LSUBROT"> F  </i>
     <i name="WEIMIN">      0.00000000</i>
     <i name="EBREAK">      0.00000000</i>
     <i name="DEPER">      0.30000000</i>
     <i type="int" name="NRMM">     4</i>
     <i name="TIME">      0.40000000</i>
    </separator>
   </separator>
   <separator name="electronic mixer" >
    <i name="AMIX">      0.40000000</i>
    <i name="BMIX">      1.00000000</i>
    <i name="AMIN">      0.10000000</i>
    <i name="AMIX_MAG">      1.60000000</i>
    <i name="BMIX_MAG">      1.00000000</i>
    <separator name="electronic mixer details" >
     <i type="int" name="IMIX">     4</i>
     <i type="int" name="MAXMIX">   -45</i>
     <i name="WC">    100.00000000</i>
     <i type="int" name="INIMIX">     1</i>
     <i type="int" name="MIXPRE">     1</i>
     <i type="int" name="MREMOVE">     5</i>
    </separator>
   </separator>
   <separator name="electronic dipolcorrection" >
    <i type="logical" name="LDIPOL"> F  </i>
    <i type="logical" name="LMONO"> F  </i>
    <i type="int" name="IDIPOL">     0</i>
    <i name="EPSILON">      1.00000000</i>
    <v name="DIPOL">   -100.00000000   -100.00000000   -100.00000000</v>
    <i name="EFIELD">      0.00000000</i>
   </separator>
  </separator>
  <separator name="grids" >
   <i type="int" name="NGX">    20</i>
   <i type="int" name="NGY">    60</i>
   <i type="int" name="NGZ">   160</i>
   <i type="int" name="NGXF">    40</i>
   <i type="int" name="NGYF">   120</i>
   <i type="int" name="NGZF">   320</i>
   <i type="logical" name="ADDGRID"> F  </i>
  </separator>
  <separator name="ionic" >
   <i type="int" name="NSW">     0</i>
   <i type="int" name="IBRION">    -1</i>
   <i type="int" name="ISIF">     3</i>
   <i name="PSTRESS">      0.00000000</i>
   <i name="EDIFFG">      0.00001000</i>
   <i type="int" name="NFREE">     1</i>
   <i name="POTIM">      0.50000000</i>
   <i name="SMASS">     -3.00000000</i>
   <i name="SCALEE">      1.00000000</i>
  </separator>
  <separator name="ionic md" >
   <i name="TEBEG">      0.00010000</i>
   <i name="TEEND">      0.00010000</i>
   <i type="int" name="NBLOCK">     1</i>
   <i type="int" name="KBLOCK">     1</i>
   <i type="int" name="NPACO">   256</i>
   <i name="APACO">     16.00000000</i>
  </separator>
  <separator name="symmetry" >
   <i type="int" name="ISYM">     2</i>
   <i name="SYMPREC">      0.00001000</i>
  </separator>
  <separator name="dos" >
   <i type="logical" name="LORBIT"> F  </i>
   <v name="RWIGS">     -1.00000000     -1.00000000</v>
   <i type="int" name="NEDOS">   301</i>
   <i name="EMIN">     10.00000000</i>
   <i name="EMAX">    -10.00000000</i>
   <i name="EFERMI">      0.00000000</i>
  </separator>
  <separator name="writing" >
   <i type="int" name="NWRITE">     2</i>
   <i type="logical" name="LWAVE"> F  </i>
   <i type="logical" name="LCHARG"> F  </i>
   <i type="logical" name="LPARD"> F  </i>
   <i type="logical" name="LVTOT"> F  </i>
   <i type="logical" name="LVHAR"> F  </i>
   <i type="logical" name="LELF"> F  </i>
   <i type="logical" name="LOPTICS"> F  </i>
   <v name="STM">      0.00000000      0.00000000      0.00000000      0.00000000      0.00000000      0.00000000      0.00000000</v>
  </separator>
  <separator name="performance" >
   <i type="int" name="NPAR">     4</i>
   <i type="int" name="NSIM">     4</i>
   <i type="int" name="NBLK">    -1</i>
   <i type="logical" name="LPLANE"> T  </i>
   <i type="logical" name="LSCALAPACK"> T  </i>
   <i type="logical" name="LSCAAWARE"> F  </i>
   <i type="logical" name="LSCALU"> F  </i>
   <i type="logical" name="LASYNC"> F  </i>
   <i type="logical" name="LORBITALREAL"> F  </i>
  </separator>
  <separator name="miscellaneous" >
   <i type="int" name="IDIOT">     3</i>
   <i type="logical" name="LMUSIC"> F  </i>
   <v name="POMASS">     30.97400000     28.08500000</v>
   <v name="DARWINR">      0.00000000      0.00000000</v>
   <v name="DARWINV">      1.00000000      1.00000000</v>
   <i type="logical" name="LCORR"> T  </i>
  </separator>
  <i type="logical" name="GGA_COMPAT"> T  </i>
  <i type="logical" name="LBERRY"> F  </i>
  <i type="int" name="ICORELEVEL">     0</i>
  <i type="logical" name="LDAU"> F  </i>
  <i type="int" name="I_CONSTRAINED_M">     0</i>
  <separator name="electronic exchange-correlation" >
   <i type="string" name="GGA">BO</i>
   <i type="int" name="VOSKOWN">     0</i>
   <i type="logical" name="LHFCALC"> F  </i>
   <i type="string" name="PRECFOCK"></i>
   <i type="logical" name="LSYMGRAD"> F  </i>
   <i type="logical" name="LHFONE"> F  </i>
   <i type="logical" name="LRHFCALC"> F  </i>
   <i type="logical" name="LTHOMAS"> F  </i>
   <i type="logical" name="LMODELHF"> F  </i>
   <i name="ENCUT4O">     -1.00000000</i>
   <i type="int" name="EXXOEP">     0</i>
   <i type="int" name="FOURORBIT">     0</i>
   <i name="AEXX">      0.00000000</i>
   <i name="HFALPHA">      0.00000000</i>
   <i name="MCALPHA">      0.00000000</i>
   <i name="ALDAX">      1.00000000</i>
   <i name="AGGAX">      1.00000000</i>
   <i name="ALDAC">      1.00000000</i>
   <i name="AGGAC">      0.00000000</i>
   <i type="int" name="NKREDX">     1</i>
   <i type="int" name="NKREDY">     1</i>
   <i type="int" name="NKREDZ">     1</i>
   <i type="logical" name="SHIFTRED"> F  </i>
   <i type="logical" name="ODDONLY"> F  </i>
   <i type="logical" name="EVENONLY"> F  </i>
   <i type="int" name="LMAXFOCK">     0</i>
   <i type="int" name="NMAXFOCKAE">     0</i>
   <i type="logical" name="LFOCKAEDFT"> F  </i>
   <i name="HFSCREEN">      0.00000000</i>
   <i name="HFSCREENC">      0.00000000</i>
   <i type="int" name="NBANDSGWLOW">     0</i>
  </separator>
  <separator name="vdW DFT" >
   <i type="logical" name="LUSE_VDW"> T  </i>
   <i name="Zab_VDW">     -0.84910000</i>
   <i name="PARAM1">      0.18333333</i>
   <i name="PARAM2">      0.22000000</i>
   <i name="PARAM3">      0.00000000</i>
  </separator>
  <separator name="model GW" >
   <i type="int" name="MODEL_GW">     0</i>
   <i name="MODEL_EPS0">     25.05800243</i>
   <i name="MODEL_ALPHA">      1.00000000</i>
  </separator>
  <separator name="linear response parameters" >
   <i type="logical" name="LEPSILON"> F  </i>
   <i type="logical" name="LRPA"> F  </i>
   <i type="logical" name="LNABLA"> F  </i>
   <i type="logical" name="LVEL"> F  </i>
   <i type="int" name="KINTER">     0</i>
   <i name="CSHIFT">      0.10000000</i>
   <i name="OMEGAMAX">     -1.00000000</i>
   <i name="DEG_THRESHOLD">      0.00200000</i>
  </separator>
  <separator name="orbital magnetization" >
   <i type="logical" name="NUCIND"> F  </i>
   <v name="MAGPOS">      0.00000000      0.00000000      0.00000000</v>
   <i type="logical" name="LNICSALL"> T  </i>
   <i type="logical" name="ORBITALMAG"> F  </i>
   <i type="logical" name="LMAGBLOCH"> F  </i>
   <i type="logical" name="LCHIMAG"> F  </i>
   <i type="logical" name="LGAUGE"> T  </i>
   <i type="int" name="MAGATOM">     0</i>
   <v name="MAGDIPOL">      0.00000000      0.00000000      0.00000000</v>
   <v name="AVECCONST">      0.00000000      0.00000000      0.00000000</v>
  </separator>
  <separator name="response functions" >
   <i type="logical" name="LADDER"> F  </i>
   <i type="logical" name="LFXC"> F  </i>
   <i type="logical" name="LHARTREE"> T  </i>
   <i type="int" name="IBSE">     0</i>
   <i type="logical" name="LTCTE"> F  </i>
   <i type="logical" name="LTETE"> F  </i>
   <i type="logical" name="LTRIPLET"> F  </i>
   <i type="logical" name="LFXCEPS"> F  </i>
   <i type="logical" name="LFXHEG"> F  </i>
   <i type="logical" name="L2ORDER"> F  </i>
   <i type="logical" name="LUSEW"> F  </i>
   <i name="ENCUTGW">     -2.00000000</i>
   <i name="ENCUTGWSOFT">     -2.00000000</i>
   <i name="ENCUTLF">     -1.00000000</i>
   <i type="int" name="LMAXMP2">    -1</i>
   <i name="SCISSOR">      0.00000000</i>
   <i type="int" name="NOMEGA">     0</i>
   <i type="int" name="NOMEGAR">     0</i>
   <i type="int" name="NBANDSGW">    -1</i>
   <i type="int" name="NBANDSO">    -1</i>
   <i type="int" name="NBANDSV">    -1</i>
   <i type="int" name="NELM">     1</i>
   <i type="int" name="DIM">     3</i>
   <i type="int" name="ANTIRES">     0</i>
   <i name="OMEGAMAX">    -30.00000000</i>
   <i name="OMEGAMIN">    -30.00000000</i>
   <i name="OMEGATL">   -200.00000000</i>
   <i type="int" name="OMEGAGRID">     0</i>
   <i name="CSHIFT">     -0.10000000</i>
   <i type="logical" name="SELFENERGY"> F  </i>
   <i type="logical" name="LSPECTRAL"> F  </i>
   <i type="logical" name="ODDONLYGW"> F  </i>
   <i type="logical" name="EVENONLYGW"> F  </i>
   <i type="int" name="NKREDLFX">     1</i>
   <i type="int" name="NKREDLFY">     1</i>
   <i type="int" name="NKREDLFZ">     1</i>
   <i type="int" name="MAXMEM">  1800</i>
   <i type="int" name="TELESCOPE">     0</i>
   <i type="int" name="TAUPAR">     1</i>
  </separator>
  <separator name="External order field" >
   <i name="OFIELD_KAPPA">      0.00000000</i>
   <v name="OFIELD_K">      0.00000000      0.00000000      0.00000000</v>
   <i name="OFIELD_Q6_NEAR">      0.00000000</i>
   <i name="OFIELD_Q6_FAR">      0.00000000</i>
   <i name="OFIELD_A">      0.00000000</i>
  </separator>
 </parameters>
 <atominfo>
  <atoms>      24 </atoms>
  <types>       2 </types>
  <array name="atoms" >
   <dimension dim="1">ion</dimension>
   <field type="string">element</field>
   <field type="int">atomtype</field>
   <set>
    <rc><c>P </c><c>   1</c></rc>
    <rc><c>P </c><c>   1</c></rc>
    <rc><c>P </c><c>   1</c></rc>
    <rc><c>P </c><c>   1</c></rc>
    <rc><c>P </c><c>   1</c></rc>
    <rc><c>P </c><c>   1</c></rc>
    <rc><c>P </c><c>   1</c></rc>
    <rc><c>P </c><c>   1</c></rc>
    <rc><c>P </c><c>   1</c></rc>
    <rc><c>P </c><c>   1</c></rc>
    <rc><c>P </c><c>   1</c></rc>
    <rc><c>P </c><c>   1</c></rc>
    <rc><c>Si</c><c>   2</c></rc>
    <rc><c>Si</c><c>   2</c></rc>
    <rc><c>Si</c><c>   2</c></rc>
    <rc><c>Si</c><c>   2</c></rc>
    <rc><c>Si</c><c>   2</c></rc>
    <rc><c>Si</c><c>   2</c></rc>
    <rc><c>Si</c><c>   2</c></rc>
    <rc><c>Si</c><c>   2</c></rc>
    <rc><c>Si</c><c>   2</c></rc>
    <rc><c>Si</c><c>   2</c></rc>
    <rc><c>Si</c><c>   2</c></rc>
    <rc><c>Si</c><c>   2</c></rc>
   </set>
  </array>
  <array name="atomtypes" >
   <dimension dim="1">type</dimension>
   <field type="int">atomspertype</field>
   <field type="string">element</field>
   <field>mass</field>
   <field>valence</field>
   <field type="string">pseudopotential</field>
   <set>
    <rc><c>  12</c><c>P </c><c>     30.97400000</c><c>      5.00000000</c><c>  PAW_PBE P 17Jan2003                   </c></rc>
    <rc><c>  12</c><c>Si</c><c>     28.08500000</c><c>      4.00000000</c><c> PAW_PBE Si 05Jan2001                   </c></rc>
   </set>
  </array>
 </atominfo>
 <structure name="initialpos" >
  <crystal>
   <varray name="basis" >
    <v>       3.54040000       0.00000000       0.00000000 </v>
    <v>      -1.77020000      10.29434800       0.00000000 </v>
    <v>       0.00000000       0.00000000      27.50142900 </v>
   </varray>
   <i name="volume">   1002.32009712 </i>
   <varray name="rec_basis" >
    <v>       0.28245396       0.04857034       0.00000000 </v>
    <v>       0.00000000       0.09714068       0.00000000 </v>
    <v>       0.00000000       0.00000000       0.03636175 </v>
   </varray>
  </crystal>
  <varray name="positions" >
   <v>       0.11402300       0.22804500       0.23316207 </v>
   <v>       0.21402300       0.72804500       0.51499159 </v>
   <v>       0.45808900       0.91617900       0.20939482 </v>
   <v>       0.55808900       0.41617900       0.49122434 </v>
   <v>       0.31085400       0.62170900       0.08414979 </v>
   <v>       0.31085400       0.62170900       0.36597930 </v>
   <v>       0.99923000       0.99846000       0.08631254 </v>
   <v>       0.99923000       0.99846000       0.36814206 </v>
   <v>       0.65492700       0.30985400       0.06041748 </v>
   <v>       0.65492700       0.30985400       0.34224700 </v>
   <v>       0.76973800       0.53947500       0.20725292 </v>
   <v>       0.86973800       0.03947500       0.48908244 </v>
   <v>       0.93971600       0.87943300       0.15783749 </v>
   <v>       0.03971600       0.37943300       0.43966701 </v>
   <v>       0.20515200       0.41030300       0.18578822 </v>
   <v>       0.30515200       0.91030300       0.46761774 </v>
   <v>       0.20184900       0.40369900       0.09969156 </v>
   <v>       0.20184900       0.40369900       0.38152107 </v>
   <v>       0.56380500       0.12761000       0.10779021 </v>
   <v>       0.56380500       0.12761000       0.38961973 </v>
   <v>       0.56710600       0.13421200       0.19387616 </v>
   <v>       0.66710600       0.63421200       0.47570568 </v>
   <v>       0.82923400       0.65846800       0.13571444 </v>
   <v>       0.92923400       0.15846800       0.41754396 </v>
  </varray>
 </structure>
 <calculation>
  <scstep>
   <time name="dav">   61.60   61.63</time>
   <time name="total">   77.58   77.62</time>
   <energy>
    <i name="alphaZ">     36.80884744 </i>
    <i name="ewald">  12046.52589774 </i>
    <i name="hartreedc"> -15062.07178639 </i>
    <i name="XCdc">    -86.98093353 </i>
    <i name="pawpsdc">   1056.43050070 </i>
    <i name="pawaedc">   -732.41190547 </i>
    <i name="eentropy">     -0.04883419 </i>
    <i name="bandstr">    -98.28060578 </i>
    <i name="atom">   3354.04126044 </i>
    <i name="e_fr_energy">    514.01244096 </i>
    <i name="e_wo_entrp">    514.06127515 </i>
    <i name="e_0_energy">    514.03685805 </i>
   </energy>
  </scstep>
  <scstep>
   <time name="dav">   76.52   76.53</time>
   <time name="total">   76.53   76.54</time>
   <energy>
    <i name="e_fr_energy">    -53.62932361 </i>
    <i name="e_wo_entrp">    -53.61158491 </i>
    <i name="e_0_energy">    -53.62045426 </i>
   </energy>
  </scstep>
  <scstep>
   <time name="dav">   70.40   70.41</time>
   <time name="total">   70.41   70.43</time>
   <energy>
    <i name="e_fr_energy">   -111.38922299 </i>
    <i name="e_wo_entrp">   -111.37596465 </i>
    <i name="e_0_energy">   -111.38259382 </i>
   </energy>
  </scstep>
  <scstep>
   <time name="dav">   87.18   87.20</time>
   <time name="total">   87.19   87.21</time>
   <energy>
    <i name="e_fr_energy">   -114.17708582 </i>
    <i name="e_wo_entrp">   -114.16396188 </i>
    <i name="e_0_energy">   -114.17052385 </i>
   </energy>
  </scstep>
  <scstep>
   <time name="dav">   77.90   77.92</time>
   <time name="total">   82.00   82.02</time>
   <energy>
    <i name="e_fr_energy">   -114.22958307 </i>
    <i name="e_wo_entrp">   -114.21651882 </i>
    <i name="e_0_energy">   -114.22305095 </i>
   </energy>
  </scstep>
  <scstep>
   <time name="dav">   70.74   70.75</time>
   <time name="total">   89.22   89.24</time>
   <energy>
    <i name="e_fr_energy">   -109.54396914 </i>
    <i name="e_wo_entrp">   -109.51390824 </i>
    <i name="e_0_energy">   -109.52893869 </i>
   </energy>
  </scstep>
  <scstep>
   <time name="dav">   67.58   67.59</time>
   <time name="total">   86.08   86.10</time>
   <energy>
    <i name="e_fr_energy">   -109.44163399 </i>
    <i name="e_wo_entrp">   -109.41646616 </i>
    <i name="e_0_energy">   -109.42905008 </i>
   </energy>
  </scstep>
  <scstep>
   <time name="dav">   71.70   71.72</time>
   <time name="total">   90.24   90.26</time>
   <energy>
    <i name="e_fr_energy">   -109.48729910 </i>
    <i name="e_wo_entrp">   -109.45450515 </i>
    <i name="e_0_energy">   -109.47090213 </i>
   </energy>
  </scstep>
  <scstep>
   <time name="dav">   73.93   73.95</time>
   <time name="total">   92.49   92.51</time>
   <energy>
    <i name="e_fr_energy">   -109.50997768 </i>
    <i name="e_wo_entrp">   -109.48101285 </i>
    <i name="e_0_energy">   -109.49549526 </i>
   </energy>
  </scstep>
  <scstep>
   <time name="dav">   73.48   73.49</time>
   <time name="total">   91.98   92.00</time>
   <energy>
    <i name="e_fr_energy">   -109.50038455 </i>
    <i name="e_wo_entrp">   -109.46848522 </i>
    <i name="e_0_energy">   -109.48443488 </i>
   </energy>
  </scstep>
  <scstep>
   <time name="dav">   71.06   71.07</time>
   <time name="total">   89.58   89.60</time>
   <energy>
    <i name="e_fr_energy">   -109.49487347 </i>
    <i name="e_wo_entrp">   -109.46361206 </i>
    <i name="e_0_energy">   -109.47924277 </i>
   </energy>
  </scstep>
  <scstep>
   <time name="dav">   72.06   72.08</time>
   <time name="total">   90.60   90.62</time>
   <energy>
    <i name="e_fr_energy">   -109.48740842 </i>
    <i name="e_wo_entrp">   -109.45621766 </i>
    <i name="e_0_energy">   -109.47181304 </i>
   </energy>
  </scstep>
  <scstep>
   <time name="dav">   71.11   71.12</time>
   <time name="total">   89.67   89.69</time>
   <energy>
    <i name="e_fr_energy">   -109.48150008 </i>
    <i name="e_wo_entrp">   -109.45024070 </i>
    <i name="e_0_energy">   -109.46587039 </i>
   </energy>
  </scstep>
  <scstep>
   <time name="dav">   74.42   74.44</time>
   <time name="total">   92.93   92.95</time>
   <energy>
    <i name="e_fr_energy">   -109.47892805 </i>
    <i name="e_wo_entrp">   -109.44772153 </i>
    <i name="e_0_energy">   -109.46332479 </i>
   </energy>
  </scstep>
  <scstep>
   <time name="dav">   70.97   70.98</time>
   <time name="total">   89.50   89.52</time>
   <energy>
    <i name="e_fr_energy">   -109.47785137 </i>
    <i name="e_wo_entrp">   -109.44661857 </i>
    <i name="e_0_energy">   -109.46223497 </i>
   </energy>
  </scstep>
  <scstep>
   <time name="dav">   65.72   65.73</time>
   <time name="total">   84.25   84.27</time>
   <energy>
    <i name="e_fr_energy">   -109.47769382 </i>
    <i name="e_wo_entrp">   -109.44647735 </i>
    <i name="e_0_energy">   -109.46208558 </i>
   </energy>
  </scstep>
  <scstep>
   <time name="dav">   66.56   66.58</time>
   <time name="total">   84.99   85.01</time>
   <energy>
    <i name="e_fr_energy">   -109.47845278 </i>
    <i name="e_wo_entrp">   -109.44722881 </i>
    <i name="e_0_energy">   -109.46284080 </i>
   </energy>
  </scstep>
  <scstep>
   <time name="dav">   63.13   63.14</time>
   <time name="total">   81.58   81.60</time>
   <energy>
    <i name="e_fr_energy">   -109.47862633 </i>
    <i name="e_wo_entrp">   -109.44740446 </i>
    <i name="e_0_energy">   -109.46301539 </i>
   </energy>
  </scstep>
  <scstep>
   <time name="dav">   60.18   60.19</time>
   <time name="total">   78.73   78.75</time>
   <energy>
    <i name="e_fr_energy">   -109.47871397 </i>
    <i name="e_wo_entrp">   -109.44749377 </i>
    <i name="e_0_energy">   -109.46310387 </i>
   </energy>
  </scstep>
  <scstep>
   <time name="dav">   55.96   55.97</time>
   <time name="total">   74.47   74.49</time>
   <energy>
    <i name="e_fr_energy">   -109.47874949 </i>
    <i name="e_wo_entrp">   -109.44752845 </i>
    <i name="e_0_energy">   -109.46313897 </i>
   </energy>
  </scstep>
  <scstep>
   <time name="dav">   60.79   60.81</time>
   <time name="total">   79.30   79.32</time>
   <energy>
    <i name="e_fr_energy">   -109.47868645 </i>
    <i name="e_wo_entrp">   -109.44746328 </i>
    <i name="e_0_energy">   -109.46307487 </i>
   </energy>
  </scstep>
  <scstep>
   <time name="dav">   56.08   56.09</time>
   <time name="total">   74.60   74.61</time>
   <energy>
    <i name="e_fr_energy">   -109.47866701 </i>
    <i name="e_wo_entrp">   -109.44744402 </i>
    <i name="e_0_energy">   -109.46305552 </i>
   </energy>
  </scstep>
  <scstep>
   <time name="dav">   56.90   56.91</time>
   <time name="total">   75.46   75.47</time>
   <energy>
    <i name="e_fr_energy">   -109.47860347 </i>
    <i name="e_wo_entrp">   -109.44738048 </i>
    <i name="e_0_energy">   -109.46299198 </i>
   </energy>
  </scstep>
  <scstep>
   <time name="dav">   54.28   54.29</time>
   <time name="total">   72.81   72.83</time>
   <energy>
    <i name="e_fr_energy">   -109.47859139 </i>
    <i name="e_wo_entrp">   -109.44736828 </i>
    <i name="e_0_energy">   -109.46297983 </i>
   </energy>
  </scstep>
  <scstep>
   <time name="dav">   56.56   56.57</time>
   <time name="total">   75.08   75.10</time>
   <energy>
    <i name="e_fr_energy">   -109.47857652 </i>
    <i name="e_wo_entrp">   -109.44735350 </i>
    <i name="e_0_energy">   -109.46296501 </i>
   </energy>
  </scstep>
  <scstep>
   <time name="dav">   54.78   54.79</time>
   <time name="total">   73.31   73.33</time>
   <energy>
    <i name="e_fr_energy">   -109.47857881 </i>
    <i name="e_wo_entrp">   -109.44735575 </i>
    <i name="e_0_energy">   -109.46296728 </i>
   </energy>
  </scstep>
  <scstep>
   <time name="dav">   49.11   49.12</time>
   <time name="total">   63.62   63.64</time>
   <energy>
    <i name="alphaZ">     36.80884744 </i>
    <i name="ewald">  12046.52589774 </i>
    <i name="hartreedc"> -15165.95553953 </i>
    <i name="XCdc">    -78.98445490 </i>
    <i name="pawpsdc">   1194.28068563 </i>
    <i name="pawaedc">   -874.53666219 </i>
    <i name="eentropy">     -0.03122303 </i>
    <i name="bandstr">   -621.62739048 </i>
    <i name="atom">   3354.04126044 </i>
    <i name="e_fr_energy">   -109.47857888 </i>
    <i name="e_wo_entrp">   -109.44735585 </i>
    <i name="e_0_energy">   -109.46296736 </i>
   </energy>
  </scstep>
  <structure>
   <crystal>
    <varray name="basis" >
     <v>       3.54040000       0.00000000       0.00000000 </v>
     <v>      -1.77020000      10.29434800       0.00000000 </v>
     <v>       0.00000000       0.00000000      27.50142900 </v>
    </varray>
    <i name="volume">   1002.32009712 </i>
    <varray name="rec_basis" >
     <v>       0.28245396       0.04857034       0.00000000 </v>
     <v>       0.00000000       0.09714068       0.00000000 </v>
     <v>       0.00000000       0.00000000       0.03636175 </v>
    </varray>
   </crystal>
   <varray name="positions" >
    <v>       0.11402300       0.22804500       0.23316207 </v>
    <v>       0.21402300       0.72804500       0.51499159 </v>
    <v>       0.45808900       0.91617900       0.20939482 </v>
    <v>       0.55808900       0.41617900       0.49122434 </v>
    <v>       0.31085400       0.62170900       0.08414979 </v>
    <v>       0.31085400       0.62170900       0.36597930 </v>
    <v>       0.99923000       0.99846000       0.08631254 </v>
    <v>       0.99923000       0.99846000       0.36814206 </v>
    <v>       0.65492700       0.30985400       0.06041748 </v>
    <v>       0.65492700       0.30985400       0.34224700 </v>
    <v>       0.76973800       0.53947500       0.20725292 </v>
    <v>       0.86973800       0.03947500       0.48908244 </v>
    <v>       0.93971600       0.87943300       0.15783749 </v>
    <v>       0.03971600       0.37943300       0.43966701 </v>
    <v>       0.20515200       0.41030300       0.18578822 </v>
    <v>       0.30515200       0.91030300       0.46761774 </v>
    <v>       0.20184900       0.40369900       0.09969156 </v>
    <v>       0.20184900       0.40369900       0.38152107 </v>
    <v>       0.56380500       0.12761000       0.10779021 </v>
    <v>       0.56380500       0.12761000       0.38961973 </v>
    <v>       0.56710600       0.13421200       0.19387616 </v>
    <v>       0.66710600       0.63421200       0.47570568 </v>
    <v>       0.82923400       0.65846800       0.13571444 </v>
    <v>       0.92923400       0.15846800       0.41754396 </v>
   </varray>
  </structure>
  <varray name="forces" >
   <v>      -0.02305453      -0.03686205      -0.00375547 </v>
   <v>      -0.15066269      -0.00094497      -0.14666123 </v>
   <v>      -0.00130646      -0.01263083       0.08052813 </v>
   <v>       0.29829449      -0.20132588       0.27712100 </v>
   <v>      -0.00019662      -0.00316709       0.00719545 </v>
   <v>       0.51991658      -0.08934456       0.91636749 </v>
   <v>      -0.00332769      -0.00148460       0.00262284 </v>
   <v>       1.39053194      -1.12771800      -1.13843345 </v>
   <v>       0.00132974      -0.00082260       0.00624829 </v>
   <v>      -0.33075202       0.24168124      -1.00949445 </v>
   <v>       0.00164948       0.00836418       0.09353161 </v>
   <v>       0.10509295      -0.49071099       0.88699139 </v>
   <v>       0.00243140      -0.00378967       0.00714057 </v>
   <v>      -5.82156346      -2.60318122      20.60991109 </v>
   <v>      -0.00335906       0.01538536       0.04343577 </v>
   <v>      -0.20993775       0.51181038       0.13206926 </v>
   <v>       0.00093534      -0.00046908      -0.01780580 </v>
   <v>       6.21276674       4.98439757     -20.73524846 </v>
   <v>      -0.00546888      -0.00786423      -0.01235790 </v>
   <v>     -37.44898974      -9.69635604     -24.43169760 </v>
   <v>       0.00436916      -0.01932658       0.00761207 </v>
   <v>      -0.41098530      -0.11537101      -1.10702241 </v>
   <v>       0.00198175       0.00668924      -0.00143025 </v>
   <v>      35.87030465       8.64304144      25.53313203 </v>
  </varray>
  <varray name="stress" >
   <v>      79.84010683      20.30497874      26.72840698 </v>
   <v>      20.30497840      13.81290179       2.51025872 </v>
   <v>      26.72840702       2.51025859      83.41286972 </v>
  </varray>
  <energy>
   <i name="e_fr_energy">   -109.47857888 </i>
   <i name="e_wo_entrp">   -109.46296736 </i>
   <i name="e_0_energy">     -0.03122303 </i>
  </energy>
  <time name="totalsc"> 2320.81 2321.31</time>
  <eigenvalues>
   <array>
    <dimension dim="1">band</dimension>
    <dimension dim="2">kpoint</dimension>
    <dimension dim="3">spin</dimension>
    <field>eigene</field>
    <field>occ</field>
    <set>
     <set comment="spin 1">
      <set comment="kpoint 1">
       <r>  -15.0284    1.0000 </r>
       <r>  -13.5275    1.0000 </r>
       <r>  -13.3909    1.0000 </r>
       <r>  -12.8068    1.0000 </r>
       <r>  -12.7867    1.0000 </r>
       <r>  -12.4679    1.0000 </r>
       <r>  -12.0749    1.0000 </r>
       <r>  -11.7509    1.0000 </r>
       <r>  -11.4551    1.0000 </r>
       <r>  -11.4181    1.0000 </r>
       <r>  -10.9784    1.0000 </r>
       <r>  -10.0142    1.0000 </r>
       <r>   -9.1567    1.0000 </r>
       <r>   -8.3425    1.0000 </r>
       <r>   -8.0142    1.0000 </r>
       <r>   -7.8144    1.0000 </r>
       <r>   -6.8211    1.0000 </r>
       <r>   -6.7757    1.0000 </r>
       <r>   -6.4804    1.0000 </r>
       <r>   -5.9428    1.0000 </r>
       <r>   -5.8214    1.0000 </r>
       <r>   -5.5939    1.0000 </r>
       <r>   -5.1516    1.0000 </r>
       <r>   -4.7359    1.0000 </r>
       <r>   -4.4397    1.0000 </r>
       <r>   -4.2358    1.0000 </r>
       <r>   -3.7051    1.0000 </r>
       <r>   -3.6203    1.0000 </r>
       <r>   -3.4166    1.0000 </r>
       <r>   -3.1242    1.0000 </r>
       <r>   -3.0759    1.0000 </r>
       <r>   -3.0425    1.0000 </r>
       <r>   -2.9833    1.0000 </r>
       <r>   -2.8314    1.0000 </r>
       <r>   -2.6121    1.0000 </r>
       <r>   -2.4828    1.0000 </r>
       <r>   -2.4271    1.0000 </r>
       <r>   -2.3718    1.0000 </r>
       <r>   -2.3586    1.0000 </r>
       <r>   -2.0780    1.0000 </r>
       <r>   -1.9745    1.0000 </r>
       <r>   -1.8498    1.0000 </r>
       <r>   -1.7287    1.0000 </r>
       <r>   -1.7175    1.0000 </r>
       <r>   -1.6305    1.0000 </r>
       <r>   -1.6198    1.0000 </r>
       <r>   -1.5536    1.0000 </r>
       <r>   -1.4193    1.0000 </r>
       <r>   -1.3507    1.0000 </r>
       <r>   -1.1287    1.0000 </r>
       <r>   -0.9614    1.0000 </r>
       <r>   -0.6024    1.0000 </r>
       <r>   -0.5694    1.0000 </r>
       <r>    0.2393    0.0143 </r>
       <r>    0.5283    0.0000 </r>
       <r>    0.8243    0.0000 </r>
       <r>    1.1615    0.0000 </r>
       <r>    1.1949    0.0000 </r>
       <r>    1.2574    0.0000 </r>
       <r>    1.3410    0.0000 </r>
       <r>    1.4897    0.0000 </r>
       <r>    1.6569    0.0000 </r>
       <r>    1.7789    0.0000 </r>
       <r>    1.9765    0.0000 </r>
       <r>    2.0831    0.0000 </r>
       <r>    2.1521    0.0000 </r>
       <r>    2.4443    0.0000 </r>
       <r>    2.5967    0.0000 </r>
      </set>
      <set comment="kpoint 2">
       <r>  -14.9697    1.0000 </r>
       <r>  -13.4662    1.0000 </r>
       <r>  -13.3351    1.0000 </r>
       <r>  -12.7477    1.0000 </r>
       <r>  -12.7338    1.0000 </r>
       <r>  -12.4123    1.0000 </r>
       <r>  -12.0126    1.0000 </r>
       <r>  -11.7105    1.0000 </r>
       <r>  -11.3946    1.0000 </r>
       <r>  -11.3687    1.0000 </r>
       <r>  -10.9300    1.0000 </r>
       <r>   -9.9880    1.0000 </r>
       <r>   -9.1464    1.0000 </r>
       <r>   -8.3385    1.0000 </r>
       <r>   -8.0527    1.0000 </r>
       <r>   -7.7765    1.0000 </r>
       <r>   -6.7964    1.0000 </r>
       <r>   -6.7740    1.0000 </r>
       <r>   -6.4745    1.0000 </r>
       <r>   -5.9308    1.0000 </r>
       <r>   -5.7891    1.0000 </r>
       <r>   -5.6022    1.0000 </r>
       <r>   -5.2709    1.0000 </r>
       <r>   -4.8272    1.0000 </r>
       <r>   -4.7352    1.0000 </r>
       <r>   -4.2424    1.0000 </r>
       <r>   -3.7561    1.0000 </r>
       <r>   -3.6698    1.0000 </r>
       <r>   -3.5720    1.0000 </r>
       <r>   -3.4119    1.0000 </r>
       <r>   -3.2899    1.0000 </r>
       <r>   -3.2505    1.0000 </r>
       <r>   -3.1438    1.0000 </r>
       <r>   -2.9679    1.0000 </r>
       <r>   -2.7726    1.0000 </r>
       <r>   -2.7314    1.0000 </r>
       <r>   -2.5592    1.0000 </r>
       <r>   -2.4670    1.0000 </r>
       <r>   -2.4364    1.0000 </r>
       <r>   -2.1993    1.0000 </r>
       <r>   -2.0986    1.0000 </r>
       <r>   -2.0436    1.0000 </r>
       <r>   -1.9532    1.0000 </r>
       <r>   -1.8407    1.0000 </r>
       <r>   -1.8204    1.0000 </r>
       <r>   -1.7385    1.0000 </r>
       <r>   -1.6605    1.0000 </r>
       <r>   -1.4988    1.0000 </r>
       <r>   -1.2914    1.0000 </r>
       <r>   -1.1050    1.0000 </r>
       <r>   -0.9206    1.0000 </r>
       <r>   -0.6173    1.0000 </r>
       <r>   -0.5308    1.0000 </r>
       <r>    0.1862    0.0754 </r>
       <r>    0.5827    0.0000 </r>
       <r>    0.8450    0.0000 </r>
       <r>    1.1406    0.0000 </r>
       <r>    1.2617    0.0000 </r>
       <r>    1.5805    0.0000 </r>
       <r>    1.6041    0.0000 </r>
       <r>    1.7783    0.0000 </r>
       <r>    2.0402    0.0000 </r>
       <r>    2.1447    0.0000 </r>
       <r>    2.2257    0.0000 </r>
       <r>    2.2672    0.0000 </r>
       <r>    2.4618    0.0000 </r>
       <r>    2.6239    0.0000 </r>
       <r>    2.7460    0.0000 </r>
      </set>
      <set comment="kpoint 3">
       <r>  -14.7956    1.0000 </r>
       <r>  -13.2832    1.0000 </r>
       <r>  -13.1693    1.0000 </r>
       <r>  -12.5818    1.0000 </r>
       <r>  -12.5670    1.0000 </r>
       <r>  -12.2476    1.0000 </r>
       <r>  -11.8303    1.0000 </r>
       <r>  -11.5901    1.0000 </r>
       <r>  -11.2315    1.0000 </r>
       <r>  -11.2146    1.0000 </r>
       <r>  -10.7912    1.0000 </r>
       <r>   -9.9291    1.0000 </r>
       <r>   -9.1356    1.0000 </r>
       <r>   -8.3545    1.0000 </r>
       <r>   -8.1515    1.0000 </r>
       <r>   -7.7343    1.0000 </r>
       <r>   -6.8882    1.0000 </r>
       <r>   -6.7087    1.0000 </r>
       <r>   -6.4864    1.0000 </r>
       <r>   -6.1259    1.0000 </r>
       <r>   -5.7478    1.0000 </r>
       <r>   -5.7048    1.0000 </r>
       <r>   -5.4917    1.0000 </r>
       <r>   -4.9940    1.0000 </r>
       <r>   -4.8537    1.0000 </r>
       <r>   -4.4571    1.0000 </r>
       <r>   -4.2851    1.0000 </r>
       <r>   -4.1899    1.0000 </r>
       <r>   -4.0705    1.0000 </r>
       <r>   -3.9595    1.0000 </r>
       <r>   -3.6932    1.0000 </r>
       <r>   -3.6190    1.0000 </r>
       <r>   -3.4324    1.0000 </r>
       <r>   -3.2786    1.0000 </r>
       <r>   -3.1461    1.0000 </r>
       <r>   -2.9692    1.0000 </r>
       <r>   -2.9555    1.0000 </r>
       <r>   -2.9050    1.0000 </r>
       <r>   -2.7536    1.0000 </r>
       <r>   -2.6515    1.0000 </r>
       <r>   -2.3856    1.0000 </r>
       <r>   -2.3144    1.0000 </r>
       <r>   -2.1405    1.0000 </r>
       <r>   -2.0247    1.0000 </r>
       <r>   -1.9155    1.0000 </r>
       <r>   -1.7638    1.0000 </r>
       <r>   -1.6542    1.0000 </r>
       <r>   -1.5700    1.0000 </r>
       <r>   -1.2784    1.0000 </r>
       <r>   -1.1612    1.0000 </r>
       <r>   -0.8901    1.0000 </r>
       <r>   -0.7273    1.0000 </r>
       <r>   -0.5661    1.0000 </r>
       <r>    0.1325    0.2492 </r>
       <r>    0.4447    0.0000 </r>
       <r>    0.8450    0.0000 </r>
       <r>    1.1432    0.0000 </r>
       <r>    1.2981    0.0000 </r>
       <r>    1.7309    0.0000 </r>
       <r>    1.9635    0.0000 </r>
       <r>    2.2640    0.0000 </r>
       <r>    2.4397    0.0000 </r>
       <r>    2.6064    0.0000 </r>
       <r>    2.6492    0.0000 </r>
       <r>    2.7398    0.0000 </r>
       <r>    2.9103    0.0000 </r>
       <r>    3.0225    0.0000 </r>
       <r>    3.0528    0.0000 </r>
      </set>
      <set comment="kpoint 4">
       <r>  -14.5127    1.0000 </r>
       <r>  -12.9823    1.0000 </r>
       <r>  -12.8987    1.0000 </r>
       <r>  -12.3243    1.0000 </r>
       <r>  -12.2827    1.0000 </r>
       <r>  -11.9810    1.0000 </r>
       <r>  -11.5432    1.0000 </r>
       <r>  -11.3998    1.0000 </r>
       <r>  -11.0125    1.0000 </r>
       <r>  -10.9503    1.0000 </r>
       <r>  -10.5881    1.0000 </r>
       <r>   -9.9315    1.0000 </r>
       <r>   -9.1617    1.0000 </r>
       <r>   -8.4780    1.0000 </r>
       <r>   -8.3440    1.0000 </r>
       <r>   -7.8090    1.0000 </r>
       <r>   -7.2079    1.0000 </r>
       <r>   -6.6805    1.0000 </r>
       <r>   -6.6202    1.0000 </r>
       <r>   -6.5071    1.0000 </r>
       <r>   -5.9203    1.0000 </r>
       <r>   -5.7299    1.0000 </r>
       <r>   -5.5798    1.0000 </r>
       <r>   -5.3264    1.0000 </r>
       <r>   -5.2178    1.0000 </r>
       <r>   -4.9366    1.0000 </r>
       <r>   -4.7927    1.0000 </r>
       <r>   -4.6329    1.0000 </r>
       <r>   -4.5778    1.0000 </r>
       <r>   -4.4901    1.0000 </r>
       <r>   -4.1724    1.0000 </r>
       <r>   -3.9493    1.0000 </r>
       <r>   -3.7787    1.0000 </r>
       <r>   -3.6808    1.0000 </r>
       <r>   -3.4664    1.0000 </r>
       <r>   -3.4283    1.0000 </r>
       <r>   -3.0899    1.0000 </r>
       <r>   -3.0023    1.0000 </r>
       <r>   -2.9771    1.0000 </r>
       <r>   -2.7160    1.0000 </r>
       <r>   -2.5826    1.0000 </r>
       <r>   -2.5186    1.0000 </r>
       <r>   -2.4220    1.0000 </r>
       <r>   -2.1667    1.0000 </r>
       <r>   -1.8902    1.0000 </r>
       <r>   -1.8232    1.0000 </r>
       <r>   -1.7240    1.0000 </r>
       <r>   -1.5080    1.0000 </r>
       <r>   -1.4465    1.0000 </r>
       <r>   -1.3383    1.0000 </r>
       <r>   -1.0030    1.0000 </r>
       <r>   -0.9169    1.0000 </r>
       <r>   -0.7028    1.0000 </r>
       <r>   -0.3099    1.0000 </r>
       <r>    0.3582    0.0001 </r>
       <r>    0.6568    0.0000 </r>
       <r>    1.1432    0.0000 </r>
       <r>    1.6052    0.0000 </r>
       <r>    1.8901    0.0000 </r>
       <r>    1.9165    0.0000 </r>
       <r>    2.0743    0.0000 </r>
       <r>    2.2818    0.0000 </r>
       <r>    2.4019    0.0000 </r>
       <r>    2.6616    0.0000 </r>
       <r>    2.7238    0.0000 </r>
       <r>    2.8676    0.0000 </r>
       <r>    2.9073    0.0000 </r>
       <r>    2.9714    0.0000 </r>
      </set>
      <set comment="kpoint 5">
       <r>  -14.1373    1.0000 </r>
       <r>  -12.5714    1.0000 </r>
       <r>  -12.5358    1.0000 </r>
       <r>  -11.9758    1.0000 </r>
       <r>  -11.9107    1.0000 </r>
       <r>  -11.6294    1.0000 </r>
       <r>  -11.2025    1.0000 </r>
       <r>  -11.1653    1.0000 </r>
       <r>  -10.7680    1.0000 </r>
       <r>  -10.6394    1.0000 </r>
       <r>  -10.4021    1.0000 </r>
       <r>  -10.1941    1.0000 </r>
       <r>   -9.1548    1.0000 </r>
       <r>   -8.7815    1.0000 </r>
       <r>   -8.6396    1.0000 </r>
       <r>   -8.0704    1.0000 </r>
       <r>   -7.4331    1.0000 </r>
       <r>   -6.9826    1.0000 </r>
       <r>   -6.9184    1.0000 </r>
       <r>   -6.8855    1.0000 </r>
       <r>   -6.4856    1.0000 </r>
       <r>   -6.1505    1.0000 </r>
       <r>   -5.9507    1.0000 </r>
       <r>   -5.7976    1.0000 </r>
       <r>   -5.4213    1.0000 </r>
       <r>   -5.2134    1.0000 </r>
       <r>   -5.1445    1.0000 </r>
       <r>   -4.7768    1.0000 </r>
       <r>   -4.7030    1.0000 </r>
       <r>   -4.6741    1.0000 </r>
       <r>   -4.3015    1.0000 </r>
       <r>   -4.2054    1.0000 </r>
       <r>   -4.0390    1.0000 </r>
       <r>   -3.8959    1.0000 </r>
       <r>   -3.5319    1.0000 </r>
       <r>   -3.3773    1.0000 </r>
       <r>   -3.2598    1.0000 </r>
       <r>   -3.0924    1.0000 </r>
       <r>   -3.0586    1.0000 </r>
       <r>   -2.9239    1.0000 </r>
       <r>   -2.7658    1.0000 </r>
       <r>   -2.6271    1.0000 </r>
       <r>   -2.5681    1.0000 </r>
       <r>   -2.2434    1.0000 </r>
       <r>   -2.0516    1.0000 </r>
       <r>   -1.9058    1.0000 </r>
       <r>   -1.8639    1.0000 </r>
       <r>   -1.7009    1.0000 </r>
       <r>   -1.5956    1.0000 </r>
       <r>   -1.3650    1.0000 </r>
       <r>   -1.2540    1.0000 </r>
       <r>   -1.1417    1.0000 </r>
       <r>   -0.8284    1.0000 </r>
       <r>   -0.6399    1.0000 </r>
       <r>    0.2073    0.0414 </r>
       <r>    0.4835    0.0000 </r>
       <r>    0.9752    0.0000 </r>
       <r>    1.4349    0.0000 </r>
       <r>    1.6625    0.0000 </r>
       <r>    1.8293    0.0000 </r>
       <r>    1.9806    0.0000 </r>
       <r>    2.1833    0.0000 </r>
       <r>    2.3053    0.0000 </r>
       <r>    2.3991    0.0000 </r>
       <r>    2.4551    0.0000 </r>
       <r>    2.6730    0.0000 </r>
       <r>    2.7733    0.0000 </r>
       <r>    2.8772    0.0000 </r>
      </set>
      <set comment="kpoint 6">
       <r>  -13.7109    1.0000 </r>
       <r>  -12.1186    1.0000 </r>
       <r>  -12.0604    1.0000 </r>
       <r>  -11.5570    1.0000 </r>
       <r>  -11.5257    1.0000 </r>
       <r>  -11.2324    1.0000 </r>
       <r>  -11.0709    1.0000 </r>
       <r>  -10.8372    1.0000 </r>
       <r>  -10.6231    1.0000 </r>
       <r>  -10.6129    1.0000 </r>
       <r>  -10.4416    1.0000 </r>
       <r>  -10.3708    1.0000 </r>
       <r>   -9.2040    1.0000 </r>
       <r>   -9.0179    1.0000 </r>
       <r>   -8.8166    1.0000 </r>
       <r>   -8.3632    1.0000 </r>
       <r>   -7.6642    1.0000 </r>
       <r>   -7.4452    1.0000 </r>
       <r>   -7.4026    1.0000 </r>
       <r>   -7.2565    1.0000 </r>
       <r>   -6.9832    1.0000 </r>
       <r>   -6.7471    1.0000 </r>
       <r>   -6.6479    1.0000 </r>
       <r>   -6.2605    1.0000 </r>
       <r>   -5.5440    1.0000 </r>
       <r>   -5.1936    1.0000 </r>
       <r>   -4.9808    1.0000 </r>
       <r>   -4.6694    1.0000 </r>
       <r>   -4.5824    1.0000 </r>
       <r>   -4.5106    1.0000 </r>
       <r>   -4.2623    1.0000 </r>
       <r>   -4.2019    1.0000 </r>
       <r>   -4.0607    1.0000 </r>
       <r>   -3.8016    1.0000 </r>
       <r>   -3.6532    1.0000 </r>
       <r>   -3.6006    1.0000 </r>
       <r>   -3.4735    1.0000 </r>
       <r>   -3.2542    1.0000 </r>
       <r>   -3.1533    1.0000 </r>
       <r>   -3.0828    1.0000 </r>
       <r>   -2.8231    1.0000 </r>
       <r>   -2.7353    1.0000 </r>
       <r>   -2.4987    1.0000 </r>
       <r>   -2.3630    1.0000 </r>
       <r>   -2.2738    1.0000 </r>
       <r>   -2.1505    1.0000 </r>
       <r>   -2.0163    1.0000 </r>
       <r>   -1.8654    1.0000 </r>
       <r>   -1.6957    1.0000 </r>
       <r>   -1.5288    1.0000 </r>
       <r>   -1.4168    1.0000 </r>
       <r>   -1.3540    1.0000 </r>
       <r>   -0.9401    1.0000 </r>
       <r>   -0.6129    1.0000 </r>
       <r>    0.0655    0.6062 </r>
       <r>    0.3122    0.0006 </r>
       <r>    0.8683    0.0000 </r>
       <r>    1.3346    0.0000 </r>
       <r>    1.4993    0.0000 </r>
       <r>    1.7069    0.0000 </r>
       <r>    1.7595    0.0000 </r>
       <r>    2.0027    0.0000 </r>
       <r>    2.0903    0.0000 </r>
       <r>    2.1675    0.0000 </r>
       <r>    2.2971    0.0000 </r>
       <r>    2.3397    0.0000 </r>
       <r>    2.6308    0.0000 </r>
       <r>    2.7448    0.0000 </r>
      </set>
      <set comment="kpoint 7">
       <r>  -13.3602    1.0000 </r>
       <r>  -11.7704    1.0000 </r>
       <r>  -11.4879    1.0000 </r>
       <r>  -11.4570    1.0000 </r>
       <r>  -11.1340    1.0000 </r>
       <r>  -11.0109    1.0000 </r>
       <r>  -10.9318    1.0000 </r>
       <r>  -10.8308    1.0000 </r>
       <r>  -10.8006    1.0000 </r>
       <r>  -10.7156    1.0000 </r>
       <r>  -10.6205    1.0000 </r>
       <r>  -10.3058    1.0000 </r>
       <r>   -9.4094    1.0000 </r>
       <r>   -8.9410    1.0000 </r>
       <r>   -8.6747    1.0000 </r>
       <r>   -8.4259    1.0000 </r>
       <r>   -8.0654    1.0000 </r>
       <r>   -7.8668    1.0000 </r>
       <r>   -7.5936    1.0000 </r>
       <r>   -7.5562    1.0000 </r>
       <r>   -7.2733    1.0000 </r>
       <r>   -7.1820    1.0000 </r>
       <r>   -7.1621    1.0000 </r>
       <r>   -6.4826    1.0000 </r>
       <r>   -5.4878    1.0000 </r>
       <r>   -4.9834    1.0000 </r>
       <r>   -4.9005    1.0000 </r>
       <r>   -4.6000    1.0000 </r>
       <r>   -4.4910    1.0000 </r>
       <r>   -4.2863    1.0000 </r>
       <r>   -4.2058    1.0000 </r>
       <r>   -4.0473    1.0000 </r>
       <r>   -3.9317    1.0000 </r>
       <r>   -3.8428    1.0000 </r>
       <r>   -3.8131    1.0000 </r>
       <r>   -3.6889    1.0000 </r>
       <r>   -3.5576    1.0000 </r>
       <r>   -3.4175    1.0000 </r>
       <r>   -3.2422    1.0000 </r>
       <r>   -3.0771    1.0000 </r>
       <r>   -2.9960    1.0000 </r>
       <r>   -2.8077    1.0000 </r>
       <r>   -2.6860    1.0000 </r>
       <r>   -2.5986    1.0000 </r>
       <r>   -2.3467    1.0000 </r>
       <r>   -2.2037    1.0000 </r>
       <r>   -2.1067    1.0000 </r>
       <r>   -1.9004    1.0000 </r>
       <r>   -1.7382    1.0000 </r>
       <r>   -1.6558    1.0000 </r>
       <r>   -1.5119    1.0000 </r>
       <r>   -1.3719    1.0000 </r>
       <r>   -0.9641    1.0000 </r>
       <r>   -0.6189    1.0000 </r>
       <r>    0.0112    0.8503 </r>
       <r>    0.2324    0.0183 </r>
       <r>    0.7872    0.0000 </r>
       <r>    1.3425    0.0000 </r>
       <r>    1.3873    0.0000 </r>
       <r>    1.5763    0.0000 </r>
       <r>    1.6847    0.0000 </r>
       <r>    1.7373    0.0000 </r>
       <r>    1.9243    0.0000 </r>
       <r>    2.0805    0.0000 </r>
       <r>    2.1819    0.0000 </r>
       <r>    2.3893    0.0000 </r>
       <r>    2.5023    0.0000 </r>
       <r>    2.6099    0.0000 </r>
      </set>
      <set comment="kpoint 8">
       <r>  -15.0260    1.0000 </r>
       <r>  -13.4732    1.0000 </r>
       <r>  -13.4347    1.0000 </r>
       <r>  -12.9617    1.0000 </r>
       <r>  -12.6923    1.0000 </r>
       <r>  -12.4665    1.0000 </r>
       <r>  -11.9805    1.0000 </r>
       <r>  -11.8562    1.0000 </r>
       <r>  -11.4649    1.0000 </r>
       <r>  -11.2624    1.0000 </r>
       <r>  -10.9870    1.0000 </r>
       <r>   -9.9878    1.0000 </r>
       <r>   -9.2772    1.0000 </r>
       <r>   -8.5022    1.0000 </r>
       <r>   -8.3075    1.0000 </r>
       <r>   -7.3639    1.0000 </r>
       <r>   -6.8405    1.0000 </r>
       <r>   -6.6578    1.0000 </r>
       <r>   -6.5898    1.0000 </r>
       <r>   -5.8986    1.0000 </r>
       <r>   -5.7361    1.0000 </r>
       <r>   -5.5951    1.0000 </r>
       <r>   -4.9815    1.0000 </r>
       <r>   -4.6379    1.0000 </r>
       <r>   -4.4068    1.0000 </r>
       <r>   -4.1765    1.0000 </r>
       <r>   -4.0031    1.0000 </r>
       <r>   -3.6208    1.0000 </r>
       <r>   -3.4688    1.0000 </r>
       <r>   -3.3002    1.0000 </r>
       <r>   -3.1160    1.0000 </r>
       <r>   -3.1015    1.0000 </r>
       <r>   -3.0123    1.0000 </r>
       <r>   -2.7400    1.0000 </r>
       <r>   -2.6961    1.0000 </r>
       <r>   -2.5533    1.0000 </r>
       <r>   -2.3833    1.0000 </r>
       <r>   -2.3753    1.0000 </r>
       <r>   -2.2786    1.0000 </r>
       <r>   -2.1426    1.0000 </r>
       <r>   -1.9766    1.0000 </r>
       <r>   -1.8787    1.0000 </r>
       <r>   -1.8665    1.0000 </r>
       <r>   -1.7790    1.0000 </r>
       <r>   -1.6147    1.0000 </r>
       <r>   -1.5477    1.0000 </r>
       <r>   -1.4701    1.0000 </r>
       <r>   -1.3501    1.0000 </r>
       <r>   -1.2274    1.0000 </r>
       <r>   -1.1022    1.0000 </r>
       <r>   -0.9822    1.0000 </r>
       <r>   -0.7663    1.0000 </r>
       <r>   -0.5346    1.0000 </r>
       <r>    0.0900    0.4693 </r>
       <r>    0.7053    0.0000 </r>
       <r>    0.9294    0.0000 </r>
       <r>    1.1405    0.0000 </r>
       <r>    1.1952    0.0000 </r>
       <r>    1.2957    0.0000 </r>
       <r>    1.4044    0.0000 </r>
       <r>    1.5310    0.0000 </r>
       <r>    1.7059    0.0000 </r>
       <r>    1.7975    0.0000 </r>
       <r>    1.8299    0.0000 </r>
       <r>    2.1139    0.0000 </r>
       <r>    2.2714    0.0000 </r>
       <r>    2.5086    0.0000 </r>
       <r>    2.6538    0.0000 </r>
      </set>
      <set comment="kpoint 9">
       <r>  -14.9669    1.0000 </r>
       <r>  -13.3997    1.0000 </r>
       <r>  -13.3831    1.0000 </r>
       <r>  -12.9426    1.0000 </r>
       <r>  -12.6063    1.0000 </r>
       <r>  -12.4094    1.0000 </r>
       <r>  -11.9714    1.0000 </r>
       <r>  -11.7578    1.0000 </r>
       <r>  -11.4236    1.0000 </r>
       <r>  -11.1783    1.0000 </r>
       <r>  -10.9427    1.0000 </r>
       <r>   -9.9590    1.0000 </r>
       <r>   -9.2862    1.0000 </r>
       <r>   -8.5605    1.0000 </r>
       <r>   -8.2977    1.0000 </r>
       <r>   -7.3147    1.0000 </r>
       <r>   -6.8669    1.0000 </r>
       <r>   -6.6660    1.0000 </r>
       <r>   -6.5184    1.0000 </r>
       <r>   -5.8392    1.0000 </r>
       <r>   -5.6849    1.0000 </r>
       <r>   -5.5840    1.0000 </r>
       <r>   -5.2790    1.0000 </r>
       <r>   -4.6947    1.0000 </r>
       <r>   -4.6596    1.0000 </r>
       <r>   -4.1680    1.0000 </r>
       <r>   -4.0454    1.0000 </r>
       <r>   -3.6354    1.0000 </r>
       <r>   -3.5340    1.0000 </r>
       <r>   -3.4680    1.0000 </r>
       <r>   -3.3933    1.0000 </r>
       <r>   -3.3494    1.0000 </r>
       <r>   -3.1165    1.0000 </r>
       <r>   -3.0126    1.0000 </r>
       <r>   -2.9259    1.0000 </r>
       <r>   -2.7170    1.0000 </r>
       <r>   -2.6305    1.0000 </r>
       <r>   -2.4909    1.0000 </r>
       <r>   -2.3577    1.0000 </r>
       <r>   -2.2749    1.0000 </r>
       <r>   -2.1535    1.0000 </r>
       <r>   -2.0589    1.0000 </r>
       <r>   -2.0008    1.0000 </r>
       <r>   -1.8698    1.0000 </r>
       <r>   -1.8268    1.0000 </r>
       <r>   -1.7364    1.0000 </r>
       <r>   -1.4907    1.0000 </r>
       <r>   -1.3977    1.0000 </r>
       <r>   -1.1717    1.0000 </r>
       <r>   -1.0757    1.0000 </r>
       <r>   -0.9272    1.0000 </r>
       <r>   -0.7910    1.0000 </r>
       <r>   -0.5244    1.0000 </r>
       <r>    0.0513    0.6811 </r>
       <r>    0.7821    0.0000 </r>
       <r>    0.8513    0.0000 </r>
       <r>    1.1144    0.0000 </r>
       <r>    1.2965    0.0000 </r>
       <r>    1.5997    0.0000 </r>
       <r>    1.6431    0.0000 </r>
       <r>    1.7985    0.0000 </r>
       <r>    1.9529    0.0000 </r>
       <r>    2.0674    0.0000 </r>
       <r>    2.2302    0.0000 </r>
       <r>    2.5029    0.0000 </r>
       <r>    2.5211    0.0000 </r>
       <r>    2.6696    0.0000 </r>
       <r>    2.7375    0.0000 </r>
      </set>
      <set comment="kpoint 10">
       <r>  -14.7925    1.0000 </r>
       <r>  -13.2271    1.0000 </r>
       <r>  -13.1961    1.0000 </r>
       <r>  -12.8061    1.0000 </r>
       <r>  -12.4116    1.0000 </r>
       <r>  -12.2432    1.0000 </r>
       <r>  -11.8590    1.0000 </r>
       <r>  -11.5602    1.0000 </r>
       <r>  -11.2841    1.0000 </r>
       <r>  -11.0036    1.0000 </r>
       <r>  -10.8014    1.0000 </r>
       <r>   -9.9024    1.0000 </r>
       <r>   -9.2727    1.0000 </r>
       <r>   -8.6263    1.0000 </r>
       <r>   -8.3228    1.0000 </r>
       <r>   -7.2867    1.0000 </r>
       <r>   -6.9346    1.0000 </r>
       <r>   -6.6436    1.0000 </r>
       <r>   -6.4864    1.0000 </r>
       <r>   -6.1195    1.0000 </r>
       <r>   -5.7208    1.0000 </r>
       <r>   -5.6323    1.0000 </r>
       <r>   -5.4987    1.0000 </r>
       <r>   -4.8706    1.0000 </r>
       <r>   -4.8183    1.0000 </r>
       <r>   -4.4290    1.0000 </r>
       <r>   -4.3569    1.0000 </r>
       <r>   -4.2796    1.0000 </r>
       <r>   -4.1432    1.0000 </r>
       <r>   -3.9489    1.0000 </r>
       <r>   -3.7133    1.0000 </r>
       <r>   -3.6034    1.0000 </r>
       <r>   -3.3994    1.0000 </r>
       <r>   -3.3218    1.0000 </r>
       <r>   -3.1503    1.0000 </r>
       <r>   -3.0132    1.0000 </r>
       <r>   -2.9476    1.0000 </r>
       <r>   -2.8209    1.0000 </r>
       <r>   -2.7727    1.0000 </r>
       <r>   -2.6061    1.0000 </r>
       <r>   -2.5400    1.0000 </r>
       <r>   -2.3618    1.0000 </r>
       <r>   -2.3022    1.0000 </r>
       <r>   -2.0462    1.0000 </r>
       <r>   -1.9081    1.0000 </r>
       <r>   -1.8740    1.0000 </r>
       <r>   -1.4982    1.0000 </r>
       <r>   -1.3636    1.0000 </r>
       <r>   -1.2360    1.0000 </r>
       <r>   -1.1230    1.0000 </r>
       <r>   -0.9335    1.0000 </r>
       <r>   -0.8394    1.0000 </r>
       <r>   -0.6498    1.0000 </r>
       <r>    0.1279    0.2701 </r>
       <r>    0.5139    0.0000 </r>
       <r>    0.8737    0.0000 </r>
       <r>    1.0494    0.0000 </r>
       <r>    1.3664    0.0000 </r>
       <r>    1.6579    0.0000 </r>
       <r>    1.7712    0.0000 </r>
       <r>    2.1206    0.0000 </r>
       <r>    2.3578    0.0000 </r>
       <r>    2.6954    0.0000 </r>
       <r>    2.7401    0.0000 </r>
       <r>    2.8858    0.0000 </r>
       <r>    3.0217    0.0000 </r>
       <r>    3.0567    0.0000 </r>
       <r>    3.0880    0.0000 </r>
      </set>
      <set comment="kpoint 11">
       <r>  -14.5097    1.0000 </r>
       <r>  -12.9532    1.0000 </r>
       <r>  -12.8857    1.0000 </r>
       <r>  -12.5548    1.0000 </r>
       <r>  -12.1206    1.0000 </r>
       <r>  -11.9759    1.0000 </r>
       <r>  -11.6524    1.0000 </r>
       <r>  -11.2836    1.0000 </r>
       <r>  -11.0623    1.0000 </r>
       <r>  -10.7604    1.0000 </r>
       <r>  -10.5842    1.0000 </r>
       <r>   -9.9219    1.0000 </r>
       <r>   -9.2578    1.0000 </r>
       <r>   -8.7579    1.0000 </r>
       <r>   -8.4637    1.0000 </r>
       <r>   -7.3782    1.0000 </r>
       <r>   -7.1729    1.0000 </r>
       <r>   -6.6846    1.0000 </r>
       <r>   -6.6747    1.0000 </r>
       <r>   -6.6300    1.0000 </r>
       <r>   -5.8137    1.0000 </r>
       <r>   -5.7196    1.0000 </r>
       <r>   -5.6165    1.0000 </r>
       <r>   -5.2147    1.0000 </r>
       <r>   -5.1755    1.0000 </r>
       <r>   -5.0253    1.0000 </r>
       <r>   -4.9290    1.0000 </r>
       <r>   -4.6552    1.0000 </r>
       <r>   -4.5859    1.0000 </r>
       <r>   -4.5316    1.0000 </r>
       <r>   -4.0393    1.0000 </r>
       <r>   -3.9892    1.0000 </r>
       <r>   -3.7278    1.0000 </r>
       <r>   -3.6116    1.0000 </r>
       <r>   -3.3854    1.0000 </r>
       <r>   -3.1970    1.0000 </r>
       <r>   -3.0836    1.0000 </r>
       <r>   -3.0574    1.0000 </r>
       <r>   -3.0249    1.0000 </r>
       <r>   -2.7060    1.0000 </r>
       <r>   -2.6137    1.0000 </r>
       <r>   -2.5478    1.0000 </r>
       <r>   -2.5120    1.0000 </r>
       <r>   -2.1307    1.0000 </r>
       <r>   -1.9774    1.0000 </r>
       <r>   -1.8827    1.0000 </r>
       <r>   -1.7636    1.0000 </r>
       <r>   -1.5021    1.0000 </r>
       <r>   -1.4065    1.0000 </r>
       <r>   -1.3497    1.0000 </r>
       <r>   -1.0257    1.0000 </r>
       <r>   -0.9310    1.0000 </r>
       <r>   -0.7948    1.0000 </r>
       <r>   -0.2390    1.0000 </r>
       <r>    0.3708    0.0000 </r>
       <r>    0.6036    0.0000 </r>
       <r>    1.1416    0.0000 </r>
       <r>    1.4341    0.0000 </r>
       <r>    1.5888    0.0000 </r>
       <r>    1.7368    0.0000 </r>
       <r>    1.9353    0.0000 </r>
       <r>    2.2610    0.0000 </r>
       <r>    2.4592    0.0000 </r>
       <r>    2.5880    0.0000 </r>
       <r>    2.7003    0.0000 </r>
       <r>    2.7449    0.0000 </r>
       <r>    3.0435    0.0000 </r>
       <r>    3.0695    0.0000 </r>
      </set>
      <set comment="kpoint 12">
       <r>  -14.1347    1.0000 </r>
       <r>  -12.5827    1.0000 </r>
       <r>  -12.4692    1.0000 </r>
       <r>  -12.1958    1.0000 </r>
       <r>  -11.7626    1.0000 </r>
       <r>  -11.6253    1.0000 </r>
       <r>  -11.3797    1.0000 </r>
       <r>  -10.9700    1.0000 </r>
       <r>  -10.7985    1.0000 </r>
       <r>  -10.5170    1.0000 </r>
       <r>  -10.3789    1.0000 </r>
       <r>  -10.1963    1.0000 </r>
       <r>   -9.1931    1.0000 </r>
       <r>   -8.9571    1.0000 </r>
       <r>   -8.7619    1.0000 </r>
       <r>   -7.6932    1.0000 </r>
       <r>   -7.4306    1.0000 </r>
       <r>   -7.1007    1.0000 </r>
       <r>   -7.0930    1.0000 </r>
       <r>   -6.9475    1.0000 </r>
       <r>   -6.1953    1.0000 </r>
       <r>   -6.1796    1.0000 </r>
       <r>   -5.9397    1.0000 </r>
       <r>   -5.9011    1.0000 </r>
       <r>   -5.5213    1.0000 </r>
       <r>   -5.3701    1.0000 </r>
       <r>   -5.1088    1.0000 </r>
       <r>   -4.9243    1.0000 </r>
       <r>   -4.6865    1.0000 </r>
       <r>   -4.4095    1.0000 </r>
       <r>   -4.3208    1.0000 </r>
       <r>   -4.1495    1.0000 </r>
       <r>   -3.9979    1.0000 </r>
       <r>   -3.7354    1.0000 </r>
       <r>   -3.3893    1.0000 </r>
       <r>   -3.3249    1.0000 </r>
       <r>   -3.2440    1.0000 </r>
       <r>   -3.0021    1.0000 </r>
       <r>   -2.9561    1.0000 </r>
       <r>   -2.8906    1.0000 </r>
       <r>   -2.8248    1.0000 </r>
       <r>   -2.6742    1.0000 </r>
       <r>   -2.4855    1.0000 </r>
       <r>   -2.3488    1.0000 </r>
       <r>   -2.2555    1.0000 </r>
       <r>   -1.9621    1.0000 </r>
       <r>   -1.8747    1.0000 </r>
       <r>   -1.7382    1.0000 </r>
       <r>   -1.6543    1.0000 </r>
       <r>   -1.4296    1.0000 </r>
       <r>   -1.2698    1.0000 </r>
       <r>   -1.1208    1.0000 </r>
       <r>   -0.8040    1.0000 </r>
       <r>   -0.6517    1.0000 </r>
       <r>    0.1996    0.0519 </r>
       <r>    0.3952    0.0000 </r>
       <r>    0.9802    0.0000 </r>
       <r>    1.2360    0.0000 </r>
       <r>    1.2777    0.0000 </r>
       <r>    1.6141    0.0000 </r>
       <r>    2.0257    0.0000 </r>
       <r>    2.1335    0.0000 </r>
       <r>    2.2553    0.0000 </r>
       <r>    2.4316    0.0000 </r>
       <r>    2.4922    0.0000 </r>
       <r>    2.5784    0.0000 </r>
       <r>    2.6340    0.0000 </r>
       <r>    2.9235    0.0000 </r>
      </set>
      <set comment="kpoint 13">
       <r>  -13.7091    1.0000 </r>
       <r>  -12.1483    1.0000 </r>
       <r>  -11.9658    1.0000 </r>
       <r>  -11.7458    1.0000 </r>
       <r>  -11.4346    1.0000 </r>
       <r>  -11.2316    1.0000 </r>
       <r>  -11.1348    1.0000 </r>
       <r>  -10.7145    1.0000 </r>
       <r>  -10.6817    1.0000 </r>
       <r>  -10.5869    1.0000 </r>
       <r>  -10.4543    1.0000 </r>
       <r>  -10.2986    1.0000 </r>
       <r>   -9.2044    1.0000 </r>
       <r>   -9.0050    1.0000 </r>
       <r>   -8.9470    1.0000 </r>
       <r>   -8.0977    1.0000 </r>
       <r>   -7.7662    1.0000 </r>
       <r>   -7.7148    1.0000 </r>
       <r>   -7.3481    1.0000 </r>
       <r>   -7.3000    1.0000 </r>
       <r>   -6.8020    1.0000 </r>
       <r>   -6.6806    1.0000 </r>
       <r>   -6.6467    1.0000 </r>
       <r>   -6.4324    1.0000 </r>
       <r>   -5.5644    1.0000 </r>
       <r>   -5.3281    1.0000 </r>
       <r>   -4.9736    1.0000 </r>
       <r>   -4.7688    1.0000 </r>
       <r>   -4.5771    1.0000 </r>
       <r>   -4.4080    1.0000 </r>
       <r>   -4.3133    1.0000 </r>
       <r>   -4.1002    1.0000 </r>
       <r>   -3.8494    1.0000 </r>
       <r>   -3.7335    1.0000 </r>
       <r>   -3.5970    1.0000 </r>
       <r>   -3.3971    1.0000 </r>
       <r>   -3.3385    1.0000 </r>
       <r>   -3.2646    1.0000 </r>
       <r>   -3.1113    1.0000 </r>
       <r>   -3.0901    1.0000 </r>
       <r>   -2.9148    1.0000 </r>
       <r>   -2.7525    1.0000 </r>
       <r>   -2.6181    1.0000 </r>
       <r>   -2.4471    1.0000 </r>
       <r>   -2.2995    1.0000 </r>
       <r>   -2.1856    1.0000 </r>
       <r>   -2.0559    1.0000 </r>
       <r>   -1.8597    1.0000 </r>
       <r>   -1.6849    1.0000 </r>
       <r>   -1.5006    1.0000 </r>
       <r>   -1.4554    1.0000 </r>
       <r>   -1.3856    1.0000 </r>
       <r>   -0.9746    1.0000 </r>
       <r>   -0.6770    1.0000 </r>
       <r>    0.0959    0.4361 </r>
       <r>    0.2525    0.0088 </r>
       <r>    0.7841    0.0000 </r>
       <r>    1.2047    0.0000 </r>
       <r>    1.3223    0.0000 </r>
       <r>    1.5051    0.0000 </r>
       <r>    1.7905    0.0000 </r>
       <r>    1.8413    0.0000 </r>
       <r>    2.0261    0.0000 </r>
       <r>    2.1809    0.0000 </r>
       <r>    2.3433    0.0000 </r>
       <r>    2.4604    0.0000 </r>
       <r>    2.6109    0.0000 </r>
       <r>    2.7096    0.0000 </r>
      </set>
      <set comment="kpoint 14">
       <r>  -13.3597    1.0000 </r>
       <r>  -11.7795    1.0000 </r>
       <r>  -11.4467    1.0000 </r>
       <r>  -11.4154    1.0000 </r>
       <r>  -11.2507    1.0000 </r>
       <r>  -11.0330    1.0000 </r>
       <r>  -10.9442    1.0000 </r>
       <r>  -10.8506    1.0000 </r>
       <r>  -10.7693    1.0000 </r>
       <r>  -10.6867    1.0000 </r>
       <r>  -10.5660    1.0000 </r>
       <r>  -10.3185    1.0000 </r>
       <r>   -9.4155    1.0000 </r>
       <r>   -8.9395    1.0000 </r>
       <r>   -8.5411    1.0000 </r>
       <r>   -8.3863    1.0000 </r>
       <r>   -8.3143    1.0000 </r>
       <r>   -7.8569    1.0000 </r>
       <r>   -7.5439    1.0000 </r>
       <r>   -7.5012    1.0000 </r>
       <r>   -7.3022    1.0000 </r>
       <r>   -7.2142    1.0000 </r>
       <r>   -7.1258    1.0000 </r>
       <r>   -6.5475    1.0000 </r>
       <r>   -5.4528    1.0000 </r>
       <r>   -5.0093    1.0000 </r>
       <r>   -4.9807    1.0000 </r>
       <r>   -4.5386    1.0000 </r>
       <r>   -4.4592    1.0000 </r>
       <r>   -4.3196    1.0000 </r>
       <r>   -4.1464    1.0000 </r>
       <r>   -4.1137    1.0000 </r>
       <r>   -3.9296    1.0000 </r>
       <r>   -3.9037    1.0000 </r>
       <r>   -3.7033    1.0000 </r>
       <r>   -3.6480    1.0000 </r>
       <r>   -3.4780    1.0000 </r>
       <r>   -3.3432    1.0000 </r>
       <r>   -3.2479    1.0000 </r>
       <r>   -3.1294    1.0000 </r>
       <r>   -2.9760    1.0000 </r>
       <r>   -2.7977    1.0000 </r>
       <r>   -2.6358    1.0000 </r>
       <r>   -2.5907    1.0000 </r>
       <r>   -2.5415    1.0000 </r>
       <r>   -2.1792    1.0000 </r>
       <r>   -2.1088    1.0000 </r>
       <r>   -1.8698    1.0000 </r>
       <r>   -1.7240    1.0000 </r>
       <r>   -1.6599    1.0000 </r>
       <r>   -1.5368    1.0000 </r>
       <r>   -1.3569    1.0000 </r>
       <r>   -0.9544    1.0000 </r>
       <r>   -0.6889    1.0000 </r>
       <r>    0.0227    0.8092 </r>
       <r>    0.2169    0.0306 </r>
       <r>    0.6732    0.0000 </r>
       <r>    1.3589    0.0000 </r>
       <r>    1.4315    0.0000 </r>
       <r>    1.5229    0.0000 </r>
       <r>    1.5741    0.0000 </r>
       <r>    1.7945    0.0000 </r>
       <r>    1.8410    0.0000 </r>
       <r>    2.0998    0.0000 </r>
       <r>    2.2553    0.0000 </r>
       <r>    2.4444    0.0000 </r>
       <r>    2.4859    0.0000 </r>
       <r>    2.5227    0.0000 </r>
      </set>
      <set comment="kpoint 15">
       <r>  -13.3608    1.0000 </r>
       <r>  -11.7732    1.0000 </r>
       <r>  -11.5212    1.0000 </r>
       <r>  -11.4384    1.0000 </r>
       <r>  -11.0578    1.0000 </r>
       <r>  -11.0255    1.0000 </r>
       <r>  -10.9178    1.0000 </r>
       <r>  -10.8081    1.0000 </r>
       <r>  -10.7943    1.0000 </r>
       <r>  -10.7420    1.0000 </r>
       <r>  -10.6891    1.0000 </r>
       <r>  -10.3053    1.0000 </r>
       <r>   -9.4024    1.0000 </r>
       <r>   -8.9565    1.0000 </r>
       <r>   -8.7432    1.0000 </r>
       <r>   -8.4197    1.0000 </r>
       <r>   -7.9305    1.0000 </r>
       <r>   -7.8611    1.0000 </r>
       <r>   -7.5909    1.0000 </r>
       <r>   -7.5554    1.0000 </r>
       <r>   -7.2672    1.0000 </r>
       <r>   -7.2207    1.0000 </r>
       <r>   -7.1910    1.0000 </r>
       <r>   -6.4860    1.0000 </r>
       <r>   -5.4430    1.0000 </r>
       <r>   -4.9206    1.0000 </r>
       <r>   -4.7507    1.0000 </r>
       <r>   -4.6771    1.0000 </r>
       <r>   -4.5600    1.0000 </r>
       <r>   -4.3592    1.0000 </r>
       <r>   -4.2354    1.0000 </r>
       <r>   -4.0061    1.0000 </r>
       <r>   -3.9799    1.0000 </r>
       <r>   -3.8715    1.0000 </r>
       <r>   -3.8371    1.0000 </r>
       <r>   -3.7408    1.0000 </r>
       <r>   -3.6234    1.0000 </r>
       <r>   -3.4369    1.0000 </r>
       <r>   -3.3396    1.0000 </r>
       <r>   -3.1081    1.0000 </r>
       <r>   -2.8045    1.0000 </r>
       <r>   -2.7266    1.0000 </r>
       <r>   -2.6861    1.0000 </r>
       <r>   -2.5960    1.0000 </r>
       <r>   -2.3692    1.0000 </r>
       <r>   -2.1557    1.0000 </r>
       <r>   -2.1526    1.0000 </r>
       <r>   -1.9173    1.0000 </r>
       <r>   -1.7329    1.0000 </r>
       <r>   -1.6450    1.0000 </r>
       <r>   -1.4877    1.0000 </r>
       <r>   -1.2902    1.0000 </r>
       <r>   -0.9137    1.0000 </r>
       <r>   -0.6305    1.0000 </r>
       <r>   -0.0322    0.9506 </r>
       <r>    0.2385    0.0148 </r>
       <r>    0.7119    0.0000 </r>
       <r>    1.2889    0.0000 </r>
       <r>    1.4116    0.0000 </r>
       <r>    1.6821    0.0000 </r>
       <r>    1.7511    0.0000 </r>
       <r>    1.8531    0.0000 </r>
       <r>    2.0149    0.0000 </r>
       <r>    2.1628    0.0000 </r>
       <r>    2.2401    0.0000 </r>
       <r>    2.3584    0.0000 </r>
       <r>    2.4310    0.0000 </r>
       <r>    2.5566    0.0000 </r>
      </set>
      <set comment="kpoint 16">
       <r>  -13.7117    1.0000 </r>
       <r>  -12.1087    1.0000 </r>
       <r>  -12.0851    1.0000 </r>
       <r>  -11.5491    1.0000 </r>
       <r>  -11.4718    1.0000 </r>
       <r>  -11.2298    1.0000 </r>
       <r>  -11.0521    1.0000 </r>
       <r>  -10.9172    1.0000 </r>
       <r>  -10.6257    1.0000 </r>
       <r>  -10.6158    1.0000 </r>
       <r>  -10.4371    1.0000 </r>
       <r>  -10.3796    1.0000 </r>
       <r>   -9.2100    1.0000 </r>
       <r>   -9.0164    1.0000 </r>
       <r>   -8.7285    1.0000 </r>
       <r>   -8.4768    1.0000 </r>
       <r>   -7.6741    1.0000 </r>
       <r>   -7.4272    1.0000 </r>
       <r>   -7.3169    1.0000 </r>
       <r>   -7.2106    1.0000 </r>
       <r>   -6.9973    1.0000 </r>
       <r>   -6.7967    1.0000 </r>
       <r>   -6.6521    1.0000 </r>
       <r>   -6.2657    1.0000 </r>
       <r>   -5.4693    1.0000 </r>
       <r>   -5.0413    1.0000 </r>
       <r>   -5.0168    1.0000 </r>
       <r>   -4.8255    1.0000 </r>
       <r>   -4.6758    1.0000 </r>
       <r>   -4.3899    1.0000 </r>
       <r>   -4.2663    1.0000 </r>
       <r>   -4.1550    1.0000 </r>
       <r>   -4.0870    1.0000 </r>
       <r>   -3.9232    1.0000 </r>
       <r>   -3.7170    1.0000 </r>
       <r>   -3.6675    1.0000 </r>
       <r>   -3.4057    1.0000 </r>
       <r>   -3.3808    1.0000 </r>
       <r>   -3.1933    1.0000 </r>
       <r>   -3.1284    1.0000 </r>
       <r>   -2.7630    1.0000 </r>
       <r>   -2.6576    1.0000 </r>
       <r>   -2.5114    1.0000 </r>
       <r>   -2.3854    1.0000 </r>
       <r>   -2.2383    1.0000 </r>
       <r>   -2.1545    1.0000 </r>
       <r>   -1.9343    1.0000 </r>
       <r>   -1.8546    1.0000 </r>
       <r>   -1.7049    1.0000 </r>
       <r>   -1.5317    1.0000 </r>
       <r>   -1.3916    1.0000 </r>
       <r>   -1.2667    1.0000 </r>
       <r>   -0.8892    1.0000 </r>
       <r>   -0.5888    1.0000 </r>
       <r>    0.0502    0.6868 </r>
       <r>    0.3207    0.0004 </r>
       <r>    0.8351    0.0000 </r>
       <r>    1.2850    0.0000 </r>
       <r>    1.5030    0.0000 </r>
       <r>    1.7809    0.0000 </r>
       <r>    1.9099    0.0000 </r>
       <r>    2.0353    0.0000 </r>
       <r>    2.1552    0.0000 </r>
       <r>    2.2459    0.0000 </r>
       <r>    2.3410    0.0000 </r>
       <r>    2.4464    0.0000 </r>
       <r>    2.5698    0.0000 </r>
       <r>    2.6450    0.0000 </r>
      </set>
      <set comment="kpoint 17">
       <r>  -14.1377    1.0000 </r>
       <r>  -12.5831    1.0000 </r>
       <r>  -12.5277    1.0000 </r>
       <r>  -11.9376    1.0000 </r>
       <r>  -11.9293    1.0000 </r>
       <r>  -11.6288    1.0000 </r>
       <r>  -11.2312    1.0000 </r>
       <r>  -11.1240    1.0000 </r>
       <r>  -10.7605    1.0000 </r>
       <r>  -10.7260    1.0000 </r>
       <r>  -10.4081    1.0000 </r>
       <r>  -10.1467    1.0000 </r>
       <r>   -9.1520    1.0000 </r>
       <r>   -8.8007    1.0000 </r>
       <r>   -8.5410    1.0000 </r>
       <r>   -8.1729    1.0000 </r>
       <r>   -7.4124    1.0000 </r>
       <r>   -6.9879    1.0000 </r>
       <r>   -6.9201    1.0000 </r>
       <r>   -6.8549    1.0000 </r>
       <r>   -6.4841    1.0000 </r>
       <r>   -6.1437    1.0000 </r>
       <r>   -5.9597    1.0000 </r>
       <r>   -5.7805    1.0000 </r>
       <r>   -5.3664    1.0000 </r>
       <r>   -5.2631    1.0000 </r>
       <r>   -5.1234    1.0000 </r>
       <r>   -4.8669    1.0000 </r>
       <r>   -4.6314    1.0000 </r>
       <r>   -4.6078    1.0000 </r>
       <r>   -4.3030    1.0000 </r>
       <r>   -4.2292    1.0000 </r>
       <r>   -4.2072    1.0000 </r>
       <r>   -3.8515    1.0000 </r>
       <r>   -3.5661    1.0000 </r>
       <r>   -3.4416    1.0000 </r>
       <r>   -3.2488    1.0000 </r>
       <r>   -3.0938    1.0000 </r>
       <r>   -3.0455    1.0000 </r>
       <r>   -2.9031    1.0000 </r>
       <r>   -2.7556    1.0000 </r>
       <r>   -2.5967    1.0000 </r>
       <r>   -2.5281    1.0000 </r>
       <r>   -2.3227    1.0000 </r>
       <r>   -2.0196    1.0000 </r>
       <r>   -1.8989    1.0000 </r>
       <r>   -1.8513    1.0000 </r>
       <r>   -1.7016    1.0000 </r>
       <r>   -1.5912    1.0000 </r>
       <r>   -1.3575    1.0000 </r>
       <r>   -1.2557    1.0000 </r>
       <r>   -1.1302    1.0000 </r>
       <r>   -0.8340    1.0000 </r>
       <r>   -0.5614    1.0000 </r>
       <r>    0.2379    0.0151 </r>
       <r>    0.5078    0.0000 </r>
       <r>    0.9877    0.0000 </r>
       <r>    1.4463    0.0000 </r>
       <r>    1.6812    0.0000 </r>
       <r>    1.9403    0.0000 </r>
       <r>    1.9911    0.0000 </r>
       <r>    2.0666    0.0000 </r>
       <r>    2.2654    0.0000 </r>
       <r>    2.3717    0.0000 </r>
       <r>    2.4423    0.0000 </r>
       <r>    2.6757    0.0000 </r>
       <r>    2.7672    0.0000 </r>
       <r>    2.7878    0.0000 </r>
      </set>
      <set comment="kpoint 18">
       <r>  -14.5126    1.0000 </r>
       <r>  -12.9781    1.0000 </r>
       <r>  -12.9024    1.0000 </r>
       <r>  -12.3388    1.0000 </r>
       <r>  -12.2744    1.0000 </r>
       <r>  -11.9810    1.0000 </r>
       <r>  -11.5266    1.0000 </r>
       <r>  -11.4070    1.0000 </r>
       <r>  -11.0163    1.0000 </r>
       <r>  -10.9533    1.0000 </r>
       <r>  -10.5866    1.0000 </r>
       <r>   -9.9120    1.0000 </r>
       <r>   -9.1666    1.0000 </r>
       <r>   -8.5085    1.0000 </r>
       <r>   -8.3846    1.0000 </r>
       <r>   -7.7675    1.0000 </r>
       <r>   -7.1329    1.0000 </r>
       <r>   -6.6791    1.0000 </r>
       <r>   -6.6260    1.0000 </r>
       <r>   -6.5873    1.0000 </r>
       <r>   -5.9280    1.0000 </r>
       <r>   -5.7275    1.0000 </r>
       <r>   -5.5274    1.0000 </r>
       <r>   -5.3209    1.0000 </r>
       <r>   -5.2171    1.0000 </r>
       <r>   -4.9068    1.0000 </r>
       <r>   -4.8008    1.0000 </r>
       <r>   -4.6300    1.0000 </r>
       <r>   -4.5828    1.0000 </r>
       <r>   -4.4961    1.0000 </r>
       <r>   -4.1715    1.0000 </r>
       <r>   -4.0681    1.0000 </r>
       <r>   -3.7711    1.0000 </r>
       <r>   -3.7035    1.0000 </r>
       <r>   -3.4416    1.0000 </r>
       <r>   -3.3810    1.0000 </r>
       <r>   -3.0772    1.0000 </r>
       <r>   -3.0092    1.0000 </r>
       <r>   -2.9743    1.0000 </r>
       <r>   -2.7079    1.0000 </r>
       <r>   -2.5989    1.0000 </r>
       <r>   -2.4616    1.0000 </r>
       <r>   -2.3976    1.0000 </r>
       <r>   -2.1951    1.0000 </r>
       <r>   -1.8858    1.0000 </r>
       <r>   -1.8189    1.0000 </r>
       <r>   -1.7349    1.0000 </r>
       <r>   -1.5600    1.0000 </r>
       <r>   -1.4474    1.0000 </r>
       <r>   -1.3248    1.0000 </r>
       <r>   -1.0660    1.0000 </r>
       <r>   -0.8895    1.0000 </r>
       <r>   -0.6944    1.0000 </r>
       <r>   -0.2923    1.0000 </r>
       <r>    0.4292    0.0000 </r>
       <r>    0.7131    0.0000 </r>
       <r>    1.1513    0.0000 </r>
       <r>    1.6137    0.0000 </r>
       <r>    1.8523    0.0000 </r>
       <r>    1.8963    0.0000 </r>
       <r>    2.0318    0.0000 </r>
       <r>    2.2667    0.0000 </r>
       <r>    2.3657    0.0000 </r>
       <r>    2.4555    0.0000 </r>
       <r>    2.7264    0.0000 </r>
       <r>    2.8456    0.0000 </r>
       <r>    2.9297    0.0000 </r>
[...]
       <r>    2.6690    0.0000 </r>
      </set>
      <set comment="kpoint 54">
       <r>  -13.3602    1.0000 </r>
       <r>  -11.7821    1.0000 </r>
       <r>  -11.4763    1.0000 </r>
       <r>  -11.4259    1.0000 </r>
       <r>  -11.1562    1.0000 </r>
       <r>  -11.0484    1.0000 </r>
       <r>  -10.9342    1.0000 </r>
       <r>  -10.8356    1.0000 </r>
       <r>  -10.7755    1.0000 </r>
       <r>  -10.7091    1.0000 </r>
       <r>  -10.6067    1.0000 </r>
       <r>  -10.3179    1.0000 </r>
       <r>   -9.4084    1.0000 </r>
       <r>   -8.9550    1.0000 </r>
       <r>   -8.6518    1.0000 </r>
       <r>   -8.4265    1.0000 </r>
       <r>   -8.1055    1.0000 </r>
       <r>   -7.8494    1.0000 </r>
       <r>   -7.5482    1.0000 </r>
       <r>   -7.4983    1.0000 </r>
       <r>   -7.2783    1.0000 </r>
       <r>   -7.2491    1.0000 </r>
       <r>   -7.1566    1.0000 </r>
       <r>   -6.5470    1.0000 </r>
       <r>   -5.4136    1.0000 </r>
       <r>   -4.9505    1.0000 </r>
       <r>   -4.9199    1.0000 </r>
       <r>   -4.6516    1.0000 </r>
       <r>   -4.4635    1.0000 </r>
       <r>   -4.3013    1.0000 </r>
       <r>   -4.1956    1.0000 </r>
       <r>   -4.0614    1.0000 </r>
       <r>   -3.9311    1.0000 </r>
       <r>   -3.9133    1.0000 </r>
       <r>   -3.7622    1.0000 </r>
       <r>   -3.7431    1.0000 </r>
       <r>   -3.5398    1.0000 </r>
       <r>   -3.4057    1.0000 </r>
       <r>   -3.2440    1.0000 </r>
       <r>   -3.1195    1.0000 </r>
       <r>   -3.0073    1.0000 </r>
       <r>   -2.7536    1.0000 </r>
       <r>   -2.6875    1.0000 </r>
       <r>   -2.5541    1.0000 </r>
       <r>   -2.3613    1.0000 </r>
       <r>   -2.1906    1.0000 </r>
       <r>   -2.1229    1.0000 </r>
       <r>   -1.8829    1.0000 </r>
       <r>   -1.7017    1.0000 </r>
       <r>   -1.6554    1.0000 </r>
       <r>   -1.5134    1.0000 </r>
       <r>   -1.2775    1.0000 </r>
       <r>   -0.8970    1.0000 </r>
       <r>   -0.7210    1.0000 </r>
       <r>   -0.0288    0.9457 </r>
       <r>    0.2268    0.0221 </r>
       <r>    0.6098    0.0000 </r>
       <r>    1.3078    0.0000 </r>
       <r>    1.3767    0.0000 </r>
       <r>    1.5903    0.0000 </r>
       <r>    1.7014    0.0000 </r>
       <r>    1.8687    0.0000 </r>
       <r>    1.9922    0.0000 </r>
       <r>    2.0698    0.0000 </r>
       <r>    2.2668    0.0000 </r>
       <r>    2.3730    0.0000 </r>
       <r>    2.4722    0.0000 </r>
       <r>    2.5435    0.0000 </r>
      </set>
     </set>
    </set>
   </array>
  </eigenvalues>
  <separator name="orbital magnetization" >
   <v name="MAGDIPOLOUT">      0.00000000      0.00000000      0.00000000</v>
  </separator>
  <dos>
   <i name="efermi">      0.08457893 </i>
   <total>
    <array>
     <dimension dim="1">gridpoints</dimension>
     <dimension dim="2">spin</dimension>
     <field>energy</field>
     <field>total</field>
     <field>integrated</field>
     <set>
      <set comment="spin 1">
       <r>   -16.0284     0.0000     0.0000 </r>
       <r>   -15.9612     0.0000     0.0000 </r>
       <r>   -15.8940     0.0000     0.0000 </r>
       <r>   -15.8269     0.0000     0.0000 </r>
       <r>   -15.7597     0.0000     0.0000 </r>
       <r>   -15.6925     0.0000     0.0000 </r>
       <r>   -15.6253     0.0000     0.0000 </r>
       <r>   -15.5581     0.0000     0.0000 </r>
       <r>   -15.4909     0.0000     0.0000 </r>
       <r>   -15.4237     0.0000     0.0000 </r>
       <r>   -15.3566     0.0000     0.0000 </r>
       <r>   -15.2894     0.0002     0.0000 </r>
       <r>   -15.2222     0.0068     0.0005 </r>
       <r>   -15.1550     0.0895     0.0065 </r>
       <r>   -15.0878     0.5451     0.0431 </r>
       <r>   -15.0206     1.6123     0.1514 </r>
       <r>   -14.9534     2.3919     0.3121 </r>
       <r>   -14.8863     2.0300     0.4485 </r>
       <r>   -14.8191     1.7539     0.5664 </r>
       <r>   -14.7519     1.7444     0.6836 </r>
       <r>   -14.6847     1.0245     0.7524 </r>
       <r>   -14.6175     0.5252     0.7877 </r>
       <r>   -14.5503     1.0516     0.8583 </r>
       <r>   -14.4831     1.6690     0.9705 </r>
       <r>   -14.4160     1.1766     1.0495 </r>
       <r>   -14.3488     0.3645     1.0740 </r>
       <r>   -14.2816     0.1321     1.0829 </r>
       <r>   -14.2144     0.5272     1.1183 </r>
       <r>   -14.1472     1.3910     1.2117 </r>
       <r>   -14.0800     1.5953     1.3189 </r>
       <r>   -14.0128     0.7920     1.3721 </r>
       <r>   -13.9457     0.1715     1.3837 </r>
       <r>   -13.8785     0.0536     1.3873 </r>
       <r>   -13.8113     0.3128     1.4083 </r>
       <r>   -13.7441     1.1004     1.4822 </r>
       <r>   -13.6769     1.6877     1.5956 </r>
       <r>   -13.6097     1.2481     1.6795 </r>
       <r>   -13.5425     1.0926     1.7529 </r>
       <r>   -13.4754     2.4717     1.9189 </r>
       <r>   -13.4082     4.7360     2.2371 </r>
       <r>   -13.3410     5.9109     2.6342 </r>
       <r>   -13.2738     5.1378     2.9794 </r>
       <r>   -13.2066     4.0258     3.2499 </r>
       <r>   -13.1394     3.1690     3.4628 </r>
       <r>   -13.0722     2.3056     3.6177 </r>
       <r>   -13.0051     2.5390     3.7883 </r>
       <r>   -12.9379     3.9802     4.0557 </r>
       <r>   -12.8707     4.6419     4.3676 </r>
       <r>   -12.8035     3.8192     4.6242 </r>
       <r>   -12.7363     3.0098     4.8264 </r>
       <r>   -12.6691     3.3236     5.0497 </r>
       <r>   -12.6019     4.9616     5.3830 </r>
       <r>   -12.5348     6.6933     5.8327 </r>
       <r>   -12.4676     6.6925     6.2824 </r>
       <r>   -12.4004     5.6081     6.6592 </r>
       <r>   -12.3332     4.6657     6.9726 </r>
       <r>   -12.2660     4.4281     7.2701 </r>
       <r>   -12.1988     4.7858     7.5917 </r>
       <r>   -12.1316     5.4462     7.9576 </r>
       <r>   -12.0645     6.0043     8.3610 </r>
       <r>   -11.9973     6.5672     8.8022 </r>
       <r>   -11.9301     6.9588     9.2697 </r>
       <r>   -11.8629     6.3244     9.6946 </r>
       <r>   -11.7957     6.1257    10.1062 </r>
       <r>   -11.7285     6.5215    10.5443 </r>
       <r>   -11.6613     6.6563    10.9916 </r>
       <r>   -11.5942     7.0052    11.4622 </r>
       <r>   -11.5270     7.9450    11.9960 </r>
       <r>   -11.4598     9.5181    12.6355 </r>
       <r>   -11.3926     9.6536    13.2840 </r>
       <r>   -11.3254     8.0097    13.8222 </r>
       <r>   -11.2582     7.9302    14.3550 </r>
       <r>   -11.1910     8.7632    14.9437 </r>
       <r>   -11.1239     8.6213    15.5230 </r>
       <r>   -11.0567     9.1463    16.1375 </r>
       <r>   -10.9895    10.3562    16.8333 </r>
       <r>   -10.9223    10.1971    17.5184 </r>
       <r>   -10.8551     9.3158    18.1442 </r>
       <r>   -10.7879    10.2386    18.8321 </r>
       <r>   -10.7207    10.8777    19.5630 </r>
       <r>   -10.6536     9.8749    20.2264 </r>
       <r>   -10.5864     8.7324    20.8131 </r>
       <r>   -10.5192     6.5897    21.2558 </r>
       <r>   -10.4520     4.8887    21.5843 </r>
       <r>   -10.3848     5.1395    21.9296 </r>
       <r>   -10.3176     5.2173    22.2801 </r>
       <r>   -10.2504     4.0069    22.5493 </r>
       <r>   -10.1833     2.6628    22.7282 </r>
       <r>   -10.1161     1.9582    22.8598 </r>
       <r>   -10.0489     1.9506    22.9908 </r>
       <r>    -9.9817     3.5128    23.2268 </r>
       <r>    -9.9145     5.2337    23.5785 </r>
       <r>    -9.8473     4.2244    23.8623 </r>
       <r>    -9.7801     1.6955    23.9762 </r>
       <r>    -9.7130     0.3244    23.9980 </r>
       <r>    -9.6458     0.0306    24.0001 </r>
       <r>    -9.5786     0.0411    24.0028 </r>
       <r>    -9.5114     0.3500    24.0263 </r>
       <r>    -9.4442     1.3941    24.1200 </r>
       <r>    -9.3770     2.8377    24.3106 </r>
       <r>    -9.3098     4.0555    24.5831 </r>
       <r>    -9.2427     5.7370    24.9686 </r>
       <r>    -9.1755     7.0253    25.4406 </r>
       <r>    -9.1083     5.9085    25.8375 </r>
       <r>    -9.0411     4.1347    26.1153 </r>
       <r>    -8.9739     4.3240    26.4058 </r>
       <r>    -8.9067     4.6557    26.7186 </r>
       <r>    -8.8395     4.1787    26.9994 </r>
       <r>    -8.7724     4.6852    27.3142 </r>
       <r>    -8.7052     5.2102    27.6642 </r>
       <r>    -8.6380     4.3991    27.9598 </r>
       <r>    -8.5708     3.7965    28.2148 </r>
       <r>    -8.5036     4.6181    28.5251 </r>
       <r>    -8.4364     6.1721    28.9398 </r>
       <r>    -8.3692     7.6006    29.4504 </r>
       <r>    -8.3021     7.5602    29.9584 </r>
       <r>    -8.2349     5.1751    30.3061 </r>
       <r>    -8.1677     3.0471    30.5108 </r>
       <r>    -8.1005     2.7504    30.6956 </r>
       <r>    -8.0333     2.6682    30.8749 </r>
       <r>    -7.9661     2.0364    31.0117 </r>
       <r>    -7.8989     2.1857    31.1585 </r>
       <r>    -7.8318     3.4282    31.3888 </r>
       <r>    -7.7646     4.5463    31.6943 </r>
       <r>    -7.6974     4.7219    32.0115 </r>
       <r>    -7.6302     4.3389    32.3030 </r>
       <r>    -7.5630     4.5504    32.6088 </r>
       <r>    -7.4958     5.2289    32.9601 </r>
       <r>    -7.4286     6.1449    33.3729 </r>
       <r>    -7.3615     7.2714    33.8615 </r>
       <r>    -7.2943     8.2568    34.4162 </r>
       <r>    -7.2271     8.9434    35.0171 </r>
       <r>    -7.1599     8.2476    35.5712 </r>
       <r>    -7.0927     6.4184    36.0024 </r>
       <r>    -7.0255     5.1153    36.3461 </r>
       <r>    -6.9583     5.4216    36.7103 </r>
       <r>    -6.8912     6.7913    37.1666 </r>
       <r>    -6.8240     8.0011    37.7042 </r>
       <r>    -6.7568     8.8678    38.3000 </r>
       <r>    -6.6896    10.3556    38.9957 </r>
       <r>    -6.6224    11.3683    39.7595 </r>
       <r>    -6.5552     9.8077    40.4184 </r>
       <r>    -6.4880     7.7486    40.9390 </r>
       <r>    -6.4209     5.6784    41.3205 </r>
       <r>    -6.3537     3.3905    41.5483 </r>
       <r>    -6.2865     2.9149    41.7442 </r>
       <r>    -6.2193     4.0247    42.0146 </r>
       <r>    -6.1521     4.3973    42.3100 </r>
       <r>    -6.0849     3.2482    42.5282 </r>
       <r>    -6.0177     2.4478    42.6927 </r>
       <r>    -5.9506     4.0038    42.9617 </r>
       <r>    -5.8834     6.1953    43.3779 </r>
       <r>    -5.8162     7.1597    43.8589 </r>
       <r>    -5.7490     7.8139    44.3839 </r>
       <r>    -5.6818     7.9557    44.9184 </r>
       <r>    -5.6146     7.9361    45.4516 </r>
       <r>    -5.5475     8.7045    46.0365 </r>
       <r>    -5.4803     8.8186    46.6289 </r>
       <r>    -5.4131     7.4665    47.1306 </r>
       <r>    -5.3459     6.0259    47.5354 </r>
       <r>    -5.2787     5.9224    47.9333 </r>
       <r>    -5.2115     6.7654    48.3879 </r>
       <r>    -5.1443     6.8054    48.8451 </r>
       <r>    -5.0772     6.0111    49.2490 </r>
       <r>    -5.0100     7.1774    49.7312 </r>
       <r>    -4.9428     9.6790    50.3815 </r>
       <r>    -4.8756    10.3649    51.0778 </r>
       <r>    -4.8084     9.3714    51.7075 </r>
       <r>    -4.7412     8.8931    52.3050 </r>
       <r>    -4.6740    10.2601    52.9943 </r>
       <r>    -4.6069    12.0013    53.8006 </r>
       <r>    -4.5397    11.6087    54.5805 </r>
       <r>    -4.4725    10.0798    55.2578 </r>
       <r>    -4.4053     9.4372    55.8918 </r>
       <r>    -4.3381    10.2327    56.5793 </r>
       <r>    -4.2709    12.0851    57.3912 </r>
       <r>    -4.2037    13.4033    58.2917 </r>
       <r>    -4.1366    13.2051    59.1789 </r>
       <r>    -4.0694    12.0224    59.9867 </r>
       <r>    -4.0022    11.5121    60.7601 </r>
       <r>    -3.9350    11.1400    61.5086 </r>
       <r>    -3.8678     9.8801    62.1724 </r>
       <r>    -3.8006     9.5212    62.8121 </r>
       <r>    -3.7334    11.6141    63.5923 </r>
       <r>    -3.6663    13.8004    64.5195 </r>
       <r>    -3.5991    13.6699    65.4380 </r>
       <r>    -3.5319    12.0833    66.2498 </r>
       <r>    -3.4647    12.1682    67.0673 </r>
       <r>    -3.3975    14.4974    68.0413 </r>
       <r>    -3.3303    15.3258    69.0710 </r>
       <r>    -3.2631    14.4306    70.0405 </r>
       <r>    -3.1960    14.3362    71.0037 </r>
       <r>    -3.1288    16.2284    72.0940 </r>
       <r>    -3.0616    18.6558    73.3474 </r>
       <r>    -2.9944    18.6886    74.6030 </r>
       <r>    -2.9272    16.0016    75.6781 </r>
       <r>    -2.8600    12.8612    76.5422 </r>
       <r>    -2.7928    12.6858    77.3945 </r>
       <r>    -2.7257    15.0273    78.4041 </r>
       <r>    -2.6585    16.6523    79.5229 </r>
       <r>    -2.5913    17.3018    80.6854 </r>
       <r>    -2.5241    16.8124    81.8149 </r>
       <r>    -2.4569    14.9889    82.8219 </r>
       <r>    -2.3897    14.1704    83.7740 </r>
       <r>    -2.3225    14.1414    84.7241 </r>
       <r>    -2.2554    13.1791    85.6095 </r>
       <r>    -2.1882    13.2008    86.4964 </r>
       <r>    -2.1210    14.0791    87.4424 </r>
       <r>    -2.0538    13.3368    88.3384 </r>
       <r>    -1.9866    12.9572    89.2089 </r>
       <r>    -1.9194    15.1376    90.2260 </r>
       <r>    -1.8522    17.6610    91.4125 </r>
       <r>    -1.7851    17.3740    92.5798 </r>
       <r>    -1.7179    16.2898    93.6743 </r>
       <r>    -1.6507    15.0580    94.6859 </r>
       <r>    -1.5835    13.1993    95.5727 </r>
       <r>    -1.5163    12.8112    96.4335 </r>
       <r>    -1.4491    13.9299    97.3694 </r>
       <r>    -1.3819    14.6518    98.3537 </r>
       <r>    -1.3148    13.8498    99.2842 </r>
       <r>    -1.2476    11.6643   100.0679 </r>
       <r>    -1.1804     9.5006   100.7062 </r>
       <r>    -1.1132     8.7780   101.2960 </r>
       <r>    -1.0460     8.7864   101.8863 </r>
       <r>    -0.9788     9.7724   102.5429 </r>
       <r>    -0.9116    11.2514   103.2988 </r>
       <r>    -0.8445    10.4162   103.9986 </r>
       <r>    -0.7773     8.3738   104.5612 </r>
       <r>    -0.7101     7.8039   105.0855 </r>
       <r>    -0.6429     8.4516   105.6534 </r>
       <r>    -0.5757     8.3514   106.2145 </r>
       <r>    -0.5085     6.3352   106.6401 </r>
       <r>    -0.4413     3.2324   106.8573 </r>
       <r>    -0.3742     1.2479   106.9411 </r>
       <r>    -0.3070     1.1475   107.0182 </r>
       <r>    -0.2398     1.5162   107.1201 </r>
       <r>    -0.1726     1.2038   107.2009 </r>
       <r>    -0.1054     0.9208   107.2628 </r>
       <r>    -0.0382     1.9614   107.3946 </r>
       <r>     0.0290     4.1715   107.6748 </r>
       <r>     0.0961     5.9220   108.0727 </r>
       <r>     0.1633     6.4406   108.5054 </r>
       <r>     0.2305     6.4895   108.9414 </r>
       <r>     0.2977     5.6993   109.3243 </r>
       <r>     0.3649     4.4560   109.6237 </r>
       <r>     0.4321     4.0945   109.8988 </r>
       <r>     0.4993     4.2342   110.1833 </r>
       <r>     0.5664     4.2201   110.4668 </r>
       <r>     0.6336     4.3268   110.7575 </r>
       <r>     0.7008     4.6830   111.0722 </r>
       <r>     0.7680     5.1296   111.4168 </r>
       <r>     0.8352     5.9196   111.8145 </r>
       <r>     0.9024     6.4342   112.2468 </r>
       <r>     0.9696     5.8813   112.6419 </r>
       <r>     1.0367     4.9751   112.9762 </r>
       <r>     1.1039     5.4729   113.3439 </r>
       <r>     1.1711     7.2154   113.8287 </r>
       <r>     1.2383     8.4279   114.3949 </r>
       <r>     1.3055     9.7680   115.0512 </r>
       <r>     1.3727    10.5854   115.7623 </r>
       <r>     1.4399     9.8145   116.4217 </r>
       <r>     1.5070     8.9818   117.0252 </r>
       <r>     1.5742    10.2077   117.7110 </r>
       <r>     1.6414    12.0885   118.5232 </r>
       <r>     1.7086    12.5351   119.3654 </r>
       <r>     1.7758    12.6091   120.2125 </r>
       <r>     1.8430    12.2281   121.0341 </r>
       <r>     1.9102    11.2767   121.7917 </r>
       <r>     1.9773    11.1797   122.5428 </r>
       <r>     2.0445    12.2802   123.3679 </r>
       <r>     2.1117    13.0461   124.2444 </r>
       <r>     2.1789    12.9213   125.1125 </r>
       <r>     2.2461    13.4264   126.0146 </r>
       <r>     2.3133    13.7612   126.9391 </r>
       <r>     2.3805    13.5752   127.8512 </r>
       <r>     2.4476    14.7692   128.8434 </r>
       <r>     2.5148    15.4315   129.8802 </r>
       <r>     2.5820    14.3935   130.8473 </r>
       <r>     2.6492    14.0081   131.7884 </r>
       <r>     2.7164    13.7520   132.7123 </r>
       <r>     2.7836    11.6563   133.4955 </r>
       <r>     2.8508     8.7422   134.0828 </r>
       <r>     2.9179     7.3639   134.5776 </r>
       <r>     2.9851     7.0689   135.0525 </r>
       <r>     3.0523     6.4939   135.4888 </r>
       <r>     3.1195     4.7319   135.8067 </r>
       <r>     3.1867     2.2137   135.9555 </r>
       <r>     3.2539     0.5795   135.9944 </r>
       <r>     3.3211     0.0783   135.9996 </r>
       <r>     3.3882     0.0051   136.0000 </r>
       <r>     3.4554     0.0002   136.0000 </r>
       <r>     3.5226     0.0000   136.0000 </r>
       <r>     3.5898     0.0000   136.0000 </r>
       <r>     3.6570     0.0000   136.0000 </r>
       <r>     3.7242     0.0000   136.0000 </r>
       <r>     3.7914     0.0000   136.0000 </r>
       <r>     3.8585     0.0000   136.0000 </r>
       <r>     3.9257     0.0000   136.0000 </r>
       <r>     3.9929     0.0000   136.0000 </r>
       <r>     4.0601     0.0000   136.0000 </r>
       <r>     4.1273     0.0000   136.0000 </r>
      </set>
     </set>
    </array>
   </total>
  </dos>
 </calculation>
 <structure name="finalpos" >
  <crystal>
   <varray name="basis" >
    <v>       3.54040000       0.00000000       0.00000000 </v>
    <v>      -1.77020000      10.29434800       0.00000000 </v>
    <v>       0.00000000       0.00000000      27.50142900 </v>
   </varray>
   <i name="volume">   1002.32009712 </i>
   <varray name="rec_basis" >
    <v>       0.28245396       0.04857034       0.00000000 </v>
    <v>       0.00000000       0.09714068       0.00000000 </v>
    <v>       0.00000000       0.00000000       0.03636175 </v>
   </varray>
  </crystal>
  <varray name="positions" >
   <v>       0.11402300       0.22804500       0.23316207 </v>
   <v>       0.21402300       0.72804500       0.51499159 </v>
   <v>       0.45808900       0.91617900       0.20939482 </v>
   <v>       0.55808900       0.41617900       0.49122434 </v>
   <v>       0.31085400       0.62170900       0.08414979 </v>
   <v>       0.31085400       0.62170900       0.36597930 </v>
   <v>       0.99923000       0.99846000       0.08631254 </v>
   <v>       0.99923000       0.99846000       0.36814206 </v>
   <v>       0.65492700       0.30985400       0.06041748 </v>
   <v>       0.65492700       0.30985400       0.34224700 </v>
   <v>       0.76973800       0.53947500       0.20725292 </v>
   <v>       0.86973800       0.03947500       0.48908244 </v>
   <v>       0.93971600       0.87943300       0.15783749 </v>
   <v>       0.03971600       0.37943300       0.43966701 </v>
   <v>       0.20515200       0.41030300       0.18578822 </v>
   <v>       0.30515200       0.91030300       0.46761774 </v>
   <v>       0.20184900       0.40369900       0.09969156 </v>
   <v>       0.20184900       0.40369900       0.38152107 </v>
   <v>       0.56380500       0.12761000       0.10779021 </v>
   <v>       0.56380500       0.12761000       0.38961973 </v>
   <v>       0.56710600       0.13421200       0.19387616 </v>
   <v>       0.66710600       0.63421200       0.47570568 </v>
   <v>       0.82923400       0.65846800       0.13571444 </v>
   <v>       0.92923400       0.15846800       0.41754396 </v>
  </varray>
 </structure>
</modeling>
