<?xml version="1.0" encoding="ISO-8859-1"?>
<modeling>
 <generator>
  <i name="program" type="string">vasp </i>
  <i name="version" type="string">5.3.5  </i>
  <i name="subversion" type="string">31Mar14 (build Oct 29 2014 16:16:03) complex                          parallel </i>
  <i name="platform" type="string">Linux-UFHPC </i>
  <i name="date" type="string">2016 02 09 </i>
  <i name="time" type="string">18:19:52 </i>
 </generator>
 <incar>
  <i type="string" name="PREC">accurate</i>
  <i type="int" name="IBRION">     2</i>
  <i name="EDIFF">      0.00000100</i>
  <i type="int" name="NSW">     0</i>
  <i type="int" name="ISIF">     3</i>
  <i name="ENCUT">    300.00000000</i>
  <i type="string" name="LREAL"> Auto</i>
  <i type="int" name="ISMEAR">     0</i>
  <i name="SIGMA">      0.10000000</i>
  <i type="logical" name="LWAVE"> F  </i>
  <i type="logical" name="LCHARG"> F  </i>
  <i type="logical" name="LAECHG"> F  </i>
  <i type="string" name="GGA"> Bo</i>
  <i name="PARAM1">      0.18333333</i>
  <i name="PARAM2">      0.22000000</i>
  <i type="logical" name="LUSE_VDW"> T  </i>
  <i name="AGGAC">      0.00000000</i>
 </incar>
 <kpoints>
  <generation param="Gamma">
   <v type="int" name="divisions">      13        4        2 </v>
   <v name="usershift">      0.00000000       0.00000000       0.00000000 </v>
   <v name="genvec1">      0.07692308      -0.00000000       0.00000000 </v>
   <v name="genvec2">      0.00000000       0.25000000       0.00000000 </v>
   <v name="genvec3">      0.00000000       0.00000000       0.50000000 </v>
   <v name="shift">      0.00000000       0.00000000       0.00000000 </v>
  </generation>
  <varray name="kpointlist" >
   <v>       0.00000000       0.00000000       0.00000000 </v>
   <v>       0.07692308      -0.00000000       0.00000000 </v>
   <v>       0.15384615      -0.00000000       0.00000000 </v>
   <v>       0.23076923      -0.00000000       0.00000000 </v>
   <v>       0.30769231      -0.00000000       0.00000000 </v>
   <v>       0.38461538      -0.00000000       0.00000000 </v>
   <v>       0.46153846      -0.00000000       0.00000000 </v>
   <v>       0.00000000       0.25000000       0.00000000 </v>
   <v>       0.07692308       0.25000000       0.00000000 </v>
   <v>       0.15384615       0.25000000       0.00000000 </v>
   <v>       0.23076923       0.25000000       0.00000000 </v>
   <v>       0.30769231       0.25000000       0.00000000 </v>
   <v>       0.38461538       0.25000000       0.00000000 </v>
   <v>       0.46153846       0.25000000       0.00000000 </v>
   <v>      -0.46153846       0.25000000       0.00000000 </v>
   <v>      -0.38461538       0.25000000       0.00000000 </v>
   <v>      -0.30769231       0.25000000       0.00000000 </v>
   <v>      -0.23076923       0.25000000       0.00000000 </v>
   <v>      -0.15384615       0.25000000       0.00000000 </v>
   <v>      -0.07692308       0.25000000       0.00000000 </v>
   <v>       0.00000000       0.50000000       0.00000000 </v>
   <v>       0.07692308       0.50000000       0.00000000 </v>
   <v>       0.15384615       0.50000000       0.00000000 </v>
   <v>       0.23076923       0.50000000       0.00000000 </v>
   <v>       0.30769231       0.50000000       0.00000000 </v>
   <v>       0.38461538       0.50000000       0.00000000 </v>
   <v>       0.46153846       0.50000000       0.00000000 </v>
   <v>       0.00000000       0.00000000       0.50000000 </v>
   <v>       0.07692308      -0.00000000       0.50000000 </v>
   <v>       0.15384615      -0.00000000       0.50000000 </v>
   <v>       0.23076923      -0.00000000       0.50000000 </v>
   <v>       0.30769231      -0.00000000       0.50000000 </v>
   <v>       0.38461538      -0.00000000       0.50000000 </v>
   <v>       0.46153846      -0.00000000       0.50000000 </v>
   <v>       0.00000000       0.25000000       0.50000000 </v>
   <v>       0.07692308       0.25000000       0.50000000 </v>
   <v>       0.15384615       0.25000000       0.50000000 </v>
   <v>       0.23076923       0.25000000       0.50000000 </v>
   <v>       0.30769231       0.25000000       0.50000000 </v>
   <v>       0.38461538       0.25000000       0.50000000 </v>
   <v>       0.46153846       0.25000000       0.50000000 </v>
   <v>      -0.46153846       0.25000000       0.50000000 </v>
   <v>      -0.38461538       0.25000000       0.50000000 </v>
   <v>      -0.30769231       0.25000000       0.50000000 </v>
   <v>      -0.23076923       0.25000000       0.50000000 </v>
   <v>      -0.15384615       0.25000000       0.50000000 </v>
   <v>      -0.07692308       0.25000000       0.50000000 </v>
   <v>       0.00000000       0.50000000       0.50000000 </v>
   <v>       0.07692308       0.50000000       0.50000000 </v>
   <v>       0.15384615       0.50000000       0.50000000 </v>
   <v>       0.23076923       0.50000000       0.50000000 </v>
   <v>       0.30769231       0.50000000       0.50000000 </v>
   <v>       0.38461538       0.50000000       0.50000000 </v>
   <v>       0.46153846       0.50000000       0.50000000 </v>
  </varray>
  <varray name="weights" >
   <v>       0.00961538 </v>
   <v>       0.01923077 </v>
   <v>       0.01923077 </v>
   <v>       0.01923077 </v>
   <v>       0.01923077 </v>
   <v>       0.01923077 </v>
   <v>       0.01923077 </v>
   <v>       0.01923077 </v>
   <v>       0.01923077 </v>
   <v>       0.01923077 </v>
   <v>       0.01923077 </v>
   <v>       0.01923077 </v>
   <v>       0.01923077 </v>
   <v>       0.01923077 </v>
   <v>       0.01923077 </v>
   <v>       0.01923077 </v>
   <v>       0.01923077 </v>
   <v>       0.01923077 </v>
   <v>       0.01923077 </v>
   <v>       0.01923077 </v>
   <v>       0.00961538 </v>
   <v>       0.01923077 </v>
   <v>       0.01923077 </v>
   <v>       0.01923077 </v>
   <v>       0.01923077 </v>
   <v>       0.01923077 </v>
   <v>       0.01923077 </v>
   <v>       0.00961538 </v>
   <v>       0.01923077 </v>
   <v>       0.01923077 </v>
   <v>       0.01923077 </v>
   <v>       0.01923077 </v>
   <v>       0.01923077 </v>
   <v>       0.01923077 </v>
   <v>       0.01923077 </v>
   <v>       0.01923077 </v>
   <v>       0.01923077 </v>
   <v>       0.01923077 </v>
   <v>       0.01923077 </v>
   <v>       0.01923077 </v>
   <v>       0.01923077 </v>
   <v>       0.01923077 </v>
   <v>       0.01923077 </v>
   <v>       0.01923077 </v>
   <v>       0.01923077 </v>
   <v>       0.01923077 </v>
   <v>       0.01923077 </v>
   <v>       0.00961538 </v>
   <v>       0.01923077 </v>
   <v>       0.01923077 </v>
   <v>       0.01923077 </v>
   <v>       0.01923077 </v>
   <v>       0.01923077 </v>
   <v>       0.01923077 </v>
  </varray>
 </kpoints>
 <parameters>
  <separator name="general" >
   <i type="string" name="SYSTEM">unknown system</i>
   <i type="logical" name="LCOMPAT"> F  </i>
  </separator>
  <separator name="electronic" >
   <i type="string" name="PREC">accura</i>
   <i name="ENMAX">    300.00000000</i>
   <i name="ENAUG">    342.92400000</i>
   <i name="EDIFF">      0.00000100</i>
   <i type="int" name="IALGO">    38</i>
   <i type="int" name="IWAVPR">    10</i>
   <i type="int" name="NBANDS">    68</i>
   <i name="NELECT">    108.00000000</i>
   <i type="int" name="TURBO">     0</i>
   <i type="int" name="IRESTART">     0</i>
   <i type="int" name="NREBOOT">     0</i>
   <i type="int" name="NMIN">     0</i>
   <i name="EREF">      0.00000000</i>
   <separator name="electronic smearing" >
    <i type="int" name="ISMEAR">     0</i>
    <i name="SIGMA">      0.10000000</i>
    <i name="KSPACING">      0.50000000</i>
    <i type="logical" name="KGAMMA"> T  </i>
   </separator>
   <separator name="electronic projectors" >
    <i type="logical" name="LREAL"> T  </i>
    <v name="ROPT">     -0.00025000     -0.00025000</v>
    <i type="int" name="LMAXPAW">  -100</i>
    <i type="int" name="LMAXMIX">     2</i>
    <i type="logical" name="NLSPLINE"> F  </i>
   </separator>
   <separator name="electronic startup" >
    <i type="int" name="ISTART">     0</i>
    <i type="int" name="ICHARG">     2</i>
    <i type="int" name="INIWAV">     1</i>
   </separator>
   <separator name="electronic spin" >
    <i type="int" name="ISPIN">     1</i>
    <i type="logical" name="LNONCOLLINEAR"> F  </i>
    <v name="MAGMOM">      1.00000000      1.00000000      1.00000000      1.00000000      1.00000000      1.00000000      1.00000000      1.00000000      1.00000000      1.00000000      1.00000000      1.00000000      1.00000000      1.00000000      1.00000000      1.00000000      1.00000000      1.00000000      1.00000000      1.00000000
      1.00000000      1.00000000      1.00000000      1.00000000</v>
    <i name="NUPDOWN">     -1.00000000</i>
    <i type="logical" name="LSORBIT"> F  </i>
    <v name="SAXIS">      0.00000000      0.00000000      1.00000000</v>
    <i type="logical" name="LSPIRAL"> F  </i>
    <v name="QSPIRAL">      0.00000000      0.00000000      0.00000000</v>
    <i type="logical" name="LZEROZ"> F  </i>
   </separator>
   <separator name="electronic exchange-correlation" >
    <i type="logical" name="LASPH"> F  </i>
    <i type="logical" name="LMETAGGA"> F  </i>
   </separator>
   <separator name="electronic convergence" >
    <i type="int" name="NELM">    60</i>
    <i type="int" name="NELMDL">    -5</i>
    <i type="int" name="NELMIN">     2</i>
    <i name="ENINI">    300.00000000</i>
    <separator name="electronic convergence detail" >
     <i type="logical" name="LDIAG"> T  </i>
     <i type="logical" name="LSUBROT"> F  </i>
     <i name="WEIMIN">      0.00000000</i>
     <i name="EBREAK">      0.00000000</i>
     <i name="DEPER">      0.30000000</i>
     <i type="int" name="NRMM">     4</i>
     <i name="TIME">      0.40000000</i>
    </separator>
   </separator>
   <separator name="electronic mixer" >
    <i name="AMIX">      0.40000000</i>
    <i name="BMIX">      1.00000000</i>
    <i name="AMIN">      0.10000000</i>
    <i name="AMIX_MAG">      1.60000000</i>
    <i name="BMIX_MAG">      1.00000000</i>
    <separator name="electronic mixer details" >
     <i type="int" name="IMIX">     4</i>
     <i type="int" name="MAXMIX">   -45</i>
     <i name="WC">    100.00000000</i>
     <i type="int" name="INIMIX">     1</i>
     <i type="int" name="MIXPRE">     1</i>
     <i type="int" name="MREMOVE">     5</i>
    </separator>
   </separator>
   <separator name="electronic dipolcorrection" >
    <i type="logical" name="LDIPOL"> F  </i>
    <i type="logical" name="LMONO"> F  </i>
    <i type="int" name="IDIPOL">     0</i>
    <i name="EPSILON">      1.00000000</i>
    <v name="DIPOL">   -100.00000000   -100.00000000   -100.00000000</v>
    <i name="EFIELD">      0.00000000</i>
   </separator>
  </separator>
  <separator name="grids" >
   <i type="int" name="NGX">    20</i>
   <i type="int" name="NGY">    60</i>
   <i type="int" name="NGZ">   160</i>
   <i type="int" name="NGXF">    40</i>
   <i type="int" name="NGYF">   120</i>
   <i type="int" name="NGZF">   320</i>
   <i type="logical" name="ADDGRID"> F  </i>
  </separator>
  <separator name="ionic" >
   <i type="int" name="NSW">     0</i>
   <i type="int" name="IBRION">    -1</i>
   <i type="int" name="ISIF">     3</i>
   <i name="PSTRESS">      0.00000000</i>
   <i name="EDIFFG">      0.00001000</i>
   <i type="int" name="NFREE">     1</i>
   <i name="POTIM">      0.50000000</i>
   <i name="SMASS">     -3.00000000</i>
   <i name="SCALEE">      1.00000000</i>
  </separator>
  <separator name="ionic md" >
   <i name="TEBEG">      0.00010000</i>
   <i name="TEEND">      0.00010000</i>
   <i type="int" name="NBLOCK">     1</i>
   <i type="int" name="KBLOCK">     1</i>
   <i type="int" name="NPACO">   256</i>
   <i name="APACO">     16.00000000</i>
  </separator>
  <separator name="symmetry" >
   <i type="int" name="ISYM">     2</i>
   <i name="SYMPREC">      0.00001000</i>
  </separator>
  <separator name="dos" >
   <i type="logical" name="LORBIT"> F  </i>
   <v name="RWIGS">     -1.00000000     -1.00000000</v>
   <i type="int" name="NEDOS">   301</i>
   <i name="EMIN">     10.00000000</i>
   <i name="EMAX">    -10.00000000</i>
   <i name="EFERMI">      0.00000000</i>
  </separator>
  <separator name="writing" >
   <i type="int" name="NWRITE">     2</i>
   <i type="logical" name="LWAVE"> F  </i>
   <i type="logical" name="LCHARG"> F  </i>
   <i type="logical" name="LPARD"> F  </i>
   <i type="logical" name="LVTOT"> F  </i>
   <i type="logical" name="LVHAR"> F  </i>
   <i type="logical" name="LELF"> F  </i>
   <i type="logical" name="LOPTICS"> F  </i>
   <v name="STM">      0.00000000      0.00000000      0.00000000      0.00000000      0.00000000      0.00000000      0.00000000</v>
  </separator>
  <separator name="performance" >
   <i type="int" name="NPAR">     4</i>
   <i type="int" name="NSIM">     4</i>
   <i type="int" name="NBLK">    -1</i>
   <i type="logical" name="LPLANE"> T  </i>
   <i type="logical" name="LSCALAPACK"> T  </i>
   <i type="logical" name="LSCAAWARE"> F  </i>
   <i type="logical" name="LSCALU"> F  </i>
   <i type="logical" name="LASYNC"> F  </i>
   <i type="logical" name="LORBITALREAL"> F  </i>
  </separator>
  <separator name="miscellaneous" >
   <i type="int" name="IDIOT">     3</i>
   <i type="logical" name="LMUSIC"> F  </i>
   <v name="POMASS">     30.97400000     28.08500000</v>
   <v name="DARWINR">      0.00000000      0.00000000</v>
   <v name="DARWINV">      1.00000000      1.00000000</v>
   <i type="logical" name="LCORR"> T  </i>
  </separator>
  <i type="logical" name="GGA_COMPAT"> T  </i>
  <i type="logical" name="LBERRY"> F  </i>
  <i type="int" name="ICORELEVEL">     0</i>
  <i type="logical" name="LDAU"> F  </i>
  <i type="int" name="I_CONSTRAINED_M">     0</i>
  <separator name="electronic exchange-correlation" >
   <i type="string" name="GGA">BO</i>
   <i type="int" name="VOSKOWN">     0</i>
   <i type="logical" name="LHFCALC"> F  </i>
   <i type="string" name="PRECFOCK"></i>
   <i type="logical" name="LSYMGRAD"> F  </i>
   <i type="logical" name="LHFONE"> F  </i>
   <i type="logical" name="LRHFCALC"> F  </i>
   <i type="logical" name="LTHOMAS"> F  </i>
   <i type="logical" name="LMODELHF"> F  </i>
   <i name="ENCUT4O">     -1.00000000</i>
   <i type="int" name="EXXOEP">     0</i>
   <i type="int" name="FOURORBIT">     0</i>
   <i name="AEXX">      0.00000000</i>
   <i name="HFALPHA">      0.00000000</i>
   <i name="MCALPHA">      0.00000000</i>
   <i name="ALDAX">      1.00000000</i>
   <i name="AGGAX">      1.00000000</i>
   <i name="ALDAC">      1.00000000</i>
   <i name="AGGAC">      0.00000000</i>
   <i type="int" name="NKREDX">     1</i>
   <i type="int" name="NKREDY">     1</i>
   <i type="int" name="NKREDZ">     1</i>
   <i type="logical" name="SHIFTRED"> F  </i>
   <i type="logical" name="ODDONLY"> F  </i>
   <i type="logical" name="EVENONLY"> F  </i>
   <i type="int" name="LMAXFOCK">     0</i>
   <i type="int" name="NMAXFOCKAE">     0</i>
   <i type="logical" name="LFOCKAEDFT"> F  </i>
   <i name="HFSCREEN">      0.00000000</i>
   <i name="HFSCREENC">      0.00000000</i>
   <i type="int" name="NBANDSGWLOW">     0</i>
  </separator>
  <separator name="vdW DFT" >
   <i type="logical" name="LUSE_VDW"> T  </i>
   <i name="Zab_VDW">     -0.84910000</i>
   <i name="PARAM1">      0.18333333</i>
   <i name="PARAM2">      0.22000000</i>
   <i name="PARAM3">      0.00000000</i>
  </separator>
  <separator name="model GW" >
   <i type="int" name="MODEL_GW">     0</i>
   <i name="MODEL_EPS0">     25.05800243</i>
   <i name="MODEL_ALPHA">      1.00000000</i>
  </separator>
  <separator name="linear response parameters" >
   <i type="logical" name="LEPSILON"> F  </i>
   <i type="logical" name="LRPA"> F  </i>
   <i type="logical" name="LNABLA"> F  </i>
   <i type="logical" name="LVEL"> F  </i>
   <i type="int" name="KINTER">     0</i>
   <i name="CSHIFT">      0.10000000</i>
   <i name="OMEGAMAX">     -1.00000000</i>
   <i name="DEG_THRESHOLD">      0.00200000</i>
  </separator>
  <separator name="orbital magnetization" >
   <i type="logical" name="NUCIND"> F  </i>
   <v name="MAGPOS">      0.00000000      0.00000000      0.00000000</v>
   <i type="logical" name="LNICSALL"> T  </i>
   <i type="logical" name="ORBITALMAG"> F  </i>
   <i type="logical" name="LMAGBLOCH"> F  </i>
   <i type="logical" name="LCHIMAG"> F  </i>
   <i type="logical" name="LGAUGE"> T  </i>
   <i type="int" name="MAGATOM">     0</i>
   <v name="MAGDIPOL">      0.00000000      0.00000000      0.00000000</v>
   <v name="AVECCONST">      0.00000000      0.00000000      0.00000000</v>
  </separator>
  <separator name="response functions" >
   <i type="logical" name="LADDER"> F  </i>
   <i type="logical" name="LFXC"> F  </i>
   <i type="logical" name="LHARTREE"> T  </i>
   <i type="int" name="IBSE">     0</i>
   <i type="logical" name="LTCTE"> F  </i>
   <i type="logical" name="LTETE"> F  </i>
   <i type="logical" name="LTRIPLET"> F  </i>
   <i type="logical" name="LFXCEPS"> F  </i>
   <i type="logical" name="LFXHEG"> F  </i>
   <i type="logical" name="L2ORDER"> F  </i>
   <i type="logical" name="LUSEW"> F  </i>
   <i name="ENCUTGW">     -2.00000000</i>
   <i name="ENCUTGWSOFT">     -2.00000000</i>
   <i name="ENCUTLF">     -1.00000000</i>
   <i type="int" name="LMAXMP2">    -1</i>
   <i name="SCISSOR">      0.00000000</i>
   <i type="int" name="NOMEGA">     0</i>
   <i type="int" name="NOMEGAR">     0</i>
   <i type="int" name="NBANDSGW">    -1</i>
   <i type="int" name="NBANDSO">    -1</i>
   <i type="int" name="NBANDSV">    -1</i>
   <i type="int" name="NELM">     1</i>
   <i type="int" name="DIM">     3</i>
   <i type="int" name="ANTIRES">     0</i>
   <i name="OMEGAMAX">    -30.00000000</i>
   <i name="OMEGAMIN">    -30.00000000</i>
   <i name="OMEGATL">   -200.00000000</i>
   <i type="int" name="OMEGAGRID">     0</i>
   <i name="CSHIFT">     -0.10000000</i>
   <i type="logical" name="SELFENERGY"> F  </i>
   <i type="logical" name="LSPECTRAL"> F  </i>
   <i type="logical" name="ODDONLYGW"> F  </i>
   <i type="logical" name="EVENONLYGW"> F  </i>
   <i type="int" name="NKREDLFX">     1</i>
   <i type="int" name="NKREDLFY">     1</i>
   <i type="int" name="NKREDLFZ">     1</i>
   <i type="int" name="MAXMEM">  1800</i>
   <i type="int" name="TELESCOPE">     0</i>
   <i type="int" name="TAUPAR">     1</i>
  </separator>
  <separator name="External order field" >
   <i name="OFIELD_KAPPA">      0.00000000</i>
   <v name="OFIELD_K">      0.00000000      0.00000000      0.00000000</v>
   <i name="OFIELD_Q6_NEAR">      0.00000000</i>
   <i name="OFIELD_Q6_FAR">      0.00000000</i>
   <i name="OFIELD_A">      0.00000000</i>
  </separator>
 </parameters>
 <atominfo>
  <atoms>      24 </atoms>
  <types>       2 </types>
  <array name="atoms" >
   <dimension dim="1">ion</dimension>
   <field type="string">element</field>
   <field type="int">atomtype</field>
   <set>
    <rc><c>P </c><c>   1</c></rc>
    <rc><c>P </c><c>   1</c></rc>
    <rc><c>P </c><c>   1</c></rc>
    <rc><c>P </c><c>   1</c></rc>
    <rc><c>P </c><c>   1</c></rc>
    <rc><c>P </c><c>   1</c></rc>
    <rc><c>P </c><c>   1</c></rc>
    <rc><c>P </c><c>   1</c></rc>
    <rc><c>P </c><c>   1</c></rc>
    <rc><c>P </c><c>   1</c></rc>
    <rc><c>P </c><c>   1</c></rc>
    <rc><c>P </c><c>   1</c></rc>
    <rc><c>Si</c><c>   2</c></rc>
    <rc><c>Si</c><c>   2</c></rc>
    <rc><c>Si</c><c>   2</c></rc>
    <rc><c>Si</c><c>   2</c></rc>
    <rc><c>Si</c><c>   2</c></rc>
    <rc><c>Si</c><c>   2</c></rc>
    <rc><c>Si</c><c>   2</c></rc>
    <rc><c>Si</c><c>   2</c></rc>
    <rc><c>Si</c><c>   2</c></rc>
    <rc><c>Si</c><c>   2</c></rc>
    <rc><c>Si</c><c>   2</c></rc>
    <rc><c>Si</c><c>   2</c></rc>
   </set>
  </array>
  <array name="atomtypes" >
   <dimension dim="1">type</dimension>
   <field type="int">atomspertype</field>
   <field type="string">element</field>
   <field>mass</field>
   <field>valence</field>
   <field type="string">pseudopotential</field>
   <set>
    <rc><c>  12</c><c>P </c><c>     30.97400000</c><c>      5.00000000</c><c>  PAW_PBE P 17Jan2003                   </c></rc>
    <rc><c>  12</c><c>Si</c><c>     28.08500000</c><c>      4.00000000</c><c> PAW_PBE Si 05Jan2001                   </c></rc>
   </set>
  </array>
 </atominfo>
 <structure name="initialpos" >
  <crystal>
   <varray name="basis" >
    <v>       3.54040000       0.00000000       0.00000000 </v>
    <v>      -1.77020000      10.29434800       0.00000000 </v>
    <v>       0.00000000       0.00000000      27.50142900 </v>
   </varray>
   <i name="volume">   1002.32009712 </i>
   <varray name="rec_basis" >
    <v>       0.28245396       0.04857034       0.00000000 </v>
    <v>       0.00000000       0.09714068       0.00000000 </v>
    <v>       0.00000000       0.00000000       0.03636175 </v>
   </varray>
  </crystal>
  <varray name="positions" >
   <v>       0.11402300       0.22804500       0.23316207 </v>
   <v>       0.71402300       0.72804500       0.51499159 </v>
   <v>       0.45808900       0.91617900       0.20939482 </v>
   <v>       0.05808900       0.41617900       0.49122434 </v>
   <v>       0.31085400       0.62170900       0.08414979 </v>
   <v>       0.31085400       0.62170900       0.36597930 </v>
   <v>       0.99923000       0.99846000       0.08631254 </v>
   <v>       0.99923000       0.99846000       0.36814206 </v>
   <v>       0.65492700       0.30985400       0.06041748 </v>
   <v>       0.65492700       0.30985400       0.34224700 </v>
   <v>       0.76973800       0.53947500       0.20725292 </v>
   <v>       0.36973800       0.03947500       0.48908244 </v>
   <v>       0.93971600       0.87943300       0.15783749 </v>
   <v>       0.53971600       0.37943300       0.43966701 </v>
   <v>       0.20515200       0.41030300       0.18578822 </v>
   <v>       0.80515200       0.91030300       0.46761774 </v>
   <v>       0.20184900       0.40369900       0.09969156 </v>
   <v>       0.20184900       0.40369900       0.38152107 </v>
   <v>       0.56380500       0.12761000       0.10779021 </v>
   <v>       0.56380500       0.12761000       0.38961973 </v>
   <v>       0.56710600       0.13421200       0.19387616 </v>
   <v>       0.16710600       0.63421200       0.47570568 </v>
   <v>       0.82923400       0.65846800       0.13571444 </v>
   <v>       0.42923400       0.15846800       0.41754396 </v>
  </varray>
 </structure>
 <calculation>
  <scstep>
   <time name="dav">   75.72   76.14</time>
   <time name="total">   92.59   93.05</time>
   <energy>
    <i name="alphaZ">     36.80884744 </i>
    <i name="ewald">  12098.52632755 </i>
    <i name="hartreedc"> -15065.35191770 </i>
    <i name="XCdc">    -87.58546205 </i>
    <i name="pawpsdc">   1056.43050070 </i>
    <i name="pawaedc">   -732.41190547 </i>
    <i name="eentropy">     -0.04458511 </i>
    <i name="bandstr">    -95.18781979 </i>
    <i name="atom">   3354.04126044 </i>
    <i name="e_fr_energy">    565.22524602 </i>
    <i name="e_wo_entrp">    565.26983113 </i>
    <i name="e_0_energy">    565.24753858 </i>
   </energy>
  </scstep>
  <scstep>
   <time name="dav">   94.36   94.79</time>
   <time name="total">   94.37   94.81</time>
   <energy>
    <i name="e_fr_energy">     -2.10321119 </i>
    <i name="e_wo_entrp">     -2.08181941 </i>
    <i name="e_0_energy">     -2.09251530 </i>
   </energy>
  </scstep>
  <scstep>
   <time name="dav">   96.94   97.54</time>
   <time name="total">   96.95   97.55</time>
   <energy>
    <i name="e_fr_energy">    -63.48531785 </i>
    <i name="e_wo_entrp">    -63.45758894 </i>
    <i name="e_0_energy">    -63.47145339 </i>
   </energy>
  </scstep>
  <scstep>
   <time name="dav">  111.27  111.97</time>
   <time name="total">  111.28  111.98</time>
   <energy>
    <i name="e_fr_energy">    -66.76303614 </i>
    <i name="e_wo_entrp">    -66.73527955 </i>
    <i name="e_0_energy">    -66.74915785 </i>
   </energy>
  </scstep>
  <scstep>
   <time name="dav">  101.99  102.33</time>
   <time name="total">  107.13  107.47</time>
   <energy>
    <i name="e_fr_energy">    -66.83266344 </i>
    <i name="e_wo_entrp">    -66.80477667 </i>
    <i name="e_0_energy">    -66.81872005 </i>
   </energy>
  </scstep>
  <scstep>
   <time name="dav">   92.78   93.01</time>
   <time name="total">  112.59  112.99</time>
   <energy>
    <i name="e_fr_energy">    -60.75498512 </i>
    <i name="e_wo_entrp">    -60.73313319 </i>
    <i name="e_0_energy">    -60.74405915 </i>
   </energy>
  </scstep>
  <scstep>
   <time name="dav">   82.07   82.56</time>
   <time name="total">  102.05  102.66</time>
   <energy>
    <i name="e_fr_energy">    -60.90879096 </i>
    <i name="e_wo_entrp">    -60.88119028 </i>
    <i name="e_0_energy">    -60.89499062 </i>
   </energy>
  </scstep>
  <scstep>
   <time name="dav">   91.82   92.58</time>
   <time name="total">  112.23  113.16</time>
   <energy>
    <i name="e_fr_energy">    -60.87113615 </i>
    <i name="e_wo_entrp">    -60.84102459 </i>
    <i name="e_0_energy">    -60.85608037 </i>
   </energy>
  </scstep>
  <scstep>
   <time name="dav">   91.88   92.33</time>
   <time name="total">  111.92  112.48</time>
   <energy>
    <i name="e_fr_energy">    -60.91375743 </i>
    <i name="e_wo_entrp">    -60.88050562 </i>
    <i name="e_0_energy">    -60.89713152 </i>
   </energy>
  </scstep>
  <scstep>
   <time name="dav">   88.69   89.19</time>
   <time name="total">  108.60  109.26</time>
   <energy>
    <i name="e_fr_energy">    -60.90872322 </i>
    <i name="e_wo_entrp">    -60.87690957 </i>
    <i name="e_0_energy">    -60.89281639 </i>
   </energy>
  </scstep>
  <scstep>
   <time name="dav">   92.32   92.80</time>
   <time name="total">  112.28  112.80</time>
   <energy>
    <i name="e_fr_energy">    -60.90016147 </i>
    <i name="e_wo_entrp">    -60.86772108 </i>
    <i name="e_0_energy">    -60.88394127 </i>
   </energy>
  </scstep>
  <scstep>
   <time name="dav">   88.39   88.88</time>
   <time name="total">  108.37  108.92</time>
   <energy>
    <i name="e_fr_energy">    -60.88701859 </i>
    <i name="e_wo_entrp">    -60.85466751 </i>
    <i name="e_0_energy">    -60.87084305 </i>
   </energy>
  </scstep>
  <scstep>
   <time name="dav">   88.80   89.39</time>
   <time name="total">  108.73  109.42</time>
   <energy>
    <i name="e_fr_energy">    -60.88200355 </i>
    <i name="e_wo_entrp">    -60.84961267 </i>
    <i name="e_0_energy">    -60.86580811 </i>
   </energy>
  </scstep>
  <scstep>
   <time name="dav">   91.67   92.40</time>
   <time name="total">  111.56  112.35</time>
   <energy>
    <i name="e_fr_energy">    -60.87942059 </i>
    <i name="e_wo_entrp">    -60.84702991 </i>
    <i name="e_0_energy">    -60.86322525 </i>
   </energy>
  </scstep>
  <scstep>
   <time name="dav">   93.25   93.71</time>
   <time name="total">  113.06  113.68</time>
   <energy>
    <i name="e_fr_energy">    -60.87786060 </i>
    <i name="e_wo_entrp">    -60.84547415 </i>
    <i name="e_0_energy">    -60.86166738 </i>
   </energy>
  </scstep>
  <scstep>
   <time name="dav">   83.68   84.26</time>
   <time name="total">  103.66  104.37</time>
   <energy>
    <i name="e_fr_energy">    -60.87756000 </i>
    <i name="e_wo_entrp">    -60.84517999 </i>
    <i name="e_0_energy">    -60.86137000 </i>
   </energy>
  </scstep>
  <scstep>
   <time name="dav">   82.23   82.53</time>
   <time name="total">  102.17  102.58</time>
   <energy>
    <i name="e_fr_energy">    -60.87814677 </i>
    <i name="e_wo_entrp">    -60.84576754 </i>
    <i name="e_0_energy">    -60.86195716 </i>
   </energy>
  </scstep>
  <scstep>
   <time name="dav">   78.56   79.06</time>
   <time name="total">   98.44   99.00</time>
   <energy>
    <i name="e_fr_energy">    -60.87848141 </i>
    <i name="e_wo_entrp">    -60.84610198 </i>
    <i name="e_0_energy">    -60.86229170 </i>
   </energy>
  </scstep>
  <scstep>
   <time name="dav">   76.20   76.67</time>
   <time name="total">   96.13   96.73</time>
   <energy>
    <i name="e_fr_energy">    -60.87852783 </i>
    <i name="e_wo_entrp">    -60.84614969 </i>
    <i name="e_0_energy">    -60.86233876 </i>
   </energy>
  </scstep>
  <scstep>
   <time name="dav">   83.49   84.17</time>
   <time name="total">  105.12  105.90</time>
   <energy>
    <i name="e_fr_energy">    -60.87855316 </i>
    <i name="e_wo_entrp">    -60.84617453 </i>
    <i name="e_0_energy">    -60.86236384 </i>
   </energy>
  </scstep>
  <scstep>
   <time name="dav">   84.46   85.21</time>
   <time name="total">  105.81  106.87</time>
   <energy>
    <i name="e_fr_energy">    -60.87853640 </i>
    <i name="e_wo_entrp">    -60.84615848 </i>
    <i name="e_0_energy">    -60.86234744 </i>
   </energy>
  </scstep>
  <scstep>
   <time name="dav">   84.58   85.28</time>
   <time name="total">  106.47  107.41</time>
   <energy>
    <i name="e_fr_energy">    -60.87850939 </i>
    <i name="e_wo_entrp">    -60.84613090 </i>
    <i name="e_0_energy">    -60.86232014 </i>
   </energy>
  </scstep>
  <scstep>
   <time name="dav">   77.06   77.39</time>
   <time name="total">   97.84   98.31</time>
   <energy>
    <i name="e_fr_energy">    -60.87844534 </i>
    <i name="e_wo_entrp">    -60.84606676 </i>
    <i name="e_0_energy">    -60.86225605 </i>
   </energy>
  </scstep>
  <scstep>
   <time name="dav">   69.86   70.34</time>
   <time name="total">   89.72   90.28</time>
   <energy>
    <i name="e_fr_energy">    -60.87845072 </i>
    <i name="e_wo_entrp">    -60.84607233 </i>
    <i name="e_0_energy">    -60.86226153 </i>
   </energy>
  </scstep>
  <scstep>
   <time name="dav">   69.74   70.14</time>
   <time name="total">   89.77   90.31</time>
   <energy>
    <i name="e_fr_energy">    -60.87843233 </i>
    <i name="e_wo_entrp">    -60.84605392 </i>
    <i name="e_0_energy">    -60.86224312 </i>
   </energy>
  </scstep>
  <scstep>
   <time name="dav">   86.60   87.28</time>
   <time name="total">  106.86  107.86</time>
   <energy>
    <i name="e_fr_energy">    -60.87843033 </i>
    <i name="e_wo_entrp">    -60.84605196 </i>
    <i name="e_0_energy">    -60.86224115 </i>
   </energy>
  </scstep>
  <scstep>
   <time name="dav">   67.70   68.24</time>
   <time name="total">   88.01   88.65</time>
   <energy>
    <i name="e_fr_energy">    -60.87842589 </i>
    <i name="e_wo_entrp">    -60.84604750 </i>
    <i name="e_0_energy">    -60.86223669 </i>
   </energy>
  </scstep>
  <scstep>
   <time name="dav">   65.75   66.26</time>
   <time name="total">   80.77   81.34</time>
   <energy>
    <i name="alphaZ">     36.80884744 </i>
    <i name="ewald">  12098.52632755 </i>
    <i name="hartreedc"> -15172.16609040 </i>
    <i name="XCdc">    -79.16978198 </i>
    <i name="pawpsdc">   1201.30243284 </i>
    <i name="pawaedc">   -881.83734936 </i>
    <i name="eentropy">     -0.03237836 </i>
    <i name="bandstr">   -618.35169365 </i>
    <i name="atom">   3354.04126044 </i>
    <i name="e_fr_energy">    -60.87842547 </i>
    <i name="e_wo_entrp">    -60.84604711 </i>
    <i name="e_0_energy">    -60.86223629 </i>
   </energy>
  </scstep>
  <structure>
   <crystal>
    <varray name="basis" >
     <v>       3.54040000       0.00000000       0.00000000 </v>
     <v>      -1.77020000      10.29434800       0.00000000 </v>
     <v>       0.00000000       0.00000000      27.50142900 </v>
    </varray>
    <i name="volume">   1002.32009712 </i>
    <varray name="rec_basis" >
     <v>       0.28245396       0.04857034       0.00000000 </v>
     <v>       0.00000000       0.09714068       0.00000000 </v>
     <v>       0.00000000       0.00000000       0.03636175 </v>
    </varray>
   </crystal>
   <varray name="positions" >
    <v>       0.11402300       0.22804500       0.23316207 </v>
    <v>       0.71402300       0.72804500       0.51499159 </v>
    <v>       0.45808900       0.91617900       0.20939482 </v>
    <v>       0.05808900       0.41617900       0.49122434 </v>
    <v>       0.31085400       0.62170900       0.08414979 </v>
    <v>       0.31085400       0.62170900       0.36597930 </v>
    <v>       0.99923000       0.99846000       0.08631254 </v>
    <v>       0.99923000       0.99846000       0.36814206 </v>
    <v>       0.65492700       0.30985400       0.06041748 </v>
    <v>       0.65492700       0.30985400       0.34224700 </v>
    <v>       0.76973800       0.53947500       0.20725292 </v>
    <v>       0.36973800       0.03947500       0.48908244 </v>
    <v>       0.93971600       0.87943300       0.15783749 </v>
    <v>       0.53971600       0.37943300       0.43966701 </v>
    <v>       0.20515200       0.41030300       0.18578822 </v>
    <v>       0.80515200       0.91030300       0.46761774 </v>
    <v>       0.20184900       0.40369900       0.09969156 </v>
    <v>       0.20184900       0.40369900       0.38152107 </v>
    <v>       0.56380500       0.12761000       0.10779021 </v>
    <v>       0.56380500       0.12761000       0.38961973 </v>
    <v>       0.56710600       0.13421200       0.19387616 </v>
    <v>       0.16710600       0.63421200       0.47570568 </v>
    <v>       0.82923400       0.65846800       0.13571444 </v>
    <v>       0.42923400       0.15846800       0.41754396 </v>
   </varray>
  </structure>
  <varray name="forces" >
   <v>       0.04542821      -0.02247975       0.01112703 </v>
   <v>       0.03410609      -0.04721374      -0.39513868 </v>
   <v>       0.00191697      -0.01518467       0.08122286 </v>
   <v>      -0.24965359       0.37524892       1.18936849 </v>
   <v>      -0.00106057      -0.00367503       0.00940793 </v>
   <v>      -0.32917649      -0.36196092       1.33451848 </v>
   <v>       0.00219959      -0.00120521      -0.00439520 </v>
   <v>       0.71513598      -0.96852325       0.06818360 </v>
   <v>       0.00117411       0.00010657       0.00705268 </v>
   <v>       0.53424550      -0.20661926      -1.85251623 </v>
   <v>      -0.00004350       0.00448565       0.09671864 </v>
   <v>      -0.21601839      -0.59004145       0.79286549 </v>
   <v>       0.00271541       0.00503489       0.00783744 </v>
   <v>       1.69238766      -0.37616628       4.69632341 </v>
   <v>      -0.00000590       0.00216694       0.03089508 </v>
   <v>       0.23592637       0.76404151      -0.39965864 </v>
   <v>      -0.00202797      -0.00081387      -0.01615713 </v>
   <v>      -1.99119324       2.22263642      -4.71264330 </v>
   <v>       0.00180498      -0.01723313      -0.00993968 </v>
   <v>      96.02166364     -57.54501487    -139.64949225 </v>
   <v>      -0.00714400      -0.01311518      -0.00493117 </v>
   <v>       0.27704547      -0.37030035      -1.26013969 </v>
   <v>       0.00190054       0.01375960      -0.00286239 </v>
   <v>     -96.77132689      57.15206645     139.98235323 </v>
  </varray>
  <varray name="stress" >
   <v>      84.13891934     -53.29508046    -116.47150308 </v>
   <v>     -53.29508082      31.12335101      70.88916196 </v>
   <v>    -116.47150323      70.88916192     182.70654539 </v>
  </varray>
  <energy>
   <i name="e_fr_energy">    -60.87842547 </i>
   <i name="e_wo_entrp">    -60.86223629 </i>
   <i name="e_0_energy">     -0.03237836 </i>
  </energy>
  <time name="totalsc"> 2997.85 3016.01</time>
  <eigenvalues>
   <array>
    <dimension dim="1">band</dimension>
    <dimension dim="2">kpoint</dimension>
    <dimension dim="3">spin</dimension>
    <field>eigene</field>
    <field>occ</field>
    <set>
     <set comment="spin 1">
      <set comment="kpoint 1">
       <r>  -14.3076    1.0000 </r>
       <r>  -13.5020    1.0000 </r>
       <r>  -13.1062    1.0000 </r>
       <r>  -12.9001    1.0000 </r>
       <r>  -12.7629    1.0000 </r>
       <r>  -12.4432    1.0000 </r>
       <r>  -12.0498    1.0000 </r>
       <r>  -11.7583    1.0000 </r>
       <r>  -11.5144    1.0000 </r>
       <r>  -11.3951    1.0000 </r>
       <r>  -10.9537    1.0000 </r>
       <r>  -10.0639    1.0000 </r>
       <r>   -8.7036    1.0000 </r>
       <r>   -7.9969    1.0000 </r>
       <r>   -7.9155    1.0000 </r>
       <r>   -7.7893    1.0000 </r>
       <r>   -7.1926    1.0000 </r>
       <r>   -6.7942    1.0000 </r>
       <r>   -6.4567    1.0000 </r>
       <r>   -6.2283    1.0000 </r>
       <r>   -5.8835    1.0000 </r>
       <r>   -5.7917    1.0000 </r>
       <r>   -5.5683    1.0000 </r>
       <r>   -4.7172    1.0000 </r>
       <r>   -4.5871    1.0000 </r>
       <r>   -4.3013    1.0000 </r>
       <r>   -3.6889    1.0000 </r>
       <r>   -3.6050    1.0000 </r>
       <r>   -3.3722    1.0000 </r>
       <r>   -3.1375    1.0000 </r>
       <r>   -3.0263    1.0000 </r>
       <r>   -3.0160    1.0000 </r>
       <r>   -2.8069    1.0000 </r>
       <r>   -2.6572    1.0000 </r>
       <r>   -2.5803    1.0000 </r>
       <r>   -2.4274    1.0000 </r>
       <r>   -2.4157    1.0000 </r>
       <r>   -2.3445    1.0000 </r>
       <r>   -2.2554    1.0000 </r>
       <r>   -2.1679    1.0000 </r>
       <r>   -2.0343    1.0000 </r>
       <r>   -1.8485    1.0000 </r>
       <r>   -1.7334    1.0000 </r>
       <r>   -1.6913    1.0000 </r>
       <r>   -1.6044    1.0000 </r>
       <r>   -1.5478    1.0000 </r>
       <r>   -1.4155    1.0000 </r>
       <r>   -1.3943    1.0000 </r>
       <r>   -1.2521    1.0000 </r>
       <r>   -1.0523    1.0000 </r>
       <r>   -0.9788    1.0000 </r>
       <r>   -0.8538    1.0000 </r>
       <r>   -0.3425    1.0000 </r>
       <r>    0.1907    0.5831 </r>
       <r>    0.5825    0.0000 </r>
       <r>    0.6778    0.0000 </r>
       <r>    1.0966    0.0000 </r>
       <r>    1.2487    0.0000 </r>
       <r>    1.3375    0.0000 </r>
       <r>    1.3808    0.0000 </r>
       <r>    1.6279    0.0000 </r>
       <r>    1.6628    0.0000 </r>
       <r>    1.7954    0.0000 </r>
       <r>    1.9902    0.0000 </r>
       <r>    2.0364    0.0000 </r>
       <r>    2.2201    0.0000 </r>
       <r>    2.3820    0.0000 </r>
       <r>    2.4710    0.0000 </r>
      </set>
      <set comment="kpoint 2">
       <r>  -14.2505    1.0000 </r>
       <r>  -13.4407    1.0000 </r>
       <r>  -13.0552    1.0000 </r>
       <r>  -12.8369    1.0000 </r>
       <r>  -12.7107    1.0000 </r>
       <r>  -12.3876    1.0000 </r>
       <r>  -11.9875    1.0000 </r>
       <r>  -11.7200    1.0000 </r>
       <r>  -11.4545    1.0000 </r>
       <r>  -11.3462    1.0000 </r>
       <r>  -10.9053    1.0000 </r>
       <r>  -10.0359    1.0000 </r>
       <r>   -8.6811    1.0000 </r>
       <r>   -8.0306    1.0000 </r>
       <r>   -7.9117    1.0000 </r>
       <r>   -7.7509    1.0000 </r>
       <r>   -7.1624    1.0000 </r>
       <r>   -6.7610    1.0000 </r>
       <r>   -6.4509    1.0000 </r>
       <r>   -6.2567    1.0000 </r>
       <r>   -6.0124    1.0000 </r>
       <r>   -5.7588    1.0000 </r>
       <r>   -5.5567    1.0000 </r>
       <r>   -4.7471    1.0000 </r>
       <r>   -4.6965    1.0000 </r>
       <r>   -4.2814    1.0000 </r>
       <r>   -3.7989    1.0000 </r>
       <r>   -3.6947    1.0000 </r>
       <r>   -3.5707    1.0000 </r>
       <r>   -3.3816    1.0000 </r>
       <r>   -3.2411    1.0000 </r>
       <r>   -3.2100    1.0000 </r>
       <r>   -3.1004    1.0000 </r>
       <r>   -2.9520    1.0000 </r>
       <r>   -2.7770    1.0000 </r>
       <r>   -2.7029    1.0000 </r>
       <r>   -2.6200    1.0000 </r>
       <r>   -2.4491    1.0000 </r>
       <r>   -2.3804    1.0000 </r>
       <r>   -2.1860    1.0000 </r>
       <r>   -2.1444    1.0000 </r>
       <r>   -2.0054    1.0000 </r>
       <r>   -1.9287    1.0000 </r>
       <r>   -1.8558    1.0000 </r>
       <r>   -1.8054    1.0000 </r>
       <r>   -1.7165    1.0000 </r>
       <r>   -1.4888    1.0000 </r>
       <r>   -1.4138    1.0000 </r>
       <r>   -1.2229    1.0000 </r>
       <r>   -1.0216    1.0000 </r>
       <r>   -0.9493    1.0000 </r>
       <r>   -0.8153    1.0000 </r>
       <r>   -0.3570    1.0000 </r>
       <r>    0.3582    0.0154 </r>
       <r>    0.5644    0.0000 </r>
       <r>    0.8022    0.0000 </r>
       <r>    1.0907    0.0000 </r>
       <r>    1.4109    0.0000 </r>
       <r>    1.6108    0.0000 </r>
       <r>    1.7925    0.0000 </r>
       <r>    1.8195    0.0000 </r>
       <r>    1.9332    0.0000 </r>
       <r>    2.1679    0.0000 </r>
       <r>    2.2578    0.0000 </r>
       <r>    2.2828    0.0000 </r>
       <r>    2.3845    0.0000 </r>
       <r>    2.5200    0.0000 </r>
       <r>    2.6595    0.0000 </r>
      </set>
      <set comment="kpoint 3">
       <r>  -14.0809    1.0000 </r>
       <r>  -13.2577    1.0000 </r>
       <r>  -12.9015    1.0000 </r>
       <r>  -12.6522    1.0000 </r>
       <r>  -12.5550    1.0000 </r>
       <r>  -12.2228    1.0000 </r>
       <r>  -11.8053    1.0000 </r>
       <r>  -11.6037    1.0000 </r>
       <r>  -11.2872    1.0000 </r>
       <r>  -11.2043    1.0000 </r>
       <r>  -10.7665    1.0000 </r>
       <r>   -9.9625    1.0000 </r>
       <r>   -8.6274    1.0000 </r>
       <r>   -8.1261    1.0000 </r>
       <r>   -7.9269    1.0000 </r>
       <r>   -7.7088    1.0000 </r>
       <r>   -7.0899    1.0000 </r>
       <r>   -6.6849    1.0000 </r>
       <r>   -6.5596    1.0000 </r>
       <r>   -6.4615    1.0000 </r>
       <r>   -6.1682    1.0000 </r>
       <r>   -5.6846    1.0000 </r>
       <r>   -5.5528    1.0000 </r>
       <r>   -5.0890    1.0000 </r>
       <r>   -4.8268    1.0000 </r>
       <r>   -4.4830    1.0000 </r>
       <r>   -4.2526    1.0000 </r>
       <r>   -4.1493    1.0000 </r>
       <r>   -4.0425    1.0000 </r>
       <r>   -3.9274    1.0000 </r>
       <r>   -3.6898    1.0000 </r>
       <r>   -3.6168    1.0000 </r>
       <r>   -3.4087    1.0000 </r>
       <r>   -3.2884    1.0000 </r>
       <r>   -3.1804    1.0000 </r>
       <r>   -3.0912    1.0000 </r>
       <r>   -3.0094    1.0000 </r>
       <r>   -2.9284    1.0000 </r>
       <r>   -2.8538    1.0000 </r>
       <r>   -2.6339    1.0000 </r>
       <r>   -2.3574    1.0000 </r>
       <r>   -2.2987    1.0000 </r>
       <r>   -2.1164    1.0000 </r>
       <r>   -1.9359    1.0000 </r>
       <r>   -1.7874    1.0000 </r>
       <r>   -1.7392    1.0000 </r>
       <r>   -1.6316    1.0000 </r>
       <r>   -1.3688    1.0000 </r>
       <r>   -1.2317    1.0000 </r>
       <r>   -1.0545    1.0000 </r>
       <r>   -0.9980    1.0000 </r>
       <r>   -0.8373    1.0000 </r>
       <r>   -0.4916    1.0000 </r>
       <r>    0.1725    0.6800 </r>
       <r>    0.5566    0.0000 </r>
       <r>    0.8658    0.0000 </r>
       <r>    1.2041    0.0000 </r>
       <r>    1.5587    0.0000 </r>
       <r>    1.9525    0.0000 </r>
       <r>    2.0328    0.0000 </r>
       <r>    2.2075    0.0000 </r>
       <r>    2.3176    0.0000 </r>
       <r>    2.4664    0.0000 </r>
       <r>    2.6441    0.0000 </r>
       <r>    2.6766    0.0000 </r>
       <r>    2.7897    0.0000 </r>
       <r>    2.9730    0.0000 </r>
       <r>    3.0520    0.0000 </r>
      </set>
      <set comment="kpoint 4">
       <r>  -13.8048    1.0000 </r>
       <r>  -12.9566    1.0000 </r>
       <r>  -12.6467    1.0000 </r>
       <r>  -12.3596    1.0000 </r>
       <r>  -12.2987    1.0000 </r>
       <r>  -11.9562    1.0000 </r>
       <r>  -11.5185    1.0000 </r>
       <r>  -11.4147    1.0000 </r>
       <r>  -11.0488    1.0000 </r>
       <r>  -10.9876    1.0000 </r>
       <r>  -10.5634    1.0000 </r>
       <r>   -9.8818    1.0000 </r>
       <r>   -8.5945    1.0000 </r>
       <r>   -8.3182    1.0000 </r>
       <r>   -8.0914    1.0000 </r>
       <r>   -7.7835    1.0000 </r>
       <r>   -7.1040    1.0000 </r>
       <r>   -6.8715    1.0000 </r>
       <r>   -6.6542    1.0000 </r>
       <r>   -6.5953    1.0000 </r>
       <r>   -6.4600    1.0000 </r>
       <r>   -5.7636    1.0000 </r>
       <r>   -5.7036    1.0000 </r>
       <r>   -5.5303    1.0000 </r>
       <r>   -5.2997    1.0000 </r>
       <r>   -4.8749    1.0000 </r>
       <r>   -4.7738    1.0000 </r>
       <r>   -4.5699    1.0000 </r>
       <r>   -4.5140    1.0000 </r>
       <r>   -4.4536    1.0000 </r>
       <r>   -4.1585    1.0000 </r>
       <r>   -4.0961    1.0000 </r>
       <r>   -3.8577    1.0000 </r>
       <r>   -3.7484    1.0000 </r>
       <r>   -3.5434    1.0000 </r>
       <r>   -3.4270    1.0000 </r>
       <r>   -3.1184    1.0000 </r>
       <r>   -3.0208    1.0000 </r>
       <r>   -2.9604    1.0000 </r>
       <r>   -2.7790    1.0000 </r>
       <r>   -2.5567    1.0000 </r>
       <r>   -2.4183    1.0000 </r>
       <r>   -2.3769    1.0000 </r>
       <r>   -1.8805    1.0000 </r>
       <r>   -1.8055    1.0000 </r>
       <r>   -1.7268    1.0000 </r>
       <r>   -1.6572    1.0000 </r>
       <r>   -1.4379    1.0000 </r>
       <r>   -1.3727    1.0000 </r>
       <r>   -1.1978    1.0000 </r>
       <r>   -1.0728    1.0000 </r>
       <r>   -0.9743    1.0000 </r>
       <r>   -0.7123    1.0000 </r>
       <r>   -0.2924    1.0000 </r>
       <r>    0.4117    0.0018 </r>
       <r>    0.7970    0.0000 </r>
       <r>    1.1357    0.0000 </r>
       <r>    1.5655    0.0000 </r>
       <r>    1.7735    0.0000 </r>
       <r>    1.9349    0.0000 </r>
       <r>    2.0652    0.0000 </r>
       <r>    2.2937    0.0000 </r>
       <r>    2.4015    0.0000 </r>
       <r>    2.6198    0.0000 </r>
       <r>    2.7195    0.0000 </r>
       <r>    2.7762    0.0000 </r>
       <r>    2.9316    0.0000 </r>
       <r>    2.9615    0.0000 </r>
      </set>
      <set comment="kpoint 5">
       <r>  -13.4364    1.0000 </r>
       <r>  -12.5448    1.0000 </r>
       <r>  -12.3020    1.0000 </r>
       <r>  -11.9852    1.0000 </r>
       <r>  -11.9504    1.0000 </r>
       <r>  -11.6045    1.0000 </r>
       <r>  -11.2008    1.0000 </r>
       <r>  -11.1512    1.0000 </r>
       <r>  -10.8210    1.0000 </r>
       <r>  -10.7437    1.0000 </r>
       <r>  -10.3774    1.0000 </r>
       <r>   -9.8646    1.0000 </r>
       <r>   -8.6673    1.0000 </r>
       <r>   -8.6125    1.0000 </r>
       <r>   -8.4198    1.0000 </r>
       <r>   -8.0448    1.0000 </r>
       <r>   -7.2991    1.0000 </r>
       <r>   -7.0991    1.0000 </r>
       <r>   -6.9561    1.0000 </r>
       <r>   -6.8874    1.0000 </r>
       <r>   -6.8541    1.0000 </r>
       <r>   -6.1439    1.0000 </r>
       <r>   -6.1072    1.0000 </r>
       <r>   -5.9275    1.0000 </r>
       <r>   -5.8162    1.0000 </r>
       <r>   -5.2971    1.0000 </r>
       <r>   -5.1658    1.0000 </r>
       <r>   -4.7756    1.0000 </r>
       <r>   -4.7078    1.0000 </r>
       <r>   -4.6593    1.0000 </r>
       <r>   -4.4110    1.0000 </r>
       <r>   -4.2747    1.0000 </r>
       <r>   -4.1846    1.0000 </r>
       <r>   -3.9482    1.0000 </r>
       <r>   -3.5895    1.0000 </r>
       <r>   -3.3517    1.0000 </r>
       <r>   -3.2304    1.0000 </r>
       <r>   -3.0475    1.0000 </r>
       <r>   -2.9282    1.0000 </r>
       <r>   -2.8966    1.0000 </r>
       <r>   -2.7121    1.0000 </r>
       <r>   -2.5571    1.0000 </r>
       <r>   -2.4203    1.0000 </r>
       <r>   -2.0375    1.0000 </r>
       <r>   -1.8790    1.0000 </r>
       <r>   -1.8548    1.0000 </r>
       <r>   -1.6973    1.0000 </r>
       <r>   -1.6248    1.0000 </r>
       <r>   -1.5626    1.0000 </r>
       <r>   -1.3142    1.0000 </r>
       <r>   -1.2025    1.0000 </r>
       <r>   -1.1466    1.0000 </r>
       <r>   -0.8857    1.0000 </r>
       <r>   -0.6151    1.0000 </r>
       <r>    0.3228    0.0486 </r>
       <r>    0.5545    0.0000 </r>
       <r>    1.0627    0.0000 </r>
       <r>    1.3458    0.0000 </r>
       <r>    1.5172    0.0000 </r>
       <r>    1.6528    0.0000 </r>
       <r>    1.8400    0.0000 </r>
       <r>    2.0359    0.0000 </r>
       <r>    2.2530    0.0000 </r>
       <r>    2.3507    0.0000 </r>
       <r>    2.4088    0.0000 </r>
       <r>    2.5666    0.0000 </r>
       <r>    2.7258    0.0000 </r>
       <r>    2.8232    0.0000 </r>
      </set>
      <set comment="kpoint 6">
       <r>  -13.0104    1.0000 </r>
       <r>  -12.0365    1.0000 </r>
       <r>  -11.9061    1.0000 </r>
       <r>  -11.5874    1.0000 </r>
       <r>  -11.5317    1.0000 </r>
       <r>  -11.2067    1.0000 </r>
       <r>  -11.0708    1.0000 </r>
       <r>  -10.8129    1.0000 </r>
       <r>  -10.7254    1.0000 </r>
       <r>  -10.5895    1.0000 </r>
       <r>  -10.4172    1.0000 </r>
       <r>   -9.9300    1.0000 </r>
       <r>   -8.8249    1.0000 </r>
       <r>   -8.7900    1.0000 </r>
       <r>   -8.6404    1.0000 </r>
       <r>   -8.3373    1.0000 </r>
       <r>   -7.8037    1.0000 </r>
       <r>   -7.4210    1.0000 </r>
       <r>   -7.3895    1.0000 </r>
       <r>   -7.3600    1.0000 </r>
       <r>   -6.9726    1.0000 </r>
       <r>   -6.7232    1.0000 </r>
       <r>   -6.6499    1.0000 </r>
       <r>   -6.6204    1.0000 </r>
       <r>   -5.8548    1.0000 </r>
       <r>   -5.5260    1.0000 </r>
       <r>   -5.1736    1.0000 </r>
       <r>   -4.9403    1.0000 </r>
       <r>   -4.5899    1.0000 </r>
       <r>   -4.4901    1.0000 </r>
       <r>   -4.3267    1.0000 </r>
       <r>   -4.1907    1.0000 </r>
       <r>   -4.0574    1.0000 </r>
       <r>   -3.9056    1.0000 </r>
       <r>   -3.6360    1.0000 </r>
       <r>   -3.6100    1.0000 </r>
       <r>   -3.3371    1.0000 </r>
       <r>   -3.2307    1.0000 </r>
       <r>   -3.1247    1.0000 </r>
       <r>   -2.8632    1.0000 </r>
       <r>   -2.7304    1.0000 </r>
       <r>   -2.5058    1.0000 </r>
       <r>   -2.4529    1.0000 </r>
       <r>   -2.2629    1.0000 </r>
       <r>   -2.1165    1.0000 </r>
       <r>   -1.9924    1.0000 </r>
       <r>   -1.8583    1.0000 </r>
       <r>   -1.8009    1.0000 </r>
       <r>   -1.6464    1.0000 </r>
       <r>   -1.4902    1.0000 </r>
       <r>   -1.3405    1.0000 </r>
       <r>   -1.2366    1.0000 </r>
       <r>   -1.0181    1.0000 </r>
       <r>   -0.6433    1.0000 </r>
       <r>    0.2692    0.1841 </r>
       <r>    0.3890    0.0047 </r>
       <r>    0.9607    0.0000 </r>
       <r>    1.0605    0.0000 </r>
       <r>    1.3512    0.0000 </r>
       <r>    1.4597    0.0000 </r>
       <r>    1.7436    0.0000 </r>
       <r>    1.7891    0.0000 </r>
       <r>    2.0671    0.0000 </r>
       <r>    2.1046    0.0000 </r>
       <r>    2.2966    0.0000 </r>
       <r>    2.3190    0.0000 </r>
       <r>    2.4197    0.0000 </r>
       <r>    2.6362    0.0000 </r>
      </set>
      <set comment="kpoint 7">
       <r>  -12.6402    1.0000 </r>
       <r>  -11.6278    1.0000 </r>
       <r>  -11.4626    1.0000 </r>
       <r>  -11.3198    1.0000 </r>
       <r>  -11.1096    1.0000 </r>
       <r>  -11.0926    1.0000 </r>
       <r>  -10.9066    1.0000 </r>
       <r>  -10.8060    1.0000 </r>
       <r>  -10.7570    1.0000 </r>
       <r>  -10.6908    1.0000 </r>
       <r>  -10.5967    1.0000 </r>
       <r>   -9.9988    1.0000 </r>
       <r>   -8.9372    1.0000 </r>
       <r>   -8.7192    1.0000 </r>
       <r>   -8.6491    1.0000 </r>
       <r>   -8.4000    1.0000 </r>
       <r>   -8.0412    1.0000 </r>
       <r>   -8.0192    1.0000 </r>
       <r>   -7.6165    1.0000 </r>
       <r>   -7.5323    1.0000 </r>
       <r>   -7.3401    1.0000 </r>
       <r>   -7.2463    1.0000 </r>
       <r>   -7.1430    1.0000 </r>
       <r>   -6.7169    1.0000 </r>
       <r>   -5.8462    1.0000 </r>
       <r>   -5.6243    1.0000 </r>
       <r>   -4.9167    1.0000 </r>
       <r>   -4.8232    1.0000 </r>
       <r>   -4.4957    1.0000 </r>
       <r>   -4.4221    1.0000 </r>
       <r>   -4.2072    1.0000 </r>
       <r>   -4.0227    1.0000 </r>
       <r>   -3.9113    1.0000 </r>
       <r>   -3.9008    1.0000 </r>
       <r>   -3.7914    1.0000 </r>
       <r>   -3.6361    1.0000 </r>
       <r>   -3.5347    1.0000 </r>
       <r>   -3.2443    1.0000 </r>
       <r>   -3.2175    1.0000 </r>
       <r>   -2.9744    1.0000 </r>
       <r>   -2.7943    1.0000 </r>
       <r>   -2.6993    1.0000 </r>
       <r>   -2.6480    1.0000 </r>
       <r>   -2.3223    1.0000 </r>
       <r>   -2.1658    1.0000 </r>
       <r>   -2.0880    1.0000 </r>
       <r>   -1.9353    1.0000 </r>
       <r>   -1.7972    1.0000 </r>
       <r>   -1.6718    1.0000 </r>
       <r>   -1.5491    1.0000 </r>
       <r>   -1.4503    1.0000 </r>
       <r>   -1.3051    1.0000 </r>
       <r>   -1.0576    1.0000 </r>
       <r>   -0.6439    1.0000 </r>
       <r>    0.2128    0.4590 </r>
       <r>    0.3555    0.0169 </r>
       <r>    0.7803    0.0000 </r>
       <r>    0.9981    0.0000 </r>
       <r>    1.2365    0.0000 </r>
       <r>    1.4121    0.0000 </r>
       <r>    1.6199    0.0000 </r>
       <r>    1.7209    0.0000 </r>
       <r>    1.8933    0.0000 </r>
       <r>    1.9915    0.0000 </r>
       <r>    2.1287    0.0000 </r>
       <r>    2.2740    0.0000 </r>
       <r>    2.4186    0.0000 </r>
       <r>    2.5046    0.0000 </r>
      </set>
      <set comment="kpoint 8">
       <r>  -14.2998    1.0000 </r>
       <r>  -13.4465    1.0000 </r>
       <r>  -13.2312    1.0000 </r>
       <r>  -12.9370    1.0000 </r>
       <r>  -12.7054    1.0000 </r>
       <r>  -12.4413    1.0000 </r>
       <r>  -12.0058    1.0000 </r>
       <r>  -11.8332    1.0000 </r>
       <r>  -11.4408    1.0000 </r>
       <r>  -11.3103    1.0000 </r>
       <r>  -10.9624    1.0000 </r>
       <r>  -10.0435    1.0000 </r>
       <r>   -8.8760    1.0000 </r>
       <r>   -8.4759    1.0000 </r>
       <r>   -7.8525    1.0000 </r>
       <r>   -7.3504    1.0000 </r>
       <r>   -7.1558    1.0000 </r>
       <r>   -6.6328    1.0000 </r>
       <r>   -6.5682    1.0000 </r>
       <r>   -6.1977    1.0000 </r>
       <r>   -5.8932    1.0000 </r>
       <r>   -5.7145    1.0000 </r>
       <r>   -5.5433    1.0000 </r>
       <r>   -4.6200    1.0000 </r>
       <r>   -4.4921    1.0000 </r>
       <r>   -4.1969    1.0000 </r>
       <r>   -3.9835    1.0000 </r>
       <r>   -3.5901    1.0000 </r>
       <r>   -3.4241    1.0000 </r>
       <r>   -3.2881    1.0000 </r>
       <r>   -3.0912    1.0000 </r>
       <r>   -3.0661    1.0000 </r>
       <r>   -2.9090    1.0000 </r>
       <r>   -2.6944    1.0000 </r>
       <r>   -2.6703    1.0000 </r>
       <r>   -2.4123    1.0000 </r>
       <r>   -2.3521    1.0000 </r>
       <r>   -2.3099    1.0000 </r>
       <r>   -2.2406    1.0000 </r>
       <r>   -2.1500    1.0000 </r>
       <r>   -1.9515    1.0000 </r>
       <r>   -1.9283    1.0000 </r>
       <r>   -1.8455    1.0000 </r>
       <r>   -1.7464    1.0000 </r>
       <r>   -1.5899    1.0000 </r>
       <r>   -1.4884    1.0000 </r>
       <r>   -1.3773    1.0000 </r>
       <r>   -1.3253    1.0000 </r>
       <r>   -1.1851    1.0000 </r>
       <r>   -1.0426    1.0000 </r>
       <r>   -0.9440    1.0000 </r>
       <r>   -0.8769    1.0000 </r>
       <r>   -0.2649    1.0000 </r>
       <r>    0.1666    0.7090 </r>
       <r>    0.4994    0.0000 </r>
       <r>    0.6817    0.0000 </r>
       <r>    1.1145    0.0000 </r>
       <r>    1.2534    0.0000 </r>
       <r>    1.4039    0.0000 </r>
       <r>    1.4357    0.0000 </r>
       <r>    1.6424    0.0000 </r>
       <r>    1.7384    0.0000 </r>
       <r>    1.7881    0.0000 </r>
       <r>    1.9166    0.0000 </r>
       <r>    2.1308    0.0000 </r>
       <r>    2.2806    0.0000 </r>
       <r>    2.3073    0.0000 </r>
       <r>    2.6439    0.0000 </r>
      </set>
      <set comment="kpoint 9">
       <r>  -14.2411    1.0000 </r>
       <r>  -13.3696    1.0000 </r>
       <r>  -13.1926    1.0000 </r>
       <r>  -12.9179    1.0000 </r>
       <r>  -12.6100    1.0000 </r>
       <r>  -12.3841    1.0000 </r>
       <r>  -12.0011    1.0000 </r>
       <r>  -11.7339    1.0000 </r>
       <r>  -11.3994    1.0000 </r>
       <r>  -11.2300    1.0000 </r>
       <r>  -10.9180    1.0000 </r>
       <r>  -10.0121    1.0000 </r>
       <r>   -8.8811    1.0000 </r>
       <r>   -8.5345    1.0000 </r>
       <r>   -7.8422    1.0000 </r>
       <r>   -7.3041    1.0000 </r>
       <r>   -7.1060    1.0000 </r>
       <r>   -6.6411    1.0000 </r>
       <r>   -6.4951    1.0000 </r>
       <r>   -6.2114    1.0000 </r>
       <r>   -6.0452    1.0000 </r>
       <r>   -5.6658    1.0000 </r>
       <r>   -5.5246    1.0000 </r>
       <r>   -4.6614    1.0000 </r>
       <r>   -4.5950    1.0000 </r>
       <r>   -4.2332    1.0000 </r>
       <r>   -4.0428    1.0000 </r>
       <r>   -3.7724    1.0000 </r>
       <r>   -3.5820    1.0000 </r>
       <r>   -3.4306    1.0000 </r>
       <r>   -3.3614    1.0000 </r>
       <r>   -3.2863    1.0000 </r>
       <r>   -3.0335    1.0000 </r>
       <r>   -2.9858    1.0000 </r>
       <r>   -2.9200    1.0000 </r>
       <r>   -2.6592    1.0000 </r>
       <r>   -2.6202    1.0000 </r>
       <r>   -2.4586    1.0000 </r>
       <r>   -2.3542    1.0000 </r>
       <r>   -2.2563    1.0000 </r>
       <r>   -2.1451    1.0000 </r>
       <r>   -2.0448    1.0000 </r>
       <r>   -1.9781    1.0000 </r>
       <r>   -1.8291    1.0000 </r>
       <r>   -1.7948    1.0000 </r>
       <r>   -1.7137    1.0000 </r>
       <r>   -1.4250    1.0000 </r>
       <r>   -1.3451    1.0000 </r>
       <r>   -1.1602    1.0000 </r>
       <r>   -1.0344    1.0000 </r>
       <r>   -0.9267    1.0000 </r>
       <r>   -0.8061    1.0000 </r>
       <r>   -0.3006    1.0000 </r>
       <r>    0.3131    0.0640 </r>
       <r>    0.5370    0.0000 </r>
       <r>    0.8060    0.0000 </r>
       <r>    1.1003    0.0000 </r>
       <r>    1.4601    0.0000 </r>
       <r>    1.6388    0.0000 </r>
       <r>    1.7564    0.0000 </r>
       <r>    1.8337    0.0000 </r>
       <r>    1.9499    0.0000 </r>
       <r>    2.1047    0.0000 </r>
       <r>    2.2757    0.0000 </r>
       <r>    2.3721    0.0000 </r>
       <r>    2.4576    0.0000 </r>
       <r>    2.5964    0.0000 </r>
       <r>    2.6972    0.0000 </r>
      </set>
      <set comment="kpoint 10">
       <r>  -14.0708    1.0000 </r>
       <r>  -13.1730    1.0000 </r>
       <r>  -13.0375    1.0000 </r>
       <r>  -12.7815    1.0000 </r>
       <r>  -12.4097    1.0000 </r>
       <r>  -12.2177    1.0000 </r>
       <r>  -11.8938    1.0000 </r>
       <r>  -11.5360    1.0000 </r>
       <r>  -11.2600    1.0000 </r>
       <r>  -11.0678    1.0000 </r>
       <r>  -10.7768    1.0000 </r>
       <r>   -9.9393    1.0000 </r>
       <r>   -8.8330    1.0000 </r>
       <r>   -8.6000    1.0000 </r>
       <r>   -7.8441    1.0000 </r>
       <r>   -7.2709    1.0000 </r>
       <r>   -7.0568    1.0000 </r>
       <r>   -6.6189    1.0000 </r>
       <r>   -6.5276    1.0000 </r>
       <r>   -6.4614    1.0000 </r>
       <r>   -6.1873    1.0000 </r>
       <r>   -5.6169    1.0000 </r>
       <r>   -5.5114    1.0000 </r>
       <r>   -4.9886    1.0000 </r>
       <r>   -4.8054    1.0000 </r>
       <r>   -4.5407    1.0000 </r>
       <r>   -4.3428    1.0000 </r>
       <r>   -4.2589    1.0000 </r>
       <r>   -4.1318    1.0000 </r>
       <r>   -3.9284    1.0000 </r>
       <r>   -3.7116    1.0000 </r>
       <r>   -3.5968    1.0000 </r>
       <r>   -3.5486    1.0000 </r>
       <r>   -3.2572    1.0000 </r>
       <r>   -3.0931    1.0000 </r>
       <r>   -3.0548    1.0000 </r>
       <r>   -2.9287    1.0000 </r>
       <r>   -2.8976    1.0000 </r>
       <r>   -2.7699    1.0000 </r>
       <r>   -2.6728    1.0000 </r>
       <r>   -2.5580    1.0000 </r>
       <r>   -2.2839    1.0000 </r>
       <r>   -2.2155    1.0000 </r>
       <r>   -1.9590    1.0000 </r>
       <r>   -1.8586    1.0000 </r>
       <r>   -1.6875    1.0000 </r>
       <r>   -1.4682    1.0000 </r>
       <r>   -1.3726    1.0000 </r>
       <r>   -1.1934    1.0000 </r>
       <r>   -1.0833    1.0000 </r>
       <r>   -0.9935    1.0000 </r>
       <r>   -0.8713    1.0000 </r>
       <r>   -0.4885    1.0000 </r>
       <r>    0.1900    0.5871 </r>
       <r>    0.5623    0.0000 </r>
       <r>    0.8708    0.0000 </r>
       <r>    1.2475    0.0000 </r>
       <r>    1.5658    0.0000 </r>
       <r>    1.6967    0.0000 </r>
       <r>    1.8767    0.0000 </r>
       <r>    2.1370    0.0000 </r>
       <r>    2.2185    0.0000 </r>
       <r>    2.3950    0.0000 </r>
       <r>    2.7151    0.0000 </r>
       <r>    2.8181    0.0000 </r>
       <r>    2.9090    0.0000 </r>
       <r>    3.0763    0.0000 </r>
       <r>    3.1102    0.0000 </r>
      </set>
      <set comment="kpoint 11">
       <r>  -13.7951    1.0000 </r>
       <r>  -12.8615    1.0000 </r>
       <r>  -12.7706    1.0000 </r>
       <r>  -12.5302    1.0000 </r>
       <r>  -12.1189    1.0000 </r>
       <r>  -11.9501    1.0000 </r>
       <r>  -11.6920    1.0000 </r>
       <r>  -11.2592    1.0000 </r>
       <r>  -11.0382    1.0000 </r>
       <r>  -10.8579    1.0000 </r>
       <r>  -10.5595    1.0000 </r>
       <r>   -9.8648    1.0000 </r>
       <r>   -8.7741    1.0000 </r>
       <r>   -8.7283    1.0000 </r>
       <r>   -7.9903    1.0000 </r>
       <r>   -7.3554    1.0000 </r>
       <r>   -7.1484    1.0000 </r>
       <r>   -6.8854    1.0000 </r>
       <r>   -6.6581    1.0000 </r>
       <r>   -6.6048    1.0000 </r>
       <r>   -6.3891    1.0000 </r>
       <r>   -5.7912    1.0000 </r>
       <r>   -5.6446    1.0000 </r>
       <r>   -5.5735    1.0000 </r>
       <r>   -5.1697    1.0000 </r>
       <r>   -4.9957    1.0000 </r>
       <r>   -4.9194    1.0000 </r>
       <r>   -4.6350    1.0000 </r>
       <r>   -4.5567    1.0000 </r>
       <r>   -4.5138    1.0000 </r>
       <r>   -4.1834    1.0000 </r>
       <r>   -3.9823    1.0000 </r>
       <r>   -3.7785    1.0000 </r>
       <r>   -3.6810    1.0000 </r>
       <r>   -3.4273    1.0000 </r>
       <r>   -3.1753    1.0000 </r>
       <r>   -3.1437    1.0000 </r>
       <r>   -3.0547    1.0000 </r>
       <r>   -3.0128    1.0000 </r>
       <r>   -2.8088    1.0000 </r>
       <r>   -2.5676    1.0000 </r>
       <r>   -2.4898    1.0000 </r>
       <r>   -2.2639    1.0000 </r>
       <r>   -1.9621    1.0000 </r>
       <r>   -1.8943    1.0000 </r>
       <r>   -1.7429    1.0000 </r>
       <r>   -1.6436    1.0000 </r>
       <r>   -1.4753    1.0000 </r>
       <r>   -1.3548    1.0000 </r>
       <r>   -1.2253    1.0000 </r>
       <r>   -1.0896    1.0000 </r>
       <r>   -0.9665    1.0000 </r>
       <r>   -0.7702    1.0000 </r>
       <r>   -0.2656    1.0000 </r>
       <r>    0.4757    0.0001 </r>
       <r>    0.7963    0.0000 </r>
       <r>    1.1669    0.0000 </r>
       <r>    1.4550    0.0000 </r>
       <r>    1.5364    0.0000 </r>
       <r>    1.6242    0.0000 </r>
       <r>    1.7051    0.0000 </r>
       <r>    2.2403    0.0000 </r>
       <r>    2.3030    0.0000 </r>
       <r>    2.6033    0.0000 </r>
       <r>    2.7401    0.0000 </r>
       <r>    2.8312    0.0000 </r>
       <r>    2.9448    0.0000 </r>
       <r>    3.0750    0.0000 </r>
      </set>
      <set comment="kpoint 12">
       <r>  -13.4281    1.0000 </r>
       <r>  -12.4448    1.0000 </r>
       <r>  -12.4042    1.0000 </r>
       <r>  -12.1712    1.0000 </r>
       <r>  -11.7729    1.0000 </r>
       <r>  -11.5993    1.0000 </r>
       <r>  -11.4191    1.0000 </r>
       <r>  -10.9454    1.0000 </r>
       <r>  -10.7746    1.0000 </r>
       <r>  -10.6939    1.0000 </r>
       <r>  -10.3540    1.0000 </r>
       <r>   -9.8532    1.0000 </r>
       <r>   -8.9323    1.0000 </r>
       <r>   -8.7585    1.0000 </r>
       <r>   -8.3258    1.0000 </r>
       <r>   -7.6685    1.0000 </r>
       <r>   -7.4568    1.0000 </r>
       <r>   -7.1162    1.0000 </r>
       <r>   -7.0735    1.0000 </r>
       <r>   -6.9228    1.0000 </r>
       <r>   -6.6561    1.0000 </r>
       <r>   -6.2539    1.0000 </r>
       <r>   -6.1519    1.0000 </r>
       <r>   -5.8810    1.0000 </r>
       <r>   -5.7765    1.0000 </r>
       <r>   -5.3594    1.0000 </r>
       <r>   -5.3100    1.0000 </r>
       <r>   -4.9019    1.0000 </r>
       <r>   -4.8141    1.0000 </r>
       <r>   -4.4405    1.0000 </r>
       <r>   -4.3712    1.0000 </r>
       <r>   -4.2809    1.0000 </r>
       <r>   -3.9759    1.0000 </r>
       <r>   -3.8390    1.0000 </r>
       <r>   -3.4663    1.0000 </r>
       <r>   -3.2996    1.0000 </r>
       <r>   -3.2188    1.0000 </r>
       <r>   -2.9726    1.0000 </r>
       <r>   -2.8886    1.0000 </r>
       <r>   -2.8474    1.0000 </r>
       <r>   -2.7696    1.0000 </r>
       <r>   -2.4592    1.0000 </r>
       <r>   -2.3261    1.0000 </r>
       <r>   -2.2787    1.0000 </r>
       <r>   -1.9379    1.0000 </r>
       <r>   -1.8694    1.0000 </r>
       <r>   -1.7888    1.0000 </r>
       <r>   -1.6856    1.0000 </r>
       <r>   -1.6271    1.0000 </r>
       <r>   -1.3168    1.0000 </r>
       <r>   -1.2171    1.0000 </r>
       <r>   -1.1485    1.0000 </r>
       <r>   -0.9114    1.0000 </r>
       <r>   -0.6787    1.0000 </r>
       <r>    0.3713    0.0095 </r>
       <r>    0.6279    0.0000 </r>
       <r>    1.0576    0.0000 </r>
       <r>    1.2112    0.0000 </r>
       <r>    1.2749    0.0000 </r>
       <r>    1.3442    0.0000 </r>
       <r>    1.5385    0.0000 </r>
       <r>    1.9445    0.0000 </r>
       <r>    2.2029    0.0000 </r>
       <r>    2.3451    0.0000 </r>
       <r>    2.4903    0.0000 </r>
       <r>    2.5661    0.0000 </r>
       <r>    2.6604    0.0000 </r>
       <r>    2.8297    0.0000 </r>
      </set>
      <set comment="kpoint 13">
       <r>  -13.0049    1.0000 </r>
       <r>  -11.9715    1.0000 </r>
       <r>  -11.9404    1.0000 </r>
       <r>  -11.7213    1.0000 </r>
       <r>  -11.4687    1.0000 </r>
       <r>  -11.2060    1.0000 </r>
       <r>  -11.1482    1.0000 </r>
       <r>  -10.7191    1.0000 </r>
       <r>  -10.6866    1.0000 </r>
       <r>  -10.5634    1.0000 </r>
       <r>  -10.4299    1.0000 </r>
       <r>   -9.9115    1.0000 </r>
       <r>   -8.9230    1.0000 </r>
       <r>   -8.8049    1.0000 </r>
       <r>   -8.6320    1.0000 </r>
       <r>   -8.0725    1.0000 </r>
       <r>   -7.8764    1.0000 </r>
       <r>   -7.7415    1.0000 </r>
       <r>   -7.3239    1.0000 </r>
       <r>   -7.2457    1.0000 </r>
       <r>   -6.9662    1.0000 </r>
       <r>   -6.7987    1.0000 </r>
       <r>   -6.6573    1.0000 </r>
       <r>   -6.6206    1.0000 </r>
       <r>   -5.8849    1.0000 </r>
       <r>   -5.4897    1.0000 </r>
       <r>   -5.3028    1.0000 </r>
       <r>   -4.9446    1.0000 </r>
       <r>   -4.7479    1.0000 </r>
       <r>   -4.4312    1.0000 </r>
       <r>   -4.3229    1.0000 </r>
       <r>   -4.0817    1.0000 </r>
       <r>   -3.8555    1.0000 </r>
       <r>   -3.8181    1.0000 </r>
       <r>   -3.5719    1.0000 </r>
       <r>   -3.3172    1.0000 </r>
       <r>   -3.3126    1.0000 </r>
       <r>   -3.2395    1.0000 </r>
       <r>   -3.0848    1.0000 </r>
       <r>   -2.8985    1.0000 </r>
       <r>   -2.7645    1.0000 </r>
       <r>   -2.6048    1.0000 </r>
       <r>   -2.4459    1.0000 </r>
       <r>   -2.2888    1.0000 </r>
       <r>   -2.1600    1.0000 </r>
       <r>   -2.0410    1.0000 </r>
       <r>   -1.9043    1.0000 </r>
       <r>   -1.8171    1.0000 </r>
       <r>   -1.7111    1.0000 </r>
       <r>   -1.4883    1.0000 </r>
       <r>   -1.4146    1.0000 </r>
       <r>   -1.2448    1.0000 </r>
       <r>   -1.0108    1.0000 </r>
       <r>   -0.7533    1.0000 </r>
       <r>    0.2452    0.2875 </r>
       <r>    0.4755    0.0001 </r>
       <r>    0.9304    0.0000 </r>
       <r>    1.0596    0.0000 </r>
       <r>    1.2354    0.0000 </r>
       <r>    1.3574    0.0000 </r>
       <r>    1.4162    0.0000 </r>
       <r>    1.8210    0.0000 </r>
       <r>    1.8680    0.0000 </r>
       <r>    2.0927    0.0000 </r>
       <r>    2.1972    0.0000 </r>
       <r>    2.3232    0.0000 </r>
       <r>    2.6053    0.0000 </r>
       <r>    2.6970    0.0000 </r>
      </set>
      <set comment="kpoint 14">
       <r>  -12.6386    1.0000 </r>
       <r>  -11.6243    1.0000 </r>
       <r>  -11.3916    1.0000 </r>
       <r>  -11.3551    1.0000 </r>
       <r>  -11.2262    1.0000 </r>
       <r>  -11.0588    1.0000 </r>
       <r>  -10.9195    1.0000 </r>
       <r>  -10.8264    1.0000 </r>
       <r>  -10.7577    1.0000 </r>
       <r>  -10.6619    1.0000 </r>
       <r>  -10.5421    1.0000 </r>
       <r>  -10.0024    1.0000 </r>
       <r>   -8.9322    1.0000 </r>
       <r>   -8.7103    1.0000 </r>
       <r>   -8.5165    1.0000 </r>
       <r>   -8.3613    1.0000 </r>
       <r>   -8.2886    1.0000 </r>
       <r>   -8.0215    1.0000 </r>
       <r>   -7.5798    1.0000 </r>
       <r>   -7.4780    1.0000 </r>
       <r>   -7.3976    1.0000 </r>
       <r>   -7.2750    1.0000 </r>
       <r>   -7.1030    1.0000 </r>
       <r>   -6.7115    1.0000 </r>
       <r>   -5.9112    1.0000 </r>
       <r>   -5.5887    1.0000 </r>
       <r>   -4.9897    1.0000 </r>
       <r>   -4.7910    1.0000 </r>
       <r>   -4.5330    1.0000 </r>
       <r>   -4.4184    1.0000 </r>
       <r>   -4.1534    1.0000 </r>
       <r>   -4.0821    1.0000 </r>
       <r>   -3.8988    1.0000 </r>
       <r>   -3.8803    1.0000 </r>
       <r>   -3.6238    1.0000 </r>
       <r>   -3.6019    1.0000 </r>
       <r>   -3.4555    1.0000 </r>
       <r>   -3.2581    1.0000 </r>
       <r>   -3.2207    1.0000 </r>
       <r>   -2.9575    1.0000 </r>
       <r>   -2.7420    1.0000 </r>
       <r>   -2.6748    1.0000 </r>
       <r>   -2.5934    1.0000 </r>
       <r>   -2.5523    1.0000 </r>
       <r>   -2.1501    1.0000 </r>
       <r>   -2.0929    1.0000 </r>
       <r>   -1.9470    1.0000 </r>
       <r>   -1.8257    1.0000 </r>
       <r>   -1.6801    1.0000 </r>
       <r>   -1.6194    1.0000 </r>
       <r>   -1.4878    1.0000 </r>
       <r>   -1.3003    1.0000 </r>
       <r>   -1.0370    1.0000 </r>
       <r>   -0.6725    1.0000 </r>
       <r>    0.1556    0.7600 </r>
       <r>    0.4180    0.0013 </r>
       <r>    0.7379    0.0000 </r>
       <r>    1.0853    0.0000 </r>
       <r>    1.2851    0.0000 </r>
       <r>    1.4678    0.0000 </r>
       <r>    1.5538    0.0000 </r>
       <r>    1.6044    0.0000 </r>
       <r>    1.8199    0.0000 </r>
       <r>    1.9620    0.0000 </r>
       <r>    2.0952    0.0000 </r>
       <r>    2.1996    0.0000 </r>
       <r>    2.4447    0.0000 </r>
       <r>    2.5009    0.0000 </r>
      </set>
      <set comment="kpoint 15">
       <r>  -12.6414    1.0000 </r>
       <r>  -11.6149    1.0000 </r>
       <r>  -11.4963    1.0000 </r>
       <r>  -11.3434    1.0000 </r>
       <r>  -11.0676    1.0000 </r>
       <r>  -11.0328    1.0000 </r>
       <r>  -10.8934    1.0000 </r>
       <r>  -10.7769    1.0000 </r>
       <r>  -10.7706    1.0000 </r>
       <r>  -10.7170    1.0000 </r>
       <r>  -10.6653    1.0000 </r>
       <r>   -9.9925    1.0000 </r>
       <r>   -8.9183    1.0000 </r>
       <r>   -8.7327    1.0000 </r>
       <r>   -8.7098    1.0000 </r>
       <r>   -8.3937    1.0000 </r>
       <r>   -8.0594    1.0000 </r>
       <r>   -7.9051    1.0000 </r>
       <r>   -7.6644    1.0000 </r>
       <r>   -7.5653    1.0000 </r>
       <r>   -7.2777    1.0000 </r>
       <r>   -7.2415    1.0000 </r>
       <r>   -7.1784    1.0000 </r>
       <r>   -6.6691    1.0000 </r>
       <r>   -5.8880    1.0000 </r>
       <r>   -5.6086    1.0000 </r>
       <r>   -4.9074    1.0000 </r>
       <r>   -4.6759    1.0000 </r>
       <r>   -4.5374    1.0000 </r>
       <r>   -4.4284    1.0000 </r>
       <r>   -4.3019    1.0000 </r>
       <r>   -3.9963    1.0000 </r>
       <r>   -3.9585    1.0000 </r>
       <r>   -3.8988    1.0000 </r>
       <r>   -3.8449    1.0000 </r>
       <r>   -3.6485    1.0000 </r>
       <r>   -3.6007    1.0000 </r>
       <r>   -3.3191    1.0000 </r>
       <r>   -3.2318    1.0000 </r>
       <r>   -2.8311    1.0000 </r>
       <r>   -2.7565    1.0000 </r>
       <r>   -2.6781    1.0000 </r>
       <r>   -2.6267    1.0000 </r>
       <r>   -2.3498    1.0000 </r>
       <r>   -2.1403    1.0000 </r>
       <r>   -2.1076    1.0000 </r>
       <r>   -1.9908    1.0000 </r>
       <r>   -1.7693    1.0000 </r>
       <r>   -1.7082    1.0000 </r>
       <r>   -1.5722    1.0000 </r>
       <r>   -1.4410    1.0000 </r>
       <r>   -1.2775    1.0000 </r>
       <r>   -1.0310    1.0000 </r>
       <r>   -0.6221    1.0000 </r>
       <r>    0.1501    0.7836 </r>
       <r>    0.3995    0.0030 </r>
       <r>    0.7728    0.0000 </r>
       <r>    1.1177    0.0000 </r>
       <r>    1.2604    0.0000 </r>
       <r>    1.4195    0.0000 </r>
       <r>    1.6885    0.0000 </r>
       <r>    1.7984    0.0000 </r>
       <r>    1.8377    0.0000 </r>
       <r>    2.0144    0.0000 </r>
       <r>    2.1838    0.0000 </r>
       <r>    2.2942    0.0000 </r>
       <r>    2.4029    0.0000 </r>
       <r>    2.5619    0.0000 </r>
      </set>
      <set comment="kpoint 16">
       <r>  -13.0126    1.0000 </r>
       <r>  -12.0631    1.0000 </r>
       <r>  -11.8616    1.0000 </r>
       <r>  -11.6492    1.0000 </r>
       <r>  -11.4471    1.0000 </r>
       <r>  -11.2048    1.0000 </r>
       <r>  -11.0546    1.0000 </r>
       <r>  -10.8930    1.0000 </r>
       <r>  -10.7102    1.0000 </r>
       <r>  -10.5924    1.0000 </r>
       <r>  -10.4127    1.0000 </r>
       <r>   -9.9455    1.0000 </r>
       <r>   -8.8412    1.0000 </r>
       <r>   -8.7043    1.0000 </r>
       <r>   -8.6377    1.0000 </r>
       <r>   -8.4504    1.0000 </r>
       <r>   -7.7014    1.0000 </r>
       <r>   -7.4718    1.0000 </r>
       <r>   -7.4009    1.0000 </r>
       <r>   -7.2894    1.0000 </r>
       <r>   -7.0351    1.0000 </r>
       <r>   -6.7724    1.0000 </r>
       <r>   -6.6266    1.0000 </r>
       <r>   -6.5343    1.0000 </r>
       <r>   -5.9040    1.0000 </r>
       <r>   -5.4948    1.0000 </r>
       <r>   -5.0269    1.0000 </r>
       <r>   -4.9188    1.0000 </r>
       <r>   -4.7936    1.0000 </r>
       <r>   -4.3672    1.0000 </r>
       <r>   -4.3123    1.0000 </r>
       <r>   -4.2250    1.0000 </r>
       <r>   -4.0825    1.0000 </r>
       <r>   -3.9199    1.0000 </r>
       <r>   -3.6875    1.0000 </r>
       <r>   -3.6778    1.0000 </r>
       <r>   -3.3678    1.0000 </r>
       <r>   -3.3053    1.0000 </r>
       <r>   -3.1391    1.0000 </r>
       <r>   -2.9022    1.0000 </r>
       <r>   -2.6871    1.0000 </r>
       <r>   -2.5043    1.0000 </r>
       <r>   -2.4676    1.0000 </r>
       <r>   -2.2191    1.0000 </r>
       <r>   -2.1093    1.0000 </r>
       <r>   -1.9095    1.0000 </r>
       <r>   -1.8859    1.0000 </r>
       <r>   -1.7661    1.0000 </r>
       <r>   -1.6581    1.0000 </r>
       <r>   -1.4727    1.0000 </r>
       <r>   -1.3458    1.0000 </r>
       <r>   -1.2149    1.0000 </r>
       <r>   -1.0000    1.0000 </r>
       <r>   -0.6142    1.0000 </r>
       <r>    0.1337    0.8451 </r>
       <r>    0.4663    0.0001 </r>
       <r>    0.9509    0.0000 </r>
       <r>    1.1870    0.0000 </r>
       <r>    1.3752    0.0000 </r>
       <r>    1.4706    0.0000 </r>
       <r>    1.8099    0.0000 </r>
       <r>    1.9324    0.0000 </r>
       <r>    2.1203    0.0000 </r>
       <r>    2.1627    0.0000 </r>
       <r>    2.2838    0.0000 </r>
       <r>    2.3495    0.0000 </r>
       <r>    2.4629    0.0000 </r>
       <r>    2.6390    0.0000 </r>
      </set>
      <set comment="kpoint 17">
       <r>  -13.4376    1.0000 </r>
       <r>  -12.5571    1.0000 </r>
       <r>  -12.2791    1.0000 </r>
       <r>  -12.0155    1.0000 </r>
       <r>  -11.9091    1.0000 </r>
       <r>  -11.6040    1.0000 </r>
       <r>  -11.2112    1.0000 </r>
       <r>  -11.1766    1.0000 </r>
       <r>  -10.8152    1.0000 </r>
       <r>  -10.7354    1.0000 </r>
       <r>  -10.3836    1.0000 </r>
       <r>   -9.8808    1.0000 </r>
       <r>   -8.7119    1.0000 </r>
       <r>   -8.5168    1.0000 </r>
       <r>   -8.3331    1.0000 </r>
       <r>   -8.1473    1.0000 </r>
       <r>   -7.3371    1.0000 </r>
       <r>   -7.0568    1.0000 </r>
       <r>   -6.9638    1.0000 </r>
       <r>   -6.9178    1.0000 </r>
       <r>   -6.8300    1.0000 </r>
       <r>   -6.1834    1.0000 </r>
       <r>   -6.1173    1.0000 </r>
       <r>   -5.9357    1.0000 </r>
       <r>   -5.7729    1.0000 </r>
       <r>   -5.2825    1.0000 </r>
       <r>   -5.1055    1.0000 </r>
       <r>   -4.8470    1.0000 </r>
       <r>   -4.6483    1.0000 </r>
       <r>   -4.5940    1.0000 </r>
       <r>   -4.4752    1.0000 </r>
       <r>   -4.2788    1.0000 </r>
       <r>   -4.2050    1.0000 </r>
       <r>   -3.9271    1.0000 </r>
       <r>   -3.6305    1.0000 </r>
       <r>   -3.4168    1.0000 </r>
       <r>   -3.2162    1.0000 </r>
       <r>   -3.0451    1.0000 </r>
       <r>   -2.9367    1.0000 </r>
       <r>   -2.8940    1.0000 </r>
       <r>   -2.7306    1.0000 </r>
       <r>   -2.5639    1.0000 </r>
       <r>   -2.4527    1.0000 </r>
       <r>   -1.9952    1.0000 </r>
       <r>   -1.8653    1.0000 </r>
       <r>   -1.8451    1.0000 </r>
       <r>   -1.7097    1.0000 </r>
       <r>   -1.6584    1.0000 </r>
       <r>   -1.5071    1.0000 </r>
       <r>   -1.2961    1.0000 </r>
       <r>   -1.1924    1.0000 </r>
       <r>   -1.1082    1.0000 </r>
       <r>   -0.9487    1.0000 </r>
       <r>   -0.5818    1.0000 </r>
       <r>    0.1622    0.7300 </r>
       <r>    0.6760    0.0000 </r>
       <r>    1.0771    0.0000 </r>
       <r>    1.3635    0.0000 </r>
       <r>    1.6163    0.0000 </r>
       <r>    1.7033    0.0000 </r>
       <r>    1.9584    0.0000 </r>
       <r>    2.0144    0.0000 </r>
       <r>    2.2340    0.0000 </r>
       <r>    2.3325    0.0000 </r>
       <r>    2.4203    0.0000 </r>
       <r>    2.5908    0.0000 </r>
       <r>    2.7178    0.0000 </r>
       <r>    2.7848    0.0000 </r>
      </set>
      <set comment="kpoint 18">
       <r>  -13.8040    1.0000 </r>
       <r>  -12.9524    1.0000 </r>
       <r>  -12.6628    1.0000 </r>
       <r>  -12.3357    1.0000 </r>
       <r>  -12.3129    1.0000 </r>
       <r>  -11.9562    1.0000 </r>
       <r>  -11.5038    1.0000 </r>
       <r>  -11.4458    1.0000 </r>
       <r>  -11.0180    1.0000 </r>
       <r>  -10.9910    1.0000 </r>
       <r>  -10.5620    1.0000 </r>
       <r>   -9.8852    1.0000 </r>
       <r>   -8.6373    1.0000 </r>
       <r>   -8.3595    1.0000 </r>
       <r>   -8.0037    1.0000 </r>
       <r>   -7.7416    1.0000 </r>
       <r>   -7.1603    1.0000 </r>
       <r>   -6.9502    1.0000 </r>
       <r>   -6.6532    1.0000 </r>
       <r>   -6.5991    1.0000 </r>
       <r>   -6.3315    1.0000 </r>
       <r>   -5.8393    1.0000 </r>
       <r>   -5.7023    1.0000 </r>
       <r>   -5.5193    1.0000 </r>
       <r>   -5.2945    1.0000 </r>
       <r>   -4.8622    1.0000 </r>
       <r>   -4.7917    1.0000 </r>
       <r>   -4.5640    1.0000 </r>
       <r>   -4.4887    1.0000 </r>
       <r>   -4.4118    1.0000 </r>
       <r>   -4.2001    1.0000 </r>
       <r>   -4.1448    1.0000 </r>
       <r>   -3.8301    1.0000 </r>
       <r>   -3.7341    1.0000 </r>
       <r>   -3.5279    1.0000 </r>
       <r>   -3.4087    1.0000 </r>
       <r>   -3.1107    1.0000 </r>
       <r>   -3.0008    1.0000 </r>
       <r>   -2.9537    1.0000 </r>
       <r>   -2.7591    1.0000 </r>
       <r>   -2.5700    1.0000 </r>
       <r>   -2.4802    1.0000 </r>
       <r>   -2.3996    1.0000 </r>
       <r>   -1.8738    1.0000 </r>
       <r>   -1.8056    1.0000 </r>
       <r>   -1.7567    1.0000 </r>
       <r>   -1.7012    1.0000 </r>
       <r>   -1.4343    1.0000 </r>
       <r>   -1.3010    1.0000 </r>
       <r>   -1.1945    1.0000 </r>
       <r>   -1.0929    1.0000 </r>
       <r>   -0.9152    1.0000 </r>
       <r>   -0.7677    1.0000 </r>
       <r>   -0.2757    1.0000 </r>
       <r>    0.3039    0.0820 </r>
       <r>    0.8715    0.0000 </r>
       <r>    1.1932    0.0000 </r>
       <r>    1.5328    0.0000 </r>
       <r>    1.7981    0.0000 </r>
[...]
       <r>    2.7200    0.0000 </r>
      </set>
      <set comment="kpoint 54">
       <r>  -12.6397    1.0000 </r>
       <r>  -11.6104    1.0000 </r>
       <r>  -11.4512    1.0000 </r>
       <r>  -11.3760    1.0000 </r>
       <r>  -11.1313    1.0000 </r>
       <r>  -11.0363    1.0000 </r>
       <r>  -10.9101    1.0000 </r>
       <r>  -10.8120    1.0000 </r>
       <r>  -10.7775    1.0000 </r>
       <r>  -10.6843    1.0000 </r>
       <r>  -10.5830    1.0000 </r>
       <r>   -9.9961    1.0000 </r>
       <r>   -8.9139    1.0000 </r>
       <r>   -8.7145    1.0000 </r>
       <r>   -8.6269    1.0000 </r>
       <r>   -8.4001    1.0000 </r>
       <r>   -8.0833    1.0000 </r>
       <r>   -8.0626    1.0000 </r>
       <r>   -7.6413    1.0000 </r>
       <r>   -7.5218    1.0000 </r>
       <r>   -7.3159    1.0000 </r>
       <r>   -7.2484    1.0000 </r>
       <r>   -7.1330    1.0000 </r>
       <r>   -6.6667    1.0000 </r>
       <r>   -5.9442    1.0000 </r>
       <r>   -5.5768    1.0000 </r>
       <r>   -4.9332    1.0000 </r>
       <r>   -4.8287    1.0000 </r>
       <r>   -4.4891    1.0000 </r>
       <r>   -4.4030    1.0000 </r>
       <r>   -4.2189    1.0000 </r>
       <r>   -4.0425    1.0000 </r>
       <r>   -3.9153    1.0000 </r>
       <r>   -3.8828    1.0000 </r>
       <r>   -3.7310    1.0000 </r>
       <r>   -3.6197    1.0000 </r>
       <r>   -3.5168    1.0000 </r>
       <r>   -3.2522    1.0000 </r>
       <r>   -3.2201    1.0000 </r>
       <r>   -2.9945    1.0000 </r>
       <r>   -2.7300    1.0000 </r>
       <r>   -2.6797    1.0000 </r>
       <r>   -2.5967    1.0000 </r>
       <r>   -2.3414    1.0000 </r>
       <r>   -2.1861    1.0000 </r>
       <r>   -2.0787    1.0000 </r>
       <r>   -2.0184    1.0000 </r>
       <r>   -1.7791    1.0000 </r>
       <r>   -1.7546    1.0000 </r>
       <r>   -1.6504    1.0000 </r>
       <r>   -1.4737    1.0000 </r>
       <r>   -1.2778    1.0000 </r>
       <r>   -1.0141    1.0000 </r>
       <r>   -0.6337    1.0000 </r>
       <r>    0.1279    0.8638 </r>
       <r>    0.3944    0.0038 </r>
       <r>    0.8022    0.0000 </r>
       <r>    1.1439    0.0000 </r>
       <r>    1.3005    0.0000 </r>
       <r>    1.4203    0.0000 </r>
       <r>    1.6322    0.0000 </r>
       <r>    1.7021    0.0000 </r>
       <r>    1.8797    0.0000 </r>
       <r>    1.9654    0.0000 </r>
       <r>    2.0600    0.0000 </r>
       <r>    2.1201    0.0000 </r>
       <r>    2.3918    0.0000 </r>
       <r>    2.5164    0.0000 </r>
      </set>
     </set>
    </set>
   </array>
  </eigenvalues>
  <separator name="orbital magnetization" >
   <v name="MAGDIPOLOUT">      0.00000000      0.00000000      0.00000000</v>
  </separator>
  <dos>
   <i name="efermi">      0.20553834 </i>
   <total>
    <array>
     <dimension dim="1">gridpoints</dimension>
     <dimension dim="2">spin</dimension>
     <field>energy</field>
     <field>total</field>
     <field>integrated</field>
     <set>
      <set comment="spin 1">
       <r>   -15.3076     0.0000     0.0000 </r>
       <r>   -15.2428     0.0000     0.0000 </r>
       <r>   -15.1779     0.0000     0.0000 </r>
       <r>   -15.1131     0.0000     0.0000 </r>
       <r>   -15.0483     0.0000     0.0000 </r>
       <r>   -14.9835     0.0000     0.0000 </r>
       <r>   -14.9187     0.0000     0.0000 </r>
       <r>   -14.8539     0.0000     0.0000 </r>
       <r>   -14.7891     0.0000     0.0000 </r>
       <r>   -14.7243     0.0000     0.0000 </r>
       <r>   -14.6594     0.0000     0.0000 </r>
       <r>   -14.5946     0.0000     0.0000 </r>
       <r>   -14.5298     0.0015     0.0001 </r>
       <r>   -14.4650     0.0261     0.0018 </r>
       <r>   -14.4002     0.2213     0.0161 </r>
       <r>   -14.3354     0.9379     0.0769 </r>
       <r>   -14.2706     2.0449     0.2095 </r>
       <r>   -14.2058     2.3949     0.3647 </r>
       <r>   -14.1409     1.9296     0.4897 </r>
       <r>   -14.0761     1.8405     0.6090 </r>
       <r>   -14.0113     1.5849     0.7117 </r>
       <r>   -13.9465     0.8070     0.7641 </r>
       <r>   -13.8817     0.6493     0.8061 </r>
       <r>   -13.8169     1.3451     0.8933 </r>
       <r>   -13.7521     1.6392     0.9996 </r>
       <r>   -13.6873     0.9293     1.0598 </r>
       <r>   -13.6224     0.2938     1.0788 </r>
       <r>   -13.5576     0.4322     1.1068 </r>
       <r>   -13.4928     1.5718     1.2087 </r>
       <r>   -13.4280     3.1947     1.4158 </r>
       <r>   -13.3632     3.6671     1.6534 </r>
       <r>   -13.2984     3.2582     1.8646 </r>
       <r>   -13.2336     3.3755     2.0834 </r>
       <r>   -13.1687     3.6545     2.3202 </r>
       <r>   -13.1039     3.8945     2.5727 </r>
       <r>   -13.0391     4.6087     2.8714 </r>
       <r>   -12.9743     5.3187     3.2161 </r>
       <r>   -12.9095     5.3560     3.5632 </r>
       <r>   -12.8447     4.9821     3.8861 </r>
       <r>   -12.7799     4.5598     4.1817 </r>
       <r>   -12.7151     4.7133     4.4872 </r>
       <r>   -12.6502     5.7129     4.8574 </r>
       <r>   -12.5854     6.2125     5.2601 </r>
       <r>   -12.5206     5.7329     5.6316 </r>
       <r>   -12.4558     5.7004     6.0011 </r>
       <r>   -12.3910     6.4437     6.4187 </r>
       <r>   -12.3262     6.4963     6.8398 </r>
       <r>   -12.2614     5.6267     7.2045 </r>
       <r>   -12.1966     4.7629     7.5132 </r>
       <r>   -12.1317     4.2212     7.7867 </r>
       <r>   -12.0669     4.7015     8.0915 </r>
       <r>   -12.0021     6.7061     8.5261 </r>
       <r>   -11.9373     8.2224     9.0590 </r>
       <r>   -11.8725     7.2602     9.5296 </r>
       <r>   -11.8077     5.6491     9.8957 </r>
       <r>   -11.7429     5.4867    10.2513 </r>
       <r>   -11.6781     6.5055    10.6730 </r>
       <r>   -11.6132     7.8619    11.1825 </r>
       <r>   -11.5484     8.5178    11.7346 </r>
       <r>   -11.4836     8.8362    12.3073 </r>
       <r>   -11.4188     9.4011    12.9166 </r>
       <r>   -11.3540     9.0075    13.5004 </r>
       <r>   -11.2892     8.4301    14.0468 </r>
       <r>   -11.2244     9.1303    14.6385 </r>
       <r>   -11.1596     9.6535    15.2642 </r>
       <r>   -11.0947     9.3079    15.8675 </r>
       <r>   -11.0299     9.3282    16.4720 </r>
       <r>   -10.9651     9.2336    17.0705 </r>
       <r>   -10.9003     8.9508    17.6506 </r>
       <r>   -10.8355     9.6548    18.2764 </r>
       <r>   -10.7707    11.5003    19.0217 </r>
       <r>   -10.7059    11.9047    19.7933 </r>
       <r>   -10.6410     9.6750    20.4204 </r>
       <r>   -10.5762     7.3078    20.8940 </r>
       <r>   -10.5114     5.4369    21.2464 </r>
       <r>   -10.4466     3.9318    21.5012 </r>
       <r>   -10.3818     3.5201    21.7294 </r>
       <r>   -10.3170     2.6975    21.9042 </r>
       <r>   -10.2522     1.1902    21.9814 </r>
       <r>   -10.1874     0.3749    22.0057 </r>
       <r>   -10.1225     0.8134    22.0584 </r>
       <r>   -10.0577     2.9103    22.2470 </r>
       <r>    -9.9929     6.0399    22.6385 </r>
       <r>    -9.9281     7.8939    23.1501 </r>
       <r>    -9.8633     7.1280    23.6121 </r>
       <r>    -9.7985     4.2481    23.8874 </r>
       <r>    -9.7337     1.4571    23.9818 </r>
       <r>    -9.6689     0.2573    23.9985 </r>
       <r>    -9.6040     0.0220    23.9999 </r>
       <r>    -9.5392     0.0009    24.0000 </r>
       <r>    -9.4744     0.0000    24.0000 </r>
       <r>    -9.4096     0.0000    24.0000 </r>
       <r>    -9.3448     0.0000    24.0000 </r>
       <r>    -9.2800     0.0001    24.0000 </r>
       <r>    -9.2152     0.0023    24.0002 </r>
       <r>    -9.1504     0.0334    24.0023 </r>
       <r>    -9.0855     0.2577    24.0190 </r>
       <r>    -9.0207     1.1773    24.0953 </r>
       <r>    -8.9559     3.3349    24.3115 </r>
       <r>    -8.8911     6.0793    24.7055 </r>
       <r>    -8.8263     8.0353    25.2263 </r>
       <r>    -8.7615     9.4297    25.8374 </r>
       <r>    -8.6967    10.6600    26.5283 </r>
       <r>    -8.6319    10.2190    27.1907 </r>
       <r>    -8.5670     7.4935    27.6763 </r>
       <r>    -8.5022     4.8699    27.9920 </r>
       <r>    -8.4374     4.3820    28.2760 </r>
       <r>    -8.3726     5.2350    28.6153 </r>
       <r>    -8.3078     5.2497    28.9555 </r>
       <r>    -8.2430     3.8088    29.2024 </r>
       <r>    -8.1782     2.7327    29.3795 </r>
       <r>    -8.1134     3.4749    29.6047 </r>
       <r>    -8.0485     5.1818    29.9406 </r>
       <r>    -7.9837     5.7928    30.3160 </r>
       <r>    -7.9189     5.6246    30.6806 </r>
       <r>    -7.8541     6.3079    31.0894 </r>
       <r>    -7.7893     6.9227    31.5381 </r>
       <r>    -7.7245     6.2645    31.9441 </r>
       <r>    -7.6597     5.0278    32.2700 </r>
       <r>    -7.5948     4.2796    32.5473 </r>
       <r>    -7.5300     4.3777    32.8311 </r>
       <r>    -7.4652     5.0874    33.1608 </r>
       <r>    -7.4004     6.4379    33.5780 </r>
       <r>    -7.3356     8.4142    34.1234 </r>
       <r>    -7.2708     9.7850    34.7576 </r>
       <r>    -7.2060    10.0333    35.4079 </r>
       <r>    -7.1412    10.4041    36.0822 </r>
       <r>    -7.0763    10.3379    36.7522 </r>
       <r>    -7.0115     8.5510    37.3064 </r>
       <r>    -6.9467     6.8469    37.7502 </r>
       <r>    -6.8819     5.9305    38.1346 </r>
       <r>    -6.8171     5.2435    38.4744 </r>
       <r>    -6.7523     6.1744    38.8746 </r>
       <r>    -6.6875     9.8471    39.5128 </r>
       <r>    -6.6227    13.4319    40.3834 </r>
       <r>    -6.5578    12.4467    41.1901 </r>
       <r>    -6.4930     8.4241    41.7361 </r>
       <r>    -6.4282     5.2273    42.0749 </r>
       <r>    -6.3634     3.6969    42.3145 </r>
       <r>    -6.2986     3.9187    42.5685 </r>
       <r>    -6.2338     5.4637    42.9226 </r>
       <r>    -6.1690     6.7827    43.3622 </r>
       <r>    -6.1042     6.4026    43.7772 </r>
       <r>    -6.0393     4.9366    44.0971 </r>
       <r>    -5.9745     4.7003    44.4018 </r>
       <r>    -5.9097     6.2804    44.8088 </r>
       <r>    -5.8449     7.6045    45.3017 </r>
       <r>    -5.7801     7.6609    45.7982 </r>
       <r>    -5.7153     7.4221    46.2792 </r>
       <r>    -5.6505     7.6363    46.7742 </r>
       <r>    -5.5857     9.0350    47.3598 </r>
       <r>    -5.5208    10.0461    48.0109 </r>
       <r>    -5.4560     7.7805    48.5151 </r>
       <r>    -5.3912     4.4783    48.8054 </r>
       <r>    -5.3264     3.8680    49.0561 </r>
       <r>    -5.2616     4.4155    49.3423 </r>
       <r>    -5.1968     3.9537    49.5985 </r>
       <r>    -5.1320     3.4934    49.8250 </r>
       <r>    -5.0671     3.7857    50.0703 </r>
       <r>    -5.0023     5.2701    50.4119 </r>
       <r>    -4.9375     7.7203    50.9123 </r>
       <r>    -4.8727     9.3906    51.5209 </r>
       <r>    -4.8079     9.5725    52.1413 </r>
       <r>    -4.7431     8.7916    52.7111 </r>
       <r>    -4.6783     8.2231    53.2441 </r>
       <r>    -4.6135     8.8908    53.8203 </r>
       <r>    -4.5486    10.4929    54.5004 </r>
       <r>    -4.4838    12.3206    55.2989 </r>
       <r>    -4.4190    12.6159    56.1166 </r>
       <r>    -4.3542    11.3751    56.8538 </r>
       <r>    -4.2894    11.0277    57.5686 </r>
       <r>    -4.2246    11.6891    58.3262 </r>
       <r>    -4.1598    11.4984    59.0714 </r>
       <r>    -4.0950    10.5067    59.7524 </r>
       <r>    -4.0301    10.3493    60.4232 </r>
       <r>    -3.9653    11.4285    61.1639 </r>
       <r>    -3.9005    12.4575    61.9713 </r>
       <r>    -3.8357    11.7464    62.7326 </r>
       <r>    -3.7709    10.1760    63.3921 </r>
       <r>    -3.7061    10.5072    64.0731 </r>
       <r>    -3.6413    12.8835    64.9082 </r>
       <r>    -3.5765    14.4083    65.8420 </r>
       <r>    -3.5116    12.8898    66.6774 </r>
       <r>    -3.4468    10.6121    67.3652 </r>
       <r>    -3.3820    10.4684    68.0437 </r>
       <r>    -3.3172    12.2569    68.8381 </r>
       <r>    -3.2524    14.2491    69.7616 </r>
       <r>    -3.1876    14.7164    70.7155 </r>
       <r>    -3.1228    14.5804    71.6605 </r>
       <r>    -3.0580    15.6842    72.6770 </r>
       <r>    -2.9931    16.7847    73.7649 </r>
       <r>    -2.9283    16.6534    74.8442 </r>
       <r>    -2.8635    15.4740    75.8471 </r>
       <r>    -2.7987    14.1696    76.7655 </r>
       <r>    -2.7339    14.1295    77.6813 </r>
       <r>    -2.6691    14.5011    78.6211 </r>
       <r>    -2.6043    14.2214    79.5429 </r>
       <r>    -2.5394    13.8826    80.4426 </r>
       <r>    -2.4746    13.9563    81.3472 </r>
       <r>    -2.4098    14.1091    82.2616 </r>
       <r>    -2.3450    14.1486    83.1786 </r>
       <r>    -2.2802    13.5331    84.0557 </r>
       <r>    -2.2154    12.3554    84.8565 </r>
       <r>    -2.1506    12.2517    85.6506 </r>
       <r>    -2.0858    12.7042    86.4740 </r>
       <r>    -2.0209    12.8713    87.3082 </r>
       <r>    -1.9561    14.5855    88.2536 </r>
       <r>    -1.8913    17.3263    89.3765 </r>
       <r>    -1.8265    19.1969    90.6207 </r>
       <r>    -1.7617    20.1695    91.9280 </r>
       <r>    -1.6969    19.6018    93.1984 </r>
       <r>    -1.6321    16.3791    94.2600 </r>
       <r>    -1.5673    12.1903    95.0501 </r>
       <r>    -1.5024    10.6045    95.7374 </r>
       <r>    -1.4376    12.1295    96.5235 </r>
       <r>    -1.3728    14.0093    97.4315 </r>
       <r>    -1.3080    14.7294    98.3862 </r>
       <r>    -1.2432    14.6021    99.3326 </r>
       <r>    -1.1784    14.1660   100.2507 </r>
       <r>    -1.1136    13.4004   101.1192 </r>
       <r>    -1.0488    13.6914   102.0066 </r>
       <r>    -0.9839    14.4807   102.9451 </r>
       <r>    -0.9191    13.0684   103.7921 </r>
       <r>    -0.8543     9.9756   104.4387 </r>
       <r>    -0.7895     7.1682   104.9033 </r>
       <r>    -0.7247     5.5288   105.2616 </r>
       <r>    -0.6599     5.2414   105.6013 </r>
       <r>    -0.5951     4.9497   105.9221 </r>
       <r>    -0.5303     3.6837   106.1609 </r>
       <r>    -0.4654     2.6233   106.3309 </r>
       <r>    -0.4006     2.2009   106.4735 </r>
       <r>    -0.3358     2.6637   106.6462 </r>
       <r>    -0.2710     3.6623   106.8836 </r>
       <r>    -0.2062     3.2832   107.0963 </r>
       <r>    -0.1414     1.6027   107.2002 </r>
       <r>    -0.0766     0.4207   107.2275 </r>
       <r>    -0.0117     0.1788   107.2391 </r>
       <r>     0.0531     0.8619   107.2949 </r>
       <r>     0.1179     3.0009   107.4894 </r>
       <r>     0.1827     5.6040   107.8526 </r>
       <r>     0.2475     6.4001   108.2675 </r>
       <r>     0.3123     6.2171   108.6704 </r>
       <r>     0.3771     6.8231   109.1126 </r>
       <r>     0.4419     7.2202   109.5806 </r>
       <r>     0.5068     6.9188   110.0290 </r>
       <r>     0.5716     6.1345   110.4266 </r>
       <r>     0.6364     4.8134   110.7386 </r>
       <r>     0.7012     4.3031   111.0175 </r>
       <r>     0.7660     5.2414   111.3572 </r>
       <r>     0.8308     6.0675   111.7504 </r>
       <r>     0.8956     5.7508   112.1232 </r>
       <r>     0.9604     5.2285   112.4620 </r>
       <r>     1.0253     5.6483   112.8281 </r>
       <r>     1.0901     7.4779   113.3128 </r>
       <r>     1.1549     8.8665   113.8874 </r>
       <r>     1.2197     9.0680   114.4752 </r>
       <r>     1.2845     9.4916   115.0903 </r>
       <r>     1.3493    10.1373   115.7474 </r>
       <r>     1.4141    11.0609   116.4643 </r>
       <r>     1.4789    11.7045   117.2229 </r>
       <r>     1.5438    11.6405   117.9773 </r>
       <r>     1.6086    11.7258   118.7373 </r>
       <r>     1.6734    11.8256   119.5037 </r>
       <r>     1.7382    11.9459   120.2780 </r>
       <r>     1.8030    12.7844   121.1066 </r>
       <r>     1.8678    13.2985   121.9685 </r>
       <r>     1.9326    12.7339   122.7938 </r>
       <r>     1.9974    11.7565   123.5558 </r>
       <r>     2.0623    11.2482   124.2848 </r>
       <r>     2.1271    12.0551   125.0661 </r>
       <r>     2.1919    13.8662   125.9649 </r>
       <r>     2.2567    15.9843   127.0008 </r>
       <r>     2.3215    17.0143   128.1036 </r>
       <r>     2.3863    15.6283   129.1165 </r>
       <r>     2.4511    13.1541   129.9691 </r>
       <r>     2.5160    11.5718   130.7191 </r>
       <r>     2.5808    11.0841   131.4374 </r>
       <r>     2.6456    11.2054   132.1637 </r>
       <r>     2.7104    11.3842   132.9015 </r>
       <r>     2.7752    10.9541   133.6115 </r>
       <r>     2.8400     9.4177   134.2219 </r>
       <r>     2.9048     7.4616   134.7055 </r>
       <r>     2.9696     6.3563   135.1175 </r>
       <r>     3.0345     5.6529   135.4839 </r>
       <r>     3.0993     4.3593   135.7664 </r>
       <r>     3.1641     2.5022   135.9286 </r>
       <r>     3.2289     0.9024   135.9871 </r>
       <r>     3.2937     0.1802   135.9987 </r>
       <r>     3.3585     0.0186   135.9999 </r>
       <r>     3.4233     0.0010   136.0000 </r>
       <r>     3.4881     0.0000   136.0000 </r>
       <r>     3.5530     0.0000   136.0000 </r>
       <r>     3.6178     0.0000   136.0000 </r>
       <r>     3.6826     0.0000   136.0000 </r>
       <r>     3.7474     0.0000   136.0000 </r>
       <r>     3.8122     0.0000   136.0000 </r>
       <r>     3.8770     0.0000   136.0000 </r>
       <r>     3.9418     0.0000   136.0000 </r>
       <r>     4.0066     0.0000   136.0000 </r>
       <r>     4.0715     0.0000   136.0000 </r>
       <r>     4.1363     0.0000   136.0000 </r>
      </set>
     </set>
    </array>
   </total>
  </dos>
 </calculation>
 <structure name="finalpos" >
  <crystal>
   <varray name="basis" >
    <v>       3.54040000       0.00000000       0.00000000 </v>
    <v>      -1.77020000      10.29434800       0.00000000 </v>
    <v>       0.00000000       0.00000000      27.50142900 </v>
   </varray>
   <i name="volume">   1002.32009712 </i>
   <varray name="rec_basis" >
    <v>       0.28245396       0.04857034       0.00000000 </v>
    <v>       0.00000000       0.09714068       0.00000000 </v>
    <v>       0.00000000       0.00000000       0.03636175 </v>
   </varray>
  </crystal>
  <varray name="positions" >
   <v>       0.11402300       0.22804500       0.23316207 </v>
   <v>       0.71402300       0.72804500       0.51499159 </v>
   <v>       0.45808900       0.91617900       0.20939482 </v>
   <v>       0.05808900       0.41617900       0.49122434 </v>
   <v>       0.31085400       0.62170900       0.08414979 </v>
   <v>       0.31085400       0.62170900       0.36597930 </v>
   <v>       0.99923000       0.99846000       0.08631254 </v>
   <v>       0.99923000       0.99846000       0.36814206 </v>
   <v>       0.65492700       0.30985400       0.06041748 </v>
   <v>       0.65492700       0.30985400       0.34224700 </v>
   <v>       0.76973800       0.53947500       0.20725292 </v>
   <v>       0.36973800       0.03947500       0.48908244 </v>
   <v>       0.93971600       0.87943300       0.15783749 </v>
   <v>       0.53971600       0.37943300       0.43966701 </v>
   <v>       0.20515200       0.41030300       0.18578822 </v>
   <v>       0.80515200       0.91030300       0.46761774 </v>
   <v>       0.20184900       0.40369900       0.09969156 </v>
   <v>       0.20184900       0.40369900       0.38152107 </v>
   <v>       0.56380500       0.12761000       0.10779021 </v>
   <v>       0.56380500       0.12761000       0.38961973 </v>
   <v>       0.56710600       0.13421200       0.19387616 </v>
   <v>       0.16710600       0.63421200       0.47570568 </v>
   <v>       0.82923400       0.65846800       0.13571444 </v>
   <v>       0.42923400       0.15846800       0.41754396 </v>
  </varray>
 </structure>
</modeling>
