<?xml version="1.0" encoding="ISO-8859-1"?>
<modeling>
 <generator>
  <i name="program" type="string">vasp </i>
  <i name="version" type="string">5.3.5  </i>
  <i name="subversion" type="string">31Mar14 (build Oct 29 2014 16:16:03) complex                          parallel </i>
  <i name="platform" type="string">Linux-UFHPC </i>
  <i name="date" type="string">2016 02 09 </i>
  <i name="time" type="string">18:07:41 </i>
 </generator>
 <incar>
  <i type="string" name="PREC">accurate</i>
  <i type="int" name="IBRION">     2</i>
  <i name="EDIFF">      0.00000100</i>
  <i type="int" name="NSW">     0</i>
  <i type="int" name="ISIF">     3</i>
  <i name="ENCUT">    300.00000000</i>
  <i type="string" name="LREAL"> Auto</i>
  <i type="int" name="ISMEAR">     0</i>
  <i name="SIGMA">      0.10000000</i>
  <i type="logical" name="LWAVE"> F  </i>
  <i type="logical" name="LCHARG"> F  </i>
  <i type="logical" name="LAECHG"> F  </i>
  <i type="string" name="GGA"> Bo</i>
  <i name="PARAM1">      0.18333333</i>
  <i name="PARAM2">      0.22000000</i>
  <i type="logical" name="LUSE_VDW"> T  </i>
  <i name="AGGAC">      0.00000000</i>
 </incar>
 <kpoints>
  <generation param="Gamma">
   <v type="int" name="divisions">      13        4        2 </v>
   <v name="usershift">      0.00000000       0.00000000       0.00000000 </v>
   <v name="genvec1">      0.07692308      -0.00000000       0.00000000 </v>
   <v name="genvec2">      0.00000000       0.25000000       0.00000000 </v>
   <v name="genvec3">      0.00000000       0.00000000       0.50000000 </v>
   <v name="shift">      0.00000000       0.00000000       0.00000000 </v>
  </generation>
  <varray name="kpointlist" >
   <v>       0.00000000       0.00000000       0.00000000 </v>
   <v>       0.07692308      -0.00000000       0.00000000 </v>
   <v>       0.15384615      -0.00000000       0.00000000 </v>
   <v>       0.23076923      -0.00000000       0.00000000 </v>
   <v>       0.30769231      -0.00000000       0.00000000 </v>
   <v>       0.38461538      -0.00000000       0.00000000 </v>
   <v>       0.46153846      -0.00000000       0.00000000 </v>
   <v>       0.00000000       0.25000000       0.00000000 </v>
   <v>       0.07692308       0.25000000       0.00000000 </v>
   <v>       0.15384615       0.25000000       0.00000000 </v>
   <v>       0.23076923       0.25000000       0.00000000 </v>
   <v>       0.30769231       0.25000000       0.00000000 </v>
   <v>       0.38461538       0.25000000       0.00000000 </v>
   <v>       0.46153846       0.25000000       0.00000000 </v>
   <v>      -0.46153846       0.25000000       0.00000000 </v>
   <v>      -0.38461538       0.25000000       0.00000000 </v>
   <v>      -0.30769231       0.25000000       0.00000000 </v>
   <v>      -0.23076923       0.25000000       0.00000000 </v>
   <v>      -0.15384615       0.25000000       0.00000000 </v>
   <v>      -0.07692308       0.25000000       0.00000000 </v>
   <v>       0.00000000       0.50000000       0.00000000 </v>
   <v>       0.07692308       0.50000000       0.00000000 </v>
   <v>       0.15384615       0.50000000       0.00000000 </v>
   <v>       0.23076923       0.50000000       0.00000000 </v>
   <v>       0.30769231       0.50000000       0.00000000 </v>
   <v>       0.38461538       0.50000000       0.00000000 </v>
   <v>       0.46153846       0.50000000       0.00000000 </v>
   <v>       0.00000000       0.00000000       0.50000000 </v>
   <v>       0.07692308      -0.00000000       0.50000000 </v>
   <v>       0.15384615      -0.00000000       0.50000000 </v>
   <v>       0.23076923      -0.00000000       0.50000000 </v>
   <v>       0.30769231      -0.00000000       0.50000000 </v>
   <v>       0.38461538      -0.00000000       0.50000000 </v>
   <v>       0.46153846      -0.00000000       0.50000000 </v>
   <v>       0.00000000       0.25000000       0.50000000 </v>
   <v>       0.07692308       0.25000000       0.50000000 </v>
   <v>       0.15384615       0.25000000       0.50000000 </v>
   <v>       0.23076923       0.25000000       0.50000000 </v>
   <v>       0.30769231       0.25000000       0.50000000 </v>
   <v>       0.38461538       0.25000000       0.50000000 </v>
   <v>       0.46153846       0.25000000       0.50000000 </v>
   <v>      -0.46153846       0.25000000       0.50000000 </v>
   <v>      -0.38461538       0.25000000       0.50000000 </v>
   <v>      -0.30769231       0.25000000       0.50000000 </v>
   <v>      -0.23076923       0.25000000       0.50000000 </v>
   <v>      -0.15384615       0.25000000       0.50000000 </v>
   <v>      -0.07692308       0.25000000       0.50000000 </v>
   <v>       0.00000000       0.50000000       0.50000000 </v>
   <v>       0.07692308       0.50000000       0.50000000 </v>
   <v>       0.15384615       0.50000000       0.50000000 </v>
   <v>       0.23076923       0.50000000       0.50000000 </v>
   <v>       0.30769231       0.50000000       0.50000000 </v>
   <v>       0.38461538       0.50000000       0.50000000 </v>
   <v>       0.46153846       0.50000000       0.50000000 </v>
  </varray>
  <varray name="weights" >
   <v>       0.00961538 </v>
   <v>       0.01923077 </v>
   <v>       0.01923077 </v>
   <v>       0.01923077 </v>
   <v>       0.01923077 </v>
   <v>       0.01923077 </v>
   <v>       0.01923077 </v>
   <v>       0.01923077 </v>
   <v>       0.01923077 </v>
   <v>       0.01923077 </v>
   <v>       0.01923077 </v>
   <v>       0.01923077 </v>
   <v>       0.01923077 </v>
   <v>       0.01923077 </v>
   <v>       0.01923077 </v>
   <v>       0.01923077 </v>
   <v>       0.01923077 </v>
   <v>       0.01923077 </v>
   <v>       0.01923077 </v>
   <v>       0.01923077 </v>
   <v>       0.00961538 </v>
   <v>       0.01923077 </v>
   <v>       0.01923077 </v>
   <v>       0.01923077 </v>
   <v>       0.01923077 </v>
   <v>       0.01923077 </v>
   <v>       0.01923077 </v>
   <v>       0.00961538 </v>
   <v>       0.01923077 </v>
   <v>       0.01923077 </v>
   <v>       0.01923077 </v>
   <v>       0.01923077 </v>
   <v>       0.01923077 </v>
   <v>       0.01923077 </v>
   <v>       0.01923077 </v>
   <v>       0.01923077 </v>
   <v>       0.01923077 </v>
   <v>       0.01923077 </v>
   <v>       0.01923077 </v>
   <v>       0.01923077 </v>
   <v>       0.01923077 </v>
   <v>       0.01923077 </v>
   <v>       0.01923077 </v>
   <v>       0.01923077 </v>
   <v>       0.01923077 </v>
   <v>       0.01923077 </v>
   <v>       0.01923077 </v>
   <v>       0.00961538 </v>
   <v>       0.01923077 </v>
   <v>       0.01923077 </v>
   <v>       0.01923077 </v>
   <v>       0.01923077 </v>
   <v>       0.01923077 </v>
   <v>       0.01923077 </v>
  </varray>
 </kpoints>
 <parameters>
  <separator name="general" >
   <i type="string" name="SYSTEM">unknown system</i>
   <i type="logical" name="LCOMPAT"> F  </i>
  </separator>
  <separator name="electronic" >
   <i type="string" name="PREC">accura</i>
   <i name="ENMAX">    300.00000000</i>
   <i name="ENAUG">    342.92400000</i>
   <i name="EDIFF">      0.00000100</i>
   <i type="int" name="IALGO">    38</i>
   <i type="int" name="IWAVPR">    10</i>
   <i type="int" name="NBANDS">    68</i>
   <i name="NELECT">    108.00000000</i>
   <i type="int" name="TURBO">     0</i>
   <i type="int" name="IRESTART">     0</i>
   <i type="int" name="NREBOOT">     0</i>
   <i type="int" name="NMIN">     0</i>
   <i name="EREF">      0.00000000</i>
   <separator name="electronic smearing" >
    <i type="int" name="ISMEAR">     0</i>
    <i name="SIGMA">      0.10000000</i>
    <i name="KSPACING">      0.50000000</i>
    <i type="logical" name="KGAMMA"> T  </i>
   </separator>
   <separator name="electronic projectors" >
    <i type="logical" name="LREAL"> T  </i>
    <v name="ROPT">     -0.00025000     -0.00025000</v>
    <i type="int" name="LMAXPAW">  -100</i>
    <i type="int" name="LMAXMIX">     2</i>
    <i type="logical" name="NLSPLINE"> F  </i>
   </separator>
   <separator name="electronic startup" >
    <i type="int" name="ISTART">     0</i>
    <i type="int" name="ICHARG">     2</i>
    <i type="int" name="INIWAV">     1</i>
   </separator>
   <separator name="electronic spin" >
    <i type="int" name="ISPIN">     1</i>
    <i type="logical" name="LNONCOLLINEAR"> F  </i>
    <v name="MAGMOM">      1.00000000      1.00000000      1.00000000      1.00000000      1.00000000      1.00000000      1.00000000      1.00000000      1.00000000      1.00000000      1.00000000      1.00000000      1.00000000      1.00000000      1.00000000      1.00000000      1.00000000      1.00000000      1.00000000      1.00000000
      1.00000000      1.00000000      1.00000000      1.00000000</v>
    <i name="NUPDOWN">     -1.00000000</i>
    <i type="logical" name="LSORBIT"> F  </i>
    <v name="SAXIS">      0.00000000      0.00000000      1.00000000</v>
    <i type="logical" name="LSPIRAL"> F  </i>
    <v name="QSPIRAL">      0.00000000      0.00000000      0.00000000</v>
    <i type="logical" name="LZEROZ"> F  </i>
   </separator>
   <separator name="electronic exchange-correlation" >
    <i type="logical" name="LASPH"> F  </i>
    <i type="logical" name="LMETAGGA"> F  </i>
   </separator>
   <separator name="electronic convergence" >
    <i type="int" name="NELM">    60</i>
    <i type="int" name="NELMDL">    -5</i>
    <i type="int" name="NELMIN">     2</i>
    <i name="ENINI">    300.00000000</i>
    <separator name="electronic convergence detail" >
     <i type="logical" name="LDIAG"> T  </i>
     <i type="logical" name="LSUBROT"> F  </i>
     <i name="WEIMIN">      0.00000000</i>
     <i name="EBREAK">      0.00000000</i>
     <i name="DEPER">      0.30000000</i>
     <i type="int" name="NRMM">     4</i>
     <i name="TIME">      0.40000000</i>
    </separator>
   </separator>
   <separator name="electronic mixer" >
    <i name="AMIX">      0.40000000</i>
    <i name="BMIX">      1.00000000</i>
    <i name="AMIN">      0.10000000</i>
    <i name="AMIX_MAG">      1.60000000</i>
    <i name="BMIX_MAG">      1.00000000</i>
    <separator name="electronic mixer details" >
     <i type="int" name="IMIX">     4</i>
     <i type="int" name="MAXMIX">   -45</i>
     <i name="WC">    100.00000000</i>
     <i type="int" name="INIMIX">     1</i>
     <i type="int" name="MIXPRE">     1</i>
     <i type="int" name="MREMOVE">     5</i>
    </separator>
   </separator>
   <separator name="electronic dipolcorrection" >
    <i type="logical" name="LDIPOL"> F  </i>
    <i type="logical" name="LMONO"> F  </i>
    <i type="int" name="IDIPOL">     0</i>
    <i name="EPSILON">      1.00000000</i>
    <v name="DIPOL">   -100.00000000   -100.00000000   -100.00000000</v>
    <i name="EFIELD">      0.00000000</i>
   </separator>
  </separator>
  <separator name="grids" >
   <i type="int" name="NGX">    20</i>
   <i type="int" name="NGY">    60</i>
   <i type="int" name="NGZ">   160</i>
   <i type="int" name="NGXF">    40</i>
   <i type="int" name="NGYF">   120</i>
   <i type="int" name="NGZF">   320</i>
   <i type="logical" name="ADDGRID"> F  </i>
  </separator>
  <separator name="ionic" >
   <i type="int" name="NSW">     0</i>
   <i type="int" name="IBRION">    -1</i>
   <i type="int" name="ISIF">     3</i>
   <i name="PSTRESS">      0.00000000</i>
   <i name="EDIFFG">      0.00001000</i>
   <i type="int" name="NFREE">     1</i>
   <i name="POTIM">      0.50000000</i>
   <i name="SMASS">     -3.00000000</i>
   <i name="SCALEE">      1.00000000</i>
  </separator>
  <separator name="ionic md" >
   <i name="TEBEG">      0.00010000</i>
   <i name="TEEND">      0.00010000</i>
   <i type="int" name="NBLOCK">     1</i>
   <i type="int" name="KBLOCK">     1</i>
   <i type="int" name="NPACO">   256</i>
   <i name="APACO">     16.00000000</i>
  </separator>
  <separator name="symmetry" >
   <i type="int" name="ISYM">     2</i>
   <i name="SYMPREC">      0.00001000</i>
  </separator>
  <separator name="dos" >
   <i type="logical" name="LORBIT"> F  </i>
   <v name="RWIGS">     -1.00000000     -1.00000000</v>
   <i type="int" name="NEDOS">   301</i>
   <i name="EMIN">     10.00000000</i>
   <i name="EMAX">    -10.00000000</i>
   <i name="EFERMI">      0.00000000</i>
  </separator>
  <separator name="writing" >
   <i type="int" name="NWRITE">     2</i>
   <i type="logical" name="LWAVE"> F  </i>
   <i type="logical" name="LCHARG"> F  </i>
   <i type="logical" name="LPARD"> F  </i>
   <i type="logical" name="LVTOT"> F  </i>
   <i type="logical" name="LVHAR"> F  </i>
   <i type="logical" name="LELF"> F  </i>
   <i type="logical" name="LOPTICS"> F  </i>
   <v name="STM">      0.00000000      0.00000000      0.00000000      0.00000000      0.00000000      0.00000000      0.00000000</v>
  </separator>
  <separator name="performance" >
   <i type="int" name="NPAR">     4</i>
   <i type="int" name="NSIM">     4</i>
   <i type="int" name="NBLK">    -1</i>
   <i type="logical" name="LPLANE"> T  </i>
   <i type="logical" name="LSCALAPACK"> T  </i>
   <i type="logical" name="LSCAAWARE"> F  </i>
   <i type="logical" name="LSCALU"> F  </i>
   <i type="logical" name="LASYNC"> F  </i>
   <i type="logical" name="LORBITALREAL"> F  </i>
  </separator>
  <separator name="miscellaneous" >
   <i type="int" name="IDIOT">     3</i>
   <i type="logical" name="LMUSIC"> F  </i>
   <v name="POMASS">     30.97400000     28.08500000</v>
   <v name="DARWINR">      0.00000000      0.00000000</v>
   <v name="DARWINV">      1.00000000      1.00000000</v>
   <i type="logical" name="LCORR"> T  </i>
  </separator>
  <i type="logical" name="GGA_COMPAT"> T  </i>
  <i type="logical" name="LBERRY"> F  </i>
  <i type="int" name="ICORELEVEL">     0</i>
  <i type="logical" name="LDAU"> F  </i>
  <i type="int" name="I_CONSTRAINED_M">     0</i>
  <separator name="electronic exchange-correlation" >
   <i type="string" name="GGA">BO</i>
   <i type="int" name="VOSKOWN">     0</i>
   <i type="logical" name="LHFCALC"> F  </i>
   <i type="string" name="PRECFOCK"></i>
   <i type="logical" name="LSYMGRAD"> F  </i>
   <i type="logical" name="LHFONE"> F  </i>
   <i type="logical" name="LRHFCALC"> F  </i>
   <i type="logical" name="LTHOMAS"> F  </i>
   <i type="logical" name="LMODELHF"> F  </i>
   <i name="ENCUT4O">     -1.00000000</i>
   <i type="int" name="EXXOEP">     0</i>
   <i type="int" name="FOURORBIT">     0</i>
   <i name="AEXX">      0.00000000</i>
   <i name="HFALPHA">      0.00000000</i>
   <i name="MCALPHA">      0.00000000</i>
   <i name="ALDAX">      1.00000000</i>
   <i name="AGGAX">      1.00000000</i>
   <i name="ALDAC">      1.00000000</i>
   <i name="AGGAC">      0.00000000</i>
   <i type="int" name="NKREDX">     1</i>
   <i type="int" name="NKREDY">     1</i>
   <i type="int" name="NKREDZ">     1</i>
   <i type="logical" name="SHIFTRED"> F  </i>
   <i type="logical" name="ODDONLY"> F  </i>
   <i type="logical" name="EVENONLY"> F  </i>
   <i type="int" name="LMAXFOCK">     0</i>
   <i type="int" name="NMAXFOCKAE">     0</i>
   <i type="logical" name="LFOCKAEDFT"> F  </i>
   <i name="HFSCREEN">      0.00000000</i>
   <i name="HFSCREENC">      0.00000000</i>
   <i type="int" name="NBANDSGWLOW">     0</i>
  </separator>
  <separator name="vdW DFT" >
   <i type="logical" name="LUSE_VDW"> T  </i>
   <i name="Zab_VDW">     -0.84910000</i>
   <i name="PARAM1">      0.18333333</i>
   <i name="PARAM2">      0.22000000</i>
   <i name="PARAM3">      0.00000000</i>
  </separator>
  <separator name="model GW" >
   <i type="int" name="MODEL_GW">     0</i>
   <i name="MODEL_EPS0">     25.05800243</i>
   <i name="MODEL_ALPHA">      1.00000000</i>
  </separator>
  <separator name="linear response parameters" >
   <i type="logical" name="LEPSILON"> F  </i>
   <i type="logical" name="LRPA"> F  </i>
   <i type="logical" name="LNABLA"> F  </i>
   <i type="logical" name="LVEL"> F  </i>
   <i type="int" name="KINTER">     0</i>
   <i name="CSHIFT">      0.10000000</i>
   <i name="OMEGAMAX">     -1.00000000</i>
   <i name="DEG_THRESHOLD">      0.00200000</i>
  </separator>
  <separator name="orbital magnetization" >
   <i type="logical" name="NUCIND"> F  </i>
   <v name="MAGPOS">      0.00000000      0.00000000      0.00000000</v>
   <i type="logical" name="LNICSALL"> T  </i>
   <i type="logical" name="ORBITALMAG"> F  </i>
   <i type="logical" name="LMAGBLOCH"> F  </i>
   <i type="logical" name="LCHIMAG"> F  </i>
   <i type="logical" name="LGAUGE"> T  </i>
   <i type="int" name="MAGATOM">     0</i>
   <v name="MAGDIPOL">      0.00000000      0.00000000      0.00000000</v>
   <v name="AVECCONST">      0.00000000      0.00000000      0.00000000</v>
  </separator>
  <separator name="response functions" >
   <i type="logical" name="LADDER"> F  </i>
   <i type="logical" name="LFXC"> F  </i>
   <i type="logical" name="LHARTREE"> T  </i>
   <i type="int" name="IBSE">     0</i>
   <i type="logical" name="LTCTE"> F  </i>
   <i type="logical" name="LTETE"> F  </i>
   <i type="logical" name="LTRIPLET"> F  </i>
   <i type="logical" name="LFXCEPS"> F  </i>
   <i type="logical" name="LFXHEG"> F  </i>
   <i type="logical" name="L2ORDER"> F  </i>
   <i type="logical" name="LUSEW"> F  </i>
   <i name="ENCUTGW">     -2.00000000</i>
   <i name="ENCUTGWSOFT">     -2.00000000</i>
   <i name="ENCUTLF">     -1.00000000</i>
   <i type="int" name="LMAXMP2">    -1</i>
   <i name="SCISSOR">      0.00000000</i>
   <i type="int" name="NOMEGA">     0</i>
   <i type="int" name="NOMEGAR">     0</i>
   <i type="int" name="NBANDSGW">    -1</i>
   <i type="int" name="NBANDSO">    -1</i>
   <i type="int" name="NBANDSV">    -1</i>
   <i type="int" name="NELM">     1</i>
   <i type="int" name="DIM">     3</i>
   <i type="int" name="ANTIRES">     0</i>
   <i name="OMEGAMAX">    -30.00000000</i>
   <i name="OMEGAMIN">    -30.00000000</i>
   <i name="OMEGATL">   -200.00000000</i>
   <i type="int" name="OMEGAGRID">     0</i>
   <i name="CSHIFT">     -0.10000000</i>
   <i type="logical" name="SELFENERGY"> F  </i>
   <i type="logical" name="LSPECTRAL"> F  </i>
   <i type="logical" name="ODDONLYGW"> F  </i>
   <i type="logical" name="EVENONLYGW"> F  </i>
   <i type="int" name="NKREDLFX">     1</i>
   <i type="int" name="NKREDLFY">     1</i>
   <i type="int" name="NKREDLFZ">     1</i>
   <i type="int" name="MAXMEM">  1800</i>
   <i type="int" name="TELESCOPE">     0</i>
   <i type="int" name="TAUPAR">     1</i>
  </separator>
  <separator name="External order field" >
   <i name="OFIELD_KAPPA">      0.00000000</i>
   <v name="OFIELD_K">      0.00000000      0.00000000      0.00000000</v>
   <i name="OFIELD_Q6_NEAR">      0.00000000</i>
   <i name="OFIELD_Q6_FAR">      0.00000000</i>
   <i name="OFIELD_A">      0.00000000</i>
  </separator>
 </parameters>
 <atominfo>
  <atoms>      24 </atoms>
  <types>       2 </types>
  <array name="atoms" >
   <dimension dim="1">ion</dimension>
   <field type="string">element</field>
   <field type="int">atomtype</field>
   <set>
    <rc><c>P </c><c>   1</c></rc>
    <rc><c>P </c><c>   1</c></rc>
    <rc><c>P </c><c>   1</c></rc>
    <rc><c>P </c><c>   1</c></rc>
    <rc><c>P </c><c>   1</c></rc>
    <rc><c>P </c><c>   1</c></rc>
    <rc><c>P </c><c>   1</c></rc>
    <rc><c>P </c><c>   1</c></rc>
    <rc><c>P </c><c>   1</c></rc>
    <rc><c>P </c><c>   1</c></rc>
    <rc><c>P </c><c>   1</c></rc>
    <rc><c>P </c><c>   1</c></rc>
    <rc><c>Si</c><c>   2</c></rc>
    <rc><c>Si</c><c>   2</c></rc>
    <rc><c>Si</c><c>   2</c></rc>
    <rc><c>Si</c><c>   2</c></rc>
    <rc><c>Si</c><c>   2</c></rc>
    <rc><c>Si</c><c>   2</c></rc>
    <rc><c>Si</c><c>   2</c></rc>
    <rc><c>Si</c><c>   2</c></rc>
    <rc><c>Si</c><c>   2</c></rc>
    <rc><c>Si</c><c>   2</c></rc>
    <rc><c>Si</c><c>   2</c></rc>
    <rc><c>Si</c><c>   2</c></rc>
   </set>
  </array>
  <array name="atomtypes" >
   <dimension dim="1">type</dimension>
   <field type="int">atomspertype</field>
   <field type="string">element</field>
   <field>mass</field>
   <field>valence</field>
   <field type="string">pseudopotential</field>
   <set>
    <rc><c>  12</c><c>P </c><c>     30.97400000</c><c>      5.00000000</c><c>  PAW_PBE P 17Jan2003                   </c></rc>
    <rc><c>  12</c><c>Si</c><c>     28.08500000</c><c>      4.00000000</c><c> PAW_PBE Si 05Jan2001                   </c></rc>
   </set>
  </array>
 </atominfo>
 <structure name="initialpos" >
  <crystal>
   <varray name="basis" >
    <v>       3.54040000       0.00000000       0.00000000 </v>
    <v>      -1.77020000      10.29434800       0.00000000 </v>
    <v>       0.00000000       0.00000000      27.50142900 </v>
   </varray>
   <i name="volume">   1002.32009712 </i>
   <varray name="rec_basis" >
    <v>       0.28245396       0.04857034       0.00000000 </v>
    <v>       0.00000000       0.09714068       0.00000000 </v>
    <v>       0.00000000       0.00000000       0.03636175 </v>
   </varray>
  </crystal>
  <varray name="positions" >
   <v>       0.11402300       0.22804500       0.23316207 </v>
   <v>       0.61402300       0.22804500       0.51499159 </v>
   <v>       0.45808900       0.91617900       0.20939482 </v>
   <v>       0.95808900       0.91617900       0.49122434 </v>
   <v>       0.31085400       0.62170900       0.08414979 </v>
   <v>       0.31085400       0.62170900       0.36597930 </v>
   <v>       0.99923000       0.99846000       0.08631254 </v>
   <v>       0.99923000       0.99846000       0.36814206 </v>
   <v>       0.65492700       0.30985400       0.06041748 </v>
   <v>       0.65492700       0.30985400       0.34224700 </v>
   <v>       0.76973800       0.53947500       0.20725292 </v>
   <v>       0.26973800       0.53947500       0.48908244 </v>
   <v>       0.93971600       0.87943300       0.15783749 </v>
   <v>       0.43971600       0.87943300       0.43966701 </v>
   <v>       0.20515200       0.41030300       0.18578822 </v>
   <v>       0.70515200       0.41030300       0.46761774 </v>
   <v>       0.20184900       0.40369900       0.09969156 </v>
   <v>       0.20184900       0.40369900       0.38152107 </v>
   <v>       0.56380500       0.12761000       0.10779021 </v>
   <v>       0.56380500       0.12761000       0.38961973 </v>
   <v>       0.56710600       0.13421200       0.19387616 </v>
   <v>       0.06710600       0.13421200       0.47570568 </v>
   <v>       0.82923400       0.65846800       0.13571444 </v>
   <v>       0.32923400       0.65846800       0.41754396 </v>
  </varray>
 </structure>
 <calculation>
  <scstep>
   <time name="dav">   61.81   61.83</time>
   <time name="total">   76.55   76.58</time>
   <energy>
    <i name="alphaZ">     36.80884744 </i>
    <i name="ewald">  11915.06724916 </i>
    <i name="hartreedc"> -14952.90532124 </i>
    <i name="XCdc">    -88.10906465 </i>
    <i name="pawpsdc">   1056.43050070 </i>
    <i name="pawaedc">   -732.41190547 </i>
    <i name="eentropy">     -0.04347849 </i>
    <i name="bandstr">    -88.53634126 </i>
    <i name="atom">   3354.04126044 </i>
    <i name="e_fr_energy">    500.34174663 </i>
    <i name="e_wo_entrp">    500.38522513 </i>
    <i name="e_0_energy">    500.36348588 </i>
   </energy>
  </scstep>
  <scstep>
   <time name="dav">   82.57   82.59</time>
   <time name="total">   82.58   82.60</time>
   <energy>
    <i name="e_fr_energy">    -60.35960082 </i>
    <i name="e_wo_entrp">    -60.33270080 </i>
    <i name="e_0_energy">    -60.34615081 </i>
   </energy>
  </scstep>
  <scstep>
   <time name="dav">   75.19   75.24</time>
   <time name="total">   75.20   75.25</time>
   <energy>
    <i name="e_fr_energy">   -117.91384996 </i>
    <i name="e_wo_entrp">   -117.88122190 </i>
    <i name="e_0_energy">   -117.89753593 </i>
   </energy>
  </scstep>
  <scstep>
   <time name="dav">   91.92   91.98</time>
   <time name="total">   91.93   92.00</time>
   <energy>
    <i name="e_fr_energy">   -120.63656722 </i>
    <i name="e_wo_entrp">   -120.60082456 </i>
    <i name="e_0_energy">   -120.61869589 </i>
   </energy>
  </scstep>
  <scstep>
   <time name="dav">   88.95   89.01</time>
   <time name="total">   94.77   94.83</time>
   <energy>
    <i name="e_fr_energy">   -120.69253700 </i>
    <i name="e_wo_entrp">   -120.65667753 </i>
    <i name="e_0_energy">   -120.67460726 </i>
   </energy>
  </scstep>
  <scstep>
   <time name="dav">   83.36   83.43</time>
   <time name="total">  102.08  102.16</time>
   <energy>
    <i name="e_fr_energy">   -116.32630560 </i>
    <i name="e_wo_entrp">   -116.28121924 </i>
    <i name="e_0_energy">   -116.30376242 </i>
   </energy>
  </scstep>
  <scstep>
   <time name="dav">   79.87   79.92</time>
   <time name="total">   99.03   99.09</time>
   <energy>
    <i name="e_fr_energy">   -116.36374095 </i>
    <i name="e_wo_entrp">   -116.32605603 </i>
    <i name="e_0_energy">   -116.34489849 </i>
   </energy>
  </scstep>
  <scstep>
   <time name="dav">   83.61   83.67</time>
   <time name="total">  103.39  103.46</time>
   <energy>
    <i name="e_fr_energy">   -116.22980279 </i>
    <i name="e_wo_entrp">   -116.18459648 </i>
    <i name="e_0_energy">   -116.20719963 </i>
   </energy>
  </scstep>
  <scstep>
   <time name="dav">   82.11   82.16</time>
   <time name="total">  101.49  101.55</time>
   <energy>
    <i name="e_fr_energy">   -116.25469975 </i>
    <i name="e_wo_entrp">   -116.21600516 </i>
    <i name="e_0_energy">   -116.23535245 </i>
   </energy>
  </scstep>
  <scstep>
   <time name="dav">   85.87   85.93</time>
   <time name="total">  104.63  104.71</time>
   <energy>
    <i name="e_fr_energy">   -116.23720546 </i>
    <i name="e_wo_entrp">   -116.19296247 </i>
    <i name="e_0_energy">   -116.21508396 </i>
   </energy>
  </scstep>
  <scstep>
   <time name="dav">   80.25   80.28</time>
   <time name="total">   98.87   98.92</time>
   <energy>
    <i name="e_fr_energy">   -116.22694773 </i>
    <i name="e_wo_entrp">   -116.18365231 </i>
    <i name="e_0_energy">   -116.20530002 </i>
   </energy>
  </scstep>
  <scstep>
   <time name="dav">   77.29   77.34</time>
   <time name="total">   95.63   95.69</time>
   <energy>
    <i name="e_fr_energy">   -116.21641062 </i>
    <i name="e_wo_entrp">   -116.17287517 </i>
    <i name="e_0_energy">   -116.19464290 </i>
   </energy>
  </scstep>
  <scstep>
   <time name="dav">   90.96   91.00</time>
   <time name="total">  109.19  109.25</time>
   <energy>
    <i name="e_fr_energy">   -116.21156580 </i>
    <i name="e_wo_entrp">   -116.16794277 </i>
    <i name="e_0_energy">   -116.18975429 </i>
   </energy>
  </scstep>
  <scstep>
   <time name="dav">   80.80   80.85</time>
   <time name="total">   99.25   99.32</time>
   <energy>
    <i name="e_fr_energy">   -116.20948791 </i>
    <i name="e_wo_entrp">   -116.16592191 </i>
    <i name="e_0_energy">   -116.18770491 </i>
   </energy>
  </scstep>
  <scstep>
   <time name="dav">   80.93   80.95</time>
   <time name="total">   99.43   99.47</time>
   <energy>
    <i name="e_fr_energy">   -116.20807421 </i>
    <i name="e_wo_entrp">   -116.16446854 </i>
    <i name="e_0_energy">   -116.18627138 </i>
   </energy>
  </scstep>
  <scstep>
   <time name="dav">   74.44   74.49</time>
   <time name="total">   92.76   92.83</time>
   <energy>
    <i name="e_fr_energy">   -116.20796166 </i>
    <i name="e_wo_entrp">   -116.16435970 </i>
    <i name="e_0_energy">   -116.18616068 </i>
   </energy>
  </scstep>
  <scstep>
   <time name="dav">   76.40   76.44</time>
   <time name="total">   94.90   94.96</time>
   <energy>
    <i name="e_fr_energy">   -116.20845042 </i>
    <i name="e_wo_entrp">   -116.16484597 </i>
    <i name="e_0_energy">   -116.18664820 </i>
   </energy>
  </scstep>
  <scstep>
   <time name="dav">   78.12   78.15</time>
   <time name="total">   95.85   95.89</time>
   <energy>
    <i name="e_fr_energy">   -116.20866393 </i>
    <i name="e_wo_entrp">   -116.16505573 </i>
    <i name="e_0_energy">   -116.18685983 </i>
   </energy>
  </scstep>
  <scstep>
   <time name="dav">   81.09   81.11</time>
   <time name="total">   98.56   98.59</time>
   <energy>
    <i name="e_fr_energy">   -116.20875746 </i>
    <i name="e_wo_entrp">   -116.16515142 </i>
    <i name="e_0_energy">   -116.18695444 </i>
   </energy>
  </scstep>
  <scstep>
   <time name="dav">   72.93   72.99</time>
   <time name="total">   92.30   92.36</time>
   <energy>
    <i name="e_fr_energy">   -116.20880416 </i>
    <i name="e_wo_entrp">   -116.16519912 </i>
    <i name="e_0_energy">   -116.18700164 </i>
   </energy>
  </scstep>
  <scstep>
   <time name="dav">   73.66   73.71</time>
   <time name="total">   93.25   93.32</time>
   <energy>
    <i name="e_fr_energy">   -116.20881635 </i>
    <i name="e_wo_entrp">   -116.16521125 </i>
    <i name="e_0_energy">   -116.18701380 </i>
   </energy>
  </scstep>
  <scstep>
   <time name="dav">   69.54   69.57</time>
   <time name="total">   88.05   88.11</time>
   <energy>
    <i name="e_fr_energy">   -116.20877329 </i>
    <i name="e_wo_entrp">   -116.16516724 </i>
    <i name="e_0_energy">   -116.18697027 </i>
   </energy>
  </scstep>
  <scstep>
   <time name="dav">   68.16   68.20</time>
   <time name="total">   86.83   86.88</time>
   <energy>
    <i name="e_fr_energy">   -116.20871982 </i>
    <i name="e_wo_entrp">   -116.16511341 </i>
    <i name="e_0_energy">   -116.18691662 </i>
   </energy>
  </scstep>
  <scstep>
   <time name="dav">   61.06   61.10</time>
   <time name="total">   79.45   79.50</time>
   <energy>
    <i name="e_fr_energy">   -116.20870767 </i>
    <i name="e_wo_entrp">   -116.16510197 </i>
    <i name="e_0_energy">   -116.18690482 </i>
   </energy>
  </scstep>
  <scstep>
   <time name="dav">   66.25   66.30</time>
   <time name="total">   85.06   85.11</time>
   <energy>
    <i name="e_fr_energy">   -116.20868025 </i>
    <i name="e_wo_entrp">   -116.16507441 </i>
    <i name="e_0_energy">   -116.18687733 </i>
   </energy>
  </scstep>
  <scstep>
   <time name="dav">   70.60   70.64</time>
   <time name="total">   90.31   90.35</time>
   <energy>
    <i name="e_fr_energy">   -116.20867679 </i>
    <i name="e_wo_entrp">   -116.16507093 </i>
    <i name="e_0_energy">   -116.18687386 </i>
   </energy>
  </scstep>
  <scstep>
   <time name="dav">   61.93   61.97</time>
   <time name="total">   80.33   80.40</time>
   <energy>
    <i name="e_fr_energy">   -116.20867189 </i>
    <i name="e_wo_entrp">   -116.16506594 </i>
    <i name="e_0_energy">   -116.18686891 </i>
   </energy>
  </scstep>
  <scstep>
   <time name="dav">   61.62   61.66</time>
   <time name="total">   75.40   75.45</time>
   <energy>
    <i name="alphaZ">     36.80884744 </i>
    <i name="ewald">  11915.06724916 </i>
    <i name="hartreedc"> -15047.16611950 </i>
    <i name="XCdc">    -79.94820084 </i>
    <i name="pawpsdc">   1189.98073008 </i>
    <i name="pawaedc">   -869.65944421 </i>
    <i name="eentropy">     -0.04360587 </i>
    <i name="bandstr">   -615.28938873 </i>
    <i name="atom">   3354.04126044 </i>
    <i name="e_fr_energy">   -116.20867202 </i>
    <i name="e_wo_entrp">   -116.16506615 </i>
    <i name="e_0_energy">   -116.18686908 </i>
   </energy>
  </scstep>
  <structure>
   <crystal>
    <varray name="basis" >
     <v>       3.54040000       0.00000000       0.00000000 </v>
     <v>      -1.77020000      10.29434800       0.00000000 </v>
     <v>       0.00000000       0.00000000      27.50142900 </v>
    </varray>
    <i name="volume">   1002.32009712 </i>
    <varray name="rec_basis" >
     <v>       0.28245396       0.04857034       0.00000000 </v>
     <v>       0.00000000       0.09714068       0.00000000 </v>
     <v>       0.00000000       0.00000000       0.03636175 </v>
    </varray>
   </crystal>
   <varray name="positions" >
    <v>       0.11402300       0.22804500       0.23316207 </v>
    <v>       0.61402300       0.22804500       0.51499159 </v>
    <v>       0.45808900       0.91617900       0.20939482 </v>
    <v>       0.95808900       0.91617900       0.49122434 </v>
    <v>       0.31085400       0.62170900       0.08414979 </v>
    <v>       0.31085400       0.62170900       0.36597930 </v>
    <v>       0.99923000       0.99846000       0.08631254 </v>
    <v>       0.99923000       0.99846000       0.36814206 </v>
    <v>       0.65492700       0.30985400       0.06041748 </v>
    <v>       0.65492700       0.30985400       0.34224700 </v>
    <v>       0.76973800       0.53947500       0.20725292 </v>
    <v>       0.26973800       0.53947500       0.48908244 </v>
    <v>       0.93971600       0.87943300       0.15783749 </v>
    <v>       0.43971600       0.87943300       0.43966701 </v>
    <v>       0.20515200       0.41030300       0.18578822 </v>
    <v>       0.70515200       0.41030300       0.46761774 </v>
    <v>       0.20184900       0.40369900       0.09969156 </v>
    <v>       0.20184900       0.40369900       0.38152107 </v>
    <v>       0.56380500       0.12761000       0.10779021 </v>
    <v>       0.56380500       0.12761000       0.38961973 </v>
    <v>       0.56710600       0.13421200       0.19387616 </v>
    <v>       0.06710600       0.13421200       0.47570568 </v>
    <v>       0.82923400       0.65846800       0.13571444 </v>
    <v>       0.32923400       0.65846800       0.41754396 </v>
   </varray>
  </structure>
  <varray name="forces" >
   <v>      -0.00000000      -0.02872277       0.05658030 </v>
   <v>       0.00000000       0.75721269       0.15021462 </v>
   <v>       0.00000000      -0.01212504       0.09797662 </v>
   <v>       0.00000000       0.20409185       0.68220011 </v>
   <v>      -0.00000000      -0.01003472       0.01139964 </v>
   <v>      -0.00000000     -12.94708820     -46.74144928 </v>
   <v>       0.00000000       0.01350954      -0.00088246 </v>
   <v>       0.00000000      -0.30460720      -0.96702873 </v>
   <v>       0.00000000      -0.00163228       0.02318038 </v>
   <v>      -0.00000000      -0.28039682      -0.28600278 </v>
   <v>       0.00000000       0.00078245       0.09030045 </v>
   <v>       0.00000000       0.62900431       1.13786623 </v>
   <v>       0.00000000       0.00719437       0.01197394 </v>
   <v>       0.00000000       0.46825011       0.11916441 </v>
   <v>       0.00000000       0.02423517       0.04584233 </v>
   <v>       0.00000000       0.29973759      -0.18441897 </v>
   <v>       0.00000000      -0.00078184      -0.03376600 </v>
   <v>      -0.00000000      -0.30021597       0.40318256 </v>
   <v>       0.00000000      -0.01348738      -0.04775444 </v>
   <v>       0.00000000      -0.87309080      -0.33599187 </v>
   <v>       0.00000000      -0.05534747       0.05723165 </v>
   <v>       0.00000000      -0.11751640      -0.53824670 </v>
   <v>       0.00000000       0.01807813      -0.00100275 </v>
   <v>       0.00000000      12.52295067      46.24943071 </v>
  </varray>
  <varray name="stress" >
   <v>      -8.75959474       0.00000000       0.00000000 </v>
   <v>       0.00000000      10.38618548      39.69508252 </v>
   <v>       0.00000000      39.69508240     109.13517089 </v>
  </varray>
  <energy>
   <i name="e_fr_energy">   -116.20867202 </i>
   <i name="e_wo_entrp">   -116.18686908 </i>
   <i name="e_0_energy">     -0.04360587 </i>
  </energy>
  <time name="totalsc"> 2696.12 2697.74</time>
  <eigenvalues>
   <array>
    <dimension dim="1">band</dimension>
    <dimension dim="2">kpoint</dimension>
    <dimension dim="3">spin</dimension>
    <field>eigene</field>
    <field>occ</field>
    <set>
     <set comment="spin 1">
      <set comment="kpoint 1">
       <r>  -13.7074    1.0000 </r>
       <r>  -13.6698    1.0000 </r>
       <r>  -12.9308    1.0000 </r>
       <r>  -12.8772    1.0000 </r>
       <r>  -12.6293    1.0000 </r>
       <r>  -12.3666    1.0000 </r>
       <r>  -12.2133    1.0000 </r>
       <r>  -12.1112    1.0000 </r>
       <r>  -11.5650    1.0000 </r>
       <r>  -11.3140    1.0000 </r>
       <r>  -11.1213    1.0000 </r>
       <r>  -10.9277    1.0000 </r>
       <r>   -8.1709    1.0000 </r>
       <r>   -7.9673    1.0000 </r>
       <r>   -7.8139    1.0000 </r>
       <r>   -7.3007    1.0000 </r>
       <r>   -6.9756    1.0000 </r>
       <r>   -6.6296    1.0000 </r>
       <r>   -6.4893    1.0000 </r>
       <r>   -6.3654    1.0000 </r>
       <r>   -5.9537    1.0000 </r>
       <r>   -5.5466    1.0000 </r>
       <r>   -4.8705    1.0000 </r>
       <r>   -4.6658    1.0000 </r>
       <r>   -4.1092    1.0000 </r>
       <r>   -3.8192    1.0000 </r>
       <r>   -3.6689    1.0000 </r>
       <r>   -3.5280    1.0000 </r>
       <r>   -3.1924    1.0000 </r>
       <r>   -3.1410    1.0000 </r>
       <r>   -2.9725    1.0000 </r>
       <r>   -2.9466    1.0000 </r>
       <r>   -2.8867    1.0000 </r>
       <r>   -2.6435    1.0000 </r>
       <r>   -2.5773    1.0000 </r>
       <r>   -2.5293    1.0000 </r>
       <r>   -2.3045    1.0000 </r>
       <r>   -2.2822    1.0000 </r>
       <r>   -2.1532    1.0000 </r>
       <r>   -2.0522    1.0000 </r>
       <r>   -1.9680    1.0000 </r>
       <r>   -1.8571    1.0000 </r>
       <r>   -1.8189    1.0000 </r>
       <r>   -1.7777    1.0000 </r>
       <r>   -1.7042    1.0000 </r>
       <r>   -1.5899    1.0000 </r>
       <r>   -1.5602    1.0000 </r>
       <r>   -1.4684    1.0000 </r>
       <r>   -1.3566    1.0000 </r>
       <r>   -1.2628    1.0000 </r>
       <r>   -1.1827    1.0000 </r>
       <r>   -1.1417    1.0000 </r>
       <r>   -0.2955    0.9999 </r>
       <r>   -0.0652    0.6917 </r>
       <r>    0.5847    0.0000 </r>
       <r>    0.9609    0.0000 </r>
       <r>    1.0897    0.0000 </r>
       <r>    1.1891    0.0000 </r>
       <r>    1.5779    0.0000 </r>
       <r>    1.7637    0.0000 </r>
       <r>    1.8584    0.0000 </r>
       <r>    1.9010    0.0000 </r>
       <r>    2.0540    0.0000 </r>
       <r>    2.1458    0.0000 </r>
       <r>    2.2970    0.0000 </r>
       <r>    2.5235    0.0000 </r>
       <r>    2.5775    0.0000 </r>
       <r>    2.6471    0.0000 </r>
      </set>
      <set comment="kpoint 2">
       <r>  -13.6630    1.0000 </r>
       <r>  -13.6100    1.0000 </r>
       <r>  -12.8787    1.0000 </r>
       <r>  -12.8284    1.0000 </r>
       <r>  -12.5737    1.0000 </r>
       <r>  -12.3118    1.0000 </r>
       <r>  -12.1515    1.0000 </r>
       <r>  -12.0529    1.0000 </r>
       <r>  -11.5160    1.0000 </r>
       <r>  -11.2634    1.0000 </r>
       <r>  -11.0730    1.0000 </r>
       <r>  -10.8760    1.0000 </r>
       <r>   -8.2062    1.0000 </r>
       <r>   -7.9329    1.0000 </r>
       <r>   -7.8127    1.0000 </r>
       <r>   -7.2625    1.0000 </r>
       <r>   -6.9415    1.0000 </r>
       <r>   -6.6234    1.0000 </r>
       <r>   -6.4633    1.0000 </r>
       <r>   -6.3450    1.0000 </r>
       <r>   -5.9200    1.0000 </r>
       <r>   -5.5072    1.0000 </r>
       <r>   -4.8738    1.0000 </r>
       <r>   -4.7082    1.0000 </r>
       <r>   -4.0911    1.0000 </r>
       <r>   -3.8471    1.0000 </r>
       <r>   -3.7691    1.0000 </r>
       <r>   -3.6597    1.0000 </r>
       <r>   -3.4865    1.0000 </r>
       <r>   -3.3780    1.0000 </r>
       <r>   -3.3125    1.0000 </r>
       <r>   -3.2330    1.0000 </r>
       <r>   -3.0035    1.0000 </r>
       <r>   -2.9291    1.0000 </r>
       <r>   -2.8634    1.0000 </r>
       <r>   -2.6323    1.0000 </r>
       <r>   -2.5945    1.0000 </r>
       <r>   -2.3455    1.0000 </r>
       <r>   -2.3192    1.0000 </r>
       <r>   -2.1966    1.0000 </r>
       <r>   -2.0938    1.0000 </r>
       <r>   -2.0898    1.0000 </r>
       <r>   -1.9670    1.0000 </r>
       <r>   -1.9603    1.0000 </r>
       <r>   -1.8524    1.0000 </r>
       <r>   -1.7552    1.0000 </r>
       <r>   -1.7311    1.0000 </r>
       <r>   -1.6327    1.0000 </r>
       <r>   -1.5907    1.0000 </r>
       <r>   -1.2978    1.0000 </r>
       <r>   -1.1164    1.0000 </r>
       <r>   -1.0416    1.0000 </r>
       <r>   -0.2321    0.9979 </r>
       <r>   -0.0365    0.5377 </r>
       <r>    0.9718    0.0000 </r>
       <r>    1.2927    0.0000 </r>
       <r>    1.4646    0.0000 </r>
       <r>    1.6325    0.0000 </r>
       <r>    1.9106    0.0000 </r>
       <r>    2.0136    0.0000 </r>
       <r>    2.0816    0.0000 </r>
       <r>    2.1459    0.0000 </r>
       <r>    2.2323    0.0000 </r>
       <r>    2.3771    0.0000 </r>
       <r>    2.4791    0.0000 </r>
       <r>    2.5613    0.0000 </r>
       <r>    2.6304    0.0000 </r>
       <r>    3.1218    0.0000 </r>
      </set>
      <set comment="kpoint 3">
       <r>  -13.5389    1.0000 </r>
       <r>  -13.4286    1.0000 </r>
       <r>  -12.7232    1.0000 </r>
       <r>  -12.6814    1.0000 </r>
       <r>  -12.4088    1.0000 </r>
       <r>  -12.1494    1.0000 </r>
       <r>  -11.9702    1.0000 </r>
       <r>  -11.8824    1.0000 </r>
       <r>  -11.3738    1.0000 </r>
       <r>  -11.1150    1.0000 </r>
       <r>  -10.9342    1.0000 </r>
       <r>  -10.7238    1.0000 </r>
       <r>   -8.3009    1.0000 </r>
       <r>   -7.8937    1.0000 </r>
       <r>   -7.8219    1.0000 </r>
       <r>   -7.1849    1.0000 </r>
       <r>   -6.8634    1.0000 </r>
       <r>   -6.6348    1.0000 </r>
       <r>   -6.4290    1.0000 </r>
       <r>   -6.2983    1.0000 </r>
       <r>   -5.8454    1.0000 </r>
       <r>   -5.4150    1.0000 </r>
       <r>   -4.9997    1.0000 </r>
       <r>   -4.9907    1.0000 </r>
       <r>   -4.3928    1.0000 </r>
       <r>   -4.3332    1.0000 </r>
       <r>   -4.2229    1.0000 </r>
       <r>   -4.1169    1.0000 </r>
       <r>   -3.8873    1.0000 </r>
       <r>   -3.7765    1.0000 </r>
       <r>   -3.7325    1.0000 </r>
       <r>   -3.5956    1.0000 </r>
       <r>   -3.4419    1.0000 </r>
       <r>   -3.3034    1.0000 </r>
       <r>   -3.2058    1.0000 </r>
       <r>   -3.1332    1.0000 </r>
       <r>   -3.0876    1.0000 </r>
       <r>   -2.9090    1.0000 </r>
       <r>   -2.8083    1.0000 </r>
       <r>   -2.5628    1.0000 </r>
       <r>   -2.5029    1.0000 </r>
       <r>   -2.3392    1.0000 </r>
       <r>   -2.2784    1.0000 </r>
       <r>   -2.0995    1.0000 </r>
       <r>   -1.9998    1.0000 </r>
       <r>   -1.9467    1.0000 </r>
       <r>   -1.8376    1.0000 </r>
       <r>   -1.7682    1.0000 </r>
       <r>   -1.5881    1.0000 </r>
       <r>   -1.3449    1.0000 </r>
       <r>   -1.0992    1.0000 </r>
       <r>   -0.9600    1.0000 </r>
       <r>   -0.1763    0.9809 </r>
       <r>   -0.0422    0.5695 </r>
       <r>    1.1402    0.0000 </r>
       <r>    1.4278    0.0000 </r>
       <r>    1.7764    0.0000 </r>
       <r>    1.8469    0.0000 </r>
       <r>    2.1055    0.0000 </r>
       <r>    2.2437    0.0000 </r>
       <r>    2.3606    0.0000 </r>
       <r>    2.4668    0.0000 </r>
       <r>    2.5103    0.0000 </r>
       <r>    2.6308    0.0000 </r>
       <r>    2.8146    0.0000 </r>
       <r>    2.8960    0.0000 </r>
       <r>    2.9454    0.0000 </r>
       <r>    3.1130    0.0000 </r>
      </set>
      <set comment="kpoint 4">
       <r>  -13.3563    1.0000 </r>
       <r>  -13.1283    1.0000 </r>
       <r>  -12.4673    1.0000 </r>
       <r>  -12.4348    1.0000 </r>
       <r>  -12.1419    1.0000 </r>
       <r>  -11.8862    1.0000 </r>
       <r>  -11.6836    1.0000 </r>
       <r>  -11.6131    1.0000 </r>
       <r>  -11.1567    1.0000 </r>
       <r>  -10.8810    1.0000 </r>
       <r>  -10.7312    1.0000 </r>
       <r>  -10.4819    1.0000 </r>
       <r>   -8.4917    1.0000 </r>
       <r>   -7.9619    1.0000 </r>
       <r>   -7.9067    1.0000 </r>
       <r>   -7.2002    1.0000 </r>
       <r>   -6.8327    1.0000 </r>
       <r>   -6.7687    1.0000 </r>
       <r>   -6.5209    1.0000 </r>
       <r>   -6.3619    1.0000 </r>
       <r>   -5.8662    1.0000 </r>
       <r>   -5.6032    1.0000 </r>
       <r>   -5.4703    1.0000 </r>
       <r>   -5.3048    1.0000 </r>
       <r>   -4.9520    1.0000 </r>
       <r>   -4.9245    1.0000 </r>
       <r>   -4.7395    1.0000 </r>
       <r>   -4.6412    1.0000 </r>
       <r>   -4.3419    1.0000 </r>
       <r>   -4.3059    1.0000 </r>
       <r>   -4.0424    1.0000 </r>
       <r>   -3.9305    1.0000 </r>
       <r>   -3.8232    1.0000 </r>
       <r>   -3.7183    1.0000 </r>
       <r>   -3.6042    1.0000 </r>
       <r>   -3.5930    1.0000 </r>
       <r>   -3.2452    1.0000 </r>
       <r>   -3.1233    1.0000 </r>
       <r>   -3.0046    1.0000 </r>
       <r>   -2.7990    1.0000 </r>
       <r>   -2.7000    1.0000 </r>
       <r>   -2.6204    1.0000 </r>
       <r>   -2.5139    1.0000 </r>
       <r>   -2.1074    1.0000 </r>
       <r>   -2.0355    1.0000 </r>
       <r>   -1.9380    1.0000 </r>
       <r>   -1.9156    1.0000 </r>
       <r>   -1.8353    1.0000 </r>
       <r>   -1.5907    1.0000 </r>
       <r>   -1.5402    1.0000 </r>
       <r>   -1.2054    1.0000 </r>
       <r>   -0.8971    1.0000 </r>
       <r>   -0.2096    0.9945 </r>
       <r>   -0.1247    0.9103 </r>
       <r>    0.5862    0.0000 </r>
       <r>    0.9977    0.0000 </r>
       <r>    1.2413    0.0000 </r>
       <r>    1.7457    0.0000 </r>
       <r>    1.8949    0.0000 </r>
       <r>    2.0922    0.0000 </r>
       <r>    2.1831    0.0000 </r>
       <r>    2.2259    0.0000 </r>
       <r>    2.3865    0.0000 </r>
       <r>    2.5515    0.0000 </r>
       <r>    2.7347    0.0000 </r>
       <r>    2.7712    0.0000 </r>
       <r>    2.8537    0.0000 </r>
       <r>    3.0592    0.0000 </r>
      </set>
      <set comment="kpoint 5">
       <r>  -13.1510    1.0000 </r>
       <r>  -12.7168    1.0000 </r>
       <r>  -12.1192    1.0000 </r>
       <r>  -12.0899    1.0000 </r>
       <r>  -11.7895    1.0000 </r>
       <r>  -11.5399    1.0000 </r>
       <r>  -11.3256    1.0000 </r>
       <r>  -11.2743    1.0000 </r>
       <r>  -10.9119    1.0000 </r>
       <r>  -10.5966    1.0000 </r>
       <r>  -10.5457    1.0000 </r>
       <r>  -10.1769    1.0000 </r>
       <r>   -8.7865    1.0000 </r>
       <r>   -8.2199    1.0000 </r>
       <r>   -8.1739    1.0000 </r>
       <r>   -7.4613    1.0000 </r>
       <r>   -7.1312    1.0000 </r>
       <r>   -7.0391    1.0000 </r>
       <r>   -7.0008    1.0000 </r>
       <r>   -6.6305    1.0000 </r>
       <r>   -6.2881    1.0000 </r>
       <r>   -6.1044    1.0000 </r>
       <r>   -6.0845    1.0000 </r>
       <r>   -5.3736    1.0000 </r>
       <r>   -5.3365    1.0000 </r>
       <r>   -5.1000    1.0000 </r>
       <r>   -4.9243    1.0000 </r>
       <r>   -4.8324    1.0000 </r>
       <r>   -4.6676    1.0000 </r>
       <r>   -4.5044    1.0000 </r>
       <r>   -4.4222    1.0000 </r>
       <r>   -4.3460    1.0000 </r>
       <r>   -4.2260    1.0000 </r>
       <r>   -3.9101    1.0000 </r>
       <r>   -3.5502    1.0000 </r>
       <r>   -3.5052    1.0000 </r>
       <r>   -3.2626    1.0000 </r>
       <r>   -3.1943    1.0000 </r>
       <r>   -3.0214    1.0000 </r>
       <r>   -2.9482    1.0000 </r>
       <r>   -2.8320    1.0000 </r>
       <r>   -2.7495    1.0000 </r>
       <r>   -2.5022    1.0000 </r>
       <r>   -2.3067    1.0000 </r>
       <r>   -2.1934    1.0000 </r>
       <r>   -2.0391    1.0000 </r>
       <r>   -1.9995    1.0000 </r>
       <r>   -1.8698    1.0000 </r>
       <r>   -1.8263    1.0000 </r>
       <r>   -1.5619    1.0000 </r>
       <r>   -1.4221    1.0000 </r>
       <r>   -0.8345    1.0000 </r>
       <r>   -0.5250    1.0000 </r>
       <r>   -0.2193    0.9963 </r>
       <r>    0.2786    0.0000 </r>
       <r>    0.4601    0.0000 </r>
       <r>    0.7169    0.0000 </r>
       <r>    1.4710    0.0000 </r>
       <r>    1.5303    0.0000 </r>
       <r>    1.6650    0.0000 </r>
       <r>    1.8573    0.0000 </r>
       <r>    2.0896    0.0000 </r>
       <r>    2.1987    0.0000 </r>
       <r>    2.2471    0.0000 </r>
       <r>    2.5555    0.0000 </r>
       <r>    2.5828    0.0000 </r>
       <r>    2.7040    0.0000 </r>
       <r>    2.8897    0.0000 </r>
      </set>
      <set comment="kpoint 6">
       <r>  -12.9707    1.0000 </r>
       <r>  -12.2086    1.0000 </r>
       <r>  -11.6993    1.0000 </r>
       <r>  -11.6628    1.0000 </r>
       <r>  -11.3901    1.0000 </r>
       <r>  -11.1552    1.0000 </r>
       <r>  -10.9810    1.0000 </r>
       <r>  -10.9369    1.0000 </r>
       <r>  -10.7565    1.0000 </r>
       <r>  -10.5868    1.0000 </r>
       <r>  -10.3591    1.0000 </r>
       <r>   -9.8670    1.0000 </r>
       <r>   -8.9625    1.0000 </r>
       <r>   -8.5962    1.0000 </r>
       <r>   -8.5097    1.0000 </r>
       <r>   -7.7776    1.0000 </r>
       <r>   -7.6826    1.0000 </r>
       <r>   -7.5891    1.0000 </r>
       <r>   -7.5465    1.0000 </r>
       <r>   -7.0387    1.0000 </r>
       <r>   -6.8867    1.0000 </r>
       <r>   -6.7968    1.0000 </r>
       <r>   -6.6648    1.0000 </r>
       <r>   -5.4471    1.0000 </r>
       <r>   -5.3451    1.0000 </r>
       <r>   -5.0787    1.0000 </r>
       <r>   -4.7993    1.0000 </r>
       <r>   -4.7216    1.0000 </r>
       <r>   -4.6572    1.0000 </r>
       <r>   -4.4646    1.0000 </r>
       <r>   -4.3489    1.0000 </r>
       <r>   -4.3097    1.0000 </r>
       <r>   -4.1991    1.0000 </r>
       <r>   -3.8977    1.0000 </r>
       <r>   -3.7838    1.0000 </r>
       <r>   -3.4314    1.0000 </r>
       <r>   -3.3902    1.0000 </r>
       <r>   -3.3006    1.0000 </r>
       <r>   -3.1545    1.0000 </r>
       <r>   -3.0434    1.0000 </r>
       <r>   -2.9352    1.0000 </r>
       <r>   -2.7086    1.0000 </r>
       <r>   -2.5477    1.0000 </r>
       <r>   -2.5005    1.0000 </r>
       <r>   -2.3953    1.0000 </r>
       <r>   -2.2213    1.0000 </r>
       <r>   -2.1577    1.0000 </r>
       <r>   -2.0550    1.0000 </r>
       <r>   -1.9570    1.0000 </r>
       <r>   -1.5549    1.0000 </r>
       <r>   -1.5194    1.0000 </r>
       <r>   -0.8800    1.0000 </r>
       <r>   -0.7593    1.0000 </r>
       <r>   -0.3064    1.0000 </r>
       <r>    0.0253    0.2178 </r>
       <r>    0.1724    0.0021 </r>
       <r>    0.3822    0.0000 </r>
       <r>    1.0005    0.0000 </r>
       <r>    1.2869    0.0000 </r>
       <r>    1.5792    0.0000 </r>
       <r>    1.6020    0.0000 </r>
       <r>    1.9356    0.0000 </r>
       <r>    1.9944    0.0000 </r>
       <r>    2.1301    0.0000 </r>
       <r>    2.1843    0.0000 </r>
       <r>    2.4236    0.0000 </r>
       <r>    2.5874    0.0000 </r>
       <r>    2.6662    0.0000 </r>
      </set>
      <set comment="kpoint 7">
       <r>  -12.8646    1.0000 </r>
       <r>  -11.6352    1.0000 </r>
       <r>  -11.2753    1.0000 </r>
       <r>  -11.2264    1.0000 </r>
       <r>  -11.0872    1.0000 </r>
       <r>  -10.9752    1.0000 </r>
       <r>  -10.8707    1.0000 </r>
       <r>  -10.8569    1.0000 </r>
       <r>  -10.7830    1.0000 </r>
       <r>  -10.7678    1.0000 </r>
       <r>  -10.2760    1.0000 </r>
       <r>   -9.6693    1.0000 </r>
       <r>   -8.8587    1.0000 </r>
       <r>   -8.8184    1.0000 </r>
       <r>   -8.5740    1.0000 </r>
       <r>   -8.2142    1.0000 </r>
       <r>   -8.1595    1.0000 </r>
       <r>   -7.8332    1.0000 </r>
       <r>   -7.7055    1.0000 </r>
       <r>   -7.5062    1.0000 </r>
       <r>   -7.4190    1.0000 </r>
       <r>   -7.3072    1.0000 </r>
       <r>   -7.1202    1.0000 </r>
       <r>   -5.4658    1.0000 </r>
       <r>   -5.0963    1.0000 </r>
       <r>   -5.0430    1.0000 </r>
       <r>   -4.7329    1.0000 </r>
       <r>   -4.6323    1.0000 </r>
       <r>   -4.4248    1.0000 </r>
       <r>   -4.2184    1.0000 </r>
       <r>   -4.1685    1.0000 </r>
       <r>   -4.0889    1.0000 </r>
       <r>   -4.0466    1.0000 </r>
       <r>   -3.9561    1.0000 </r>
       <r>   -3.7781    1.0000 </r>
       <r>   -3.7140    1.0000 </r>
       <r>   -3.4891    1.0000 </r>
       <r>   -3.3904    1.0000 </r>
       <r>   -3.3612    1.0000 </r>
       <r>   -3.2190    1.0000 </r>
       <r>   -3.1300    1.0000 </r>
       <r>   -2.8324    1.0000 </r>
       <r>   -2.7061    1.0000 </r>
       <r>   -2.5274    1.0000 </r>
       <r>   -2.4698    1.0000 </r>
       <r>   -2.3156    1.0000 </r>
       <r>   -2.2494    1.0000 </r>
       <r>   -2.1797    1.0000 </r>
       <r>   -1.8371    1.0000 </r>
       <r>   -1.6468    1.0000 </r>
       <r>   -1.4474    1.0000 </r>
       <r>   -1.1224    1.0000 </r>
       <r>   -0.7052    1.0000 </r>
       <r>   -0.3085    1.0000 </r>
       <r>   -0.1340    0.9297 </r>
       <r>    0.0612    0.0990 </r>
       <r>    0.1525    0.0050 </r>
       <r>    0.7227    0.0000 </r>
       <r>    1.2493    0.0000 </r>
       <r>    1.4576    0.0000 </r>
       <r>    1.5364    0.0000 </r>
       <r>    1.7341    0.0000 </r>
       <r>    1.8274    0.0000 </r>
       <r>    1.9510    0.0000 </r>
       <r>    2.2544    0.0000 </r>
       <r>    2.2846    0.0000 </r>
       <r>    2.3791    0.0000 </r>
       <r>    2.5963    0.0000 </r>
      </set>
      <set comment="kpoint 8">
       <r>  -13.6789    1.0000 </r>
       <r>  -13.6167    1.0000 </r>
       <r>  -13.1045    1.0000 </r>
       <r>  -12.9741    1.0000 </r>
       <r>  -12.6272    1.0000 </r>
       <r>  -12.3767    1.0000 </r>
       <r>  -12.0157    1.0000 </r>
       <r>  -11.9707    1.0000 </r>
       <r>  -11.6099    1.0000 </r>
       <r>  -11.3249    1.0000 </r>
       <r>  -11.1305    1.0000 </r>
       <r>  -10.9312    1.0000 </r>
       <r>   -8.6484    1.0000 </r>
       <r>   -8.1481    1.0000 </r>
       <r>   -7.5270    1.0000 </r>
       <r>   -6.9873    1.0000 </r>
       <r>   -6.8044    1.0000 </r>
       <r>   -6.7372    1.0000 </r>
       <r>   -6.5812    1.0000 </r>
       <r>   -6.2198    1.0000 </r>
       <r>   -5.8776    1.0000 </r>
       <r>   -5.4658    1.0000 </r>
       <r>   -4.7731    1.0000 </r>
       <r>   -4.6061    1.0000 </r>
       <r>   -4.1928    1.0000 </r>
       <r>   -4.0290    1.0000 </r>
       <r>   -3.7735    1.0000 </r>
       <r>   -3.5325    1.0000 </r>
       <r>   -3.2622    1.0000 </r>
       <r>   -3.2601    1.0000 </r>
       <r>   -3.1077    1.0000 </r>
       <r>   -2.9983    1.0000 </r>
       <r>   -2.8385    1.0000 </r>
       <r>   -2.5517    1.0000 </r>
       <r>   -2.5217    1.0000 </r>
       <r>   -2.4923    1.0000 </r>
       <r>   -2.4173    1.0000 </r>
       <r>   -2.2915    1.0000 </r>
       <r>   -2.2272    1.0000 </r>
       <r>   -2.1680    1.0000 </r>
       <r>   -2.0977    1.0000 </r>
       <r>   -2.0122    1.0000 </r>
       <r>   -1.7644    1.0000 </r>
       <r>   -1.7332    1.0000 </r>
       <r>   -1.5729    1.0000 </r>
       <r>   -1.5072    1.0000 </r>
       <r>   -1.4930    1.0000 </r>
       <r>   -1.4578    1.0000 </r>
       <r>   -1.2819    1.0000 </r>
       <r>   -1.1972    1.0000 </r>
       <r>   -1.1399    1.0000 </r>
       <r>   -1.0486    1.0000 </r>
       <r>   -0.3581    1.0000 </r>
       <r>   -0.0384    0.5484 </r>
       <r>    0.5427    0.0000 </r>
       <r>    1.0481    0.0000 </r>
       <r>    1.1208    0.0000 </r>
       <r>    1.2755    0.0000 </r>
       <r>    1.5963    0.0000 </r>
       <r>    1.6336    0.0000 </r>
       <r>    1.8286    0.0000 </r>
       <r>    1.9313    0.0000 </r>
       <r>    2.1195    0.0000 </r>
       <r>    2.2098    0.0000 </r>
       <r>    2.4539    0.0000 </r>
       <r>    2.5051    0.0000 </r>
       <r>    2.5653    0.0000 </r>
       <r>    2.8560    0.0000 </r>
      </set>
      <set comment="kpoint 9">
       <r>  -13.6306    1.0000 </r>
       <r>  -13.5408    1.0000 </r>
       <r>  -13.0852    1.0000 </r>
       <r>  -12.9403    1.0000 </r>
       <r>  -12.5701    1.0000 </r>
       <r>  -12.3215    1.0000 </r>
       <r>  -11.9276    1.0000 </r>
       <r>  -11.8848    1.0000 </r>
       <r>  -11.5686    1.0000 </r>
       <r>  -11.2714    1.0000 </r>
       <r>  -11.0863    1.0000 </r>
       <r>  -10.8825    1.0000 </r>
       <r>   -8.7066    1.0000 </r>
       <r>   -8.1738    1.0000 </r>
       <r>   -7.4780    1.0000 </r>
       <r>   -6.9358    1.0000 </r>
       <r>   -6.8134    1.0000 </r>
       <r>   -6.6685    1.0000 </r>
       <r>   -6.5707    1.0000 </r>
       <r>   -6.1429    1.0000 </r>
       <r>   -5.8286    1.0000 </r>
       <r>   -5.4176    1.0000 </r>
       <r>   -4.8183    1.0000 </r>
       <r>   -4.6798    1.0000 </r>
       <r>   -4.2436    1.0000 </r>
       <r>   -4.0626    1.0000 </r>
       <r>   -3.8042    1.0000 </r>
       <r>   -3.7103    1.0000 </r>
       <r>   -3.5278    1.0000 </r>
       <r>   -3.4723    1.0000 </r>
       <r>   -3.2647    1.0000 </r>
       <r>   -3.1504    1.0000 </r>
       <r>   -3.1266    1.0000 </r>
       <r>   -2.8728    1.0000 </r>
       <r>   -2.8140    1.0000 </r>
       <r>   -2.6697    1.0000 </r>
       <r>   -2.6168    1.0000 </r>
       <r>   -2.4665    1.0000 </r>
       <r>   -2.3853    1.0000 </r>
       <r>   -2.3025    1.0000 </r>
       <r>   -2.2118    1.0000 </r>
       <r>   -2.1331    1.0000 </r>
       <r>   -2.0785    1.0000 </r>
       <r>   -1.9633    1.0000 </r>
       <r>   -1.8776    1.0000 </r>
       <r>   -1.8364    1.0000 </r>
       <r>   -1.5721    1.0000 </r>
       <r>   -1.4842    1.0000 </r>
       <r>   -1.3873    1.0000 </r>
       <r>   -1.2124    1.0000 </r>
       <r>   -1.0601    1.0000 </r>
       <r>   -0.9480    1.0000 </r>
       <r>   -0.2949    0.9999 </r>
       <r>   -0.0070    0.3736 </r>
       <r>    0.9013    0.0000 </r>
       <r>    1.3797    0.0000 </r>
       <r>    1.5237    0.0000 </r>
       <r>    1.6642    0.0000 </r>
       <r>    1.7891    0.0000 </r>
       <r>    1.9138    0.0000 </r>
       <r>    2.0728    0.0000 </r>
       <r>    2.2592    0.0000 </r>
       <r>    2.3905    0.0000 </r>
       <r>    2.5128    0.0000 </r>
       <r>    2.5350    0.0000 </r>
       <r>    2.7253    0.0000 </r>
       <r>    2.8053    0.0000 </r>
       <r>    2.8685    0.0000 </r>
      </set>
      <set comment="kpoint 10">
       <r>  -13.5086    1.0000 </r>
       <r>  -13.3453    1.0000 </r>
       <r>  -12.9485    1.0000 </r>
       <r>  -12.7915    1.0000 </r>
       <r>  -12.4037    1.0000 </r>
       <r>  -12.1561    1.0000 </r>
       <r>  -11.7565    1.0000 </r>
       <r>  -11.6953    1.0000 </r>
       <r>  -11.4293    1.0000 </r>
       <r>  -11.1140    1.0000 </r>
       <r>  -10.9452    1.0000 </r>
       <r>  -10.7317    1.0000 </r>
       <r>   -8.7721    1.0000 </r>
       <r>   -8.1555    1.0000 </r>
       <r>   -7.4453    1.0000 </r>
       <r>   -6.9039    1.0000 </r>
       <r>   -6.7915    1.0000 </r>
       <r>   -6.6369    1.0000 </r>
       <r>   -6.5098    1.0000 </r>
       <r>   -6.1294    1.0000 </r>
       <r>   -5.7798    1.0000 </r>
       <r>   -5.3672    1.0000 </r>
       <r>   -4.9738    1.0000 </r>
       <r>   -4.9031    1.0000 </r>
       <r>   -4.5174    1.0000 </r>
       <r>   -4.4304    1.0000 </r>
       <r>   -4.3845    1.0000 </r>
       <r>   -4.1185    1.0000 </r>
       <r>   -4.0277    1.0000 </r>
       <r>   -3.7907    1.0000 </r>
       <r>   -3.6526    1.0000 </r>
       <r>   -3.5467    1.0000 </r>
       <r>   -3.4038    1.0000 </r>
       <r>   -3.2520    1.0000 </r>
       <r>   -3.1566    1.0000 </r>
       <r>   -3.0924    1.0000 </r>
       <r>   -3.0264    1.0000 </r>
       <r>   -2.9546    1.0000 </r>
       <r>   -2.8340    1.0000 </r>
       <r>   -2.7209    1.0000 </r>
       <r>   -2.5899    1.0000 </r>
       <r>   -2.4448    1.0000 </r>
       <r>   -2.2963    1.0000 </r>
       <r>   -2.1731    1.0000 </r>
       <r>   -2.0891    1.0000 </r>
       <r>   -2.0167    1.0000 </r>
       <r>   -1.9615    1.0000 </r>
       <r>   -1.6155    1.0000 </r>
       <r>   -1.3271    1.0000 </r>
       <r>   -1.2653    1.0000 </r>
       <r>   -1.0467    1.0000 </r>
       <r>   -0.9698    1.0000 </r>
       <r>   -0.2138    0.9954 </r>
       <r>   -0.0039    0.3571 </r>
       <r>    1.0687    0.0000 </r>
       <r>    1.4751    0.0000 </r>
       <r>    1.6263    0.0000 </r>
       <r>    1.8740    0.0000 </r>
       <r>    1.9721    0.0000 </r>
       <r>    2.1187    0.0000 </r>
       <r>    2.2865    0.0000 </r>
       <r>    2.5877    0.0000 </r>
       <r>    2.6440    0.0000 </r>
       <r>    2.7602    0.0000 </r>
       <r>    2.8781    0.0000 </r>
       <r>    2.9441    0.0000 </r>
       <r>    2.9918    0.0000 </r>
       <r>    3.1216    0.0000 </r>
      </set>
      <set comment="kpoint 11">
       <r>  -13.3338    1.0000 </r>
       <r>  -13.0347    1.0000 </r>
       <r>  -12.6967    1.0000 </r>
       <r>  -12.5266    1.0000 </r>
       <r>  -12.1359    1.0000 </r>
       <r>  -11.8883    1.0000 </r>
       <r>  -11.5148    1.0000 </r>
       <r>  -11.4218    1.0000 </r>
       <r>  -11.2077    1.0000 </r>
       <r>  -10.8674    1.0000 </r>
       <r>  -10.7279    1.0000 </r>
       <r>  -10.4882    1.0000 </r>
       <r>   -8.9035    1.0000 </r>
       <r>   -8.1377    1.0000 </r>
       <r>   -7.5307    1.0000 </r>
       <r>   -7.0548    1.0000 </r>
       <r>   -6.8301    1.0000 </r>
       <r>   -6.7783    1.0000 </r>
       <r>   -6.5136    1.0000 </r>
       <r>   -6.3833    1.0000 </r>
       <r>   -5.9483    1.0000 </r>
       <r>   -5.5366    1.0000 </r>
       <r>   -5.3436    1.0000 </r>
       <r>   -5.2017    1.0000 </r>
       <r>   -5.1559    1.0000 </r>
       <r>   -4.8109    1.0000 </r>
       <r>   -4.7872    1.0000 </r>
       <r>   -4.6815    1.0000 </r>
       <r>   -4.4850    1.0000 </r>
       <r>   -4.1688    1.0000 </r>
       <r>   -4.1039    1.0000 </r>
       <r>   -3.9341    1.0000 </r>
       <r>   -3.8767    1.0000 </r>
       <r>   -3.6963    1.0000 </r>
       <r>   -3.4583    1.0000 </r>
       <r>   -3.3475    1.0000 </r>
       <r>   -3.2907    1.0000 </r>
       <r>   -3.2213    1.0000 </r>
       <r>   -2.9310    1.0000 </r>
       <r>   -2.7949    1.0000 </r>
       <r>   -2.7193    1.0000 </r>
       <r>   -2.6560    1.0000 </r>
       <r>   -2.5293    1.0000 </r>
       <r>   -2.2530    1.0000 </r>
       <r>   -2.1201    1.0000 </r>
       <r>   -2.0380    1.0000 </r>
       <r>   -1.9102    1.0000 </r>
       <r>   -1.8880    1.0000 </r>
       <r>   -1.5157    1.0000 </r>
       <r>   -1.4524    1.0000 </r>
       <r>   -1.1654    1.0000 </r>
       <r>   -0.9936    1.0000 </r>
       <r>   -0.1888    0.9877 </r>
       <r>   -0.0741    0.7346 </r>
       <r>    0.5474    0.0000 </r>
       <r>    1.0600    0.0000 </r>
       <r>    1.2388    0.0000 </r>
       <r>    1.3401    0.0000 </r>
       <r>    1.4877    0.0000 </r>
       <r>    1.8983    0.0000 </r>
       <r>    2.0135    0.0000 </r>
       <r>    2.2122    0.0000 </r>
       <r>    2.4376    0.0000 </r>
       <r>    2.5840    0.0000 </r>
       <r>    2.7169    0.0000 </r>
       <r>    2.9150    0.0000 </r>
       <r>    3.1200    0.0000 </r>
       <r>    3.1610    0.0000 </r>
      </set>
      <set comment="kpoint 12">
       <r>  -13.1386    1.0000 </r>
       <r>  -12.6186    1.0000 </r>
       <r>  -12.3372    1.0000 </r>
       <r>  -12.1521    1.0000 </r>
       <r>  -11.7842    1.0000 </r>
       <r>  -11.5365    1.0000 </r>
       <r>  -11.2207    1.0000 </r>
       <r>  -11.1095    1.0000 </r>
       <r>  -10.9444    1.0000 </r>
       <r>  -10.5750    1.0000 </r>
       <r>  -10.5225    1.0000 </r>
       <r>  -10.1781    1.0000 </r>
       <r>   -9.1030    1.0000 </r>
       <r>   -8.2022    1.0000 </r>
       <r>   -7.8432    1.0000 </r>
       <r>   -7.5432    1.0000 </r>
       <r>   -7.2435    1.0000 </r>
       <r>   -7.0969    1.0000 </r>
       <r>   -7.0807    1.0000 </r>
       <r>   -6.5674    1.0000 </r>
       <r>   -6.3164    1.0000 </r>
       <r>   -6.0559    1.0000 </r>
       <r>   -5.9789    1.0000 </r>
       <r>   -5.5103    1.0000 </r>
       <r>   -5.4642    1.0000 </r>
       <r>   -5.0759    1.0000 </r>
       <r>   -5.0127    1.0000 </r>
       <r>   -4.7316    1.0000 </r>
       <r>   -4.5716    1.0000 </r>
       <r>   -4.4776    1.0000 </r>
       <r>   -4.3392    1.0000 </r>
       <r>   -4.1848    1.0000 </r>
       <r>   -4.1360    1.0000 </r>
       <r>   -3.9561    1.0000 </r>
       <r>   -3.5461    1.0000 </r>
       <r>   -3.4685    1.0000 </r>
       <r>   -3.2208    1.0000 </r>
       <r>   -3.1207    1.0000 </r>
       <r>   -2.9987    1.0000 </r>
       <r>   -2.9366    1.0000 </r>
       <r>   -2.7602    1.0000 </r>
       <r>   -2.6449    1.0000 </r>
       <r>   -2.5354    1.0000 </r>
       <r>   -2.4069    1.0000 </r>
       <r>   -2.3061    1.0000 </r>
       <r>   -2.0887    1.0000 </r>
       <r>   -2.0145    1.0000 </r>
       <r>   -1.9330    1.0000 </r>
       <r>   -1.8667    1.0000 </r>
       <r>   -1.7026    1.0000 </r>
       <r>   -1.4361    1.0000 </r>
       <r>   -0.8802    1.0000 </r>
       <r>   -0.4362    1.0000 </r>
       <r>   -0.1835    0.9852 </r>
       <r>    0.2450    0.0001 </r>
       <r>    0.3749    0.0000 </r>
       <r>    0.7005    0.0000 </r>
       <r>    1.1085    0.0000 </r>
       <r>    1.1955    0.0000 </r>
       <r>    1.2289    0.0000 </r>
       <r>    1.9368    0.0000 </r>
       <r>    2.0558    0.0000 </r>
       <r>    2.1804    0.0000 </r>
       <r>    2.3287    0.0000 </r>
       <r>    2.4901    0.0000 </r>
       <r>    2.6417    0.0000 </r>
       <r>    2.8573    0.0000 </r>
       <r>    3.0102    0.0000 </r>
      </set>
      <set comment="kpoint 13">
       <r>  -12.9663    1.0000 </r>
       <r>  -12.1156    1.0000 </r>
       <r>  -11.8865    1.0000 </r>
       <r>  -11.6926    1.0000 </r>
       <r>  -11.3881    1.0000 </r>
       <r>  -11.1468    1.0000 </r>
       <r>  -10.9281    1.0000 </r>
       <r>  -10.8524    1.0000 </r>
       <r>  -10.7347    1.0000 </r>
       <r>  -10.5990    1.0000 </r>
       <r>  -10.3471    1.0000 </r>
       <r>   -9.8641    1.0000 </r>
       <r>   -9.0931    1.0000 </r>
       <r>   -8.4014    1.0000 </r>
       <r>   -8.2468    1.0000 </r>
       <r>   -8.0774    1.0000 </r>
       <r>   -7.9091    1.0000 </r>
       <r>   -7.6823    1.0000 </r>
       <r>   -7.4920    1.0000 </r>
       <r>   -7.0422    1.0000 </r>
       <r>   -6.8310    1.0000 </r>
       <r>   -6.7867    1.0000 </r>
       <r>   -6.5592    1.0000 </r>
       <r>   -5.5600    1.0000 </r>
       <r>   -5.4741    1.0000 </r>
       <r>   -5.1204    1.0000 </r>
       <r>   -4.9184    1.0000 </r>
       <r>   -4.6938    1.0000 </r>
       <r>   -4.5623    1.0000 </r>
       <r>   -4.4133    1.0000 </r>
       <r>   -4.2477    1.0000 </r>
       <r>   -4.1254    1.0000 </r>
       <r>   -3.9931    1.0000 </r>
       <r>   -3.9566    1.0000 </r>
       <r>   -3.4831    1.0000 </r>
       <r>   -3.4430    1.0000 </r>
       <r>   -3.4131    1.0000 </r>
       <r>   -3.2523    1.0000 </r>
       <r>   -3.1749    1.0000 </r>
       <r>   -3.0634    1.0000 </r>
       <r>   -2.9251    1.0000 </r>
       <r>   -2.8074    1.0000 </r>
       <r>   -2.5912    1.0000 </r>
       <r>   -2.4487    1.0000 </r>
       <r>   -2.3899    1.0000 </r>
       <r>   -2.3188    1.0000 </r>
       <r>   -2.2086    1.0000 </r>
       <r>   -2.1742    1.0000 </r>
       <r>   -1.9730    1.0000 </r>
       <r>   -1.6051    1.0000 </r>
       <r>   -1.5776    1.0000 </r>
       <r>   -0.8987    1.0000 </r>
       <r>   -0.6606    1.0000 </r>
       <r>   -0.2978    0.9999 </r>
       <r>   -0.0819    0.7695 </r>
       <r>    0.1319    0.0111 </r>
       <r>    0.3244    0.0000 </r>
       <r>    0.8177    0.0000 </r>
       <r>    1.0797    0.0000 </r>
       <r>    1.2146    0.0000 </r>
       <r>    1.6897    0.0000 </r>
       <r>    1.8043    0.0000 </r>
       <r>    1.9175    0.0000 </r>
       <r>    2.0389    0.0000 </r>
       <r>    2.4528    0.0000 </r>
       <r>    2.5313    0.0000 </r>
       <r>    2.6517    0.0000 </r>
       <r>    2.7829    0.0000 </r>
      </set>
      <set comment="kpoint 14">
       <r>  -12.8637    1.0000 </r>
       <r>  -11.5663    1.0000 </r>
       <r>  -11.3905    1.0000 </r>
       <r>  -11.2308    1.0000 </r>
       <r>  -11.0987    1.0000 </r>
       <r>  -10.9963    1.0000 </r>
       <r>  -10.8663    1.0000 </r>
       <r>  -10.8279    1.0000 </r>
       <r>  -10.7885    1.0000 </r>
       <r>  -10.7154    1.0000 </r>
       <r>  -10.2790    1.0000 </r>
       <r>   -9.6704    1.0000 </r>
       <r>   -8.7344    1.0000 </r>
       <r>   -8.6857    1.0000 </r>
       <r>   -8.5310    1.0000 </r>
       <r>   -8.4626    1.0000 </r>
       <r>   -8.3023    1.0000 </r>
       <r>   -7.8248    1.0000 </r>
       <r>   -7.6525    1.0000 </r>
       <r>   -7.5475    1.0000 </r>
       <r>   -7.4496    1.0000 </r>
       <r>   -7.2654    1.0000 </r>
       <r>   -7.0617    1.0000 </r>
       <r>   -5.5445    1.0000 </r>
       <r>   -5.1525    1.0000 </r>
       <r>   -5.0524    1.0000 </r>
       <r>   -4.6782    1.0000 </r>
       <r>   -4.6055    1.0000 </r>
       <r>   -4.3911    1.0000 </r>
       <r>   -4.2825    1.0000 </r>
       <r>   -4.1340    1.0000 </r>
       <r>   -4.0597    1.0000 </r>
       <r>   -4.0204    1.0000 </r>
       <r>   -3.7964    1.0000 </r>
       <r>   -3.7514    1.0000 </r>
       <r>   -3.6605    1.0000 </r>
       <r>   -3.6346    1.0000 </r>
       <r>   -3.3969    1.0000 </r>
       <r>   -3.3347    1.0000 </r>
       <r>   -3.1228    1.0000 </r>
       <r>   -3.0844    1.0000 </r>
       <r>   -2.7842    1.0000 </r>
       <r>   -2.7291    1.0000 </r>
       <r>   -2.6577    1.0000 </r>
       <r>   -2.5171    1.0000 </r>
       <r>   -2.3541    1.0000 </r>
       <r>   -2.2415    1.0000 </r>
       <r>   -2.2163    1.0000 </r>
       <r>   -1.8238    1.0000 </r>
       <r>   -1.6779    1.0000 </r>
       <r>   -1.4362    1.0000 </r>
       <r>   -1.1498    1.0000 </r>
       <r>   -0.6623    1.0000 </r>
       <r>   -0.3433    1.0000 </r>
       <r>   -0.1353    0.9321 </r>
       <r>    0.0005    0.3341 </r>
       <r>    0.1158    0.0197 </r>
       <r>    0.7186    0.0000 </r>
       <r>    1.3002    0.0000 </r>
       <r>    1.3796    0.0000 </r>
       <r>    1.4417    0.0000 </r>
       <r>    1.6453    0.0000 </r>
       <r>    1.8051    0.0000 </r>
       <r>    1.9985    0.0000 </r>
       <r>    2.2856    0.0000 </r>
       <r>    2.3672    0.0000 </r>
       <r>    2.4594    0.0000 </r>
       <r>    2.5902    0.0000 </r>
      </set>
      <set comment="kpoint 15">
       <r>  -12.8653    1.0000 </r>
       <r>  -11.6685    1.0000 </r>
       <r>  -11.2236    1.0000 </r>
       <r>  -11.1982    1.0000 </r>
       <r>  -11.0734    1.0000 </r>
       <r>  -10.9383    1.0000 </r>
       <r>  -10.8904    1.0000 </r>
       <r>  -10.8745    1.0000 </r>
       <r>  -10.8316    1.0000 </r>
       <r>  -10.7769    1.0000 </r>
       <r>  -10.2736    1.0000 </r>
       <r>   -9.6683    1.0000 </r>
       <r>   -8.9268    1.0000 </r>
       <r>   -8.8872    1.0000 </r>
       <r>   -8.5679    1.0000 </r>
       <r>   -8.1150    1.0000 </r>
       <r>   -8.0741    1.0000 </r>
       <r>   -7.7895    1.0000 </r>
       <r>   -7.7370    1.0000 </r>
       <r>   -7.4795    1.0000 </r>
       <r>   -7.4105    1.0000 </r>
       <r>   -7.3480    1.0000 </r>
       <r>   -7.1794    1.0000 </r>
       <r>   -5.4696    1.0000 </r>
       <r>   -5.0250    1.0000 </r>
       <r>   -4.8753    1.0000 </r>
       <r>   -4.7418    1.0000 </r>
       <r>   -4.7067    1.0000 </r>
       <r>   -4.5023    1.0000 </r>
       <r>   -4.2586    1.0000 </r>
       <r>   -4.1637    1.0000 </r>
       <r>   -4.1321    1.0000 </r>
       <r>   -4.0163    1.0000 </r>
       <r>   -3.9836    1.0000 </r>
       <r>   -3.9224    1.0000 </r>
       <r>   -3.7818    1.0000 </r>
       <r>   -3.4928    1.0000 </r>
       <r>   -3.4474    1.0000 </r>
       <r>   -3.3776    1.0000 </r>
       <r>   -3.1896    1.0000 </r>
       <r>   -2.9345    1.0000 </r>
       <r>   -2.8246    1.0000 </r>
       <r>   -2.6760    1.0000 </r>
       <r>   -2.5808    1.0000 </r>
       <r>   -2.4983    1.0000 </r>
       <r>   -2.3035    1.0000 </r>
       <r>   -2.2292    1.0000 </r>
       <r>   -2.1335    1.0000 </r>
       <r>   -1.8264    1.0000 </r>
       <r>   -1.6253    1.0000 </r>
       <r>   -1.4445    1.0000 </r>
       <r>   -1.1112    1.0000 </r>
       <r>   -0.7451    1.0000 </r>
       <r>   -0.2767    0.9998 </r>
       <r>   -0.1651    0.9722 </r>
       <r>    0.0458    0.1426 </r>
       <r>    0.1706    0.0023 </r>
       <r>    0.8423    0.0000 </r>
       <r>    1.2497    0.0000 </r>
       <r>    1.5303    0.0000 </r>
       <r>    1.6346    0.0000 </r>
       <r>    1.6626    0.0000 </r>
       <r>    1.9808    0.0000 </r>
       <r>    2.0993    0.0000 </r>
       <r>    2.2339    0.0000 </r>
       <r>    2.2638    0.0000 </r>
       <r>    2.4339    0.0000 </r>
       <r>    2.4891    0.0000 </r>
      </set>
      <set comment="kpoint 16">
       <r>  -12.9727    1.0000 </r>
       <r>  -12.2350    1.0000 </r>
       <r>  -11.6508    1.0000 </r>
       <r>  -11.6123    1.0000 </r>
       <r>  -11.3884    1.0000 </r>
       <r>  -11.1609    1.0000 </r>
       <r>  -11.0587    1.0000 </r>
       <r>  -10.9441    1.0000 </r>
       <r>  -10.7587    1.0000 </r>
       <r>  -10.5824    1.0000 </r>
       <r>  -10.3636    1.0000 </r>
       <r>   -9.8686    1.0000 </r>
       <r>   -8.8738    1.0000 </r>
       <r>   -8.6473    1.0000 </r>
       <r>   -8.6234    1.0000 </r>
       <r>   -7.7603    1.0000 </r>
       <r>   -7.5956    1.0000 </r>
       <r>   -7.5516    1.0000 </r>
       <r>   -7.4600    1.0000 </r>
       <r>   -7.0557    1.0000 </r>
       <r>   -6.9342    1.0000 </r>
       <r>   -6.8010    1.0000 </r>
       <r>   -6.7150    1.0000 </r>
       <r>   -5.4077    1.0000 </r>
       <r>   -5.1956    1.0000 </r>
       <r>   -5.0642    1.0000 </r>
       <r>   -4.9747    1.0000 </r>
       <r>   -4.7564    1.0000 </r>
       <r>   -4.5493    1.0000 </r>
       <r>   -4.4699    1.0000 </r>
       <r>   -4.4095    1.0000 </r>
       <r>   -4.3331    1.0000 </r>
       <r>   -4.2109    1.0000 </r>
       <r>   -3.9081    1.0000 </r>
       <r>   -3.8506    1.0000 </r>
       <r>   -3.5410    1.0000 </r>
       <r>   -3.4212    1.0000 </r>
       <r>   -3.3136    1.0000 </r>
       <r>   -3.1699    1.0000 </r>
       <r>   -3.0696    1.0000 </r>
       <r>   -2.8902    1.0000 </r>
       <r>   -2.6832    1.0000 </r>
       <r>   -2.5653    1.0000 </r>
       <r>   -2.5542    1.0000 </r>
       <r>   -2.3622    1.0000 </r>
       <r>   -2.2013    1.0000 </r>
       <r>   -2.0740    1.0000 </r>
       <r>   -1.9797    1.0000 </r>
       <r>   -1.9344    1.0000 </r>
       <r>   -1.5437    1.0000 </r>
       <r>   -1.4582    1.0000 </r>
       <r>   -0.8801    1.0000 </r>
       <r>   -0.7900    1.0000 </r>
       <r>   -0.3162    1.0000 </r>
       <r>    0.0159    0.2590 </r>
       <r>    0.1779    0.0017 </r>
       <r>    0.4082    0.0000 </r>
       <r>    1.1447    0.0000 </r>
       <r>    1.2668    0.0000 </r>
       <r>    1.6461    0.0000 </r>
       <r>    1.7748    0.0000 </r>
       <r>    1.9915    0.0000 </r>
       <r>    2.1347    0.0000 </r>
       <r>    2.1910    0.0000 </r>
       <r>    2.2805    0.0000 </r>
       <r>    2.2988    0.0000 </r>
       <r>    2.4706    0.0000 </r>
       <r>    2.5841    0.0000 </r>
      </set>
      <set comment="kpoint 17">
       <r>  -13.1531    1.0000 </r>
       <r>  -12.7290    1.0000 </r>
       <r>  -12.0839    1.0000 </r>
       <r>  -12.0715    1.0000 </r>
       <r>  -11.7892    1.0000 </r>
       <r>  -11.5406    1.0000 </r>
       <r>  -11.3691    1.0000 </r>
       <r>  -11.2898    1.0000 </r>
       <r>  -10.9035    1.0000 </r>
       <r>  -10.5983    1.0000 </r>
       <r>  -10.5517    1.0000 </r>
       <r>  -10.1781    1.0000 </r>
       <r>   -8.6877    1.0000 </r>
       <r>   -8.3216    1.0000 </r>
       <r>   -8.1695    1.0000 </r>
       <r>   -7.4508    1.0000 </r>
       <r>   -7.1360    1.0000 </r>
       <r>   -7.0084    1.0000 </r>
       <r>   -6.9672    1.0000 </r>
       <r>   -6.6607    1.0000 </r>
       <r>   -6.2813    1.0000 </r>
       <r>   -6.1131    1.0000 </r>
       <r>   -6.1010    1.0000 </r>
       <r>   -5.3433    1.0000 </r>
       <r>   -5.2781    1.0000 </r>
       <r>   -5.1485    1.0000 </r>
       <r>   -5.0157    1.0000 </r>
       <r>   -4.7790    1.0000 </r>
       <r>   -4.6292    1.0000 </r>
       <r>   -4.5005    1.0000 </r>
       <r>   -4.4337    1.0000 </r>
       <r>   -4.3678    1.0000 </r>
       <r>   -4.2374    1.0000 </r>
       <r>   -3.9019    1.0000 </r>
       <r>   -3.5995    1.0000 </r>
       <r>   -3.5443    1.0000 </r>
       <r>   -3.2715    1.0000 </r>
       <r>   -3.2014    1.0000 </r>
       <r>   -3.0278    1.0000 </r>
       <r>   -2.9360    1.0000 </r>
       <r>   -2.8296    1.0000 </r>
       <r>   -2.7583    1.0000 </r>
       <r>   -2.4986    1.0000 </r>
       <r>   -2.3080    1.0000 </r>
       <r>   -2.1548    1.0000 </r>
       <r>   -2.0398    1.0000 </r>
       <r>   -1.9836    1.0000 </r>
       <r>   -1.8637    1.0000 </r>
       <r>   -1.8162    1.0000 </r>
       <r>   -1.5238    1.0000 </r>
       <r>   -1.4205    1.0000 </r>
       <r>   -0.8260    1.0000 </r>
       <r>   -0.5392    1.0000 </r>
       <r>   -0.2376    0.9984 </r>
       <r>    0.2819    0.0000 </r>
       <r>    0.4620    0.0000 </r>
       <r>    0.7225    0.0000 </r>
       <r>    1.5105    0.0000 </r>
       <r>    1.6054    0.0000 </r>
       <r>    1.7847    0.0000 </r>
       <r>    1.8601    0.0000 </r>
       <r>    2.1236    0.0000 </r>
       <r>    2.2462    0.0000 </r>
       <r>    2.3046    0.0000 </r>
       <r>    2.5353    0.0000 </r>
       <r>    2.5544    0.0000 </r>
       <r>    2.6284    0.0000 </r>
       <r>    2.8582    0.0000 </r>
      </set>
      <set comment="kpoint 18">
       <r>  -13.3550    1.0000 </r>
       <r>  -13.1241    1.0000 </r>
       <r>  -12.4818    1.0000 </r>
       <r>  -12.4409    1.0000 </r>
       <r>  -12.1419    1.0000 </r>
       <r>  -11.8866    1.0000 </r>
       <r>  -11.6675    1.0000 </r>
       <r>  -11.6045    1.0000 </r>
       <r>  -11.1604    1.0000 </r>
       <r>  -10.8812    1.0000 </r>
       <r>  -10.7298    1.0000 </r>
       <r>  -10.4816    1.0000 </r>
       <r>   -8.5319    1.0000 </r>
       <r>   -7.9366    1.0000 </r>
       <r>   -7.9085    1.0000 </r>
       <r>   -7.1852    1.0000 </r>
       <r>   -6.8307    1.0000 </r>
       <r>   -6.7724    1.0000 </r>
       <r>   -6.5247    1.0000 </r>
       <r>   -6.3616    1.0000 </r>
       <r>   -5.8681    1.0000 </r>
       <r>   -5.5978    1.0000 </r>
       <r>   -5.4659    1.0000 </r>
       <r>   -5.2987    1.0000 </r>
       <r>   -4.9665    1.0000 </r>
       <r>   -4.9260    1.0000 </r>
       <r>   -4.7327    1.0000 </r>
       <r>   -4.6450    1.0000 </r>
       <r>   -4.3437    1.0000 </r>
       <r>   -4.3079    1.0000 </r>
       <r>   -4.0497    1.0000 </r>
       <r>   -3.9268    1.0000 </r>
       <r>   -3.8278    1.0000 </r>
       <r>   -3.7151    1.0000 </r>
       <r>   -3.5900    1.0000 </r>
       <r>   -3.5755    1.0000 </r>
       <r>   -3.2447    1.0000 </r>
       <r>   -3.1200    1.0000 </r>
       <r>   -3.0007    1.0000 </r>
       <r>   -2.8129    1.0000 </r>
       <r>   -2.7123    1.0000 </r>
       <r>   -2.6185    1.0000 </r>
       <r>   -2.5204    1.0000 </r>
       <r>   -2.1153    1.0000 </r>
       <r>   -2.0271    1.0000 </r>
       <r>   -1.9396    1.0000 </r>
       <r>   -1.9157    1.0000 </r>
       <r>   -1.8456    1.0000 </r>
       <r>   -1.5847    1.0000 </r>
       <r>   -1.5367    1.0000 </r>
       <r>   -1.2022    1.0000 </r>
       <r>   -0.9028    1.0000 </r>
       <r>   -0.2088    0.9943 </r>
       <r>   -0.1199    0.8987 </r>
       <r>    0.5844    0.0000 </r>
       <r>    1.0044    0.0000 </r>
       <r>    1.2382    0.0000 </r>
       <r>    1.7050    0.0000 </r>
       <r>    1.8721    0.0000 </r>
[...]
       <r>    2.7052    0.0000 </r>
      </set>
      <set comment="kpoint 54">
       <r>  -12.8644    1.0000 </r>
       <r>  -11.6240    1.0000 </r>
       <r>  -11.2973    1.0000 </r>
       <r>  -11.2274    1.0000 </r>
       <r>  -11.0899    1.0000 </r>
       <r>  -10.9810    1.0000 </r>
       <r>  -10.8694    1.0000 </r>
       <r>  -10.8503    1.0000 </r>
       <r>  -10.7838    1.0000 </r>
       <r>  -10.7552    1.0000 </r>
       <r>  -10.2766    1.0000 </r>
       <r>   -9.6695    1.0000 </r>
       <r>   -8.8366    1.0000 </r>
       <r>   -8.7954    1.0000 </r>
       <r>   -8.5744    1.0000 </r>
       <r>   -8.2535    1.0000 </r>
       <r>   -8.1827    1.0000 </r>
       <r>   -7.8368    1.0000 </r>
       <r>   -7.6954    1.0000 </r>
       <r>   -7.5141    1.0000 </r>
       <r>   -7.4238    1.0000 </r>
       <r>   -7.2970    1.0000 </r>
       <r>   -7.1064    1.0000 </r>
       <r>   -5.4768    1.0000 </r>
       <r>   -5.1023    1.0000 </r>
       <r>   -5.0660    1.0000 </r>
       <r>   -4.7256    1.0000 </r>
       <r>   -4.6092    1.0000 </r>
       <r>   -4.4347    1.0000 </r>
       <r>   -4.2385    1.0000 </r>
       <r>   -4.1599    1.0000 </r>
       <r>   -4.0861    1.0000 </r>
       <r>   -4.0423    1.0000 </r>
       <r>   -3.8958    1.0000 </r>
       <r>   -3.7633    1.0000 </r>
       <r>   -3.6966    1.0000 </r>
       <r>   -3.5181    1.0000 </r>
       <r>   -3.3881    1.0000 </r>
       <r>   -3.3570    1.0000 </r>
       <r>   -3.2050    1.0000 </r>
       <r>   -3.1517    1.0000 </r>
       <r>   -2.8340    1.0000 </r>
       <r>   -2.7082    1.0000 </r>
       <r>   -2.5310    1.0000 </r>
       <r>   -2.4766    1.0000 </r>
       <r>   -2.3138    1.0000 </r>
       <r>   -2.2617    1.0000 </r>
       <r>   -2.1856    1.0000 </r>
       <r>   -1.8378    1.0000 </r>
       <r>   -1.6524    1.0000 </r>
       <r>   -1.4462    1.0000 </r>
       <r>   -1.1268    1.0000 </r>
       <r>   -0.6948    1.0000 </r>
       <r>   -0.3171    1.0000 </r>
       <r>   -0.1324    0.9265 </r>
       <r>    0.0567    0.1105 </r>
       <r>    0.1455    0.0066 </r>
       <r>    0.7095    0.0000 </r>
       <r>    1.2286    0.0000 </r>
       <r>    1.4702    0.0000 </r>
       <r>    1.5249    0.0000 </r>
       <r>    1.7489    0.0000 </r>
       <r>    1.8157    0.0000 </r>
       <r>    1.9250    0.0000 </r>
       <r>    2.2226    0.0000 </r>
       <r>    2.2882    0.0000 </r>
       <r>    2.3693    0.0000 </r>
       <r>    2.6232    0.0000 </r>
      </set>
     </set>
    </set>
   </array>
  </eigenvalues>
  <separator name="orbital magnetization" >
   <v name="MAGDIPOLOUT">      0.00000000      0.00000000      0.00000000</v>
  </separator>
  <dos>
   <i name="efermi">     -0.02979539 </i>
   <total>
    <array>
     <dimension dim="1">gridpoints</dimension>
     <dimension dim="2">spin</dimension>
     <field>energy</field>
     <field>total</field>
     <field>integrated</field>
     <set>
      <set comment="spin 1">
       <r>   -14.7074     0.0000     0.0000 </r>
       <r>   -14.6444     0.0000     0.0000 </r>
       <r>   -14.5815     0.0000     0.0000 </r>
       <r>   -14.5185     0.0000     0.0000 </r>
       <r>   -14.4555     0.0000     0.0000 </r>
       <r>   -14.3925     0.0000     0.0000 </r>
       <r>   -14.3295     0.0000     0.0000 </r>
       <r>   -14.2666     0.0000     0.0000 </r>
       <r>   -14.2036     0.0000     0.0000 </r>
       <r>   -14.1406     0.0000     0.0000 </r>
       <r>   -14.0776     0.0000     0.0000 </r>
       <r>   -14.0146     0.0000     0.0000 </r>
       <r>   -13.9517     0.0003     0.0000 </r>
       <r>   -13.8887     0.0070     0.0005 </r>
       <r>   -13.8257     0.0842     0.0058 </r>
       <r>   -13.7627     0.5325     0.0393 </r>
       <r>   -13.6997     1.8368     0.1550 </r>
       <r>   -13.6368     3.6598     0.3855 </r>
       <r>   -13.5738     4.7025     0.6816 </r>
       <r>   -13.5108     4.5649     0.9691 </r>
       <r>   -13.4478     3.8873     1.2139 </r>
       <r>   -13.3848     3.5369     1.4367 </r>
       <r>   -13.3219     3.5124     1.6579 </r>
       <r>   -13.2589     3.0341     1.8490 </r>
       <r>   -13.1959     2.8946     2.0313 </r>
       <r>   -13.1329     3.8971     2.2767 </r>
       <r>   -13.0699     5.0040     2.5919 </r>
       <r>   -13.0070     5.8614     2.9610 </r>
       <r>   -12.9440     6.4914     3.3698 </r>
       <r>   -12.8810     6.3684     3.7709 </r>
       <r>   -12.8180     5.6933     4.1295 </r>
       <r>   -12.7550     5.0656     4.4485 </r>
       <r>   -12.6921     4.9954     4.7631 </r>
       <r>   -12.6291     5.0694     5.0824 </r>
       <r>   -12.5661     4.9179     5.3921 </r>
       <r>   -12.5031     4.6557     5.6853 </r>
       <r>   -12.4402     4.8204     5.9889 </r>
       <r>   -12.3772     5.3606     6.3265 </r>
       <r>   -12.3142     5.2910     6.6597 </r>
       <r>   -12.2512     4.9190     6.9695 </r>
       <r>   -12.1882     6.0251     7.3490 </r>
       <r>   -12.1253     7.9021     7.8467 </r>
       <r>   -12.0623     7.4656     8.3168 </r>
       <r>   -11.9993     5.6952     8.6755 </r>
       <r>   -11.9363     5.5393     9.0244 </r>
       <r>   -11.8733     6.6220     9.4414 </r>
       <r>   -11.8104     7.0821     9.8875 </r>
       <r>   -11.7474     7.1122    10.3354 </r>
       <r>   -11.6844     7.8948    10.8326 </r>
       <r>   -11.6214     9.0141    11.4003 </r>
       <r>   -11.5584     8.9752    11.9656 </r>
       <r>   -11.4955     7.6346    12.4464 </r>
       <r>   -11.4325     6.7649    12.8724 </r>
       <r>   -11.3695     7.3690    13.3365 </r>
       <r>   -11.3065     8.4171    13.8666 </r>
       <r>   -11.2435     9.7085    14.4781 </r>
       <r>   -11.1806    11.0443    15.1736 </r>
       <r>   -11.1176    11.6110    15.9049 </r>
       <r>   -11.0546    10.6147    16.5734 </r>
       <r>   -10.9916    10.1154    17.2104 </r>
       <r>   -10.9286    12.6977    18.0101 </r>
       <r>   -10.8657    14.8377    18.9446 </r>
       <r>   -10.8027    13.6197    19.8024 </r>
       <r>   -10.7397    11.2863    20.5132 </r>
       <r>   -10.6767     8.5611    21.0523 </r>
       <r>   -10.6137     6.4260    21.4571 </r>
       <r>   -10.5508     6.1345    21.8434 </r>
       <r>   -10.4878     5.4792    22.1885 </r>
       <r>   -10.4248     3.8722    22.4324 </r>
       <r>   -10.3618     3.0705    22.6257 </r>
       <r>   -10.2989     3.2624    22.8312 </r>
       <r>   -10.2359     3.2888    23.0383 </r>
       <r>   -10.1729     2.8057    23.2150 </r>
       <r>   -10.1099     1.8180    23.3295 </r>
       <r>   -10.0469     0.7392    23.3761 </r>
       <r>    -9.9840     0.3548    23.3984 </r>
       <r>    -9.9210     0.8528    23.4521 </r>
       <r>    -9.8580     1.6153    23.5539 </r>
       <r>    -9.7950     1.6156    23.6556 </r>
       <r>    -9.7320     1.3588    23.7412 </r>
       <r>    -9.6691     1.6625    23.8459 </r>
       <r>    -9.6061     1.5408    23.9429 </r>
       <r>    -9.5431     0.7251    23.9886 </r>
       <r>    -9.4801     0.1629    23.9989 </r>
       <r>    -9.4171     0.0173    23.9999 </r>
       <r>    -9.3542     0.0012    24.0000 </r>
       <r>    -9.2912     0.0082    24.0005 </r>
       <r>    -9.2282     0.0859    24.0060 </r>
       <r>    -9.1652     0.4469    24.0341 </r>
       <r>    -9.1022     1.2090    24.1102 </r>
       <r>    -9.0393     1.9156    24.2309 </r>
       <r>    -8.9763     2.4911    24.3878 </r>
       <r>    -8.9133     3.6887    24.6201 </r>
       <r>    -8.8503     4.9378    24.9311 </r>
       <r>    -8.7873     4.9380    25.2421 </r>
       <r>    -8.7244     4.2703    25.5110 </r>
       <r>    -8.6614     4.2022    25.7756 </r>
       <r>    -8.5984     4.8228    26.0794 </r>
       <r>    -8.5354     5.3105    26.4138 </r>
       <r>    -8.4724     4.6787    26.7085 </r>
       <r>    -8.4095     3.4218    26.9240 </r>
       <r>    -8.3465     3.1778    27.1241 </r>
       <r>    -8.2835     4.4267    27.4029 </r>
       <r>    -8.2205     6.5145    27.8132 </r>
       <r>    -8.1576     7.7957    28.3042 </r>
       <r>    -8.0946     6.6153    28.7208 </r>
       <r>    -8.0316     4.4507    29.0011 </r>
       <r>    -7.9686     4.0918    29.2588 </r>
       <r>    -7.9056     5.4580    29.6025 </r>
       <r>    -7.8427     6.4099    30.0062 </r>
       <r>    -7.7797     6.3697    30.4074 </r>
       <r>    -7.7167     5.9618    30.7829 </r>
       <r>    -7.6537     5.5953    31.1353 </r>
       <r>    -7.5907     6.0560    31.5167 </r>
       <r>    -7.5278     7.8739    32.0125 </r>
       <r>    -7.4648     8.9992    32.5793 </r>
       <r>    -7.4018     7.7630    33.0682 </r>
       <r>    -7.3388     5.5562    33.4181 </r>
       <r>    -7.2758     4.4284    33.6970 </r>
       <r>    -7.2129     4.7240    33.9946 </r>
       <r>    -7.1499     5.9546    34.3696 </r>
       <r>    -7.0869     7.8107    34.8615 </r>
       <r>    -7.0239     9.0447    35.4311 </r>
       <r>    -6.9609     8.7743    35.9837 </r>
       <r>    -6.8980     8.8327    36.5400 </r>
       <r>    -6.8350    10.3291    37.1905 </r>
       <r>    -6.7720    10.9809    37.8821 </r>
       <r>    -6.7090     9.3416    38.4704 </r>
       <r>    -6.6460     8.0185    38.9754 </r>
       <r>    -6.5831     8.2014    39.4919 </r>
       <r>    -6.5201     8.1973    40.0082 </r>
       <r>    -6.4571     7.1454    40.4582 </r>
       <r>    -6.3941     6.0242    40.8376 </r>
       <r>    -6.3312     5.6261    41.1919 </r>
       <r>    -6.2682     5.0376    41.5092 </r>
       <r>    -6.2052     3.8724    41.7531 </r>
       <r>    -6.1422     3.4352    41.9694 </r>
       <r>    -6.0792     3.9943    42.2210 </r>
       <r>    -6.0163     4.2602    42.4893 </r>
       <r>    -5.9533     4.3169    42.7612 </r>
       <r>    -5.8903     4.7871    43.0627 </r>
       <r>    -5.8273     4.8914    43.3707 </r>
       <r>    -5.7643     3.8035    43.6103 </r>
       <r>    -5.7014     2.4750    43.7661 </r>
       <r>    -5.6384     2.2724    43.9093 </r>
       <r>    -5.5754     3.9046    44.1552 </r>
       <r>    -5.5124     7.0880    44.6016 </r>
       <r>    -5.4494     9.7419    45.2151 </r>
       <r>    -5.3865     9.9262    45.8403 </r>
       <r>    -5.3235     8.2824    46.3619 </r>
       <r>    -5.2605     6.1426    46.7487 </r>
       <r>    -5.1975     5.2519    47.0795 </r>
       <r>    -5.1345     6.6888    47.5007 </r>
       <r>    -5.0716     8.9834    48.0665 </r>
       <r>    -5.0086    10.3831    48.7204 </r>
       <r>    -4.9456    10.3475    49.3721 </r>
       <r>    -4.8826     9.3465    49.9607 </r>
       <r>    -4.8196     9.1478    50.5369 </r>
       <r>    -4.7567    10.7812    51.2159 </r>
       <r>    -4.6937    12.3401    51.9930 </r>
       <r>    -4.6307    11.8260    52.7378 </r>
       <r>    -4.5677    10.0059    53.3680 </r>
       <r>    -4.5047     9.5146    53.9672 </r>
       <r>    -4.4418    10.9122    54.6545 </r>
       <r>    -4.3788    12.1317    55.4185 </r>
       <r>    -4.3158    12.3256    56.1948 </r>
       <r>    -4.2528    12.7592    56.9983 </r>
       <r>    -4.1899    14.0871    57.8855 </r>
       <r>    -4.1269    14.6542    58.8084 </r>
       <r>    -4.0639    13.5779    59.6636 </r>
       <r>    -4.0009    12.2539    60.4353 </r>
       <r>    -3.9379    11.9570    61.1884 </r>
       <r>    -3.8750    12.1878    61.9559 </r>
       <r>    -3.8120    12.3775    62.7355 </r>
       <r>    -3.7490    12.8460    63.5445 </r>
       <r>    -3.6860    12.7070    64.3448 </r>
       <r>    -3.6230    11.9776    65.0991 </r>
       <r>    -3.5601    12.2956    65.8735 </r>
       <r>    -3.4971    13.7217    66.7377 </r>
       <r>    -3.4341    14.7340    67.6656 </r>
       <r>    -3.3711    14.9648    68.6081 </r>
       <r>    -3.3081    15.3810    69.5768 </r>
       <r>    -3.2452    17.0146    70.6483 </r>
       <r>    -3.1822    18.6098    71.8204 </r>
       <r>    -3.1192    18.2285    72.9684 </r>
       <r>    -3.0562    16.2094    73.9893 </r>
       <r>    -2.9932    14.6330    74.9108 </r>
       <r>    -2.9303    14.3047    75.8117 </r>
       <r>    -2.8673    14.6380    76.7336 </r>
       <r>    -2.8043    15.2378    77.6933 </r>
       <r>    -2.7413    15.4583    78.6669 </r>
       <r>    -2.6783    15.5225    79.6445 </r>
       <r>    -2.6154    16.1946    80.6644 </r>
       <r>    -2.5524    17.5566    81.7701 </r>
       <r>    -2.4894    17.5881    82.8778 </r>
       <r>    -2.4264    15.1441    83.8315 </r>
       <r>    -2.3634    14.1461    84.7224 </r>
       <r>    -2.3005    16.4912    85.7611 </r>
       <r>    -2.2375    18.6781    86.9374 </r>
       <r>    -2.1745    18.9547    88.1311 </r>
       <r>    -2.1115    18.5189    89.2975 </r>
       <r>    -2.0486    18.2279    90.4454 </r>
       <r>    -1.9856    18.3713    91.6024 </r>
       <r>    -1.9226    18.4195    92.7625 </r>
       <r>    -1.8596    17.3432    93.8548 </r>
       <r>    -1.7966    14.2842    94.7544 </r>
       <r>    -1.7337    10.3062    95.4034 </r>
       <r>    -1.6707     8.6742    95.9497 </r>
       <r>    -1.6077    10.6318    96.6193 </r>
       <r>    -1.5447    13.6634    97.4798 </r>
       <r>    -1.4817    14.5786    98.3980 </r>
       <r>    -1.4188    12.9168    99.2115 </r>
       <r>    -1.3558     9.5894    99.8154 </r>
       <r>    -1.2928     6.9371   100.2523 </r>
       <r>    -1.2298     6.4389   100.6578 </r>
       <r>    -1.1668     7.3820   101.1227 </r>
       <r>    -1.1039     8.5217   101.6594 </r>
       <r>    -1.0409     8.8169   102.2147 </r>
       <r>    -0.9779     8.2134   102.7320 </r>
       <r>    -0.9149     7.3825   103.1969 </r>
       <r>    -0.8519     6.4139   103.6009 </r>
       <r>    -0.7890     5.1708   103.9265 </r>
       <r>    -0.7260     4.3739   104.2020 </r>
       <r>    -0.6630     3.6752   104.4335 </r>
       <r>    -0.6000     2.4775   104.5895 </r>
       <r>    -0.5370     1.6958   104.6963 </r>
       <r>    -0.4741     1.7651   104.8075 </r>
       <r>    -0.4111     2.5095   104.9655 </r>
       <r>    -0.3481     4.4308   105.2446 </r>
       <r>    -0.2851     7.1551   105.6952 </r>
       <r>    -0.2221     9.0386   106.2644 </r>
       <r>    -0.1592     9.4142   106.8573 </r>
       <r>    -0.0962     8.9041   107.4181 </r>
       <r>    -0.0332     8.7660   107.9702 </r>
       <r>     0.0298     8.2672   108.4908 </r>
       <r>     0.0927     6.5665   108.9044 </r>
       <r>     0.1557     5.2130   109.2327 </r>
       <r>     0.2187     4.4501   109.5130 </r>
       <r>     0.2817     3.7850   109.7513 </r>
       <r>     0.3447     3.5442   109.9746 </r>
       <r>     0.4076     3.5109   110.1957 </r>
       <r>     0.4706     3.3073   110.4040 </r>
       <r>     0.5336     3.1986   110.6054 </r>
       <r>     0.5966     3.1585   110.8043 </r>
       <r>     0.6596     3.1637   111.0036 </r>
       <r>     0.7225     3.5303   111.2259 </r>
       <r>     0.7855     3.4249   111.4416 </r>
       <r>     0.8485     3.0267   111.6322 </r>
       <r>     0.9115     3.2238   111.8352 </r>
       <r>     0.9745     3.9982   112.0870 </r>
       <r>     1.0374     5.3142   112.4217 </r>
       <r>     1.1004     6.5920   112.8369 </r>
       <r>     1.1634     7.4457   113.3058 </r>
       <r>     1.2264     8.4444   113.8376 </r>
       <r>     1.2894     8.9418   114.4008 </r>
       <r>     1.3523     8.1150   114.9119 </r>
       <r>     1.4153     7.7743   115.4015 </r>
       <r>     1.4783     8.8430   115.9584 </r>
       <r>     1.5413     9.7076   116.5698 </r>
       <r>     1.6043    10.0223   117.2010 </r>
       <r>     1.6672    10.4112   117.8567 </r>
       <r>     1.7302    10.3538   118.5088 </r>
       <r>     1.7932    10.5796   119.1751 </r>
       <r>     1.8562    11.8136   119.9191 </r>
       <r>     1.9192    13.2729   120.7550 </r>
       <r>     1.9821    13.7534   121.6212 </r>
       <r>     2.0451    13.4326   122.4671 </r>
       <r>     2.1081    13.4825   123.3163 </r>
       <r>     2.1711    14.1647   124.2084 </r>
       <r>     2.2340    15.1816   125.1645 </r>
       <r>     2.2970    14.9106   126.1035 </r>
       <r>     2.3600    13.1886   126.9341 </r>
       <r>     2.4230    12.4026   127.7153 </r>
       <r>     2.4860    13.7099   128.5787 </r>
       <r>     2.5489    16.1049   129.5930 </r>
       <r>     2.6119    17.0189   130.6648 </r>
       <r>     2.6749    15.1428   131.6185 </r>
       <r>     2.7379    12.3734   132.3978 </r>
       <r>     2.8009    10.7618   133.0755 </r>
       <r>     2.8638    10.3423   133.7269 </r>
       <r>     2.9268     9.5379   134.3276 </r>
       <r>     2.9898     7.7442   134.8153 </r>
       <r>     3.0528     6.1639   135.2035 </r>
       <r>     3.1158     5.2922   135.5368 </r>
       <r>     3.1787     4.1734   135.7996 </r>
       <r>     3.2417     2.2967   135.9443 </r>
       <r>     3.3047     0.7428   135.9911 </r>
       <r>     3.3677     0.1297   135.9992 </r>
       <r>     3.4307     0.0116   136.0000 </r>
       <r>     3.4936     0.0005   136.0000 </r>
       <r>     3.5566     0.0000   136.0000 </r>
       <r>     3.6196     0.0000   136.0000 </r>
       <r>     3.6826     0.0000   136.0000 </r>
       <r>     3.7456     0.0000   136.0000 </r>
       <r>     3.8085     0.0000   136.0000 </r>
       <r>     3.8715     0.0000   136.0000 </r>
       <r>     3.9345     0.0000   136.0000 </r>
       <r>     3.9975     0.0000   136.0000 </r>
       <r>     4.0604     0.0000   136.0000 </r>
       <r>     4.1234     0.0000   136.0000 </r>
       <r>     4.1864     0.0000   136.0000 </r>
      </set>
     </set>
    </array>
   </total>
  </dos>
 </calculation>
 <structure name="finalpos" >
  <crystal>
   <varray name="basis" >
    <v>       3.54040000       0.00000000       0.00000000 </v>
    <v>      -1.77020000      10.29434800       0.00000000 </v>
    <v>       0.00000000       0.00000000      27.50142900 </v>
   </varray>
   <i name="volume">   1002.32009712 </i>
   <varray name="rec_basis" >
    <v>       0.28245396       0.04857034       0.00000000 </v>
    <v>       0.00000000       0.09714068       0.00000000 </v>
    <v>       0.00000000       0.00000000       0.03636175 </v>
   </varray>
  </crystal>
  <varray name="positions" >
   <v>       0.11402300       0.22804500       0.23316207 </v>
   <v>       0.61402300       0.22804500       0.51499159 </v>
   <v>       0.45808900       0.91617900       0.20939482 </v>
   <v>       0.95808900       0.91617900       0.49122434 </v>
   <v>       0.31085400       0.62170900       0.08414979 </v>
   <v>       0.31085400       0.62170900       0.36597930 </v>
   <v>       0.99923000       0.99846000       0.08631254 </v>
   <v>       0.99923000       0.99846000       0.36814206 </v>
   <v>       0.65492700       0.30985400       0.06041748 </v>
   <v>       0.65492700       0.30985400       0.34224700 </v>
   <v>       0.76973800       0.53947500       0.20725292 </v>
   <v>       0.26973800       0.53947500       0.48908244 </v>
   <v>       0.93971600       0.87943300       0.15783749 </v>
   <v>       0.43971600       0.87943300       0.43966701 </v>
   <v>       0.20515200       0.41030300       0.18578822 </v>
   <v>       0.70515200       0.41030300       0.46761774 </v>
   <v>       0.20184900       0.40369900       0.09969156 </v>
   <v>       0.20184900       0.40369900       0.38152107 </v>
   <v>       0.56380500       0.12761000       0.10779021 </v>
   <v>       0.56380500       0.12761000       0.38961973 </v>
   <v>       0.56710600       0.13421200       0.19387616 </v>
   <v>       0.06710600       0.13421200       0.47570568 </v>
   <v>       0.82923400       0.65846800       0.13571444 </v>
   <v>       0.32923400       0.65846800       0.41754396 </v>
  </varray>
 </structure>
</modeling>
