   24   24    1    1
  0.4176334E+02  0.3540400E-09  0.1044544E-08  0.2750143E-08  0.5000000E-15
  1.000000000000000E-004
  CAR 
 unknown system                          
    108     54     68
 
  0.0000000E+00  0.0000000E+00  0.0000000E+00  0.9615385E-02
    1      -14.750826
    2      -13.545877
    3      -13.302033
    4      -12.809164
    5      -12.795937
    6      -12.486222
    7      -12.093314
    8      -11.747389
    9      -11.443658
   10      -11.427914
   11      -10.997034
   12      -10.025150
   13       -8.979376
   14       -8.181551
   15       -8.029715
   16       -7.832832
   17       -6.858569
   18       -6.833905
   19       -6.499212
   20       -6.056466
   21       -5.836637
   22       -5.590247
   23       -5.340018
   24       -4.756686
   25       -4.291882
   26       -4.162647
   27       -3.722313
   28       -3.631942
   29       -3.337520
   30       -3.102169
   31       -3.066343
   32       -3.050848
   33       -2.851794
   34       -2.847828
   35       -2.604236
   36       -2.511931
   37       -2.448095
   38       -2.392080
   39       -2.273878
   40       -2.083722
   41       -1.978551
   42       -1.881087
   43       -1.847457
   44       -1.736076
   45       -1.647541
   46       -1.594899
   47       -1.438311
   48       -1.400429
   49       -1.345629
   50       -1.097957
   51       -1.023926
   52       -0.779911
   53       -0.504581
   54        0.383466
   55        0.526529
   56        0.782134
   57        1.137570
   58        1.221156
   59        1.332579
   60        1.394437
   61        1.606258
   62        1.697972
   63        1.827071
   64        1.963853
   65        2.027930
   66        2.239917
   67        2.426929
   68        2.600891
 
  0.7692308E-01 -0.1387779E-16  0.0000000E+00  0.1923077E-01
    1      -14.692977
    2      -13.484525
    3      -13.246424
    4      -12.755980
    5      -12.737016
    6      -12.430628
    7      -12.031072
    8      -11.707321
    9      -11.391998
   10      -11.370506
   11      -10.948647
   12       -9.999449
   13       -8.962933
   14       -8.175433
   15       -8.068024
   16       -7.794756
   17       -6.845931
   18       -6.801944
   19       -6.493362
   20       -6.036557
   21       -5.803116
   22       -5.597844
   23       -5.452915
   24       -4.763256
   25       -4.607949
   26       -4.243182
   27       -3.771735
   28       -3.683303
   29       -3.563318
   30       -3.407000
   31       -3.268141
   32       -3.228839
   33       -3.152267
   34       -2.875732
   35       -2.825077
   36       -2.756792
   37       -2.632275
   38       -2.486203
   39       -2.388020
   40       -2.215190
   41       -2.110711
   42       -2.023203
   43       -1.970874
   44       -1.849349
   45       -1.826205
   46       -1.751609
   47       -1.527460
   48       -1.436947
   49       -1.279413
   50       -1.073109
   51       -0.989891
   52       -0.780045
   53       -0.503205
   54        0.409210
   55        0.581741
   56        0.909374
   57        1.169712
   58        1.416514
   59        1.560418
   60        1.708689
   61        1.761031
   62        2.046384
   63        2.132308
   64        2.223402
   65        2.261233
   66        2.406815
   67        2.608855
   68        2.712632
 
  0.1538462E+00 -0.2775558E-16  0.0000000E+00  0.1923077E-01
    1      -14.521248
    2      -13.301539
    3      -13.081131
    4      -12.599360
    5      -12.560611
    6      -12.265885
    7      -11.848655
    8      -11.588612
    9      -11.248154
   10      -11.199855
   11      -10.809813
   12       -9.938147
   13       -8.931815
   14       -8.190364
   15       -8.161979
   16       -7.752540
   17       -6.856292
   18       -6.726849
   19       -6.505267
   20       -6.054507
   21       -5.956628
   22       -5.728219
   23       -5.566817
   24       -5.020565
   25       -4.869936
   26       -4.419875
   27       -4.236161
   28       -4.187063
   29       -4.086064
   30       -3.971169
   31       -3.702252
   32       -3.583282
   33       -3.454645
   34       -3.294888
   35       -3.153573
   36       -2.992998
   37       -2.975591
   38       -2.941473
   39       -2.832621
   40       -2.653665
   41       -2.394952
   42       -2.319851
   43       -2.157464
   44       -1.970319
   45       -1.796609
   46       -1.779082
   47       -1.667789
   48       -1.434351
   49       -1.262250
   50       -1.097853
   51       -0.937841
   52       -0.797096
   53       -0.586916
   54        0.273357
   55        0.551769
   56        0.915900
   57        1.303728
   58        1.439345
   59        1.761458
   60        1.937894
   61        2.239767
   62        2.401522
   63        2.478639
   64        2.632679
   65        2.692510
   66        2.900661
   67        2.963281
   68        3.057487
 
  0.2307692E+00 -0.4163336E-16  0.0000000E+00  0.1923077E-01
    1      -14.242354
    2      -13.000505
    3      -12.811788
    4      -12.342784
    5      -12.275564
    6      -11.999252
    7      -11.561209
    8      -11.402879
    9      -11.030829
   10      -10.939730
   11      -10.606679
   12       -9.906429
   13       -8.936467
   14       -8.364721
   15       -8.297652
   16       -7.827389
   17       -7.039447
   18       -6.698532
   19       -6.638842
   20       -6.479166
   21       -6.139325
   22       -5.775649
   23       -5.728836
   24       -5.351601
   25       -5.313492
   26       -4.910263
   27       -4.810426
   28       -4.614078
   29       -4.526648
   30       -4.461286
   31       -4.190357
   32       -3.994753
   33       -3.806016
   34       -3.693006
   35       -3.491421
   36       -3.461355
   37       -3.102627
   38       -3.012092
   39       -2.982570
   40       -2.759129
   41       -2.592592
   42       -2.484359
   43       -2.427443
   44       -1.933393
   45       -1.868823
   46       -1.816364
   47       -1.730287
   48       -1.488254
   49       -1.434441
   50       -1.161215
   51       -1.037464
   52       -0.932799
   53       -0.781429
   54       -0.275448
   55        0.482750
   56        0.800238
   57        1.253892
   58        1.549439
   59        1.860646
   60        1.951684
   61        2.058340
   62        2.265941
   63        2.374256
   64        2.547172
   65        2.672478
   66        2.876197
   67        2.904250
   68        2.979661
 
  0.3076923E+00 -0.5551115E-16  0.0000000E+00  0.1923077E-01
    1      -13.872199
    2      -12.588775
    3      -12.452554
    4      -11.994374
    5      -11.906135
    6      -11.647716
    7      -11.213880
    8      -11.181583
    9      -10.786463
   10      -10.649357
   11      -10.420699
   12      -10.037802
   13       -8.969974
   14       -8.659609
   15       -8.596952
   16       -8.088924
   17       -7.302543
   18       -7.001142
   19       -6.905894
   20       -6.827303
   21       -6.636062
   22       -6.169825
   23       -5.976824
   24       -5.964857
   25       -5.487033
   26       -5.338116
   27       -5.203433
   28       -4.795507
   29       -4.707516
   30       -4.621433
   31       -4.323842
   32       -4.238607
   33       -4.220712
   34       -3.830049
   35       -3.555022
   36       -3.392816
   37       -3.179630
   38       -3.084454
   39       -3.039199
   40       -2.928944
   41       -2.763785
   42       -2.595575
   43       -2.480289
   44       -2.081772
   45       -1.987563
   46       -1.902413
   47       -1.878190
   48       -1.715775
   49       -1.532589
   50       -1.306459
   51       -1.143232
   52       -1.083029
   53       -1.000180
   54       -0.700610
   55        0.328479
   56        0.644672
   57        1.100214
   58        1.324523
   59        1.624295
   60        1.795006
   61        1.934511
   62        2.076489
   63        2.230026
   64        2.334842
   65        2.384301
   66        2.672756
   67        2.698493
   68        2.815463
 
  0.3846154E+00 -0.8326673E-16  0.0000000E+00  0.1923077E-01
    1      -13.451112
    2      -12.081451
    3      -12.042764
    4      -11.575401
    5      -11.536654
    6      -11.250688
    7      -11.050172
    8      -10.856091
    9      -10.631912
   10      -10.530993
   11      -10.460060
   12      -10.227795
   13       -8.992656
   14       -8.919115
   15       -8.834927
   16       -8.381601
   17       -7.631252
   18       -7.463675
   19       -7.421077
   20       -7.213389
   21       -6.983442
   22       -6.765759
   23       -6.666086
   24       -6.299328
   25       -5.625270
   26       -5.354006
   27       -5.206091
   28       -4.771623
   29       -4.617337
   30       -4.531035
   31       -4.280601
   32       -4.215050
   33       -4.088381
   34       -3.826844
   35       -3.657372
   36       -3.613997
   37       -3.275144
   38       -3.245376
   39       -3.166732
   40       -2.997704
   41       -2.793114
   42       -2.562189
   43       -2.499436
   44       -2.312600
   45       -2.200499
   46       -2.095509
   47       -2.030218
   48       -1.851932
   49       -1.615257
   50       -1.513605
   51       -1.417902
   52       -1.277003
   53       -0.997226
   54       -0.777955
   55        0.239609
   56        0.504406
   57        0.911201
   58        1.201752
   59        1.429833
   60        1.700795
   61        1.710269
   62        1.879993
   63        2.066097
   64        2.132571
   65        2.271009
   66        2.315565
   67        2.450162
   68        2.734811
 
  0.4615385E+00 -0.8326673E-16  0.0000000E+00  0.1923077E-01
    1      -13.101840
    2      -11.753176
    3      -11.506197
    4      -11.395472
    5      -11.152739
    6      -10.951434
    7      -10.945913
    8      -10.848205
    9      -10.735616
   10      -10.639396
   11      -10.578180
   12      -10.329038
   13       -9.183805
   14       -8.865372
   15       -8.693278
   16       -8.444161
   17       -8.084085
   18       -7.877039
   19       -7.577900
   20       -7.558892
   21       -7.292538
   22       -7.199549
   23       -7.179383
   24       -6.389873
   25       -5.612355
   26       -5.394228
   27       -4.928202
   28       -4.726050
   29       -4.519405
   30       -4.375618
   31       -4.246648
   32       -4.064499
   33       -3.945118
   34       -3.845262
   35       -3.823122
   36       -3.598373
   37       -3.559281
   38       -3.262182
   39       -3.195127
   40       -3.013560
   41       -2.896964
   42       -2.702471
   43       -2.663643
   44       -2.411030
   45       -2.340980
   46       -2.195319
   47       -2.113617
   48       -1.797604
   49       -1.709831
   50       -1.650561
   51       -1.522499
   52       -1.372002
   53       -0.988509
   54       -0.789381
   55        0.236495
   56        0.427544
   57        0.729925
   58        1.206150
   59        1.362119
   60        1.581010
   61        1.637840
   62        1.700091
   63        1.877122
   64        2.029635
   65        2.105297
   66        2.363118
   67        2.405789
   68        2.505754
 
  0.0000000E+00  0.2500000E+00  0.0000000E+00  0.1923077E-01
    1      -14.747320
    2      -13.490552
    3      -13.358756
    4      -12.980386
    5      -12.670828
    6      -12.484252
    7      -11.978541
    8      -11.874657
    9      -11.483369
   10      -11.244673
   11      -11.005623
   12      -10.001032
   13       -9.115574
   14       -8.520136
   15       -8.132309
   16       -7.382903
   17       -6.880340
   18       -6.676202
   19       -6.608804
   20       -6.059128
   21       -5.754546
   22       -5.578799
   23       -5.195761
   24       -4.659124
   25       -4.254978
   26       -4.097196
   27       -4.017636
   28       -3.585856
   29       -3.409693
   30       -3.304151
   31       -3.133139
   32       -3.081354
   33       -2.887824
   34       -2.715321
   35       -2.680389
   36       -2.519587
   37       -2.393748
   38       -2.374306
   39       -2.319718
   40       -2.159776
   41       -1.996191
   42       -1.961595
   43       -1.889236
   44       -1.812142
   45       -1.632940
   46       -1.492678
   47       -1.415695
   48       -1.368549
   49       -1.220104
   50       -1.070796
   51       -1.014072
   52       -0.856856
   53       -0.454872
   54        0.281942
   55        0.565789
   56        0.906927
   57        1.154585
   58        1.247795
   59        1.394134
   60        1.424987
   61        1.591396
   62        1.729634
   63        1.781278
   64        1.938836
   65        2.117957
   66        2.256405
   67        2.536769
   68        2.647774
 
  0.7692308E-01  0.2500000E+00  0.0000000E+00  0.1923077E-01
    1      -14.688764
    2      -13.413762
    3      -13.312415
    4      -12.961294
    5      -12.581359
    6      -12.426837
    7      -11.971929
    8      -11.776685
    9      -11.442019
   10      -11.161340
   11      -10.961258
   12       -9.972988
   13       -9.121644
   14       -8.578728
   15       -8.115078
   16       -7.333815
   17       -6.888023
   18       -6.684140
   19       -6.537179
   20       -6.025507
   21       -5.705714
   22       -5.556534
   23       -5.369710
   24       -4.702593
   25       -4.548136
   26       -4.162712
   27       -4.046448
   28       -3.649084
   29       -3.550863
   30       -3.481259
   31       -3.391721
   32       -3.305311
   33       -3.109257
   34       -3.028780
   35       -2.907550
   36       -2.704968
   37       -2.558849
   38       -2.497712
   39       -2.363912
   40       -2.292524
   41       -2.168346
   42       -2.124414
   43       -2.016854
   44       -1.847945
   45       -1.787704
   46       -1.744584
   47       -1.404716
   48       -1.364306
   49       -1.149495
   50       -1.083662
   51       -1.011410
   52       -0.889848
   53       -0.465706
   54        0.307606
   55        0.691994
   56        0.993329
   57        1.160459
   58        1.431532
   59        1.575378
   60        1.715569
   61        1.786847
   62        1.929292
   63        2.055994
   64        2.226718
   65        2.412790
   66        2.518351
   67        2.650737
   68        2.709089
 
  0.1538462E+00  0.2500000E+00  0.0000000E+00  0.1923077E-01
    1      -14.516694
    2      -13.217397
    3      -13.150226
    4      -12.824806
    5      -12.383743
    6      -12.260063
    7      -11.864036
    8      -11.579171
    9      -11.302560
   10      -10.990044
   11      -10.819996
   12       -9.913769
   13       -9.091206
   14       -8.644602
   15       -8.124625
   16       -7.305191
   17       -6.899587
   18       -6.661851
   19       -6.504863
   20       -6.105327
   21       -5.884718
   22       -5.655661
   23       -5.488822
   24       -4.958328
   25       -4.846753
   26       -4.431447
   27       -4.372357
   28       -4.296197
   29       -4.049326
   30       -3.940284
   31       -3.771837
   32       -3.624305
   33       -3.497338
   34       -3.310026
   35       -3.109087
   36       -2.982248
   37       -2.960104
   38       -2.811956
   39       -2.758910
   40       -2.638400
   41       -2.582612
   42       -2.355862
   43       -2.321131
   44       -1.990873
   45       -1.898062
   46       -1.783987
   47       -1.507947
   48       -1.253265
   49       -1.178860
   50       -1.108969
   51       -1.008703
   52       -0.903380
   53       -0.637903
   54        0.345429
   55        0.508181
   56        0.962399
   57        1.312810
   58        1.427113
   59        1.656490
   60        1.773921
   61        2.099520
   62        2.302510
   63        2.415007
   64        2.726798
   65        2.869687
   66        2.981570
   67        3.018751
   68        3.085181
 
  0.2307692E+00  0.2500000E+00  0.0000000E+00  0.1923077E-01
    1      -14.237938
    2      -12.906960
    3      -12.876825
    4      -12.573455
    5      -12.090958
    6      -11.991967
    7      -11.663748
    8      -11.302617
    9      -11.080734
   10      -10.757752
   11      -10.602741
   12       -9.891445
   13       -9.059085
   14       -8.776272
   15       -8.252933
   16       -7.396096
   17       -7.050739
   18       -6.701640
   19       -6.650616
   20       -6.618122
   21       -5.988068
   22       -5.827596
   23       -5.679927
   24       -5.335986
   25       -5.210114
   26       -5.040645
   27       -4.932674
   28       -4.671201
   29       -4.559944
   30       -4.412621
   31       -4.208954
   32       -4.023103
   33       -3.752695
   34       -3.555786
   35       -3.417738
   36       -3.215838
   37       -3.099220
   38       -3.062033
   39       -3.017073
   40       -2.758094
   41       -2.603251
   42       -2.531566
   43       -2.412973
   44       -1.999300
   45       -1.943585
   46       -1.837839
   47       -1.772733
   48       -1.442095
   49       -1.393324
   50       -1.221355
   51       -1.025954
   52       -0.948571
   53       -0.897965
   54       -0.203121
   55        0.474899
   56        0.746624
   57        1.296341
   58        1.415498
   59        1.560911
   60        1.685322
   61        1.854912
   62        2.228690
   63        2.405686
   64        2.565167
   65        2.711945
   66        2.725408
   67        2.962204
   68        3.026375
 
  0.3076923E+00  0.2500000E+00  0.0000000E+00  0.1923077E-01
    1      -13.868421
    2      -12.511806
    3      -12.486050
    4      -12.214433
    5      -11.737239
    6      -11.641342
    7      -11.394880
    8      -10.988982
    9      -10.816947
   10      -10.552743
   11      -10.397272
   12      -10.016190
   13       -9.024459
   14       -8.975484
   15       -8.563204
   16       -7.711768
   17       -7.370753
   18       -7.118180
   19       -6.971280
   20       -6.947410
   21       -6.352893
   22       -6.199744
   23       -6.086690
   24       -5.923292
   25       -5.511376
   26       -5.406817
   27       -5.317951
   28       -4.943376
   29       -4.621659
   30       -4.435727
   31       -4.390323
   32       -4.314203
   33       -4.017366
   34       -3.702960
   35       -3.429198
   36       -3.340813
   37       -3.156625
   38       -3.015791
   39       -2.919530
   40       -2.866503
   41       -2.811711
   42       -2.519694
   43       -2.438687
   44       -2.326684
   45       -2.057888
   46       -1.966041
   47       -1.893983
   48       -1.750072
   49       -1.631571
   50       -1.347912
   51       -1.197353
   52       -1.135036
   53       -0.913040
   54       -0.698206
   55        0.356861
   56        0.532387
   57        1.102748
   58        1.214425
   59        1.251347
   60        1.484626
   61        1.918939
   62        2.053539
   63        2.188478
   64        2.319717
   65        2.463947
   66        2.588631
   67        2.619129
   68        2.963356
 
  0.3846154E+00  0.2500000E+00  0.0000000E+00  0.1923077E-01
    1      -13.448626
    2      -12.083181
    3      -11.984152
    4      -11.764440
    5      -11.440537
    6      -11.249089
    7      -11.111525
    8      -10.731615
    9      -10.607553
   10      -10.587045
   11      -10.472909
   12      -10.157957
   13       -8.999815
   14       -8.964014
   15       -8.900623
   16       -8.116241
   17       -7.785046
   18       -7.704908
   19       -7.364218
   20       -7.160742
   21       -6.902425
   22       -6.699988
   23       -6.666218
   24       -6.451838
   25       -5.628302
   26       -5.370077
   27       -5.297912
   28       -4.791951
   29       -4.739574
   30       -4.456969
   31       -4.325510
   32       -4.120816
   33       -3.869127
   34       -3.780295
   35       -3.517005
   36       -3.357424
   37       -3.295588
   38       -3.240356
   39       -3.129407
   40       -2.934459
   41       -2.839392
   42       -2.667596
   43       -2.559839
   44       -2.365607
   45       -2.233138
   46       -2.130726
   47       -2.069636
   48       -1.859658
   49       -1.659840
   50       -1.485389
   51       -1.441428
   52       -1.337759
   53       -1.005056
   54       -0.811654
   55        0.271974
   56        0.405544
   57        0.878468
   58        1.172951
   59        1.235709
   60        1.370457
   61        1.774007
   62        1.823356
   63        1.982579
   64        2.095955
   65        2.179196
   66        2.374970
   67        2.603793
   68        2.673906
 
  0.4615385E+00  0.2500000E+00  0.0000000E+00  0.1923077E-01
    1      -13.101121
    2      -11.763105
    3      -11.435390
    4      -11.380911
    5      -11.269413
    6      -10.966838
    7      -10.960455
    8      -10.868775
    9      -10.706125
   10      -10.585127
   11      -10.532641
   12      -10.363505
   13       -9.191027
   14       -8.864569
   15       -8.559681
   16       -8.404822
   17       -8.332817
   18       -7.848928
   19       -7.524371
   20       -7.503588
   21       -7.321712
   22       -7.253225
   23       -7.144950
   24       -6.462250
   25       -5.567344
   26       -5.388203
   27       -5.027744
   28       -4.664419
   29       -4.515304
   30       -4.435681
   31       -4.185763
   32       -4.125598
   33       -3.938968
   34       -3.847979
   35       -3.667053
   36       -3.574121
   37       -3.492426
   38       -3.267296
   39       -3.141311
   40       -2.998346
   41       -2.966119
   42       -2.703276
   43       -2.642737
   44       -2.605918
   45       -2.279373
   46       -2.150699
   47       -2.123311
   48       -1.777533
   49       -1.693341
   50       -1.675075
   51       -1.547293
   52       -1.358553
   53       -0.986420
   54       -0.818928
   55        0.202178
   56        0.390936
   57        0.721337
   58        1.168135
   59        1.408531
   60        1.505129
   61        1.551470
   62        1.696729
   63        1.810580
   64        2.086280
   65        2.131547
   66        2.313538
   67        2.437790
   68        2.488178
 
 -0.4615385E+00  0.2500000E+00  0.0000000E+00  0.1923077E-01
    1      -13.102553
    2      -11.754353
    3      -11.539803
    4      -11.379689
    5      -11.076523
    6      -10.965624
    7      -10.935984
    8      -10.813003
    9      -10.761953
   10      -10.707773
   11      -10.574202
   12      -10.331975
   13       -9.176493
   14       -8.885974
   15       -8.761584
   16       -8.438050
   17       -7.949132
   18       -7.868133
   19       -7.609445
   20       -7.542721
   21       -7.285995
   22       -7.232319
   23       -7.182745
   24       -6.417290
   25       -5.575579
   26       -5.342732
   27       -4.848471
   28       -4.706180
   29       -4.578745
   30       -4.411895
   31       -4.303423
   32       -4.018881
   33       -3.996677
   34       -3.889866
   35       -3.854161
   36       -3.651266
   37       -3.578183
   38       -3.360517
   39       -3.175357
   40       -3.060508
   41       -2.813608
   42       -2.693541
   43       -2.652641
   44       -2.400150
   45       -2.279936
   46       -2.167821
   47       -2.137153
   48       -1.794085
   49       -1.706157
   50       -1.628632
   51       -1.497328
   52       -1.277268
   53       -0.969159
   54       -0.798129
   55        0.204340
   56        0.400215
   57        0.730818
   58        1.159868
   59        1.370284
   60        1.654782
   61        1.679579
   62        1.747624
   63        1.825574
   64        2.143947
   65        2.236619
   66        2.320940
   67        2.390882
   68        2.546569
 
 -0.3846154E+00  0.2500000E+00  0.0000000E+00  0.1923077E-01
    1      -13.452286
    2      -12.107315
    3      -12.026754
    4      -11.568457
    5      -11.490482
    6      -11.248066
    7      -11.023239
    8      -10.936305
    9      -10.634890
   10      -10.539387
   11      -10.455611
   12      -10.235058
   13       -8.997260
   14       -8.918818
   15       -8.747133
   16       -8.495067
   17       -7.627656
   18       -7.446059
   19       -7.336250
   20       -7.258506
   21       -6.892243
   22       -6.815349
   23       -6.669657
   24       -6.336441
   25       -5.515146
   26       -5.394434
   27       -5.053160
   28       -4.864718
   29       -4.810603
   30       -4.408053
   31       -4.288629
   32       -4.188349
   33       -4.112362
   34       -3.900859
   35       -3.721141
   36       -3.586666
   37       -3.409717
   38       -3.253617
   39       -3.196359
   40       -3.089980
   41       -2.736185
   42       -2.538723
   43       -2.506873
   44       -2.277663
   45       -2.185931
   46       -2.081620
   47       -1.950412
   48       -1.838820
   49       -1.577601
   50       -1.534068
   51       -1.396185
   52       -1.199389
   53       -0.964963
   54       -0.749346
   55        0.269019
   56        0.470215
   57        0.880439
   58        1.198530
   59        1.431988
   60        1.723527
   61        1.779287
   62        1.909314
   63        2.123423
   64        2.193602
   65        2.297095
   66        2.409632
   67        2.545666
   68        2.607910
 
 -0.3076923E+00  0.2500000E+00  0.0000000E+00  0.1923077E-01
    1      -13.872936
    2      -12.601040
    3      -12.439770
    4      -11.953729
    5      -11.935111
    6      -11.647165
    7      -11.248736
    8      -11.125344
    9      -10.778770
   10      -10.731360
   11      -10.426732
   12      -10.001671
   13       -8.944537
   14       -8.647730
   15       -8.559334
   16       -8.191391
   17       -7.230504
   18       -7.007614
   19       -6.926041
   20       -6.872664
   21       -6.576603
   22       -6.163066
   23       -5.979789
   24       -5.952677
   25       -5.500747
   26       -5.308995
   27       -5.142618
   28       -4.888096
   29       -4.680013
   30       -4.646945
   31       -4.326478
   32       -4.264697
   33       -4.239859
   34       -3.827454
   35       -3.579447
   36       -3.459247
   37       -3.200335
   38       -3.088620
   39       -3.018333
   40       -2.919223
   41       -2.761771
   42       -2.587487
   43       -2.446397
   44       -2.047436
   45       -2.007516
   46       -1.899569
   47       -1.852207
   48       -1.716662
   49       -1.529921
   50       -1.313984
   51       -1.167519
   52       -1.084191
   53       -0.993686
   54       -0.616260
   55        0.414331
   56        0.632131
   57        1.050027
   58        1.402089
   59        1.638179
   60        1.813742
   61        1.932124
   62        1.996768
   63        2.243839
   64        2.363241
   65        2.407526
   66        2.660633
   67        2.750288
   68        2.774088
 
 -0.2307692E+00  0.2500000E+00  0.0000000E+00  0.1923077E-01
    1      -14.242135
    2      -12.996267
    3      -12.815753
    4      -12.357352
    5      -12.268512
    6      -11.999302
    7      -11.544195
    8      -11.404187
    9      -11.034671
   10      -10.947871
   11      -10.605237
   12       -9.889719
   13       -8.932405
   14       -8.403666
   15       -8.343093
   16       -7.785958
   17       -6.939711
   18       -6.695512
   19       -6.643347
   20       -6.527861
   21       -6.230505
   22       -5.746743
   23       -5.663068
   24       -5.342674
   25       -5.311754
   26       -4.875877
   27       -4.811308
   28       -4.606414
   29       -4.586661
   30       -4.510500
   31       -4.189759
   32       -4.023912
   33       -3.798283
   34       -3.713169
   35       -3.474890
   36       -3.439627
   37       -3.072242
   38       -3.009478
   39       -2.995675
   40       -2.773846
   41       -2.611748
   42       -2.455954
   43       -2.362700
   44       -1.918155
   45       -1.866360
   46       -1.805197
   47       -1.679669
   48       -1.577145
   49       -1.456987
   50       -1.168096
   51       -1.133649
   52       -0.905471
   53       -0.772521
   54       -0.245489
   55        0.592120
   56        0.843990
   57        1.237877
   58        1.573521
   59        1.781923
   60        1.863757
   61        2.009609
   62        2.244367
   63        2.390227
   64        2.468865
   65        2.710182
   66        2.822717
   67        2.914875
   68        2.961739
 
 -0.1538462E+00  0.2500000E+00  0.0000000E+00  0.1923077E-01
    1      -14.519869
    2      -13.280059
    3      -13.104889
    4      -12.672415
    5      -12.511295
    6      -12.265811
    7      -11.762532
    8      -11.673525
    9      -11.266912
   10      -11.127792
   11      -10.807725
   12       -9.923079
   13       -8.980803
   14       -8.382950
   15       -8.189626
   16       -7.539245
   17       -6.790103
   18       -6.670749
   19       -6.557724
   20       -6.153192
   21       -5.976007
   22       -5.698009
   23       -5.469215
   24       -4.981303
   25       -4.844392
   26       -4.423918
   27       -4.300709
   28       -4.244153
   29       -4.157656
   30       -3.930606
   31       -3.718342
   32       -3.562239
   33       -3.400559
   34       -3.288555
   35       -3.178502
   36       -3.092831
   37       -2.977130
   38       -2.909633
   39       -2.812164
   40       -2.613197
   41       -2.510505
   42       -2.228360
   43       -2.185966
   44       -1.965688
   45       -1.800642
   46       -1.676904
   47       -1.614873
   48       -1.491846
   49       -1.247835
   50       -1.116459
   51       -1.046238
   52       -0.812915
   53       -0.606324
   54        0.291165
   55        0.678262
   56        0.977219
   57        1.250199
   58        1.459003
   59        1.766747
   60        1.798925
   61        2.187442
   62        2.309769
   63        2.475388
   64        2.684280
   65        2.781486
   66        2.891257
   67        2.959268
   68        3.091675
 
 -0.7692308E-01  0.2500000E+00  0.0000000E+00  0.1923077E-01
    1      -14.690454
    2      -13.445834
    3      -13.288603
    4      -12.882814
    5      -12.647376