       N       E                     dE             d eps       ncg     rms          rms(c)
DAV:   1     0.534211312534E+03    0.53421E+03   -0.28746E+04  7360   0.790E+02
DAV:   2    -0.342390061187E+02   -0.56845E+03   -0.55289E+03  9744   0.191E+02
DAV:   3    -0.937621793954E+02   -0.59523E+02   -0.58534E+02  9032   0.637E+01
DAV:   4    -0.969040591011E+02   -0.31419E+01   -0.31149E+01 11840   0.154E+01
DAV:   5    -0.969534113513E+02   -0.49352E-01   -0.49237E-01 10216   0.201E+00    0.136E+01
DAV:   6    -0.913398943652E+02    0.56135E+01   -0.17162E+01  9152   0.127E+01    0.640E+00
DAV:   7    -0.915702739550E+02   -0.23038E+00   -0.11289E+01  8256   0.785E+00    0.335E+00
DAV:   8    -0.915302347205E+02    0.40039E-01   -0.13561E+00  9080   0.343E+00    0.188E+00
DAV:   9    -0.915620442753E+02   -0.31810E-01   -0.65445E-01  9248   0.226E+00    0.105E+00
DAV:  10    -0.915497001868E+02    0.12344E-01   -0.19303E-01  8824   0.140E+00    0.326E-01
DAV:  11    -0.915444710682E+02    0.52291E-02   -0.41599E-02  9636   0.564E-01    0.164E-01
DAV:  12    -0.915338959675E+02    0.10575E-01   -0.55599E-03  9120   0.247E-01    0.769E-02
DAV:  13    -0.915270683273E+02    0.68276E-02   -0.16836E-03  9068   0.126E-01    0.299E-02
DAV:  14    -0.915247366407E+02    0.23317E-02   -0.31520E-04  9488   0.496E-02    0.191E-02
DAV:  15    -0.915232327218E+02    0.15039E-02   -0.11954E-04  9344   0.331E-02    0.982E-03
DAV:  16    -0.915228131902E+02    0.41953E-03   -0.63957E-05  8176   0.225E-02    0.726E-03
DAV:  17    -0.915234626791E+02   -0.64949E-03   -0.11281E-04  8152   0.232E-02    0.346E-03
DAV:  18    -0.915238108232E+02   -0.34814E-03   -0.15023E-04  8240   0.206E-02    0.210E-03
DAV:  19    -0.915238869416E+02   -0.76118E-04   -0.31880E-05  7392   0.117E-02    0.129E-03
DAV:  20    -0.915239208587E+02   -0.33917E-04   -0.10292E-05  6496   0.700E-03    0.891E-04
DAV:  21    -0.915239190202E+02    0.18385E-05   -0.19809E-05  7232   0.877E-03    0.597E-04
DAV:  22    -0.915238632859E+02    0.55734E-04   -0.15913E-05  7096   0.973E-03    0.366E-04
DAV:  23    -0.915238149322E+02    0.48354E-04   -0.11132E-05  6584   0.941E-03    0.169E-04
DAV:  24    -0.915237907246E+02    0.24208E-04   -0.45466E-06  6144   0.709E-03    0.106E-04
DAV:  25    -0.915237754193E+02    0.15305E-04   -0.61906E-06  6680   0.763E-03    0.517E-05
DAV:  26    -0.915237722917E+02    0.31276E-05   -0.29923E-06  6336   0.627E-03    0.293E-05
DAV:  27    -0.915237721168E+02    0.17485E-06   -0.28185E-06  6472   0.608E-03
   1 F= -.91523772E+02 E0= -.91505810E+02  d E =-.359247E-01
