 vasp.5.3.5 31Mar14 (build Oct 29 2014 16:16:03) complex                        
  
 executed on          Linux-UFHPC date 2016.02.09  17:25:17
 running on    8 total cores
 distrk:  each k-point on    8 cores,    1 groups
 distr:  one band on NCORES_PER_BAND=   2 cores,    4 groups


--------------------------------------------------------------------------------------------------------


 INCAR:
 POTCAR:    PAW_PBE P 17Jan2003                   
 POTCAR:   PAW_PBE Si 05Jan2001                   

 ----------------------------------------------------------------------------- 
|                                                                             |
|  ADVICE TO THIS USER RUNNING 'VASP/VAMP'   (HEAR YOUR MASTER'S VOICE ...):  |
|                                                                             |
|      You have switched on vdW-DFT.                                          |
|      This routine was written and supplied by Jiri Klimes.                  |
|      We recommed that you carefully read and cite the following             |
|      publication                                                            |
|      J. Klimes, D.R. Bowler, A. Michelides                                  |
|        J. Phys.: Cond Matt. 22 022201 (2010)                                |
|      J. Klimes, D.R. Bowler, A. Michelides                                  |
|        Phys. Rev. B. 83, 195131 (2011)                                      |
|      and references therein.                                                |
|                                                                             |
 ----------------------------------------------------------------------------- 

 POTCAR:    PAW_PBE P 17Jan2003                   
   VRHFIN =P : s2p3                                                             
   LEXCH  = PE                                                                  
   EATOM  =   176.0430 eV,   12.9388 Ry                                         
                                                                                
   TITEL  = PAW_PBE P 17Jan2003                                                 
   LULTRA =        F    use ultrasoft PP ?                                      
   IUNSCR =        1    unscreen: 0-lin 1-nonlin 2-no                           
   RPACOR =    1.500    partial core radius                                     
   POMASS =   30.974; ZVAL   =    5.000    mass and valenz                      
   RCORE  =    1.900    outmost cutoff radius                                   
   RWIGS  =    2.330; RWIGS  =    1.233    wigner-seitz radius (au A)           
   ENMAX  =  270.000; ENMIN  =  191.280 eV                                      
   ICORE  =        2    local potential                                         
   LCOR   =        T    correct aug charges                                     
   LPAW   =        T    paw PP                                                  
   EAUG   =  342.924                                                            
   DEXC   =    -.002                                                            
   RMAX   =    2.887    core radius for proj-oper                               
   RAUG   =    1.300    factor for augmentation sphere                          
   RDEP   =    1.931    radius for radial grids                                 
   QCUT   =   -4.330; QGAM   =    8.659    optimization parameters              
                                                                                
   Description                                                                  
     l     E      TYP  RCUT    TYP  RCUT                                        
     0   .000     23  1.900                                                     
     0   .000     23  1.900                                                     
     1   .000     23  1.900                                                     
     1   .000     23  1.900                                                     
     2   .000     23  1.900                                                     
  local pseudopotential read in
  partial core-charges read in
  atomic valenz-charges read in
  non local Contribution for L=           0  read in
    real space projection operators read in
  non local Contribution for L=           0  read in
    real space projection operators read in
  non local Contribution for L=           1  read in
    real space projection operators read in
  non local Contribution for L=           1  read in
    real space projection operators read in
    PAW grid and wavefunctions read in
 
   number of l-projection  operators is LMAX  =           4
   number of lm-projection operators is LMMAX =           8
 
 POTCAR:   PAW_PBE Si 05Jan2001                   
   VRHFIN =Si: s2p2                                                             
   LEXCH  = PE                                                                  
   EATOM  =   103.0669 eV,    7.5752 Ry                                         
                                                                                
   TITEL  = PAW_PBE Si 05Jan2001                                                
   LULTRA =        F    use ultrasoft PP ?                                      
   IUNSCR =        1    unscreen: 0-lin 1-nonlin 2-no                           
   RPACOR =    1.500    partial core radius                                     
   POMASS =   28.085; ZVAL   =    4.000    mass and valenz                      
   RCORE  =    1.900    outmost cutoff radius                                   
   RWIGS  =    2.480; RWIGS  =    1.312    wigner-seitz radius (au A)           
   ENMAX  =  245.345; ENMIN  =  184.009 eV                                      
   ICORE  =        2    local potential                                         
   LCOR   =        T    correct aug charges                                     
   LPAW   =        T    paw PP                                                  
   EAUG   =  322.069                                                            
   DEXC   =    -.007                                                            
   RMAX   =    2.944    core radius for proj-oper                               
   RAUG   =    1.300    factor for augmentation sphere                          
   RDEP   =    1.993    radius for radial grids                                 
   QCUT   =   -4.246; QGAM   =    8.493    optimization parameters              
                                                                                
   Description                                                                  
     l     E      TYP  RCUT    TYP  RCUT                                        
     0   .000     23  1.900                                                     
     0   .000     23  1.900                                                     
     1   .000     23  1.900                                                     
     1   .000     23  1.900                                                     
     2   .000      7  1.900                                                     
  local pseudopotential read in
  partial core-charges read in
  atomic valenz-charges read in
  non local Contribution for L=           0  read in
    real space projection operators read in
  non local Contribution for L=           0  read in
    real space projection operators read in
  non local Contribution for L=           1  read in
    real space projection operators read in
  non local Contribution for L=           1  read in
    real space projection operators read in
    PAW grid and wavefunctions read in
 
   number of l-projection  operators is LMAX  =           4
   number of lm-projection operators is LMMAX =           8
 
 Optimization of the real space projectors (new method)

 maximal supplied QI-value         = 19.84
 optimisation between [QCUT,QGAM] = [  8.73, 17.66] = [ 21.34, 87.33] Ry 
 Optimized for a Real-space Cutoff    1.50 Angstroem

   l    n(q)    QCUT    max X(q) W(low)/X(q) W(high)/X(q)  e(spline) 
   0      8     8.731     6.651    0.16E-04    0.15E-04    0.77E-08
   0      8     8.731    90.285    0.16E-03    0.90E-04    0.16E-06
   1      7     8.731     4.328    0.47E-04    0.36E-04    0.45E-07
   1      7     8.731    54.583    0.13E-03    0.39E-03    0.20E-06
 Optimization of the real space projectors (new method)

 maximal supplied QI-value         = 19.84
 optimisation between [QCUT,QGAM] = [  8.73, 17.66] = [ 21.34, 87.33] Ry 
 Optimized for a Real-space Cutoff    1.46 Angstroem

   l    n(q)    QCUT    max X(q) W(low)/X(q) W(high)/X(q)  e(spline) 
   0      8     8.731     8.708    0.16E-04    0.11E-04    0.68E-08
   0      8     8.731   106.241    0.24E-03    0.77E-04    0.13E-06
   1      7     8.731     5.901    0.34E-04    0.38E-04    0.36E-07
   1      7     8.731    73.241    0.12E-03    0.39E-03    0.15E-06

 ----------------------------------------------------------------------------- 
|                                                                             |
|  ADVICE TO THIS USER RUNNING 'VASP/VAMP'   (HEAR YOUR MASTER'S VOICE ...):  |
|                                                                             |
|      You enforced a specific xc-type in the INCAR file,                     |
|      a different type was found on the POTCAR file                          |
|          I HOPE YOU KNOW, WHAT YOU ARE  DOING                               |
|                                                                             |
 ----------------------------------------------------------------------------- 

  PAW_PBE P 17Jan2003                   :
 energy of atom  1       EATOM= -176.0430
 kinetic energy error for atom=    0.0040 (will be added to EATOM!!)
 PAW_PBE Si 05Jan2001                   :
 energy of atom  2       EATOM= -103.0669
 kinetic energy error for atom=    0.0021 (will be added to EATOM!!)
 
 
 POSCAR: Si12                                    
  positions in direct lattice
  No initial velocities read in
 exchange correlation table for  LEXCH =       42
   RHO(1)=    0.500       N(1)  =     2000
   RHO(2)=  100.500       N(2)  =     4000
 


--------------------------------------------------------------------------------------------------------


 ion  position               nearest neighbor table
   1  0.114  0.228  0.233-  15 2.28  21 2.29  21 2.29
   2  0.114  0.728  0.515-  16 2.28  22 2.29  22 2.29
   3  0.458  0.916  0.209-  21 2.28  13 2.30  13 2.30
   4  0.458  0.416  0.491-  22 2.28  14 2.30  14 2.30
   5  0.311  0.622  0.084-  17 2.28  23 2.30  23 2.30
   6  0.311  0.622  0.366-  18 2.28
   7  0.999  0.998  0.086-  19 2.29  19 2.29  13 2.32
   8  0.999  0.998  0.368-  20 2.29  20 2.29  24 2.31  16 3.02
   9  0.655  0.310  0.060-  19 2.28  17 2.29  17 2.29
  10  0.655  0.310  0.342-  20 2.28  18 2.29  18 2.29  24 2.74  14 2.91
  11  0.770  0.539  0.207-  15 2.29  15 2.29  23 2.32
  12  0.770  0.039  0.489-  16 2.29  16 2.29  24 2.32  20 3.01
  13  0.940  0.879  0.158-   3 2.30   3 2.30   7 2.32  23 2.35
  14  0.940  0.379  0.440-  18 1.84   4 2.30   4 2.30  24 2.35  10 2.91  20 3.07  18 3.11
  15  0.205  0.410  0.186-   1 2.28  11 2.29  11 2.29  17 2.37
  16  0.205  0.910  0.468-   2 2.28  12 2.29  12 2.29   8 3.02
  17  0.202  0.404  0.100-   5 2.28   9 2.29   9 2.29  15 2.37
  18  0.202  0.404  0.382-  14 1.84   6 2.28  10 2.29  10 2.29  24 2.85  14 3.11
  19  0.564  0.128  0.108-   9 2.28   7 2.29   7 2.29  21 2.37
  20  0.564  0.128  0.390-  24 1.21  10 2.28   8 2.29   8 2.29  24 2.78  12 3.01  14 3.07
  21  0.567  0.134  0.194-   3 2.28   1 2.29   1 2.29  19 2.37
  22  0.567  0.634  0.476-   4 2.28   2 2.29   2 2.29
  23  0.829  0.658  0.136-   5 2.30   5 2.30  11 2.32  13 2.35
  24  0.829  0.158  0.418-  20 1.21   8 2.31  12 2.32  14 2.35  10 2.74  20 2.78  18 2.85
 

 ----------------------------------------------------------------------------- 
|                                                                             |
|           W    W    AA    RRRRR   N    N  II  N    N   GGGG   !!!           |
|           W    W   A  A   R    R  NN   N  II  NN   N  G    G  !!!           |
|           W    W  A    A  R    R  N N  N  II  N N  N  G       !!!           |
|           W WW W  AAAAAA  RRRRR   N  N N  II  N  N N  G  GGG   !            |
|           WW  WW  A    A  R   R   N   NN  II  N   NN  G    G                |
|           W    W  A    A  R    R  N    N  II  N    N   GGGG   !!!           |
|                                                                             |
|      The distance between some ions is very small                           |
|      please check the nearest neigbor list in the OUTCAR file               |
|          I HOPE YOU KNOW, WHAT YOU ARE  DOING                               |
|                                                                             |
 ----------------------------------------------------------------------------- 

  LATTYP: Found a base centered orthorhombic cell.
 ALAT       =     3.5404000000
 B/A-ratio  =     5.8153587165
 C/A-ratio  =     7.7678875268
  
  Lattice vectors:
  
 A1 = (   1.7702000000,  10.2943480000,   0.0000000000)
 A2 = (   1.7702000000, -10.2943480000,   0.0000000000)
 A3 = (   0.0000000000,   0.0000000000, -27.5014290000)


Analysis of symmetry for initial positions (statically):
=====================================================================
 Subroutine PRICEL returns:
 Original cell was already a primitive cell.
 

 Routine SETGRP: Setting up the symmetry group for a 
 base centered orthorhombic supercell.


 Subroutine GETGRP returns: Found  1 space group operations
 (whereof  1 operations were pure point group operations)
 out of a pool of  8 trial point group operations.


The static configuration has the point symmetry C_1 .


Analysis of symmetry for dynamics (positions and initial velocities):
=====================================================================
 Subroutine PRICEL returns:
 Original cell was already a primitive cell.
 

 Routine SETGRP: Setting up the symmetry group for a 
 base centered orthorhombic supercell.


 Subroutine GETGRP returns: Found  1 space group operations
 (whereof  1 operations were pure point group operations)
 out of a pool of  8 trial point group operations.


The dynamic configuration has the point symmetry C_1 .
 
 
 KPOINTS: pymatgen generated KPOINTS with grid den

Automatic generation of k-mesh.
Space group operators:
 irot       det(A)        alpha          n_x          n_y          n_z        tau_x        tau_y        tau_z
    1     1.000000     0.000000     1.000000     0.000000     0.000000     0.000000     0.000000     0.000000
 
 Subroutine IBZKPT returns following result:
 ===========================================
 
 Found     54 irreducible k-points:
 
 Following reciprocal coordinates:
            Coordinates               Weight
  0.000000  0.000000  0.000000      1.000000
  0.076923 -0.000000  0.000000      2.000000
  0.153846 -0.000000  0.000000      2.000000
  0.230769 -0.000000  0.000000      2.000000
  0.307692 -0.000000  0.000000      2.000000
  0.384615 -0.000000  0.000000      2.000000
  0.461538 -0.000000  0.000000      2.000000
  0.000000  0.250000  0.000000      2.000000
  0.076923  0.250000  0.000000      2.000000
  0.153846  0.250000  0.000000      2.000000
  0.230769  0.250000  0.000000      2.000000
  0.307692  0.250000  0.000000      2.000000
  0.384615  0.250000  0.000000      2.000000
  0.461538  0.250000  0.000000      2.000000
 -0.461538  0.250000  0.000000      2.000000
 -0.384615  0.250000  0.000000      2.000000
 -0.307692  0.250000  0.000000      2.000000
 -0.230769  0.250000  0.000000      2.000000
 -0.153846  0.250000  0.000000      2.000000
 -0.076923  0.250000  0.000000      2.000000
  0.000000  0.500000  0.000000      1.000000
  0.076923  0.500000  0.000000      2.000000
  0.153846  0.500000  0.000000      2.000000
  0.230769  0.500000  0.000000      2.000000
  0.307692  0.500000  0.000000      2.000000
  0.384615  0.500000  0.000000      2.000000
  0.461538  0.500000  0.000000      2.000000
  0.000000  0.000000  0.500000      1.000000
  0.076923 -0.000000  0.500000      2.000000
  0.153846 -0.000000  0.500000      2.000000
  0.230769 -0.000000  0.500000      2.000000
  0.307692 -0.000000  0.500000      2.000000
  0.384615 -0.000000  0.500000      2.000000
  0.461538 -0.000000  0.500000      2.000000
  0.000000  0.250000  0.500000      2.000000
  0.076923  0.250000  0.500000      2.000000
  0.153846  0.250000  0.500000      2.000000
  0.230769  0.250000  0.500000      2.000000
  0.307692  0.250000  0.500000      2.000000
  0.384615  0.250000  0.500000      2.000000
  0.461538  0.250000  0.500000      2.000000
 -0.461538  0.250000  0.500000      2.000000
 -0.384615  0.250000  0.500000      2.000000
 -0.307692  0.250000  0.500000      2.000000
 -0.230769  0.250000  0.500000      2.000000
 -0.153846  0.250000  0.500000      2.000000
 -0.076923  0.250000  0.500000      2.000000
  0.000000  0.500000  0.500000      1.000000
  0.076923  0.500000  0.500000      2.000000
  0.153846  0.500000  0.500000      2.000000
  0.230769  0.500000  0.500000      2.000000
  0.307692  0.500000  0.500000      2.000000
  0.384615  0.500000  0.500000      2.000000
  0.461538  0.500000  0.500000      2.000000
 
 Following cartesian coordinates:
            Coordinates               Weight
  0.000000  0.000000  0.000000      1.000000
  0.021727  0.003736  0.000000      2.000000
  0.043454  0.007472  0.000000      2.000000
  0.065182  0.011209  0.000000      2.000000
  0.086909  0.014945  0.000000      2.000000
  0.108636  0.018681  0.000000      2.000000
  0.130363  0.022417  0.000000      2.000000
  0.000000  0.024285  0.000000      2.000000
  0.021727  0.028021  0.000000      2.000000
  0.043454  0.031758  0.000000      2.000000
  0.065182  0.035494  0.000000      2.000000
  0.086909  0.039230  0.000000      2.000000
  0.108636  0.042966  0.000000      2.000000
  0.130363  0.046702  0.000000      2.000000
 -0.130363  0.001868  0.000000      2.000000
 -0.108636  0.005604  0.000000      2.000000
 -0.086909  0.009340  0.000000      2.000000
 -0.065182  0.013077  0.000000      2.000000
 -0.043454  0.016813  0.000000      2.000000
 -0.021727  0.020549  0.000000      2.000000
  0.000000  0.048570  0.000000      1.000000
  0.021727  0.052307  0.000000      2.000000
  0.043454  0.056043  0.000000      2.000000
  0.065182  0.059779  0.000000      2.000000
  0.086909  0.063515  0.000000      2.000000
  0.108636  0.067251  0.000000      2.000000
  0.130363  0.070987  0.000000      2.000000
  0.000000  0.000000  0.018181      1.000000
  0.021727  0.003736  0.018181      2.000000
  0.043454  0.007472  0.018181      2.000000
  0.065182  0.011209  0.018181      2.000000
  0.086909  0.014945  0.018181      2.000000
  0.108636  0.018681  0.018181      2.000000
  0.130363  0.022417  0.018181      2.000000
  0.000000  0.024285  0.018181      2.000000
  0.021727  0.028021  0.018181      2.000000
  0.043454  0.031758  0.018181      2.000000
  0.065182  0.035494  0.018181      2.000000
  0.086909  0.039230  0.018181      2.000000
  0.108636  0.042966  0.018181      2.000000
  0.130363  0.046702  0.018181      2.000000
 -0.130363  0.001868  0.018181      2.000000
 -0.108636  0.005604  0.018181      2.000000
 -0.086909  0.009340  0.018181      2.000000
 -0.065182  0.013077  0.018181      2.000000
 -0.043454  0.016813  0.018181      2.000000
 -0.021727  0.020549  0.018181      2.000000
  0.000000  0.048570  0.018181      1.000000
  0.021727  0.052307  0.018181      2.000000
  0.043454  0.056043  0.018181      2.000000
  0.065182  0.059779  0.018181      2.000000
  0.086909  0.063515  0.018181      2.000000
  0.108636  0.067251  0.018181      2.000000
  0.130363  0.070987  0.018181      2.000000
 


--------------------------------------------------------------------------------------------------------




 Dimension of arrays:
   k-points           NKPTS =     54   k-points in BZ     NKDIM =     54   number of bands    NBANDS=     68
   number of dos      NEDOS =    301   number of ions     NIONS =     24
   non local maximal  LDIM  =      4   non local SUM 2l+1 LMDIM =      8
   total plane-waves  NPLWV = 192000
   max r-space proj   IRMAX =   2772   max aug-charges    IRDMAX=   6603
   dimension x,y,z NGX =    20 NGY =   60 NGZ =  160
   dimension x,y,z NGXF=    40 NGYF=  120 NGZF=  320
   support grid    NGXF=    40 NGYF=  120 NGZF=  320
   ions per type =              12  12
 NGX,Y,Z   is equivalent  to a cutoff of   9.39,  9.55,  9.67 a.u.
 NGXF,Y,Z  is equivalent  to a cutoff of  18.78, 19.10, 19.34 a.u.


 I would recommend the setting:
   dimension x,y,z NGX =    20 NGY =   59 NGZ =  155
 SYSTEM =  unknown system                          
 POSCAR =  Si12                                    

 Startparameter for this run:
   NWRITE =      2    write-flag & timer
   PREC   = accura    normal or accurate (medium, high low for compatibility)
   ISTART =      0    job   : 0-new  1-cont  2-samecut
   ICHARG =      2    charge: 1-file 2-atom 10-const
   ISPIN  =      1    spin polarized calculation?
   LNONCOLLINEAR =      F non collinear calculations
   LSORBIT =      F    spin-orbit coupling
   INIWAV =      1    electr: 0-lowe 1-rand  2-diag
   LASPH  =      F    aspherical Exc in radial PAW
   METAGGA=      F    non-selfconsistent MetaGGA calc.

 Electronic Relaxation 1
   ENCUT  =  300.0 eV  22.05 Ry    4.70 a.u.   5.00 14.75 38.84*2*pi/ulx,y,z
   ENINI  =  300.0     initial cutoff
   ENAUG  =  342.9 eV  augmentation charge cutoff
   NELM   =     60;   NELMIN=  2; NELMDL= -5     # of ELM steps 
   EDIFF  = 0.1E-05   stopping-criterion for ELM
   LREAL  =      T    real-space projection
   NLSPLINE    = F    spline interpolate recip. space projectors
   LCOMPAT=      F    compatible to vasp.4.4
   GGA_COMPAT  = T    GGA compatible to vasp.4.4-vasp.4.6
   LMAXPAW     = -100 max onsite density
   LMAXMIX     =    2 max onsite mixed and CHGCAR
   VOSKOWN=      0    Vosko Wilk Nusair interpolation
   ROPT   =   -0.00025  -0.00025
 Ionic relaxation
   EDIFFG = 0.1E-04   stopping-criterion for IOM
   NSW    =      0    number of steps for IOM
   NBLOCK =      1;   KBLOCK =      1    inner block; outer block 
   IBRION =     -1    ionic relax: 0-MD 1-quasi-New 2-CG
   NFREE  =      1    steps in history (QN), initial steepest desc. (CG)
   ISIF   =      3    stress and relaxation
   IWAVPR =     10    prediction:  0-non 1-charg 2-wave 3-comb
   ISYM   =      2    0-nonsym 1-usesym 2-fastsym
   LCORR  =      T    Harris-Foulkes like correction to forces

   POTIM  = 0.5000    time-step for ionic-motion
   TEIN   =    0.0    initial temperature
   TEBEG  =    0.0;   TEEND  =   0.0 temperature during run
   SMASS  =  -3.00    Nose mass-parameter (am)
   estimated Nose-frequenzy (Omega)   =  0.10E-29 period in steps =****** mass=  -0.286E-27a.u.
   SCALEE = 1.0000    scale energy and forces
   NPACO  =    256;   APACO  = 16.0  distance and # of slots for P.C.
   PSTRESS=    0.0 pullay stress

  Mass of Ions in am
   POMASS =  30.97 28.09
  Ionic Valenz
   ZVAL   =   5.00  4.00
  Atomic Wigner-Seitz radii
   RWIGS  =  -1.00 -1.00
  virtual crystal weights 
   VCA    =   1.00  1.00
   NELECT =     108.0000    total number of electrons
   NUPDOWN=      -1.0000    fix difference up-down

 DOS related values:
   EMIN   =  10.00;   EMAX   =-10.00  energy-range for DOS
   EFERMI =   0.00
   ISMEAR =     0;   SIGMA  =   0.10  broadening in eV -4-tet -1-fermi 0-gaus

 Electronic relaxation 2 (details)
   IALGO  =     38    algorithm
   LDIAG  =      T    sub-space diagonalisation (order eigenvalues)
   LSUBROT=      F    optimize rotation matrix (better conditioning)
   TURBO    =      0    0=normal 1=particle mesh
   IRESTART =      0    0=no restart 2=restart with 2 vectors
   NREBOOT  =      0    no. of reboots
   NMIN     =      0    reboot dimension
   EREF     =   0.00    reference energy to select bands
   IMIX   =      4    mixing-type and parameters
     AMIX     =   0.40;   BMIX     =  1.00
     AMIX_MAG =   1.60;   BMIX_MAG =  1.00
     AMIN     =   0.10
     WC   =   100.;   INIMIX=   1;  MIXPRE=   1;  MAXMIX= -45

 Intra band minimization:
   WEIMIN = 0.0000     energy-eigenvalue tresh-hold
   EBREAK =  0.37E-08  absolut break condition
   DEPER  =   0.30     relativ break condition  

   TIME   =   0.40     timestep for ELM

  volume/ion in A,a.u.               =      41.76       281.83
  Fermi-wavevector in a.u.,A,eV,Ry     =   0.779018  1.472130  8.256946  0.606868
  Thomas-Fermi vector in A             =   1.882034
 
 Write flags
   LWAVE  =      F    write WAVECAR
   LCHARG =      F    write CHGCAR
   LVTOT  =      F    write LOCPOT, total local potential
   LVHAR  =      F    write LOCPOT, Hartree potential only
   LELF   =      F    write electronic localiz. function (ELF)
   LORBIT =      0    0 simple, 1 ext, 2 COOP (PROOUT)


 Dipole corrections
   LMONO  =      F    monopole corrections only (constant potential shift)
   LDIPOL =      F    correct potential (dipole corrections)
   IDIPOL =      0    1-x, 2-y, 3-z, 4-all directions 
   EPSILON=  1.0000000 bulk dielectric constant

 Exchange correlation treatment:
   GGA     =    BO    GGA type
   LEXCH   =    42    internal setting for exchange type
   VOSKOWN=      0    Vosko Wilk Nusair interpolation
   LHFCALC =     F    Hartree Fock is set to
   LHFONE  =     F    Hartree Fock one center treatment
   AEXX    =    0.0000 exact exchange contribution

 vdW DFT:
   LUSE_VDW   =     T    switch on vdW DFT
   Zab_VDW    =-.8491    correlation parameter
   PARAM1     =0.1833
   PARAM2     =0.2200
   PARAM3     =0.0000

 Linear response parameters
   LEPSILON=     F    determine dielectric tensor
   LRPA    =     F    only Hartree local field effects (RPA)
   LNABLA  =     F    use nabla operator in PAW spheres
   LVEL    =     F    velocity operator in full k-point grid
   LINTERFAST=   F  fast interpolation
   KINTER  =     0    interpolate to denser k-point grid
   CSHIFT  =0.1000    complex shift for real part using Kramers Kronig
   OMEGAMAX=  -1.0    maximum frequency
   DEG_THRESHOLD= 0.2000000E-02 threshold for treating states as degnerate
   RTIME   =    0.100 relaxation time in fs

 Orbital magnetization related:
   ORBITALMAG=     F  switch on orbital magnetization
   LCHIMAG   =     F  perturbation theory with respect to B field
   DQ        =  0.001000  dq finite difference perturbation B field



--------------------------------------------------------------------------------------------------------


 Static calculation
 charge density and potential will be updated during run
 non-spin polarized calculation
 Variant of blocked Davidson
 Davidson routine will perform the subspace rotation
 perform sub-space diagonalisation
    after iterative eigenvector-optimisation
 modified Broyden-mixing scheme, WC =      100.0
 initial mixing is a Kerker type mixing with AMIX =  0.4000 and BMIX =      1.0000
 Hartree-type preconditioning will be used
 using additional bands           14
 real space projection scheme for non local part
 use partial core corrections
 calculate Harris-corrections to forces 
   (improved forces if not selfconsistent)
 use gradient corrections 
 use of overlap-Matrix (Vanderbilt PP)
 Gauss-broadening in eV      SIGMA  =   0.10


--------------------------------------------------------------------------------------------------------


  energy-cutoff  :      300.00
  volume of cell :     1002.32
      direct lattice vectors                 reciprocal lattice vectors
     3.540400000  0.000000000  0.000000000     0.282453960  0.048570342  0.000000000
    -1.770200000 10.294348000  0.000000000     0.000000000  0.097140683  0.000000000
     0.000000000  0.000000000 27.501429000     0.000000000  0.000000000  0.036361747

  length of vectors
     3.540400000 10.445439617 27.501429000     0.286599577  0.097140683  0.036361747


 
 k-points in units of 2pi/SCALE and weight: pymatgen generated KPOINTS with grid den
   0.00000000  0.00000000  0.00000000       0.010
   0.02172723  0.00373618  0.00000000       0.019
   0.04345446  0.00747236  0.00000000       0.019
   0.06518168  0.01120854  0.00000000       0.019
   0.08690891  0.01494472  0.00000000       0.019
   0.10863614  0.01868090  0.00000000       0.019
   0.13036337  0.02241708  0.00000000       0.019
   0.00000000  0.02428517  0.00000000       0.019
   0.02172723  0.02802135  0.00000000       0.019
   0.04345446  0.03175753  0.00000000       0.019
   0.06518168  0.03549371  0.00000000       0.019
   0.08690891  0.03922989  0.00000000       0.019
   0.10863614  0.04296607  0.00000000       0.019
   0.13036337  0.04670225  0.00000000       0.019
  -0.13036337  0.00186809  0.00000000       0.019
  -0.10863614  0.00560427  0.00000000       0.019
  -0.08690891  0.00934045  0.00000000       0.019
  -0.06518168  0.01307663  0.00000000       0.019
  -0.04345446  0.01681281  0.00000000       0.019
  -0.02172723  0.02054899  0.00000000       0.019
   0.00000000  0.04857034  0.00000000       0.010
   0.02172723  0.05230652  0.00000000       0.019
   0.04345446  0.05604270  0.00000000       0.019
   0.06518168  0.05977888  0.00000000       0.019
   0.08690891  0.06351506  0.00000000       0.019
   0.10863614  0.06725124  0.00000000       0.019
   0.13036337  0.07098742  0.00000000       0.019
   0.00000000  0.00000000  0.01818087       0.010
   0.02172723  0.00373618  0.01818087       0.019
   0.04345446  0.00747236  0.01818087       0.019
   0.06518168  0.01120854  0.01818087       0.019
   0.08690891  0.01494472  0.01818087       0.019
   0.10863614  0.01868090  0.01818087       0.019
   0.13036337  0.02241708  0.01818087       0.019
   0.00000000  0.02428517  0.01818087       0.019
   0.02172723  0.02802135  0.01818087       0.019
   0.04345446  0.03175753  0.01818087       0.019
   0.06518168  0.03549371  0.01818087       0.019
   0.08690891  0.03922989  0.01818087       0.019
   0.10863614  0.04296607  0.01818087       0.019
   0.13036337  0.04670225  0.01818087       0.019
  -0.13036337  0.00186809  0.01818087       0.019
  -0.10863614  0.00560427  0.01818087       0.019
  -0.08690891  0.00934045  0.01818087       0.019
  -0.06518168  0.01307663  0.01818087       0.019
  -0.04345446  0.01681281  0.01818087       0.019
  -0.02172723  0.02054899  0.01818087       0.019
   0.00000000  0.04857034  0.01818087       0.010
   0.02172723  0.05230652  0.01818087       0.019
   0.04345446  0.05604270  0.01818087       0.019
   0.06518168  0.05977888  0.01818087       0.019
   0.08690891  0.06351506  0.01818087       0.019
   0.10863614  0.06725124  0.01818087       0.019
   0.13036337  0.07098742  0.01818087       0.019
 
 k-points in reciprocal lattice and weights: pymatgen generated KPOINTS with grid den
   0.00000000  0.00000000  0.00000000       0.010
   0.07692308 -0.00000000  0.00000000       0.019
   0.15384615 -0.00000000  0.00000000       0.019
   0.23076923 -0.00000000  0.00000000       0.019
   0.30769231 -0.00000000  0.00000000       0.019
   0.38461538 -0.00000000  0.00000000       0.019
   0.46153846 -0.00000000  0.00000000       0.019
   0.00000000  0.25000000  0.00000000       0.019
   0.07692308  0.25000000  0.00000000       0.019
   0.15384615  0.25000000  0.00000000       0.019
   0.23076923  0.25000000  0.00000000       0.019
   0.30769231  0.25000000  0.00000000       0.019
   0.38461538  0.25000000  0.00000000       0.019
   0.46153846  0.25000000  0.00000000       0.019
  -0.46153846  0.25000000  0.00000000       0.019
  -0.38461538  0.25000000  0.00000000       0.019
  -0.30769231  0.25000000  0.00000000       0.019
  -0.23076923  0.25000000  0.00000000       0.019
  -0.15384615  0.25000000  0.00000000       0.019
  -0.07692308  0.25000000  0.00000000       0.019
   0.00000000  0.50000000  0.00000000       0.010
   0.07692308  0.50000000  0.00000000       0.019
   0.15384615  0.50000000  0.00000000       0.019
   0.23076923  0.50000000  0.00000000       0.019
   0.30769231  0.50000000  0.00000000       0.019
   0.38461538  0.50000000  0.00000000       0.019
   0.46153846  0.50000000  0.00000000       0.019
   0.00000000  0.00000000  0.50000000       0.010
   0.07692308 -0.00000000  0.50000000       0.019
   0.15384615 -0.00000000  0.50000000       0.019
   0.23076923 -0.00000000  0.50000000       0.019
   0.30769231 -0.00000000  0.50000000       0.019
   0.38461538 -0.00000000  0.50000000       0.019
   0.46153846 -0.00000000  0.50000000       0.019
   0.00000000  0.25000000  0.50000000       0.019
   0.07692308  0.25000000  0.50000000       0.019
   0.15384615  0.25000000  0.50000000       0.019
   0.23076923  0.25000000  0.50000000       0.019
   0.30769231  0.25000000  0.50000000       0.019
   0.38461538  0.25000000  0.50000000       0.019
   0.46153846  0.25000000  0.50000000       0.019
  -0.46153846  0.25000000  0.50000000       0.019
  -0.38461538  0.25000000  0.50000000       0.019
  -0.30769231  0.25000000  0.50000000       0.019
  -0.23076923  0.25000000  0.50000000       0.019
  -0.15384615  0.25000000  0.50000000       0.019
  -0.07692308  0.25000000  0.50000000       0.019
   0.00000000  0.50000000  0.50000000       0.010
   0.07692308  0.50000000  0.50000000       0.019
   0.15384615  0.50000000  0.50000000       0.019
   0.23076923  0.50000000  0.50000000       0.019
   0.30769231  0.50000000  0.50000000       0.019
   0.38461538  0.50000000  0.50000000       0.019
   0.46153846  0.50000000  0.50000000       0.019
 
 position of ions in fractional coordinates (direct lattice) 
   0.11402300  0.22804500  0.23316207
   0.11402300  0.72804500  0.51499159
   0.45808900  0.91617900  0.20939482
   0.45808900  0.41617900  0.49122434
   0.31085400  0.62170900  0.08414979
   0.31085400  0.62170900  0.36597930
   0.99923000  0.99846000  0.08631254
   0.99923000  0.99846000  0.36814206
   0.65492700  0.30985400  0.06041748
   0.65492700  0.30985400  0.34224700
   0.76973800  0.53947500  0.20725292
   0.76973800  0.03947500  0.48908244
   0.93971600  0.87943300  0.15783749
   0.93971600  0.37943300  0.43966701
   0.20515200  0.41030300  0.18578822
   0.20515200  0.91030300  0.46761774
   0.20184900  0.40369900  0.09969156
   0.20184900  0.40369900  0.38152107
   0.56380500  0.12761000  0.10779021
   0.56380500  0.12761000  0.38961973
   0.56710600  0.13421200  0.19387616
   0.56710600  0.63421200  0.47570568
   0.82923400  0.65846800  0.13571444
   0.82923400  0.15846800  0.41754396
 
 position of ions in cartesian coordinates  (Angst):
   0.00000177  2.34757459  6.41229012
  -0.88509823  7.49474859 14.16300462
  -0.00000177  9.43146546  5.75865686
   0.88509823  4.28429146 13.50937136
  -0.00000177  6.40008880  2.31423934
  -0.00000177  6.40008880 10.06495384
   1.77020000 10.27849470  2.37371832
   1.77020000 10.27849470 10.12443282
   1.77020000  3.18974491  1.66156717
   1.77020000  3.18974491  9.41228167
   1.77020177  5.55354339  5.69975143
   2.65530177  0.40636939 13.45046593
   1.77019823  9.05318934  4.34075665
   2.65529823  3.90601534 12.09147115
   0.00000177  4.22380187  5.10944151
  -0.88509823  9.37097587 12.86015601
  -0.00000177  4.15581799  2.74166024
  -0.00000177  4.15581799 10.49237474
   1.77020000  1.31366175  2.96438477
   1.77020000  1.31366175 10.71509927
   1.77020000  1.38162503  5.33187152
   0.88510000  6.52879903 13.08258602
   1.77020000  6.77849874  3.73234107
   2.65530000  1.63132474 11.48305557
 


--------------------------------------------------------------------------------------------------------


 k-point  1 :   0.0000 0.0000 0.0000  plane waves:   11717
 k-point  2 :   0.0769-0.0000 0.0000  plane waves:   11762
 k-point  3 :   0.1538-0.0000 0.0000  plane waves:   11805
 k-point  4 :   0.2308-0.0000 0.0000  plane waves:   11824
 k-point  5 :   0.3077-0.0000 0.0000  plane waves:   11875
 k-point  6 :   0.3846-0.0000 0.0000  plane waves:   11864
 k-point  7 :   0.4615-0.0000 0.0000  plane waves:   11883
 k-point  8 :   0.0000 0.2500 0.0000  plane waves:   11683
 k-point  9 :   0.0769 0.2500 0.0000  plane waves:   11756
 k-point 10 :   0.1538 0.2500 0.0000  plane waves:   11807
 k-point 11 :   0.2308 0.2500 0.0000  plane waves:   11853
 k-point 12 :   0.3077 0.2500 0.0000  plane waves:   11866
 k-point 13 :   0.3846 0.2500 0.0000  plane waves:   11889
 k-point 14 :   0.4615 0.2500 0.0000  plane waves:   11885
 k-point 15 :  -0.4615 0.2500 0.0000  plane waves:   11886
 k-point 16 :  -0.3846 0.2500 0.0000  plane waves:   11867
 k-point 17 :  -0.3077 0.2500 0.0000  plane waves:   11849
 k-point 18 :  -0.2308 0.2500 0.0000  plane waves:   11827
 k-point 19 :  -0.1538 0.2500 0.0000  plane waves:   11801
 k-point 20 :  -0.0769 0.2500 0.0000  plane waves:   11757
 k-point 21 :   0.0000 0.5000 0.0000  plane waves:   11710
 k-point 22 :   0.0769 0.5000 0.0000  plane waves:   11762
 k-point 23 :   0.1538 0.5000 0.0000  plane waves:   11782
 k-point 24 :   0.2308 0.5000 0.0000  plane waves:   11841
 k-point 25 :   0.3077 0.5000 0.0000  plane waves:   11876
 k-point 26 :   0.3846 0.5000 0.0000  plane waves:   11889
 k-point 27 :   0.4615 0.5000 0.0000  plane waves:   11881
 k-point 28 :   0.0000 0.0000 0.5000  plane waves:   11698
 k-point 29 :   0.0769-0.0000 0.5000  plane waves:   11752
 k-point 30 :   0.1538-0.0000 0.5000  plane waves:   11800
 k-point 31 :   0.2308-0.0000 0.5000  plane waves:   11834
 k-point 32 :   0.3077-0.0000 0.5000  plane waves:   11850
 k-point 33 :   0.3846-0.0000 0.5000  plane waves:   11888
 k-point 34 :   0.4615-0.0000 0.5000  plane waves:   11896
 k-point 35 :   0.0000 0.2500 0.5000  plane waves:   11714
 k-point 36 :   0.0769 0.2500 0.5000  plane waves:   11754
 k-point 37 :   0.1538 0.2500 0.5000  plane waves:   11802
 k-point 38 :   0.2308 0.2500 0.5000  plane waves:   11840
 k-point 39 :   0.3077 0.2500 0.5000  plane waves:   11858
 k-point 40 :   0.3846 0.2500 0.5000  plane waves:   11896
 k-point 41 :   0.4615 0.2500 0.5000  plane waves:   11886
 k-point 42 :  -0.4615 0.2500 0.5000  plane waves:   11852
 k-point 43 :  -0.3846 0.2500 0.5000  plane waves:   11838
 k-point 44 :  -0.3077 0.2500 0.5000  plane waves:   11842
 k-point 45 :  -0.2308 0.2500 0.5000  plane waves:   11840
 k-point 46 :  -0.1538 0.2500 0.5000  plane waves:   11804
 k-point 47 :  -0.0769 0.2500 0.5000  plane waves:   11748
 k-point 48 :   0.0000 0.5000 0.5000  plane waves:   11724
 k-point 49 :   0.0769 0.5000 0.5000  plane waves:   11748
 k-point 50 :   0.1538 0.5000 0.5000  plane waves:   11814
 k-point 51 :   0.2308 0.5000 0.5000  plane waves:   11832
 k-point 52 :   0.3077 0.5000 0.5000  plane waves:   11868
 k-point 53 :   0.3846 0.5000 0.5000  plane waves:   11892
 k-point 54 :   0.4615 0.5000 0.5000  plane waves:   11878

 maximum and minimum number of plane-waves per node :      5964     5832

 maximum number of plane-waves:     11896
 maximum index in each direction: 
   IXMAX=    5   IYMAX=   14   IZMAX=   38
   IXMIN=   -5   IYMIN=  -15   IZMIN=  -39

 WARNING: aliasing errors must be expected set NGX to  22 to avoid them
 NGY is ok and might be reduce to  60
 NGZ is ok and might be reduce to 156
 aliasing errors are usually negligible using standard VASP settings
 and one can safely disregard these warnings

 real space projection operators:
  total allocation   :       3793.25 KBytes
  max/ min on nodes  :       1899.38       1893.88


 parallel 3D FFT for wavefunctions:
    minimum data exchange during FFTs selected (reduces bandwidth)
 parallel 3D FFT for charge:
    minimum data exchange during FFTs selected (reduces bandwidth)


 total amount of memory used by VASP on root node   146493. kBytes
========================================================================

   base      :      30000. kBytes
   nonlr-proj:       3452. kBytes
   fftplans  :       9347. kBytes
   grid      :      14649. kBytes
   one-center:         36. kBytes
   wavefun   :      89009. kBytes
 
     INWAV:  cpu time    0.00: real time    0.00
 Broyden mixing: mesh for mixing (old mesh)
   NGX =  9   NGY = 29   NGZ = 77
  (NGX  = 40   NGY  =120   NGZ  =320)
  gives a total of  20097 points

 initial charge density was supplied:
 charge density of overlapping atoms calculated
 number of electron     108.0000000 magnetization 
 keeping initial charge density in first step


--------------------------------------------------------------------------------------------------------


 Maximum index for non-local projection operator         1333
 Maximum index for augmentation-charges          822 (set IRDMAX)


--------------------------------------------------------------------------------------------------------


 First call to EWALD:  gamma=   0.177
 Maximum number of real-space cells 7x 3x 1
 Maximum number of reciprocal cells 1x 3x 7

 FEWALD executed in parallel
    FEWALD:  cpu time    0.00: real time    0.00


----------------------------------------- Iteration    1(   1)  ---------------------------------------


vdW kernel read from vdw_kernel.bindat
  0.0000  0.2424  0.5071  0.7962  1.1119  1.4567  1.8333  2.2446  2.6937  3.1842
  3.7199  4.3049  4.9438  5.6415  6.4036  7.2358  8.1446  9.1372 10.2212 11.4050
 12.6979 14.1099 15.6519 17.3360 19.1751 21.1837 23.3773 25.7729 28.3892 31.2465
 34.3669 37.7748 41.4965 45.5611 50.0000
 
    POTLOK:  cpu time   15.98: real time   15.99
    SETDIJ:  cpu time    0.01: real time    0.01
     EDDAV:  cpu time   61.45: real time   61.51
       DOS:  cpu time    0.01: real time    0.01
    --------------------------------------------
      LOOP:  cpu time   77.46: real time   77.52

 eigenvalue-minimisations  :  7360
 total energy-change (2. order) : 0.5342113E+03  (-0.2874562E+04)
 number of electron     108.0000000 magnetization 
 augmentation part      108.0000000 magnetization 

 Free energy of the ion-electron system (eV)
  ---------------------------------------------------
  alpha Z        PSCENC =        36.80884744
  Ewald energy   TEWEN  =     12066.15055460
  -Hartree energ DENC   =    -15063.70763440
  -exchange      EXHF   =         0.00000000
  -V(xc)+E(xc)   XCENC  =       -87.16831268
  PAW double counting   =      1056.43050070     -732.41190547
  entropy T*S    EENTRO =        -0.04170315
  eigenvalues    EBANDS =       -95.89029496
  atomic energy  EATOM  =      3354.04126044
  ---------------------------------------------------
  free energy    TOTEN  =       534.21131253 eV

  energy without entropy =      534.25301568  energy(sigma->0) =      534.23216411


--------------------------------------------------------------------------------------------------------




----------------------------------------- Iteration    1(   2)  ---------------------------------------


     EDDAV:  cpu time   76.60: real time   76.66
       DOS:  cpu time    0.01: real time    0.01
    --------------------------------------------
      LOOP:  cpu time   76.61: real time   76.67

 eigenvalue-minimisations  :  9744
 total energy-change (2. order) :-0.5684503E+03  (-0.5528855E+03)
 number of electron     108.0000000 magnetization 
 augmentation part      108.0000000 magnetization 

 Free energy of the ion-electron system (eV)
  ---------------------------------------------------
  alpha Z        PSCENC =        36.80884744
  Ewald energy   TEWEN  =     12066.15055460
  -Hartree energ DENC   =    -15063.70763440
  -exchange      EXHF   =         0.00000000
  -V(xc)+E(xc)   XCENC  =       -87.16831268
  PAW double counting   =      1056.43050070     -732.41190547
  entropy T*S    EENTRO =        -0.02157510
  eigenvalues    EBANDS =      -664.36074166
  atomic energy  EATOM  =      3354.04126044
  ---------------------------------------------------
  free energy    TOTEN  =       -34.23900612 eV

  energy without entropy =      -34.21743102  energy(sigma->0) =      -34.22821857


--------------------------------------------------------------------------------------------------------




----------------------------------------- Iteration    1(   3)  ---------------------------------------


     EDDAV:  cpu time   72.01: real time   72.06
       DOS:  cpu time    0.01: real time    0.01
    --------------------------------------------
      LOOP:  cpu time   72.02: real time   72.07

 eigenvalue-minimisations  :  9032
 total energy-change (2. order) :-0.5952317E+02  (-0.5853353E+02)
 number of electron     108.0000000 magnetization 
 augmentation part      108.0000000 magnetization 

 Free energy of the ion-electron system (eV)
  ---------------------------------------------------
  alpha Z        PSCENC =        36.80884744
  Ewald energy   TEWEN  =     12066.15055460
  -Hartree energ DENC   =    -15063.70763440
  -exchange      EXHF   =         0.00000000
  -V(xc)+E(xc)   XCENC  =       -87.16831268
  PAW double counting   =      1056.43050070     -732.41190547
  entropy T*S    EENTRO =        -0.03227969
  eigenvalues    EBANDS =      -723.87321035
  atomic energy  EATOM  =      3354.04126044
  ---------------------------------------------------
  free energy    TOTEN  =       -93.76217940 eV

  energy without entropy =      -93.72989971  energy(sigma->0) =      -93.74603955


--------------------------------------------------------------------------------------------------------




----------------------------------------- Iteration    1(   4)  ---------------------------------------


     EDDAV:  cpu time   89.63: real time   89.68
       DOS:  cpu time    0.01: real time    0.01
    --------------------------------------------
      LOOP:  cpu time   89.64: real time   89.69

 eigenvalue-minimisations  : 11840
 total energy-change (2. order) :-0.3141880E+01  (-0.3114913E+01)
 number of electron     108.0000000 magnetization 
 augmentation part      108.0000000 magnetization 

 Free energy of the ion-electron system (eV)
  ---------------------------------------------------
  alpha Z        PSCENC =        36.80884744
  Ewald energy   TEWEN  =     12066.15055460
  -Hartree energ DENC   =    -15063.70763440
  -exchange      EXHF   =         0.00000000
  -V(xc)+E(xc)   XCENC  =       -87.16831268
  PAW double counting   =      1056.43050070     -732.41190547
  entropy T*S    EENTRO =        -0.03132515
  eigenvalues    EBANDS =      -727.01604459
  atomic energy  EATOM  =      3354.04126044
  ---------------------------------------------------
  free energy    TOTEN  =       -96.90405910 eV

  energy without entropy =      -96.87273395  energy(sigma->0) =      -96.88839653


--------------------------------------------------------------------------------------------------------




----------------------------------------- Iteration    1(   5)  ---------------------------------------


     EDDAV:  cpu time   79.73: real time   79.79
       DOS:  cpu time    0.01: real time    0.01
    CHARGE:  cpu time    4.13: real time    4.13
    MIXING:  cpu time    0.01: real time    0.01
    --------------------------------------------
      LOOP:  cpu time   83.88: real time   83.94

 eigenvalue-minimisations  : 10216
 total energy-change (2. order) :-0.4935225E-01  (-0.4923749E-01)
 number of electron     107.9999995 magnetization 
 augmentation part       -9.8390060 magnetization 

 Broyden mixing:
  rms(total) = 0.13619E+01    rms(broyden)= 0.13613E+01
  rms(prec ) = 0.14814E+01
  weight for this iteration     100.00

 Free energy of the ion-electron system (eV)
  ---------------------------------------------------
  alpha Z        PSCENC =        36.80884744
  Ewald energy   TEWEN  =     12066.15055460
  -Hartree energ DENC   =    -15063.70763440
  -exchange      EXHF   =         0.00000000
  -V(xc)+E(xc)   XCENC  =       -87.16831268
  PAW double counting   =      1056.43050070     -732.41190547
  entropy T*S    EENTRO =        -0.03124110
  eigenvalues    EBANDS =      -727.06548089
  atomic energy  EATOM  =      3354.04126044
  ---------------------------------------------------
  free energy    TOTEN  =       -96.95341135 eV

  energy without entropy =      -96.92217025  energy(sigma->0) =      -96.93779080


--------------------------------------------------------------------------------------------------------




----------------------------------------- Iteration    1(   6)  ---------------------------------------


    POTLOK:  cpu time   14.46: real time   14.47
    SETDIJ:  cpu time    0.01: real time    0.01
     EDDAV:  cpu time   73.07: real time   73.12
       DOS:  cpu time    0.01: real time    0.01
    CHARGE:  cpu time    4.15: real time    4.15
    MIXING:  cpu time    0.01: real time    0.01
    --------------------------------------------
      LOOP:  cpu time   91.72: real time   91.77

 eigenvalue-minimisations  :  9152
 total energy-change (2. order) : 0.5613517E+01  (-0.1716173E+01)
 number of electron     107.9999994 magnetization 
 augmentation part       -9.6224893 magnetization 

 Broyden mixing:
  rms(total) = 0.63956E+00    rms(broyden)= 0.63950E+00
  rms(prec ) = 0.68256E+00
  weight for this iteration     100.00

 eigenvalues of (default mixing * dielectric matrix)
  average eigenvalue GAMMA=   1.3825
  1.3825

 Free energy of the ion-electron system (eV)
  ---------------------------------------------------
  alpha Z        PSCENC =        36.80884744
  Ewald energy   TEWEN  =     12066.15055460
  -Hartree energ DENC   =    -15119.74591574
  -exchange      EXHF   =         0.00000000
  -V(xc)+E(xc)   XCENC  =       -83.90387959
  PAW double counting   =      1133.90855702     -812.38274367
  entropy T*S    EENTRO =        -0.02431391
  eigenvalues    EBANDS =      -666.19226097
  atomic energy  EATOM  =      3354.04126044
  ---------------------------------------------------
  free energy    TOTEN  =       -91.33989437 eV

  energy without entropy =      -91.31558045  energy(sigma->0) =      -91.32773741


--------------------------------------------------------------------------------------------------------




----------------------------------------- Iteration    1(   7)  ---------------------------------------


    POTLOK:  cpu time   14.48: real time   14.49
    SETDIJ:  cpu time    0.01: real time    0.01
     EDDAV:  cpu time   67.34: real time   67.36
       DOS:  cpu time    0.01: real time    0.01
    CHARGE:  cpu time    4.13: real time    4.13
    MIXING:  cpu time    0.01: real time    0.01
    --------------------------------------------
      LOOP:  cpu time   85.99: real time   86.02

 eigenvalue-minimisations  :  8256
 total energy-change (2. order) :-0.2303796E+00  (-0.1128918E+01)
 number of electron     107.9999995 magnetization 
 augmentation part       -9.5419138 magnetization 

 Broyden mixing:
  rms(total) = 0.33492E+00    rms(broyden)= 0.33478E+00
  rms(prec ) = 0.35739E+00
  weight for this iteration     100.00

 eigenvalues of (default mixing * dielectric matrix)
  average eigenvalue GAMMA=   1.1932
  0.9982  1.3882

 Free energy of the ion-electron system (eV)
  ---------------------------------------------------
  alpha Z        PSCENC =        36.80884744
  Ewald energy   TEWEN  =     12066.15055460
  -Hartree energ DENC   =    -15137.59117265
  -exchange      EXHF   =         0.00000000
  -V(xc)+E(xc)   XCENC  =       -81.43948680
  PAW double counting   =      1180.56101923     -860.42699976
  entropy T*S    EENTRO =        -0.03243043
  eigenvalues    EBANDS =      -649.64186603
  atomic energy  EATOM  =      3354.04126044
  ---------------------------------------------------
  free energy    TOTEN  =       -91.57027396 eV

  energy without entropy =      -91.53784352  energy(sigma->0) =      -91.55405874


--------------------------------------------------------------------------------------------------------




----------------------------------------- Iteration    1(   8)  ---------------------------------------


    POTLOK:  cpu time   14.48: real time   14.48
    SETDIJ:  cpu time    0.01: real time    0.01
     EDDAV:  cpu time   72.73: real time   72.78
       DOS:  cpu time    0.01: real time    0.01
    CHARGE:  cpu time    4.11: real time    4.11
    MIXING:  cpu time    0.01: real time    0.01
    --------------------------------------------
      LOOP:  cpu time   91.36: real time   91.41

 eigenvalue-minimisations  :  9080
 total energy-change (2. order) : 0.4003923E-01  (-0.1356145E+00)
 number of electron     107.9999995 magnetization 
 augmentation part       -9.5274224 magnetization 

 Broyden mixing:
  rms(total) = 0.18814E+00    rms(broyden)= 0.18812E+00
  rms(prec ) = 0.20813E+00
  weight for this iteration     100.00

 eigenvalues of (default mixing * dielectric matrix)
  average eigenvalue GAMMA=   1.2971
  1.9910  1.0719  0.8285

 Free energy of the ion-electron system (eV)
  ---------------------------------------------------
  alpha Z        PSCENC =        36.80884744
  Ewald energy   TEWEN  =     12066.15055460
  -Hartree energ DENC   =    -15144.45666305
  -exchange      EXHF   =         0.00000000
  -V(xc)+E(xc)   XCENC  =       -80.42824463
  PAW double counting   =      1193.90742682     -874.16585266
  entropy T*S    EENTRO =        -0.03118047
  eigenvalues    EBANDS =      -643.35638322
  atomic energy  EATOM  =      3354.04126044
  ---------------------------------------------------
  free energy    TOTEN  =       -91.53023472 eV

  energy without entropy =      -91.49905425  energy(sigma->0) =      -91.51464449


--------------------------------------------------------------------------------------------------------




----------------------------------------- Iteration    1(   9)  ---------------------------------------


    POTLOK:  cpu time   14.47: real time   14.48
    SETDIJ:  cpu time    0.01: real time    0.01
     EDDAV:  cpu time   73.76: real time   73.83
       DOS:  cpu time    0.01: real time    0.01
    CHARGE:  cpu time    4.14: real time    4.14
    MIXING:  cpu time    0.01: real time    0.01
    --------------------------------------------
      LOOP:  cpu time   92.41: real time   92.49

 eigenvalue-minimisations  :  9248
 total energy-change (2. order) :-0.3180955E-01  (-0.6544512E-01)
 number of electron     107.9999995 magnetization 
 augmentation part       -9.5205316 magnetization 

 Broyden mixing:
  rms(total) = 0.10460E+00    rms(broyden)= 0.10459E+00
  rms(prec ) = 0.12964E+00
  weight for this iteration     100.00

 eigenvalues of (default mixing * dielectric matrix)
  average eigenvalue GAMMA=   1.2522
  2.3902  1.0356  1.0356  0.5472

 Free energy of the ion-electron system (eV)
  ---------------------------------------------------
  alpha Z        PSCENC =        36.80884744
  Ewald energy   TEWEN  =     12066.15055460
  -Hartree energ DENC   =    -15158.46645518
  -exchange      EXHF   =         0.00000000
  -V(xc)+E(xc)   XCENC  =       -79.58033147
  PAW double counting   =      1203.45652739     -884.00424913
  entropy T*S    EENTRO =        -0.03304161
  eigenvalues    EBANDS =      -629.93515676
  atomic energy  EATOM  =      3354.04126044
  ---------------------------------------------------
  free energy    TOTEN  =       -91.56204428 eV

  energy without entropy =      -91.52900267  energy(sigma->0) =      -91.54552347


--------------------------------------------------------------------------------------------------------




----------------------------------------- Iteration    1(  10)  ---------------------------------------


    POTLOK:  cpu time   14.46: real time   14.47
    SETDIJ:  cpu time    0.01: real time    0.01
     EDDAV:  cpu time   71.24: real time   71.26
       DOS:  cpu time    0.01: real time    0.01
    CHARGE:  cpu time    4.12: real time    4.12
    MIXING:  cpu time    0.01: real time    0.01
    --------------------------------------------
      LOOP:  cpu time   89.86: real time   89.89

 eigenvalue-minimisations  :  8824
 total energy-change (2. order) : 0.1234409E-01  (-0.1930260E-01)
 number of electron     107.9999995 magnetization 
 augmentation part       -9.5118118 magnetization 

 Broyden mixing:
  rms(total) = 0.32636E-01    rms(broyden)= 0.32628E-01
  rms(prec ) = 0.35231E-01
  weight for this iteration     100.00

 eigenvalues of (default mixing * dielectric matrix)
  average eigenvalue GAMMA=   1.2718
  2.5279  1.1735  1.1735  0.9617  0.5223

 Free energy of the ion-electron system (eV)
  ---------------------------------------------------
  alpha Z        PSCENC =        36.80884744
  Ewald energy   TEWEN  =     12066.15055460
  -Hartree energ DENC   =    -15160.44133154
  -exchange      EXHF   =         0.00000000
  -V(xc)+E(xc)   XCENC  =       -79.14992973
  PAW double counting   =      1207.17351702     -887.85312412
  entropy T*S    EENTRO =        -0.03585828
  eigenvalues    EBANDS =      -628.24363604
  atomic energy  EATOM  =      3354.04126044
  ---------------------------------------------------
  free energy    TOTEN  =       -91.54970019 eV

  energy without entropy =      -91.51384191  energy(sigma->0) =      -91.53177105


--------------------------------------------------------------------------------------------------------




----------------------------------------- Iteration    1(  11)  ---------------------------------------


    POTLOK:  cpu time   14.46: real time   14.47
    SETDIJ:  cpu time    0.01: real time    0.01
     EDDAV:  cpu time   76.50: real time   76.52
       DOS:  cpu time    0.01: real time    0.01
    CHARGE:  cpu time    4.13: real time    4.13
    MIXING:  cpu time    0.01: real time    0.01
    --------------------------------------------
      LOOP:  cpu time   95.13: real time   95.16

 eigenvalue-minimisations  :  9636
 total energy-change (2. order) : 0.5229119E-02  (-0.4159929E-02)
 number of electron     107.9999995 magnetization 
 augmentation part       -9.5119190 magnetization 

 Broyden mixing:
  rms(total) = 0.16415E-01    rms(broyden)= 0.16411E-01
  rms(prec ) = 0.18974E-01
  weight for this iteration     100.00

 eigenvalues of (default mixing * dielectric matrix)
  average eigenvalue GAMMA=   1.2686
  2.5330  1.5728  1.0646  1.0646  0.8540  0.5229

 Free energy of the ion-electron system (eV)
  ---------------------------------------------------
  alpha Z        PSCENC =        36.80884744
  Ewald energy   TEWEN  =     12066.15055460
  -Hartree energ DENC   =    -15162.43429515
  -exchange      EXHF   =         0.00000000
  -V(xc)+E(xc)   XCENC  =       -79.04046583
  PAW double counting   =      1205.90355251     -886.55785333
  entropy T*S    EENTRO =        -0.03600546
  eigenvalues    EBANDS =      -626.38006630
  atomic energy  EATOM  =      3354.04126044
  ---------------------------------------------------
  free energy    TOTEN  =       -91.54447107 eV

  energy without entropy =      -91.50846561  energy(sigma->0) =      -91.52646834


--------------------------------------------------------------------------------------------------------




----------------------------------------- Iteration    1(  12)  ---------------------------------------


    POTLOK:  cpu time   14.45: real time   14.45
    SETDIJ:  cpu time    0.01: real time    0.01
     EDDAV:  cpu time   73.40: real time   73.42
       DOS:  cpu time    0.01: real time    0.01
    CHARGE:  cpu time    4.36: real time    4.36
    MIXING:  cpu time    0.01: real time    0.01
    --------------------------------------------
      LOOP:  cpu time   92.25: real time   92.27

 eigenvalue-minimisations  :  9120
 total energy-change (2. order) : 0.1057510E-01  (-0.5559937E-03)
 number of electron     107.9999995 magnetization 
 augmentation part       -9.5142259 magnetization 

 Broyden mixing:
  rms(total) = 0.76877E-02    rms(broyden)= 0.76872E-02
  rms(prec ) = 0.90823E-02
  weight for this iteration     100.00

 eigenvalues of (default mixing * dielectric matrix)
  average eigenvalue GAMMA=   1.3183
  2.6520  1.9888  1.0958  1.0958  0.9352  0.9352  0.5256

 Free energy of the ion-electron system (eV)
  ---------------------------------------------------
  alpha Z        PSCENC =        36.80884744
  Ewald energy   TEWEN  =     12066.15055460
  -Hartree energ DENC   =    -15163.56502601
  -exchange      EXHF   =         0.00000000
  -V(xc)+E(xc)   XCENC  =       -79.03800088
  PAW double counting   =      1204.22799222     -884.83628035
  entropy T*S    EENTRO =        -0.03598399
  eigenvalues    EBANDS =      -625.28725945
  atomic energy  EATOM  =      3354.04126044
  ---------------------------------------------------
  free energy    TOTEN  =       -91.53389597 eV

  energy without entropy =      -91.49791198  energy(sigma->0) =      -91.51590397


--------------------------------------------------------------------------------------------------------




----------------------------------------- Iteration    1(  13)  ---------------------------------------


    POTLOK:  cpu time   14.49: real time   14.50
    SETDIJ:  cpu time    0.01: real time    0.01
     EDDAV:  cpu time   72.40: real time   72.42
       DOS:  cpu time    0.01: real time    0.01
    CHARGE:  cpu time    4.36: real time    4.36
    MIXING:  cpu time    0.01: real time    0.01
    --------------------------------------------
      LOOP:  cpu time   91.29: real time   91.31

 eigenvalue-minimisations  :  9068
 total energy-change (2. order) : 0.6827640E-02  (-0.1683639E-03)
 number of electron     107.9999995 magnetization 
 augmentation part       -9.5154657 magnetization 

 Broyden mixing:
  rms(total) = 0.29919E-02    rms(broyden)= 0.29912E-02
  rms(prec ) = 0.43426E-02
  weight for this iteration     100.00

 eigenvalues of (default mixing * dielectric matrix)
  average eigenvalue GAMMA=   1.3291
  2.6981  2.0443  1.4113  0.5261  1.0438  1.0438  0.9326  0.9326

 Free energy of the ion-electron system (eV)
  ---------------------------------------------------
  alpha Z        PSCENC =        36.80884744
  Ewald energy   TEWEN  =     12066.15055460
  -Hartree energ DENC   =    -15164.46021916
  -exchange      EXHF   =         0.00000000
  -V(xc)+E(xc)   XCENC  =       -79.02275525
  PAW double counting   =      1203.20508518     -883.78626369
  entropy T*S    EENTRO =        -0.03593851
  eigenvalues    EBANDS =      -624.42763939
  atomic energy  EATOM  =      3354.04126044
  ---------------------------------------------------
  free energy    TOTEN  =       -91.52706833 eV

  energy without entropy =      -91.49112982  energy(sigma->0) =      -91.50909907


--------------------------------------------------------------------------------------------------------




----------------------------------------- Iteration    1(  14)  ---------------------------------------


    POTLOK:  cpu time   14.50: real time   14.50
    SETDIJ:  cpu time    0.01: real time    0.01
     EDDAV:  cpu time   75.39: real time   75.40
       DOS:  cpu time    0.01: real time    0.01
    CHARGE:  cpu time    4.15: real time    4.16
    MIXING:  cpu time    0.01: real time    0.01
    --------------------------------------------
      LOOP:  cpu time   94.08: real time   94.10

 eigenvalue-minimisations  :  9488
 total energy-change (2. order) : 0.2331687E-02  (-0.3152017E-04)
 number of electron     107.9999995 magnetization 
 augmentation part       -9.5150954 magnetization 

 Broyden mixing:
  rms(total) = 0.19063E-02    rms(broyden)= 0.19061E-02
  rms(prec ) = 0.30261E-02
  weight for this iteration     100.00

 eigenvalues of (default mixing * dielectric matrix)
  average eigenvalue GAMMA=   1.3830
  2.7413  2.3303  1.8038  0.5264  1.0708  1.0708  1.0377  0.9331  0.9331

 Free energy of the ion-electron system (eV)
  ---------------------------------------------------
  alpha Z        PSCENC =        36.80884744
  Ewald energy   TEWEN  =     12066.15055460
  -Hartree energ DENC   =    -15165.39845509
  -exchange      EXHF   =         0.00000000
  -V(xc)+E(xc)   XCENC  =       -79.01510142
  PAW double counting   =      1202.95375632     -883.52880748
  entropy T*S    EENTRO =        -0.03592356
  eigenvalues    EBANDS =      -623.50086790
  atomic energy  EATOM  =      3354.04126044
  ---------------------------------------------------
  free energy    TOTEN  =       -91.52473664 eV

  energy without entropy =      -91.48881308  energy(sigma->0) =      -91.50677486


--------------------------------------------------------------------------------------------------------




----------------------------------------- Iteration    1(  15)  ---------------------------------------


    POTLOK:  cpu time   14.54: real time   14.54
    SETDIJ:  cpu time    0.01: real time    0.01
     EDDAV:  cpu time   74.47: real time   74.49
       DOS:  cpu time    0.01: real time    0.01
    CHARGE:  cpu time    4.11: real time    4.11
    MIXING:  cpu time    0.01: real time    0.01
    --------------------------------------------
      LOOP:  cpu time   93.16: real time   93.18

 eigenvalue-minimisations  :  9344
 total energy-change (2. order) : 0.1503919E-02  (-0.1195410E-04)
 number of electron     107.9999995 magnetization 
 augmentation part       -9.5147545 magnetization 

 Broyden mixing:
  rms(total) = 0.98177E-03    rms(broyden)= 0.98168E-03
  rms(prec ) = 0.17853E-02
  weight for this iteration     100.00

 eigenvalues of (default mixing * dielectric matrix)
  average eigenvalue GAMMA=   1.4324
  3.0742  2.5882  1.5789  1.5789  0.5264  1.0755  1.0755  0.9607  0.9327  0.9327

 Free energy of the ion-electron system (eV)
  ---------------------------------------------------
  alpha Z        PSCENC =        36.80884744
  Ewald energy   TEWEN  =     12066.15055460
  -Hartree energ DENC   =    -15166.38307028
  -exchange      EXHF   =         0.00000000
  -V(xc)+E(xc)   XCENC  =       -79.01013300
  PAW double counting   =      1202.74469354     -883.31505499
  entropy T*S    EENTRO =        -0.03592339
  eigenvalues    EBANDS =      -622.52440709
  atomic energy  EATOM  =      3354.04126044
  ---------------------------------------------------
  free energy    TOTEN  =       -91.52323272 eV

  energy without entropy =      -91.48730933  energy(sigma->0) =      -91.50527103


--------------------------------------------------------------------------------------------------------




----------------------------------------- Iteration    1(  16)  ---------------------------------------


    POTLOK:  cpu time   14.52: real time   14.52
    SETDIJ:  cpu time    0.01: real time    0.01
     EDDAV:  cpu time   67.27: real time   67.30
       DOS:  cpu time    0.01: real time    0.01
    CHARGE:  cpu time    4.37: real time    4.37
    MIXING:  cpu time    0.01: real time    0.01
    --------------------------------------------
      LOOP:  cpu time   86.20: real time   86.23

 eigenvalue-minimisations  :  8176
 total energy-change (2. order) : 0.4195316E-03  (-0.6395690E-05)
 number of electron     107.9999995 magnetization 
 augmentation part       -9.5147418 magnetization 

 Broyden mixing:
  rms(total) = 0.72563E-03    rms(broyden)= 0.72558E-03
  rms(prec ) = 0.11973E-02
  weight for this iteration     100.00

 eigenvalues of (default mixing * dielectric matrix)
  average eigenvalue GAMMA=   1.5105
  3.5581  2.6001  1.9091  1.9091  0.5264  1.0824  1.0824  1.2225  0.9021  0.9114
  0.9114

 Free energy of the ion-electron system (eV)
  ---------------------------------------------------
  alpha Z        PSCENC =        36.80884744
  Ewald energy   TEWEN  =     12066.15055460
  -Hartree energ DENC   =    -15167.12323655
  -exchange      EXHF   =         0.00000000
  -V(xc)+E(xc)   XCENC  =       -79.00623475
  PAW double counting   =      1202.65755275     -883.22570464
  entropy T*S    EENTRO =        -0.03592913
  eigenvalues    EBANDS =      -621.78992337
  atomic energy  EATOM  =      3354.04126044
  ---------------------------------------------------
  free energy    TOTEN  =       -91.52281319 eV

  energy without entropy =      -91.48688406  energy(sigma->0) =      -91.50484863


--------------------------------------------------------------------------------------------------------




----------------------------------------- Iteration    1(  17)  ---------------------------------------


    POTLOK:  cpu time   14.58: real time   14.58
    SETDIJ:  cpu time    0.01: real time    0.01
     EDDAV:  cpu time   66.59: real time   66.61
       DOS:  cpu time    0.01: real time    0.01
    CHARGE:  cpu time    4.21: real time    4.21
    MIXING:  cpu time    0.01: real time    0.01
    --------------------------------------------
      LOOP:  cpu time   85.42: real time   85.44

 eigenvalue-minimisations  :  8152
 total energy-change (2. order) :-0.6494890E-03  (-0.1128108E-04)
 number of electron     107.9999995 magnetization 
 augmentation part       -9.5146450 magnetization 

 Broyden mixing:
  rms(total) = 0.34555E-03    rms(broyden)= 0.34551E-03
  rms(prec ) = 0.60969E-03
  weight for this iteration     100.00

 eigenvalues of (default mixing * dielectric matrix)
  average eigenvalue GAMMA=   1.6402
  5.0333  2.7720  2.3345  1.5890  1.5078  0.5264  1.0804  1.0804  1.0630  0.9091
  0.9091  0.8777

 Free energy of the ion-electron system (eV)
  ---------------------------------------------------
  alpha Z        PSCENC =        36.80884744
  Ewald energy   TEWEN  =     12066.15055460
  -Hartree energ DENC   =    -15167.77492330
  -exchange      EXHF   =         0.00000000
  -V(xc)+E(xc)   XCENC  =       -79.00227259
  PAW double counting   =      1202.69378171     -883.26288380
  entropy T*S    EENTRO =        -0.03592560
  eigenvalues    EBANDS =      -621.14190159
  atomic energy  EATOM  =      3354.04126044
  ---------------------------------------------------
  free energy    TOTEN  =       -91.52346268 eV

  energy without entropy =      -91.48753708  energy(sigma->0) =      -91.50549988


--------------------------------------------------------------------------------------------------------




----------------------------------------- Iteration    1(  18)  ---------------------------------------


    POTLOK:  cpu time   14.63: real time   14.63
    SETDIJ:  cpu time    0.01: real time    0.01
     EDDAV:  cpu time   67.15: real time   67.16
       DOS:  cpu time    0.01: real time    0.01
    CHARGE:  cpu time    4.14: real time    4.14
    MIXING:  cpu time    0.01: real time    0.01
    --------------------------------------------
      LOOP:  cpu time   85.96: real time   85.98

 eigenvalue-minimisations  :  8240
 total energy-change (2. order) :-0.3481440E-03  (-0.1502332E-04)
 number of electron     107.9999995 magnetization 
 augmentation part       -9.5145836 magnetization 

 Broyden mixing:
  rms(total) = 0.20999E-03    rms(broyden)= 0.20997E-03
  rms(prec ) = 0.36094E-03
  weight for this iteration     100.00

 eigenvalues of (default mixing * dielectric matrix)
  average eigenvalue GAMMA=   1.7164
  5.8286  2.8080  2.4288  1.8234  1.8234  0.5264  1.0810  1.0810  1.1085  1.1085
  0.9046  0.9046  0.8861

 Free energy of the ion-electron system (eV)
  ---------------------------------------------------
  alpha Z        PSCENC =        36.80884744
  Ewald energy   TEWEN  =     12066.15055460
  -Hartree energ DENC   =    -15168.15098000
  -exchange      EXHF   =         0.00000000
  -V(xc)+E(xc)   XCENC  =       -79.00069832
  PAW double counting   =      1202.71714188     -883.28677128
  entropy T*S    EENTRO =        -0.03592479
  eigenvalues    EBANDS =      -620.76724081
  atomic energy  EATOM  =      3354.04126044
  ---------------------------------------------------
  free energy    TOTEN  =       -91.52381082 eV

  energy without entropy =      -91.48788603  energy(sigma->0) =      -91.50584843


--------------------------------------------------------------------------------------------------------




----------------------------------------- Iteration    1(  19)  ---------------------------------------


    POTLOK:  cpu time   14.47: real time   14.47
    SETDIJ:  cpu time    0.01: real time    0.01
     EDDAV:  cpu time   62.24: real time   62.26
       DOS:  cpu time    0.01: real time    0.01
    CHARGE:  cpu time    4.15: real time    4.15
    MIXING:  cpu time    0.01: real time    0.02
    --------------------------------------------
      LOOP:  cpu time   80.90: real time   80.92

 eigenvalue-minimisations  :  7392
 total energy-change (2. order) :-0.7611845E-04  (-0.3188003E-05)
 number of electron     107.9999995 magnetization 
 augmentation part       -9.5145691 magnetization 

 Broyden mixing:
  rms(total) = 0.12853E-03    rms(broyden)= 0.12852E-03
  rms(prec ) = 0.22941E-03
  weight for this iteration     100.00

 eigenvalues of (default mixing * dielectric matrix)
  average eigenvalue GAMMA=   1.7361
  6.3005  2.9390  2.5805  1.9472  1.6202  0.5264  1.4318  1.0844  1.0844  0.9080
  0.9080  1.0548  1.0548  0.8647

 Free energy of the ion-electron system (eV)
  ---------------------------------------------------
  alpha Z        PSCENC =        36.80884744
  Ewald energy   TEWEN  =     12066.15055460
  -Hartree energ DENC   =    -15168.33136139
  -exchange      EXHF   =         0.00000000
  -V(xc)+E(xc)   XCENC  =       -79.00002003
  PAW double counting   =      1202.72249749     -883.29216772
  entropy T*S    EENTRO =        -0.03592293
  eigenvalues    EBANDS =      -620.58757486
  atomic energy  EATOM  =      3354.04126044
  ---------------------------------------------------
  free energy    TOTEN  =       -91.52388694 eV

  energy without entropy =      -91.48796401  energy(sigma->0) =      -91.50592548


--------------------------------------------------------------------------------------------------------




----------------------------------------- Iteration    1(  20)  ---------------------------------------


    POTLOK:  cpu time   14.47: real time   14.47
    SETDIJ:  cpu time    0.01: real time    0.01
     EDDAV:  cpu time   56.33: real time   56.34
       DOS:  cpu time    0.01: real time    0.01
    CHARGE:  cpu time    4.18: real time    4.18
    MIXING:  cpu time    0.02: real time    0.02
    --------------------------------------------
      LOOP:  cpu time   75.01: real time   75.03

 eigenvalue-minimisations  :  6496
 total energy-change (2. order) :-0.3391711E-04  (-0.1029186E-05)
 number of electron     107.9999995 magnetization 
 augmentation part       -9.5145806 magnetization 

 Broyden mixing:
  rms(total) = 0.89065E-04    rms(broyden)= 0.89060E-04
  rms(prec ) = 0.16257E-03
  weight for this iteration     100.00

 eigenvalues of (default mixing * dielectric matrix)
  average eigenvalue GAMMA=   1.7656
  6.6930  3.0536  2.6349  1.9394  1.9394  0.5264  1.3971  1.3971  1.0856  1.0856
  0.9074  0.9074  1.0210  1.0210  0.8752

 Free energy of the ion-electron system (eV)
  ---------------------------------------------------
  alpha Z        PSCENC =        36.80884744
  Ewald energy   TEWEN  =     12066.15055460
  -Hartree energ DENC   =    -15168.39125995
  -exchange      EXHF   =         0.00000000
  -V(xc)+E(xc)   XCENC  =       -78.99988969
  PAW double counting   =      1202.72394129     -883.29359756
  entropy T*S    EENTRO =        -0.03592290
  eigenvalues    EBANDS =      -620.52785454
  atomic energy  EATOM  =      3354.04126044
  ---------------------------------------------------
  free energy    TOTEN  =       -91.52392086 eV

  energy without entropy =      -91.48799796  energy(sigma->0) =      -91.50595941


--------------------------------------------------------------------------------------------------------




----------------------------------------- Iteration    1(  21)  ---------------------------------------


    POTLOK:  cpu time   14.61: real time   14.61
    SETDIJ:  cpu time    0.01: real time    0.01
     EDDAV:  cpu time   61.04: real time   61.05
       DOS:  cpu time    0.01: real time    0.01
    CHARGE:  cpu time    4.39: real time    4.39
    MIXING:  cpu time    0.01: real time    0.02
    --------------------------------------------
      LOOP:  cpu time   80.08: real time   80.09

 eigenvalue-minimisations  :  7232
 total energy-change (2. order) : 0.1838516E-05  (-0.1980853E-05)
 number of electron     107.9999995 magnetization 
 augmentation part       -9.5145790 magnetization 

 Broyden mixing:
  rms(total) = 0.59697E-04    rms(broyden)= 0.59695E-04
  rms(prec ) = 0.10017E-03
  weight for this iteration     100.00

 eigenvalues of (default mixing * dielectric matrix)
  average eigenvalue GAMMA=   1.8497
  6.8903  4.0653  2.7834  2.4641  1.7048  1.7048  0.5264  1.3074  1.3074  1.0870
  1.0870  0.9080  0.9080  0.9883  0.9883  0.8738

 Free energy of the ion-electron system (eV)
  ---------------------------------------------------
  alpha Z        PSCENC =        36.80884744
  Ewald energy   TEWEN  =     12066.15055460
  -Hartree energ DENC   =    -15168.44926786
  -exchange      EXHF   =         0.00000000
  -V(xc)+E(xc)   XCENC  =       -78.99983823
  PAW double counting   =      1202.72042097     -883.28998381
  entropy T*S    EENTRO =        -0.03592402
  eigenvalues    EBANDS =      -620.46998856
  atomic energy  EATOM  =      3354.04126044
  ---------------------------------------------------
  free energy    TOTEN  =       -91.52391902 eV

  energy without entropy =      -91.48799500  energy(sigma->0) =      -91.50595701


--------------------------------------------------------------------------------------------------------




----------------------------------------- Iteration    1(  22)  ---------------------------------------


    POTLOK:  cpu time   14.66: real time   14.66
    SETDIJ:  cpu time    0.01: real time    0.01
     EDDAV:  cpu time   60.41: real time   60.43
       DOS:  cpu time    0.01: real time    0.01
    CHARGE:  cpu time    4.14: real time    4.14
    MIXING:  cpu time    0.02: real time    0.02
    --------------------------------------------
      LOOP:  cpu time   79.25: real time   79.27

 eigenvalue-minimisations  :  7096
 total energy-change (2. order) : 0.5573424E-04  (-0.1591337E-05)
 number of electron     107.9999995 magnetization 
 augmentation part       -9.5145801 magnetization 

 Broyden mixing:
  rms(total) = 0.36637E-04    rms(broyden)= 0.36635E-04
  rms(prec ) = 0.52379E-04
  weight for this iteration     100.00

 eigenvalues of (default mixing * dielectric matrix)
  average eigenvalue GAMMA=   1.9722
  7.4338  5.3642  2.8784  2.5825  2.1978  1.7516  0.5264  1.3748  1.3748  1.0862
  1.0862  1.1735  0.9079  0.9079  1.0060  1.0060  0.8692

 Free energy of the ion-electron system (eV)
  ---------------------------------------------------
  alpha Z        PSCENC =        36.80884744
  Ewald energy   TEWEN  =     12066.15055460
  -Hartree energ DENC   =    -15168.47047363
  -exchange      EXHF   =         0.00000000
  -V(xc)+E(xc)   XCENC  =       -78.99998944
  PAW double counting   =      1202.71621698     -883.28569242
  entropy T*S    EENTRO =        -0.03592501
  eigenvalues    EBANDS =      -620.44866227
  atomic energy  EATOM  =      3354.04126044
  ---------------------------------------------------
  free energy    TOTEN  =       -91.52386329 eV

  energy without entropy =      -91.48793828  energy(sigma->0) =      -91.50590078


--------------------------------------------------------------------------------------------------------




----------------------------------------- Iteration    1(  23)  ---------------------------------------


    POTLOK:  cpu time   14.47: real time   14.48
    SETDIJ:  cpu time    0.01: real time    0.01
     EDDAV:  cpu time   57.18: real time   57.19
       DOS:  cpu time    0.01: real time    0.01
    CHARGE:  cpu time    4.38: real time    4.38
    MIXING:  cpu time    0.02: real time    0.02
    --------------------------------------------
      LOOP:  cpu time   76.08: real time   76.10

 eigenvalue-minimisations  :  6584
 total energy-change (2. order) : 0.4835370E-04  (-0.1113155E-05)
 number of electron     107.9999995 magnetization 
[...]
     31      -4.1864      2.00000
     32      -4.0047      2.00000
     33      -3.7555      2.00000
     34      -3.6473      2.00000
     35      -3.3619      2.00000
     36      -3.2353      2.00000
     37      -3.0698      2.00000
     38      -3.0308      2.00000
     39      -2.9827      2.00000
     40      -2.7917      2.00000
     41      -2.5949      2.00000
     42      -2.5429      2.00000
     43      -2.3253      2.00000
     44      -2.0284      2.00000
     45      -1.9392      2.00000
     46      -1.7893      2.00000
     47      -1.7432      2.00000
     48      -1.5686      2.00000
     49      -1.3950      2.00000
     50      -1.2667      2.00000
     51      -1.0972      2.00000
     52      -0.9210      2.00000
     53      -0.8362      2.00000
     54      -0.1893      2.00000
     55       0.5958      0.00001
     56       0.7788      0.00000
     57       1.2562      0.00000
     58       1.4098      0.00000
     59       1.5523      0.00000
     60       1.6490      0.00000
     61       1.7600      0.00000
     62       2.2380      0.00000
     63       2.4177      0.00000
     64       2.5732      0.00000
     65       2.6411      0.00000
     66       2.7221      0.00000
     67       2.9112      0.00000
     68       3.0322      0.00000

 k-point    52 :       0.3077    0.5000    0.5000
  band No.  band energies     occupation 
      1     -13.8692      2.00000
      2     -12.5172      2.00000
      3     -12.4969      2.00000
      4     -12.1700      2.00000
      5     -11.7822      2.00000
      6     -11.6434      2.00000
      7     -11.3289      2.00000
      8     -11.0229      2.00000
      9     -10.8145      2.00000
     10     -10.6165      2.00000
     11     -10.4001      2.00000
     12      -9.9773      2.00000
     13      -9.0074      2.00000
     14      -8.9274      2.00000
     15      -8.6049      2.00000
     16      -7.7795      2.00000
     17      -7.3211      2.00000
     18      -7.0697      2.00000
     19      -6.9921      2.00000
     20      -6.9635      2.00000
     21      -6.3570      2.00000
     22      -6.1965      2.00000
     23      -6.0453      2.00000
     24      -5.9305      2.00000
     25      -5.4971      2.00000
     26      -5.3948      2.00000
     27      -5.3187      2.00000
     28      -4.9046      2.00000
     29      -4.6734      2.00000
     30      -4.4911      2.00000
     31      -4.3898      2.00000
     32      -4.3038      2.00000
     33      -4.0873      2.00000
     34      -3.7630      2.00000
     35      -3.4143      2.00000
     36      -3.2535      2.00000
     37      -3.1393      2.00000
     38      -3.0874      2.00000
     39      -2.9378      2.00000
     40      -2.8924      2.00000
     41      -2.7902      2.00000
     42      -2.5337      2.00000
     43      -2.4094      2.00000
     44      -2.2781      2.00000
     45      -2.0881      2.00000
     46      -1.9554      2.00000
     47      -1.8844      2.00000
     48      -1.7524      2.00000
     49      -1.6043      2.00000
     50      -1.3630      2.00000
     51      -1.1807      2.00000
     52      -1.1460      2.00000
     53      -0.9257      2.00000
     54      -0.6332      2.00000
     55       0.4641      0.01187
     56       0.5197      0.00096
     57       1.0617      0.00000
     58       1.2696      0.00000
     59       1.3256      0.00000
     60       1.5195      0.00000
     61       1.7472      0.00000
     62       2.1381      0.00000
     63       2.1739      0.00000
     64       2.3121      0.00000
     65       2.4610      0.00000
     66       2.5358      0.00000
     67       2.6335      0.00000
     68       2.7866      0.00000

 k-point    53 :       0.3846    0.5000    0.5000
  band No.  band energies     occupation 
      1     -13.4498      2.00000
      2     -12.0707      2.00000
      3     -12.0361      2.00000
      4     -11.6731      2.00000
      5     -11.4773      2.00000
      6     -11.2498      2.00000
      7     -11.0756      2.00000
      8     -10.7792      2.00000
      9     -10.6237      2.00000
     10     -10.5972      2.00000
     11     -10.4665      2.00000
     12     -10.1653      2.00000
     13      -9.0012      2.00000
     14      -8.9142      2.00000
     15      -8.8998      2.00000
     16      -8.2548      2.00000
     17      -7.7028      2.00000
     18      -7.6203      2.00000
     19      -7.3909      2.00000
     20      -7.2029      2.00000
     21      -6.7938      2.00000
     22      -6.7251      2.00000
     23      -6.6645      2.00000
     24      -6.5075      2.00000
     25      -5.5241      2.00000
     26      -5.3822      2.00000
     27      -5.2891      2.00000
     28      -4.8127      2.00000
     29      -4.6809      2.00000
     30      -4.5109      2.00000
     31      -4.2856      2.00000
     32      -4.1374      2.00000
     33      -4.0484      2.00000
     34      -3.8398      2.00000
     35      -3.5365      2.00000
     36      -3.4970      2.00000
     37      -3.2853      2.00000
     38      -3.1959      2.00000
     39      -3.1329      2.00000
     40      -2.9783      2.00000
     41      -2.8707      2.00000
     42      -2.5676      2.00000
     43      -2.4919      2.00000
     44      -2.3562      2.00000
     45      -2.2271      2.00000
     46      -2.1108      2.00000
     47      -2.0712      2.00000
     48      -1.8677      2.00000
     49      -1.6337      2.00000
     50      -1.4589      2.00000
     51      -1.4411      2.00000
     52      -1.2753      2.00000
     53      -0.9723      2.00000
     54      -0.7817      2.00000
     55       0.2733      1.14421
     56       0.3971      0.11685
     57       0.8674      0.00000
     58       1.2082      0.00000
     59       1.3013      0.00000
     60       1.5336      0.00000
     61       1.6795      0.00000
     62       1.8580      0.00000
     63       2.0565      0.00000
     64       2.1272      0.00000
     65       2.1792      0.00000
     66       2.3436      0.00000
     67       2.4791      0.00000
     68       2.6418      0.00000

 k-point    54 :       0.4615    0.5000    0.5000
  band No.  band energies     occupation 
      1     -13.1018      2.00000
      2     -11.7641      2.00000
      3     -11.4947      2.00000
      4     -11.3647      2.00000
      5     -11.1749      2.00000
      6     -10.9834      2.00000
      7     -10.9524      2.00000
      8     -10.8539      2.00000
      9     -10.7284      2.00000
     10     -10.6258      2.00000
     11     -10.5274      2.00000
     12     -10.3681      2.00000
     13      -9.1839      2.00000
     14      -8.8846      2.00000
     15      -8.6704      2.00000
     16      -8.4448      2.00000
     17      -8.1241      2.00000
     18      -7.8385      2.00000
     19      -7.5661      2.00000
     20      -7.4915      2.00000
     21      -7.2964      2.00000
     22      -7.2468      2.00000
     23      -7.1752      2.00000
     24      -6.4861      2.00000
     25      -5.5335      2.00000
     26      -5.3416      2.00000
     27      -4.9592      2.00000
     28      -4.7755      2.00000
     29      -4.4947      2.00000
     30      -4.4024      2.00000
     31      -4.2441      2.00000
     32      -4.0748      2.00000
     33      -3.9439      2.00000
     34      -3.8714      2.00000
     35      -3.7723      2.00000
     36      -3.5945      2.00000
     37      -3.5520      2.00000
     38      -3.2642      2.00000
     39      -3.1419      2.00000
     40      -3.1005      2.00000
     41      -3.0232      2.00000
     42      -2.7042      2.00000
     43      -2.6725      2.00000
     44      -2.3898      2.00000
     45      -2.2346      2.00000
     46      -2.1648      2.00000
     47      -2.1111      2.00000
     48      -1.7922      2.00000
     49      -1.6716      2.00000
     50      -1.6542      2.00000
     51      -1.5228      2.00000
     52      -1.2620      2.00000
     53      -0.9655      2.00000
     54      -0.8308      2.00000
     55       0.1508      1.94447
     56       0.3573      0.31427
     57       0.7375      0.00000
     58       1.1482      0.00000
     59       1.3481      0.00000
     60       1.5383      0.00000
     61       1.6295      0.00000
     62       1.6813      0.00000
     63       1.8856      0.00000
     64       2.0492      0.00000
     65       2.2614      0.00000
     66       2.3366      0.00000
     67       2.4147      0.00000
     68       2.4883      0.00000


--------------------------------------------------------------------------------------------------------


 soft charge-density along one line, spin component           1
         0         1         2         3         4         5         6         7         8         9
 total charge-density along one line
 
 pseudopotential strength for first ion, spin component:           1
 29.777   0.008  -0.001  -0.023   0.000  -0.000  -0.001  -0.000
  0.008   0.009   0.000  -0.000  -0.000  -0.000   0.000   0.000
 -0.001   0.000   6.548  -0.001   0.000  -0.003   0.000  -0.000
 -0.023  -0.000  -0.001   6.543   0.000   0.000  -0.002  -0.000
  0.000  -0.000   0.000   0.000   6.549  -0.000  -0.000  -0.003
 -0.000  -0.000  -0.003   0.000  -0.000   0.015  -0.000  -0.000
 -0.001   0.000   0.000  -0.002  -0.000  -0.000   0.015  -0.000
 -0.000   0.000  -0.000  -0.000  -0.003  -0.000  -0.000   0.015
 total augmentation occupancy for first ion, spin component:           1
  1.814  -0.359   0.006   0.256   0.000   0.003   0.112   0.001
 -0.359   1.290   0.023   0.859   0.001   0.003  -0.433   0.000
  0.006   0.023   1.142   0.013  -0.000  -0.504   0.014   0.000
  0.256   0.859   0.013   1.294  -0.001   0.013  -0.420   0.001
  0.000   0.001  -0.000  -0.001   1.144   0.000   0.001  -0.528
  0.003   0.003  -0.504   0.013   0.000   0.292  -0.015  -0.000
  0.112  -0.433   0.014  -0.420   0.001  -0.015   0.228  -0.000
  0.001   0.000   0.000   0.001  -0.528  -0.000  -0.000   0.326


------------------------ aborting loop because EDIFF is reached ----------------------------------------


    CHARGE:  cpu time    4.20: real time    4.21
    FORLOC:  cpu time    0.06: real time    0.06
    FORNL :  cpu time   19.06: real time   19.06
    STRESS:  cpu time   55.39: real time   55.41
    FORCOR:  cpu time   14.53: real time   14.54
    FORHAR:  cpu time    0.14: real time    0.14
    MIXING:  cpu time    0.02: real time    0.02
    OFIELD:  cpu time    0.00: real time    0.00

  FORCE on cell =-STRESS in cart. coord.  units (eV):
  Direction    XX          YY          ZZ          XY          YZ          ZX
  --------------------------------------------------------------------------------------
  Alpha Z    36.80885    36.80885    36.80885
  Ewald   14545.46604 13888.30330-16367.62624    26.13818    -6.46061    54.35984
  Hartree 15000.59471 14565.01903-14397.12924    -0.15085   -17.17655     5.02749
  E(xc)    -360.89336  -360.10000  -359.54044    -0.35187    -0.16443    -0.02283
  Local  -31076.03093-30043.81269 29178.78415   -10.58078    41.42106   -12.18199
  n-local  1195.77259  1183.64871  1188.42392     7.22137     3.30600    -0.12172
  augment  -203.58590  -207.83515  -208.07038     0.48190     1.34819     3.47751
  Kinetic   934.22421   950.37566   998.04549     4.85251    -4.56605     2.10166
  Fock        0.00000     0.00000     0.00000     0.00000     0.00000     0.00000
  -------------------------------------------------------------------------------------
  Total      72.35620    12.40771    69.69610    27.61046    17.70761    52.63997
  in kB     115.65913    19.83333   111.40704    44.13446    28.30506    84.14334
  external pressure =       82.30 kB  Pullay stress =        0.00 kB


 VOLUME and BASIS-vectors are now :
 -----------------------------------------------------------------------------
  energy-cutoff  :      300.00
  volume of cell :     1002.32
      direct lattice vectors                 reciprocal lattice vectors
     3.540400000  0.000000000  0.000000000     0.282453960  0.048570342  0.000000000
    -1.770200000 10.294348000  0.000000000     0.000000000  0.097140683  0.000000000
     0.000000000  0.000000000 27.501429000     0.000000000  0.000000000  0.036361747

  length of vectors
     3.540400000 10.445439617 27.501429000     0.286599577  0.097140683  0.036361747


 FORCES acting on ions
    electron-ion (+dipol)            ewald-force                    non-local-force                 convergence-correction
 -----------------------------------------------------------------------------------------------
   -.927E-01 0.771E+01 0.343E+02   0.325E-01 -.749E+01 -.296E+02   0.245E-01 -.248E+00 -.469E+01   0.300E-06 -.498E-05 0.328E-05
   -.120E+00 -.449E+01 -.545E+03   -.174E+00 0.506E+01 0.548E+03   0.218E+00 -.647E+00 -.370E+01   -.602E-06 0.793E-07 0.869E-05
   -.221E-02 0.670E+02 0.476E+02   -.307E-02 -.686E+02 -.433E+02   0.273E-02 0.153E+01 -.415E+01   0.131E-07 -.754E-05 0.666E-05
   -.214E+01 0.181E+02 -.549E+03   0.135E+01 -.193E+02 0.553E+03   0.118E+01 0.127E+01 -.354E+01   0.139E-05 0.507E-05 -.899E-05
   0.864E-03 -.575E+02 0.526E+03   0.908E-04 0.590E+02 -.530E+03   -.966E-03 -.154E+01 0.428E+01   -.138E-06 -.206E-05 -.512E-05
   0.287E+00 -.993E+02 -.845E+02   -.328E+00 0.102E+03 0.819E+02   0.560E+00 -.303E+01 0.376E+01   0.519E-06 0.861E-05 -.104E-04
   -.515E-02 0.544E+02 0.526E+03   0.295E-04 -.563E+02 -.530E+03   0.173E-02 0.191E+01 0.416E+01   -.267E-07 -.115E-05 -.473E-05
   -.645E+01 0.142E+03 -.575E+02   0.731E+01 -.144E+03 0.555E+02   -.726E+00 0.176E+01 0.180E+01   0.195E-05 -.243E-05 -.148E-04
   0.857E-03 0.160E+01 0.573E+03   -.909E-04 -.180E+01 -.577E+03   0.540E-03 0.203E+00 0.478E+01   0.172E-06 0.434E-05 -.183E-04
   0.481E+01 -.342E+02 0.102E+02   -.546E+01 0.338E+02 -.146E+02   0.412E-01 0.582E+00 0.292E+01   -.617E-06 -.865E-05 -.760E-05
   -.153E-02 -.676E+02 0.573E+02   -.209E-02 0.695E+02 -.532E+02   0.485E-02 -.192E+01 -.405E+01   -.183E-06 0.979E-05 0.349E-05
   -.103E+01 -.902E+01 -.543E+03   0.948E+00 0.111E+02 0.546E+03   0.390E+00 -.269E+01 -.210E+01   0.769E-06 -.806E-05 -.700E-05
   0.786E-02 0.320E+02 0.208E+03   0.138E-03 -.342E+02 -.208E+03   -.496E-02 0.212E+01 0.355E+00   0.663E-08 -.322E-05 0.582E-05
   0.210E+02 -.277E+02 -.321E+03   -.159E+02 0.271E+02 0.316E+03   -.956E+01 -.686E+00 0.167E+02   -.124E-05 -.186E-05 -.304E-05
   -.180E-02 -.143E+02 0.139E+03   0.140E-02 0.146E+02 -.142E+03   -.332E-02 -.252E+00 0.253E+01   0.109E-06 0.833E-05 0.659E-07
   -.161E+00 0.369E+02 -.298E+03   0.687E+00 -.353E+02 0.299E+03   -.893E+00 -.961E+00 -.108E+01   -.488E-06 -.897E-05 -.536E-05
   0.220E-02 -.567E+01 0.346E+03   0.927E-04 0.613E+01 -.343E+03   -.732E-03 -.463E+00 -.255E+01   -.776E-07 0.355E-05 -.686E-05
   -.228E+02 -.616E+02 -.941E+02   0.188E+02 0.639E+02 0.985E+02   0.893E+01 0.108E+01 -.155E+02   0.660E-06 -.186E-05 -.330E-05
   -.301E-02 0.101E+02 0.336E+03   -.499E-04 -.103E+02 -.333E+03   -.357E-02 0.225E+00 -.253E+01   0.524E-07 -.184E-05 -.361E-05
   0.593E+02 0.644E+02 -.918E+02   -.951E+02 -.743E+02 0.687E+02   -.420E+02 -.182E+02 -.454E+02   -.266E-05 -.109E-04 -.153E-04
   0.486E-01 0.124E+02 0.129E+03   -.338E-02 -.128E+02 -.131E+03   -.385E-01 0.394E+00 0.255E+01   -.117E-06 -.633E-05 0.132E-05
   -.222E+01 -.220E+02 -.303E+03   0.180E+01 0.219E+02 0.303E+03   0.288E-01 -.892E-01 -.135E+01   0.697E-06 0.865E-05 0.421E-05
   0.107E-02 -.317E+02 0.253E+03   -.106E-03 0.338E+02 -.253E+03   0.945E-03 -.211E+01 -.368E+00   0.542E-07 0.157E-07 0.229E-05
   -.576E+02 -.184E+01 -.287E+03   0.860E+02 0.161E+02 0.321E+03   0.490E+02 0.125E+02 0.350E+02   0.310E-05 -.315E-05 -.120E-04
 -----------------------------------------------------------------------------------------------
   -.712E+01 0.922E+01 0.122E+02   -.142E-13 0.213E-13 -.114E-12   0.713E+01 -.922E+01 -.122E+02   0.365E-05 -.246E-04 -.905E-04
 
 
 POSITION                                       TOTAL-FORCE (eV/Angst)
 -----------------------------------------------------------------------------------
      0.00000      2.34757      6.41229        -0.035948     -0.027600      0.006917
     -0.88510      7.49475     14.16300        -0.076383     -0.077017     -0.260563
     -0.00000      9.43147      5.75866        -0.002788     -0.012988      0.081791
      0.88510      4.28429     13.50937         0.382985      0.074673      0.570616
     -0.00000      6.40009      2.31424        -0.000261     -0.002582      0.007513
     -0.00000      6.40009     10.06495         0.519082     -0.195270      1.135422
      1.77020     10.27849      2.37372        -0.003641     -0.001507      0.001391
      1.77020     10.27849     10.12443         0.141187     -0.508612     -0.171187
      1.77020      3.18974      1.66157         0.001057     -0.001167      0.005403
      1.77020      3.18974      9.41228        -0.609908      0.175039     -1.393001
      1.77020      5.55354      5.69975         0.000980      0.006618      0.097355
      2.65530      0.40637     13.45047         0.312688     -0.592958      0.840983
      1.77020      9.05319      4.34076         0.002794     -0.001689      0.007264
      2.65530      3.90602     12.09147        -4.537684     -1.289868     11.166173
      0.00000      4.22380      5.10944        -0.003979      0.015406      0.036753
     -0.88510      9.37098     12.86016        -0.367821      0.570930     -0.004151
     -0.00000      4.15582      2.74166         0.001313     -0.002260     -0.016188
     -0.00000      4.15582     10.49237         4.961688      3.384611    -11.144025
      1.77020      1.31366      2.96438        -0.006878     -0.008137     -0.012952
      1.77020      1.31366     10.71510       -77.724064    -28.160731    -68.468279
      1.77020      1.38163      5.33187         0.006425     -0.018956      0.003814
      0.88510      6.52880     13.08259        -0.394536     -0.168195     -1.190720
      1.77020      6.77850      3.73234         0.001661      0.006494     -0.002114
      2.65530      1.63132     11.48306        77.432032     26.835766     68.701784
 -----------------------------------------------------------------------------------
    total drift:                                0.005982     -0.000200      0.003589


--------------------------------------------------------------------------------------------------------



  FREE ENERGIE OF THE ION-ELECTRON SYSTEM (eV)
  ---------------------------------------------------
  free  energy   TOTEN  =       -91.52377212 eV

  energy  without entropy=      -91.48784744  energy(sigma->0) =      -91.50580978
 


--------------------------------------------------------------------------------------------------------


    POTLOK:  cpu time   14.53: real time   14.54


--------------------------------------------------------------------------------------------------------


     LOOP+:  cpu time 2368.45: real time 2369.37
    4ORBIT:  cpu time    0.00: real time    0.00

 total amount of memory used by VASP on root node   146493. kBytes
========================================================================

   base      :      30000. kBytes
   nonlr-proj:       3452. kBytes
   fftplans  :       9347. kBytes
   grid      :      14649. kBytes
   one-center:         36. kBytes
   wavefun   :      89009. kBytes
 
  
  
 General timing and accounting informations for this job:
 ========================================================
  
                  Total CPU time used (sec):     2384.365
                            User time (sec):     2350.809
                          System time (sec):       33.557
                         Elapsed time (sec):     2386.228
  
                   Maximum memory used (kb):      335280.
                   Average memory used (kb):           0.
  
                          Minor page faults:      8059508
                          Major page faults:           12
                 Voluntary context switches:         1678
