  12  12   0   0
  0.7536529E+02  0.3544790E-09  0.1046356E-08  0.2474024E-08  0.5000000E-15
  1.000000000000000E-004
  CAR 
 unknown system                          
      2.17312155    -16.82387114  301     -2.70227853      1.00000000
    -16.824  0.0000E+00  0.0000E+00
    -16.761  0.0000E+00  0.0000E+00
    -16.697  0.0000E+00  0.0000E+00
    -16.634  0.0000E+00  0.0000E+00
    -16.571  0.0000E+00  0.0000E+00
    -16.507  0.0000E+00  0.0000E+00
    -16.444  0.0000E+00  0.0000E+00
    -16.381  0.2090E-16  0.1324E-17
    -16.317  0.1832E-13  0.1161E-14
    -16.254  0.7293E-11  0.4630E-12
    -16.191  0.1337E-08  0.8510E-10
    -16.127  0.1142E-06  0.7317E-08
    -16.064  0.4648E-05  0.3017E-06
    -16.001  0.9316E-04  0.6201E-05
    -15.937  0.9631E-03  0.6719E-04
    -15.874  0.5408E-02  0.4096E-03
    -15.811  0.1724E-01  0.1502E-02
    -15.747  0.3262E-01  0.3567E-02
    -15.684  0.4005E-01  0.6103E-02
    -15.621  0.3914E-01  0.8581E-02
    -15.557  0.3756E-01  0.1096E-01
    -15.494  0.3557E-01  0.1321E-01
    -15.431  0.3236E-01  0.1526E-01
    -15.367  0.2985E-01  0.1715E-01
    -15.304  0.3595E-01  0.1943E-01
    -15.241  0.5153E-01  0.2269E-01
    -15.177  0.6060E-01  0.2653E-01
    -15.114  0.5336E-01  0.2991E-01
    -15.051  0.3795E-01  0.3231E-01
    -14.987  0.2970E-01  0.3419E-01
    -14.924  0.3787E-01  0.3659E-01
    -14.861  0.5612E-01  0.4014E-01
    -14.798  0.6797E-01  0.4445E-01
    -14.734  0.7367E-01  0.4911E-01
    -14.671  0.7251E-01  0.5370E-01
    -14.608  0.6231E-01  0.5765E-01
    -14.544  0.5765E-01  0.6130E-01
    -14.481  0.5615E-01  0.6486E-01
    -14.418  0.5026E-01  0.6804E-01
    -14.354  0.5740E-01  0.7167E-01
    -14.291  0.7933E-01  0.7670E-01
    -14.228  0.8560E-01  0.8212E-01
    -14.164  0.6696E-01  0.8636E-01
    -14.101  0.5157E-01  0.8962E-01
    -14.038  0.5012E-01  0.9280E-01
    -13.974  0.6005E-01  0.9660E-01
    -13.911  0.8080E-01  0.1017E+00
    -13.848  0.1016E+00  0.1082E+00
    -13.784  0.1148E+00  0.1154E+00
    -13.721  0.1102E+00  0.1224E+00
    -13.658  0.8930E-01  0.1281E+00
    -13.594  0.8743E-01  0.1336E+00
    -13.531  0.1086E+00  0.1405E+00
    -13.468  0.1070E+00  0.1472E+00
    -13.404  0.8509E-01  0.1526E+00
    -13.341  0.8770E-01  0.1582E+00
    -13.278  0.1158E+00  0.1655E+00
    -13.214  0.1372E+00  0.1742E+00
    -13.151  0.1445E+00  0.1834E+00
    -13.088  0.1525E+00  0.1930E+00
    -13.024  0.1478E+00  0.2024E+00
    -12.961  0.1307E+00  0.2106E+00
    -12.898  0.1218E+00  0.2184E+00
    -12.835  0.1033E+00  0.2249E+00
    -12.771  0.7793E-01  0.2298E+00
    -12.708  0.7040E-01  0.2343E+00
    -12.645  0.5602E-01  0.2378E+00
    -12.581  0.2652E-01  0.2395E+00
    -12.518  0.6647E-02  0.2399E+00
    -12.455  0.8457E-03  0.2400E+00
    -12.391  0.5302E-04  0.2400E+00
    -12.328  0.1599E-05  0.2400E+00
    -12.265  0.2280E-07  0.2400E+00
    -12.201  0.1516E-09  0.2400E+00
    -12.138  0.4659E-12  0.2400E+00
    -12.075  0.6554E-15  0.2400E+00
    -12.011  0.0000E+00  0.2400E+00
    -11.948  0.0000E+00  0.2400E+00
    -11.885  0.0000E+00  0.2400E+00
    -11.821  0.2293E-16  0.2400E+00
    -11.758  0.2359E-13  0.2400E+00
    -11.695  0.1060E-10  0.2400E+00
    -11.631  0.2186E-08  0.2400E+00
    -11.568  0.2082E-06  0.2400E+00
    -11.505  0.9244E-05  0.2400E+00
    -11.441  0.1940E-03  0.2400E+00
    -11.378  0.1959E-02  0.2401E+00
    -11.315  0.9783E-02  0.2408E+00
    -11.251  0.2523E-01  0.2424E+00
    -11.188  0.3752E-01  0.2447E+00
    -11.125  0.4451E-01  0.2475E+00
    -11.061  0.6053E-01  0.2514E+00
    -10.998  0.7678E-01  0.2562E+00
    -10.935  0.7440E-01  0.2610E+00
    -10.871  0.6390E-01  0.2650E+00
    -10.808  0.6334E-01  0.2690E+00
    -10.745  0.7503E-01  0.2738E+00
    -10.682  0.8592E-01  0.2792E+00
    -10.618  0.7446E-01  0.2839E+00
    -10.555  0.4849E-01  0.2870E+00
    -10.492  0.3742E-01  0.2894E+00
    -10.428  0.4607E-01  0.2923E+00
    -10.365  0.5485E-01  0.2958E+00
    -10.302  0.4587E-01  0.2987E+00
    -10.238  0.2841E-01  0.3005E+00
    -10.175  0.2359E-01  0.3019E+00
    -10.112  0.3832E-01  0.3044E+00
    -10.048  0.5671E-01  0.3080E+00
     -9.985  0.5438E-01  0.3114E+00
     -9.922  0.4439E-01  0.3142E+00
     -9.858  0.4871E-01  0.3173E+00
     -9.795  0.5848E-01  0.3210E+00
     -9.732  0.7039E-01  0.3255E+00
     -9.668  0.9254E-01  0.3313E+00
     -9.605  0.1119E+00  0.3384E+00
     -9.542  0.1116E+00  0.3455E+00
     -9.478  0.9400E-01  0.3514E+00
     -9.415  0.6970E-01  0.3558E+00
     -9.352  0.5019E-01  0.3590E+00
     -9.288  0.4544E-01  0.3619E+00
     -9.225  0.4856E-01  0.3650E+00
     -9.162  0.5104E-01  0.3682E+00
     -9.098  0.6538E-01  0.3723E+00
     -9.035  0.1078E+00  0.3792E+00
     -8.972  0.1710E+00  0.3900E+00
     -8.908  0.1931E+00  0.4022E+00
     -8.845  0.1430E+00  0.4113E+00
     -8.782  0.8507E-01  0.4167E+00
     -8.718  0.5089E-01  0.4199E+00
     -8.655  0.2974E-01  0.4218E+00
     -8.592  0.2272E-01  0.4232E+00
     -8.529  0.2820E-01  0.4250E+00
     -8.465  0.3705E-01  0.4273E+00
     -8.402  0.3403E-01  0.4295E+00
     -8.339  0.2162E-01  0.4309E+00
     -8.275  0.2261E-01  0.4323E+00
     -8.212  0.3627E-01  0.4346E+00
     -8.149  0.4705E-01  0.4376E+00
     -8.085  0.6003E-01  0.4414E+00
     -8.022  0.7748E-01  0.4463E+00
     -7.959  0.7973E-01  0.4513E+00
     -7.895  0.5945E-01  0.4551E+00
     -7.832  0.3412E-01  0.4573E+00
     -7.769  0.1808E-01  0.4584E+00
     -7.705  0.2067E-01  0.4597E+00
     -7.642  0.4086E-01  0.4623E+00
     -7.579  0.5502E-01  0.4658E+00
     -7.515  0.5460E-01  0.4692E+00
     -7.452  0.5134E-01  0.4725E+00
     -7.389  0.4637E-01  0.4754E+00
     -7.325  0.5123E-01  0.4787E+00
     -7.262  0.6868E-01  0.4830E+00
     -7.199  0.8887E-01  0.4887E+00
     -7.135  0.1055E+00  0.4953E+00
     -7.072  0.1084E+00  0.5022E+00
     -7.009  0.1060E+00  0.5089E+00
     -6.945  0.1143E+00  0.5161E+00
     -6.882  0.1219E+00  0.5239E+00
     -6.819  0.1228E+00  0.5316E+00
     -6.755  0.1219E+00  0.5394E+00
     -6.692  0.1138E+00  0.5466E+00
     -6.629  0.1120E+00  0.5537E+00
     -6.565  0.1273E+00  0.5617E+00
     -6.502  0.1373E+00  0.5704E+00
     -6.439  0.1363E+00  0.5790E+00
     -6.376  0.1496E+00  0.5885E+00
     -6.312  0.1735E+00  0.5995E+00
     -6.249  0.1702E+00  0.6103E+00
     -6.186  0.1290E+00  0.6185E+00
     -6.122  0.8893E-01  0.6241E+00
     -6.059  0.8529E-01  0.6295E+00
     -5.996  0.1090E+00  0.6364E+00
     -5.932  0.1281E+00  0.6445E+00
     -5.869  0.1236E+00  0.6523E+00
     -5.806  0.1068E+00  0.6591E+00
     -5.742  0.1062E+00  0.6658E+00
     -5.679  0.1254E+00  0.6738E+00
     -5.616  0.1500E+00  0.6833E+00
     -5.552  0.1699E+00  0.6940E+00
     -5.489  0.1720E+00  0.7049E+00
     -5.426  0.1673E+00  0.7155E+00
     -5.362  0.1826E+00  0.7271E+00
     -5.299  0.2080E+00  0.7402E+00
     -5.236  0.2125E+00  0.7537E+00
     -5.172  0.1763E+00  0.7649E+00
     -5.109  0.1363E+00  0.7735E+00
     -5.046  0.1397E+00  0.7823E+00
     -4.982  0.1668E+00  0.7929E+00
     -4.919  0.1766E+00  0.8041E+00
     -4.856  0.1792E+00  0.8154E+00
     -4.792  0.1802E+00  0.8268E+00
     -4.729  0.1704E+00  0.8376E+00
     -4.666  0.1622E+00  0.8479E+00
     -4.602  0.1550E+00  0.8577E+00
     -4.539  0.1441E+00  0.8668E+00
     -4.476  0.1587E+00  0.8769E+00
     -4.413  0.1995E+00  0.8895E+00
     -4.349  0.2168E+00  0.9032E+00
     -4.286  0.2163E+00  0.9169E+00
     -4.223  0.2349E+00  0.9318E+00
     -4.159  0.2560E+00  0.9480E+00
     -4.096  0.2494E+00  0.9638E+00
     -4.033  0.2236E+00  0.9780E+00
     -3.969  0.1886E+00  0.9899E+00
     -3.906  0.1358E+00  0.9985E+00
     -3.843  0.9569E-01  0.1005E+01
     -3.779  0.1040E+00  0.1011E+01
     -3.716  0.1352E+00  0.1020E+01
     -3.653  0.1411E+00  0.1029E+01
     -3.589  0.1212E+00  0.1036E+01
     -3.526  0.9814E-01  0.1043E+01
     -3.463  0.8583E-01  0.1048E+01
     -3.399  0.8701E-01  0.1054E+01
     -3.336  0.8673E-01  0.1059E+01
     -3.273  0.8506E-01  0.1064E+01
     -3.209  0.9353E-01  0.1070E+01
     -3.146  0.8652E-01  0.1076E+01
     -3.083  0.4901E-01  0.1079E+01
     -3.019  0.1499E-01  0.1080E+01
     -2.956  0.2349E-02  0.1080E+01
     -2.893  0.1827E-03  0.1080E+01
     -2.829  0.6889E-05  0.1080E+01
     -2.766  0.1238E-06  0.1080E+01
     -2.703  0.1047E-08  0.1080E+01
     -2.639  0.4131E-11  0.1080E+01
     -2.576  0.7536E-14  0.1080E+01
     -2.513  0.5395E-17  0.1080E+01
     -2.449  0.0000E+00  0.1080E+01
     -2.386  0.0000E+00  0.1080E+01
     -2.323  0.0000E+00  0.1080E+01
     -2.260  0.0000E+00  0.1080E+01
     -2.196  0.0000E+00  0.1080E+01
     -2.133  0.0000E+00  0.1080E+01
     -2.070  0.0000E+00  0.1080E+01
     -2.006  0.0000E+00  0.1080E+01
     -1.943  0.0000E+00  0.1080E+01
     -1.880  0.0000E+00  0.1080E+01
     -1.816  0.0000E+00  0.1080E+01
     -1.753  0.0000E+00  0.1080E+01
     -1.690  0.8395E-16  0.1080E+01
     -1.626  0.6354E-13  0.1080E+01
     -1.563  0.2187E-10  0.1080E+01
     -1.500  0.3489E-08  0.1080E+01
     -1.436  0.2627E-06  0.1080E+01
     -1.373  0.9576E-05  0.1080E+01
     -1.310  0.1754E-03  0.1080E+01
     -1.246  0.1683E-02  0.1080E+01
     -1.183  0.8822E-02  0.1081E+01
     -1.120  0.2657E-01  0.1082E+01
     -1.056  0.5113E-01  0.1086E+01
     -0.993  0.7682E-01  0.1090E+01
     -0.930  0.1022E+00  0.1097E+01
     -0.866  0.1080E+00  0.1104E+01
     -0.803  0.9470E-01  0.1110E+01
     -0.740  0.1088E+00  0.1117E+01
     -0.676  0.1448E+00  0.1126E+01
     -0.613  0.1553E+00  0.1136E+01
     -0.550  0.1571E+00  0.1146E+01
     -0.486  0.1679E+00  0.1156E+01
     -0.423  0.1569E+00  0.1166E+01
     -0.360  0.1314E+00  0.1175E+01
     -0.296  0.1221E+00  0.1182E+01
     -0.233  0.1295E+00  0.1190E+01
     -0.170  0.1483E+00  0.1200E+01
     -0.107  0.1796E+00  0.1211E+01
     -0.043  0.2228E+00  0.1225E+01
      0.020  0.2423E+00  0.1241E+01
      0.083  0.2235E+00  0.1255E+01
      0.147  0.2001E+00  0.1267E+01
      0.210  0.1870E+00  0.1279E+01
      0.273  0.1896E+00  0.1291E+01
      0.337  0.2164E+00  0.1305E+01
      0.400  0.2454E+00  0.1321E+01
      0.463  0.2369E+00  0.1336E+01
      0.527  0.2041E+00  0.1348E+01
      0.590  0.1969E+00  0.1361E+01
      0.653  0.2173E+00  0.1375E+01
      0.717  0.2190E+00  0.1389E+01
      0.780  0.1895E+00  0.1401E+01
      0.843  0.1584E+00  0.1411E+01
      0.907  0.1355E+00  0.1419E+01
      0.970  0.1167E+00  0.1427E+01
      1.033  0.9035E-01  0.1432E+01
      1.097  0.5766E-01  0.1436E+01
      1.160  0.3439E-01  0.1438E+01
      1.223  0.1967E-01  0.1439E+01
      1.287  0.7948E-02  0.1440E+01
      1.350  0.1761E-02  0.1440E+01
      1.413  0.1936E-03  0.1440E+01
      1.477  0.1019E-04  0.1440E+01
      1.540  0.2527E-06  0.1440E+01
      1.603  0.2923E-08  0.1440E+01
      1.667  0.1565E-10  0.1440E+01
      1.730  0.3854E-13  0.1440E+01
      1.793  0.4451E-16  0.1440E+01
      1.857  0.0000E+00  0.1440E+01
      1.920  0.0000E+00  0.1440E+01
      1.983  0.0000E+00  0.1440E+01
      2.046  0.0000E+00  0.1440E+01
      2.110  0.0000E+00  0.1440E+01
      2.173  0.0000E+00  0.1440E+01
