<?xml version="1.0" encoding="ISO-8859-1"?>
<modeling>
 <generator>
  <i name="program" type="string">vasp </i>
  <i name="version" type="string">5.3.5  </i>
  <i name="subversion" type="string">31Mar14 (build Oct 29 2014 16:16:03) complex                          parallel </i>
  <i name="platform" type="string">Linux-UFHPC </i>
  <i name="date" type="string">2016 02 08 </i>
  <i name="time" type="string">14:30:16 </i>
 </generator>
 <incar>
  <i type="string" name="PREC">accurate</i>
  <i type="int" name="IBRION">     2</i>
  <i name="EDIFF">      0.00000100</i>
  <i type="int" name="NSW">    50</i>
  <i type="int" name="ISIF">     3</i>
  <i name="ENCUT">    300.00000000</i>
  <i type="string" name="LREAL"> Auto</i>
  <i type="int" name="ISMEAR">     0</i>
  <i name="SIGMA">      0.10000000</i>
  <i type="logical" name="LCHARG"> T  </i>
  <i type="logical" name="LAECHG"> T  </i>
  <i type="string" name="GGA"> Bo</i>
  <i name="PARAM1">      0.18333333</i>
  <i name="PARAM2">      0.22000000</i>
  <i type="logical" name="LUSE_VDW"> T  </i>
  <i name="AGGAC">      0.00000000</i>
 </incar>
 <kpoints>
  <generation param="Gamma">
   <v type="int" name="divisions">      13        4        2 </v>
   <v name="usershift">      0.00000000       0.00000000       0.00000000 </v>
   <v name="genvec1">      0.07692308       0.00000000       0.00000000 </v>
   <v name="genvec2">      0.00000000       0.25000000       0.00000000 </v>
   <v name="genvec3">      0.00000000       0.00000000       0.50000000 </v>
   <v name="shift">      0.00000000       0.00000000       0.00000000 </v>
  </generation>
  <varray name="kpointlist" >
   <v>       0.00000000       0.00000000       0.00000000 </v>
   <v>       0.07692308       0.00000000       0.00000000 </v>
   <v>       0.15384615       0.00000000       0.00000000 </v>
   <v>       0.23076923       0.00000000       0.00000000 </v>
   <v>       0.30769231       0.00000000       0.00000000 </v>
   <v>       0.38461538       0.00000000       0.00000000 </v>
   <v>       0.46153846       0.00000000       0.00000000 </v>
   <v>       0.00000000       0.25000000       0.00000000 </v>
   <v>       0.07692308       0.25000000       0.00000000 </v>
   <v>       0.15384615       0.25000000       0.00000000 </v>
   <v>       0.23076923       0.25000000       0.00000000 </v>
   <v>       0.30769231       0.25000000       0.00000000 </v>
   <v>       0.38461538       0.25000000       0.00000000 </v>
   <v>       0.46153846       0.25000000       0.00000000 </v>
   <v>      -0.46153846       0.25000000       0.00000000 </v>
   <v>      -0.38461538       0.25000000       0.00000000 </v>
   <v>      -0.30769231       0.25000000       0.00000000 </v>
   <v>      -0.23076923       0.25000000       0.00000000 </v>
   <v>      -0.15384615       0.25000000       0.00000000 </v>
   <v>      -0.07692308       0.25000000       0.00000000 </v>
   <v>       0.00000000       0.50000000       0.00000000 </v>
   <v>       0.07692308       0.50000000       0.00000000 </v>
   <v>       0.15384615       0.50000000       0.00000000 </v>
   <v>       0.23076923       0.50000000       0.00000000 </v>
   <v>       0.30769231       0.50000000       0.00000000 </v>
   <v>       0.38461538       0.50000000       0.00000000 </v>
   <v>       0.46153846       0.50000000       0.00000000 </v>
   <v>       0.00000000       0.00000000       0.50000000 </v>
   <v>       0.07692308       0.00000000       0.50000000 </v>
   <v>       0.15384615       0.00000000       0.50000000 </v>
   <v>       0.23076923       0.00000000       0.50000000 </v>
   <v>       0.30769231       0.00000000       0.50000000 </v>
   <v>       0.38461538       0.00000000       0.50000000 </v>
   <v>       0.46153846       0.00000000       0.50000000 </v>
   <v>       0.00000000       0.25000000       0.50000000 </v>
   <v>       0.07692308       0.25000000       0.50000000 </v>
   <v>       0.15384615       0.25000000       0.50000000 </v>
   <v>       0.23076923       0.25000000       0.50000000 </v>
   <v>       0.30769231       0.25000000       0.50000000 </v>
   <v>       0.38461538       0.25000000       0.50000000 </v>
   <v>       0.46153846       0.25000000       0.50000000 </v>
   <v>      -0.46153846       0.25000000       0.50000000 </v>
   <v>      -0.38461538       0.25000000       0.50000000 </v>
   <v>      -0.30769231       0.25000000       0.50000000 </v>
   <v>      -0.23076923       0.25000000       0.50000000 </v>
   <v>      -0.15384615       0.25000000       0.50000000 </v>
   <v>      -0.07692308       0.25000000       0.50000000 </v>
   <v>       0.00000000       0.50000000       0.50000000 </v>
   <v>       0.07692308       0.50000000       0.50000000 </v>
   <v>       0.15384615       0.50000000       0.50000000 </v>
   <v>       0.23076923       0.50000000       0.50000000 </v>
   <v>       0.30769231       0.50000000       0.50000000 </v>
   <v>       0.38461538       0.50000000       0.50000000 </v>
   <v>       0.46153846       0.50000000       0.50000000 </v>
  </varray>
  <varray name="weights" >
   <v>       0.00961538 </v>
   <v>       0.01923077 </v>
   <v>       0.01923077 </v>
   <v>       0.01923077 </v>
   <v>       0.01923077 </v>
   <v>       0.01923077 </v>
   <v>       0.01923077 </v>
   <v>       0.01923077 </v>
   <v>       0.01923077 </v>
   <v>       0.01923077 </v>
   <v>       0.01923077 </v>
   <v>       0.01923077 </v>
   <v>       0.01923077 </v>
   <v>       0.01923077 </v>
   <v>       0.01923077 </v>
   <v>       0.01923077 </v>
   <v>       0.01923077 </v>
   <v>       0.01923077 </v>
   <v>       0.01923077 </v>
   <v>       0.01923077 </v>
   <v>       0.00961538 </v>
   <v>       0.01923077 </v>
   <v>       0.01923077 </v>
   <v>       0.01923077 </v>
   <v>       0.01923077 </v>
   <v>       0.01923077 </v>
   <v>       0.01923077 </v>
   <v>       0.00961538 </v>
   <v>       0.01923077 </v>
   <v>       0.01923077 </v>
   <v>       0.01923077 </v>
   <v>       0.01923077 </v>
   <v>       0.01923077 </v>
   <v>       0.01923077 </v>
   <v>       0.01923077 </v>
   <v>       0.01923077 </v>
   <v>       0.01923077 </v>
   <v>       0.01923077 </v>
   <v>       0.01923077 </v>
   <v>       0.01923077 </v>
   <v>       0.01923077 </v>
   <v>       0.01923077 </v>
   <v>       0.01923077 </v>
   <v>       0.01923077 </v>
   <v>       0.01923077 </v>
   <v>       0.01923077 </v>
   <v>       0.01923077 </v>
   <v>       0.00961538 </v>
   <v>       0.01923077 </v>
   <v>       0.01923077 </v>
   <v>       0.01923077 </v>
   <v>       0.01923077 </v>
   <v>       0.01923077 </v>
   <v>       0.01923077 </v>
  </varray>
 </kpoints>
 <parameters>
  <separator name="general" >
   <i type="string" name="SYSTEM">unknown system</i>
   <i type="logical" name="LCOMPAT"> F  </i>
  </separator>
  <separator name="electronic" >
   <i type="string" name="PREC">accura</i>
   <i name="ENMAX">    300.00000000</i>
   <i name="ENAUG">    342.92400000</i>
   <i name="EDIFF">      0.00000100</i>
   <i type="int" name="IALGO">    38</i>
   <i type="int" name="IWAVPR">    11</i>
   <i type="int" name="NBANDS">    36</i>
   <i name="NELECT">     54.00000000</i>
   <i type="int" name="TURBO">     0</i>
   <i type="int" name="IRESTART">     0</i>
   <i type="int" name="NREBOOT">     0</i>
   <i type="int" name="NMIN">     0</i>
   <i name="EREF">      0.00000000</i>
   <separator name="electronic smearing" >
    <i type="int" name="ISMEAR">     0</i>
    <i name="SIGMA">      0.10000000</i>
    <i name="KSPACING">      0.50000000</i>
    <i type="logical" name="KGAMMA"> T  </i>
   </separator>
   <separator name="electronic projectors" >
    <i type="logical" name="LREAL"> T  </i>
    <v name="ROPT">     -0.00025000     -0.00025000</v>
    <i type="int" name="LMAXPAW">  -100</i>
    <i type="int" name="LMAXMIX">     2</i>
    <i type="logical" name="NLSPLINE"> F  </i>
   </separator>
   <separator name="electronic startup" >
    <i type="int" name="ISTART">     1</i>
    <i type="int" name="ICHARG">     0</i>
    <i type="int" name="INIWAV">     1</i>
   </separator>
   <separator name="electronic spin" >
    <i type="int" name="ISPIN">     1</i>
    <i type="logical" name="LNONCOLLINEAR"> F  </i>
    <v name="MAGMOM">      1.00000000      1.00000000      1.00000000      1.00000000      1.00000000      1.00000000      1.00000000      1.00000000      1.00000000      1.00000000      1.00000000      1.00000000</v>
    <i name="NUPDOWN">     -1.00000000</i>
    <i type="logical" name="LSORBIT"> F  </i>
    <v name="SAXIS">      0.00000000      0.00000000      1.00000000</v>
    <i type="logical" name="LSPIRAL"> F  </i>
    <v name="QSPIRAL">      0.00000000      0.00000000      0.00000000</v>
    <i type="logical" name="LZEROZ"> F  </i>
   </separator>
   <separator name="electronic exchange-correlation" >
    <i type="logical" name="LASPH"> F  </i>
    <i type="logical" name="LMETAGGA"> F  </i>
   </separator>
   <separator name="electronic convergence" >
    <i type="int" name="NELM">    60</i>
    <i type="int" name="NELMDL">     0</i>
    <i type="int" name="NELMIN">     2</i>
    <i name="ENINI">    300.00000000</i>
    <separator name="electronic convergence detail" >
     <i type="logical" name="LDIAG"> T  </i>
     <i type="logical" name="LSUBROT"> F  </i>
     <i name="WEIMIN">      0.00100000</i>
     <i name="EBREAK">      0.00000001</i>
     <i name="DEPER">      0.30000000</i>
     <i type="int" name="NRMM">     4</i>
     <i name="TIME">      0.40000000</i>
    </separator>
   </separator>
   <separator name="electronic mixer" >
    <i name="AMIX">      0.40000000</i>
    <i name="BMIX">      1.00000000</i>
    <i name="AMIN">      0.10000000</i>
    <i name="AMIX_MAG">      1.60000000</i>
    <i name="BMIX_MAG">      1.00000000</i>
    <separator name="electronic mixer details" >
     <i type="int" name="IMIX">     4</i>
     <i type="int" name="MAXMIX">   -45</i>
     <i name="WC">    100.00000000</i>
     <i type="int" name="INIMIX">     1</i>
     <i type="int" name="MIXPRE">     1</i>
     <i type="int" name="MREMOVE">     5</i>
    </separator>
   </separator>
   <separator name="electronic dipolcorrection" >
    <i type="logical" name="LDIPOL"> F  </i>
    <i type="logical" name="LMONO"> F  </i>
    <i type="int" name="IDIPOL">     0</i>
    <i name="EPSILON">      1.00000000</i>
    <v name="DIPOL">   -100.00000000   -100.00000000   -100.00000000</v>
    <i name="EFIELD">      0.00000000</i>
   </separator>
  </separator>
  <separator name="grids" >
   <i type="int" name="NGX">    20</i>
   <i type="int" name="NGY">    60</i>
   <i type="int" name="NGZ">   140</i>
   <i type="int" name="NGXF">    40</i>
   <i type="int" name="NGYF">   120</i>
   <i type="int" name="NGZF">   280</i>
   <i type="logical" name="ADDGRID"> F  </i>
  </separator>
  <separator name="ionic" >
   <i type="int" name="NSW">    50</i>
   <i type="int" name="IBRION">     2</i>
   <i type="int" name="ISIF">     3</i>
   <i name="PSTRESS">      0.00000000</i>
   <i name="EDIFFG">      0.00001000</i>
   <i type="int" name="NFREE">     1</i>
   <i name="POTIM">      0.50000000</i>
   <i name="SMASS">     -3.00000000</i>
   <i name="SCALEE">      1.00000000</i>
  </separator>
  <separator name="ionic md" >
   <i name="TEBEG">      0.00010000</i>
   <i name="TEEND">      0.00010000</i>
   <i type="int" name="NBLOCK">     1</i>
   <i type="int" name="KBLOCK">    50</i>
   <i type="int" name="NPACO">   256</i>
   <i name="APACO">     16.00000000</i>
  </separator>
  <separator name="symmetry" >
   <i type="int" name="ISYM">     2</i>
   <i name="SYMPREC">      0.00001000</i>
  </separator>
  <separator name="dos" >
   <i type="logical" name="LORBIT"> F  </i>
   <v name="RWIGS">     -1.00000000     -1.00000000</v>
   <i type="int" name="NEDOS">   301</i>
   <i name="EMIN">     10.00000000</i>
   <i name="EMAX">    -10.00000000</i>
   <i name="EFERMI">      0.00000000</i>
  </separator>
  <separator name="writing" >
   <i type="int" name="NWRITE">     2</i>
   <i type="logical" name="LWAVE"> T  </i>
   <i type="logical" name="LCHARG"> T  </i>
   <i type="logical" name="LPARD"> F  </i>
   <i type="logical" name="LVTOT"> F  </i>
   <i type="logical" name="LVHAR"> F  </i>
   <i type="logical" name="LELF"> F  </i>
   <i type="logical" name="LOPTICS"> F  </i>
   <v name="STM">      0.00000000      0.00000000      0.00000000      0.00000000      0.00000000      0.00000000      0.00000000</v>
  </separator>
  <separator name="performance" >
   <i type="int" name="NPAR">     4</i>
   <i type="int" name="NSIM">     4</i>
   <i type="int" name="NBLK">    -1</i>
   <i type="logical" name="LPLANE"> T  </i>
   <i type="logical" name="LSCALAPACK"> T  </i>
   <i type="logical" name="LSCAAWARE"> F  </i>
   <i type="logical" name="LSCALU"> F  </i>
   <i type="logical" name="LASYNC"> F  </i>
   <i type="logical" name="LORBITALREAL"> F  </i>
  </separator>
  <separator name="miscellaneous" >
   <i type="int" name="IDIOT">     3</i>
   <i type="logical" name="LMUSIC"> F  </i>
   <v name="POMASS">     30.97400000     28.08500000</v>
   <v name="DARWINR">      0.00000000      0.00000000</v>
   <v name="DARWINV">      1.00000000      1.00000000</v>
   <i type="logical" name="LCORR"> T  </i>
  </separator>
  <i type="logical" name="GGA_COMPAT"> T  </i>
  <i type="logical" name="LBERRY"> F  </i>
  <i type="int" name="ICORELEVEL">     0</i>
  <i type="logical" name="LDAU"> F  </i>
  <i type="int" name="I_CONSTRAINED_M">     0</i>
  <separator name="electronic exchange-correlation" >
   <i type="string" name="GGA">BO</i>
   <i type="int" name="VOSKOWN">     0</i>
   <i type="logical" name="LHFCALC"> F  </i>
   <i type="string" name="PRECFOCK"></i>
   <i type="logical" name="LSYMGRAD"> F  </i>
   <i type="logical" name="LHFONE"> F  </i>
   <i type="logical" name="LRHFCALC"> F  </i>
   <i type="logical" name="LTHOMAS"> F  </i>
   <i type="logical" name="LMODELHF"> F  </i>
   <i name="ENCUT4O">     -1.00000000</i>
   <i type="int" name="EXXOEP">     0</i>
   <i type="int" name="FOURORBIT">     0</i>
   <i name="AEXX">      0.00000000</i>
   <i name="HFALPHA">      0.00000000</i>
   <i name="MCALPHA">      0.00000000</i>
   <i name="ALDAX">      1.00000000</i>
   <i name="AGGAX">      1.00000000</i>
   <i name="ALDAC">      1.00000000</i>
   <i name="AGGAC">      0.00000000</i>
   <i type="int" name="NKREDX">     1</i>
   <i type="int" name="NKREDY">     1</i>
   <i type="int" name="NKREDZ">     1</i>
   <i type="logical" name="SHIFTRED"> F  </i>
   <i type="logical" name="ODDONLY"> F  </i>
   <i type="logical" name="EVENONLY"> F  </i>
   <i type="int" name="LMAXFOCK">     0</i>
   <i type="int" name="NMAXFOCKAE">     0</i>
   <i type="logical" name="LFOCKAEDFT"> F  </i>
   <i name="HFSCREEN">      0.00000000</i>
   <i name="HFSCREENC">      0.00000000</i>
   <i type="int" name="NBANDSGWLOW">     0</i>
  </separator>
  <separator name="vdW DFT" >
   <i type="logical" name="LUSE_VDW"> T  </i>
   <i name="Zab_VDW">     -0.84910000</i>
   <i name="PARAM1">      0.18333333</i>
   <i name="PARAM2">      0.22000000</i>
   <i name="PARAM3">      0.00000000</i>
  </separator>
  <separator name="model GW" >
   <i type="int" name="MODEL_GW">     0</i>
   <i name="MODEL_EPS0">     45.21917546</i>
   <i name="MODEL_ALPHA">      1.00000000</i>
  </separator>
  <separator name="linear response parameters" >
   <i type="logical" name="LEPSILON"> F  </i>
   <i type="logical" name="LRPA"> F  </i>
   <i type="logical" name="LNABLA"> F  </i>
   <i type="logical" name="LVEL"> F  </i>
   <i type="int" name="KINTER">     0</i>
   <i name="CSHIFT">      0.10000000</i>
   <i name="OMEGAMAX">     -1.00000000</i>
   <i name="DEG_THRESHOLD">      0.00200000</i>
  </separator>
  <separator name="orbital magnetization" >
   <i type="logical" name="NUCIND"> F  </i>
   <v name="MAGPOS">      0.00000000      0.00000000      0.00000000</v>
   <i type="logical" name="LNICSALL"> T  </i>
   <i type="logical" name="ORBITALMAG"> F  </i>
   <i type="logical" name="LMAGBLOCH"> F  </i>
   <i type="logical" name="LCHIMAG"> F  </i>
   <i type="logical" name="LGAUGE"> T  </i>
   <i type="int" name="MAGATOM">     0</i>
   <v name="MAGDIPOL">      0.00000000      0.00000000      0.00000000</v>
   <v name="AVECCONST">      0.00000000      0.00000000      0.00000000</v>
  </separator>
  <separator name="response functions" >
   <i type="logical" name="LADDER"> F  </i>
   <i type="logical" name="LFXC"> F  </i>
   <i type="logical" name="LHARTREE"> T  </i>
   <i type="int" name="IBSE">     0</i>
   <i type="logical" name="LTCTE"> F  </i>
   <i type="logical" name="LTETE"> F  </i>
   <i type="logical" name="LTRIPLET"> F  </i>
   <i type="logical" name="LFXCEPS"> F  </i>
   <i type="logical" name="LFXHEG"> F  </i>
   <i type="logical" name="L2ORDER"> F  </i>
   <i type="logical" name="LUSEW"> F  </i>
   <i name="ENCUTGW">     -2.00000000</i>
   <i name="ENCUTGWSOFT">     -2.00000000</i>
   <i name="ENCUTLF">     -1.00000000</i>
   <i type="int" name="LMAXMP2">    -1</i>
   <i name="SCISSOR">      0.00000000</i>
   <i type="int" name="NOMEGA">     0</i>
   <i type="int" name="NOMEGAR">     0</i>
   <i type="int" name="NBANDSGW">    -1</i>
   <i type="int" name="NBANDSO">    -1</i>
   <i type="int" name="NBANDSV">    -1</i>
   <i type="int" name="NELM">     1</i>
   <i type="int" name="DIM">     3</i>
   <i type="int" name="ANTIRES">     0</i>
   <i name="OMEGAMAX">    -30.00000000</i>
   <i name="OMEGAMIN">    -30.00000000</i>
   <i name="OMEGATL">   -200.00000000</i>
   <i type="int" name="OMEGAGRID">     0</i>
   <i name="CSHIFT">     -0.10000000</i>
   <i type="logical" name="SELFENERGY"> F  </i>
   <i type="logical" name="LSPECTRAL"> F  </i>
   <i type="logical" name="ODDONLYGW"> F  </i>
   <i type="logical" name="EVENONLYGW"> F  </i>
   <i type="int" name="NKREDLFX">     1</i>
   <i type="int" name="NKREDLFY">     1</i>
   <i type="int" name="NKREDLFZ">     1</i>
   <i type="int" name="MAXMEM">  1800</i>
   <i type="int" name="TELESCOPE">     0</i>
   <i type="int" name="TAUPAR">     1</i>
  </separator>
  <separator name="External order field" >
   <i name="OFIELD_KAPPA">      0.00000000</i>
   <v name="OFIELD_K">      0.00000000      0.00000000      0.00000000</v>
   <i name="OFIELD_Q6_NEAR">      0.00000000</i>
   <i name="OFIELD_Q6_FAR">      0.00000000</i>
   <i name="OFIELD_A">      0.00000000</i>
  </separator>
 </parameters>
 <atominfo>
  <atoms>      12 </atoms>
  <types>       2 </types>
  <array name="atoms" >
   <dimension dim="1">ion</dimension>
   <field type="string">element</field>
   <field type="int">atomtype</field>
   <set>
    <rc><c>P </c><c>   1</c></rc>
    <rc><c>P </c><c>   1</c></rc>
    <rc><c>P </c><c>   1</c></rc>
    <rc><c>P </c><c>   1</c></rc>
    <rc><c>P </c><c>   1</c></rc>
    <rc><c>P </c><c>   1</c></rc>
    <rc><c>Si</c><c>   2</c></rc>
    <rc><c>Si</c><c>   2</c></rc>
    <rc><c>Si</c><c>   2</c></rc>
    <rc><c>Si</c><c>   2</c></rc>
    <rc><c>Si</c><c>   2</c></rc>
    <rc><c>Si</c><c>   2</c></rc>
   </set>
  </array>
  <array name="atomtypes" >
   <dimension dim="1">type</dimension>
   <field type="int">atomspertype</field>
   <field type="string">element</field>
   <field>mass</field>
   <field>valence</field>
   <field type="string">pseudopotential</field>
   <set>
    <rc><c>   6</c><c>P </c><c>     30.97400000</c><c>      5.00000000</c><c>  PAW_PBE P 17Jan2003                   </c></rc>
    <rc><c>   6</c><c>Si</c><c>     28.08500000</c><c>      4.00000000</c><c> PAW_PBE Si 05Jan2001                   </c></rc>
   </set>
  </array>
 </atominfo>
 <structure name="initialpos" >
  <crystal>
   <varray name="basis" >
    <v>       3.54479031       0.00000000       0.00000000 </v>
    <v>      -1.77239516      10.31236170       0.00000000 </v>
    <v>       0.00000000       0.00000000      24.74024220 </v>
   </varray>
   <i name="volume">    904.38350924 </i>
   <varray name="rec_basis" >
    <v>       0.28210413       0.04848550       0.00000000 </v>
    <v>       0.00000000       0.09697100       0.00000000 </v>
    <v>       0.00000000       0.00000000       0.04041998 </v>
   </varray>
  </crystal>
  <varray name="positions" >
   <v>       0.11390861       0.22781721       0.25895186 </v>
   <v>       0.45823796       0.91647592       0.23245754 </v>
   <v>       0.31074116       0.62148233       0.09387247 </v>
   <v>       0.99937375       0.99874749       0.09589974 </v>
   <v>       0.65507274       0.31014548       0.06735138 </v>
   <v>       0.76953624       0.53907248       0.23045083 </v>
   <v>       0.93972855       0.87945710       0.17529657 </v>
   <v>       0.20515089       0.41030179       0.20660696 </v>
   <v>       0.20187748       0.40375497       0.11095544 </v>
   <v>       0.56378998       0.12757997       0.11969946 </v>
   <v>       0.56710199       0.13420397       0.21535419 </v>
   <v>       0.82920465       0.65840929       0.15107558 </v>
  </varray>
 </structure>
 <calculation>
  <scstep>
   <time name="dav">   26.22   26.23</time>
   <time name="total">   42.28   42.30</time>
   <energy>
    <i name="alphaZ">     10.19872852 </i>
    <i name="ewald">   7216.85336293 </i>
    <i name="hartreedc">  -8656.16576705 </i>
    <i name="XCdc">    -40.06967945 </i>
    <i name="pawpsdc">    578.89745224 </i>
    <i name="pawaedc">   -418.28832239 </i>
    <i name="eentropy">     -0.00000000 </i>
    <i name="bandstr">   -434.08459226 </i>
    <i name="atom">   1677.02063022 </i>
    <i name="e_fr_energy">    -65.63818724 </i>
    <i name="e_wo_entrp">    -65.63818724 </i>
    <i name="e_0_energy">    -65.63818724 </i>
   </energy>
  </scstep>
  <scstep>
   <time name="dav">   21.92   21.92</time>
   <time name="total">   34.58   34.59</time>
   <energy>
    <i name="alphaZ">     10.19872852 </i>
    <i name="ewald">   7216.85336293 </i>
    <i name="hartreedc">  -8656.16603273 </i>
    <i name="XCdc">    -40.06968359 </i>
    <i name="pawpsdc">    578.89738782 </i>
    <i name="pawaedc">   -418.28825803 </i>
    <i name="eentropy">     -0.00000000 </i>
    <i name="bandstr">   -434.08432308 </i>
    <i name="atom">   1677.02063022 </i>
    <i name="e_fr_energy">    -65.63818793 </i>
    <i name="e_wo_entrp">    -65.63818793 </i>
    <i name="e_0_energy">    -65.63818793 </i>
   </energy>
  </scstep>
  <structure>
   <crystal>
    <varray name="basis" >
     <v>       3.54479031       0.00000000       0.00000000 </v>
     <v>      -1.77239516      10.31236170       0.00000000 </v>
     <v>       0.00000000       0.00000000      24.74024220 </v>
    </varray>
    <i name="volume">    904.38350924 </i>
    <varray name="rec_basis" >
     <v>       0.28210413       0.04848550       0.00000000 </v>
     <v>       0.00000000       0.09697100       0.00000000 </v>
     <v>       0.00000000       0.00000000       0.04041998 </v>
    </varray>
   </crystal>
   <varray name="positions" >
    <v>       0.11390861       0.22781721       0.25895186 </v>
    <v>       0.45823796       0.91647592       0.23245754 </v>
    <v>       0.31074116       0.62148233       0.09387247 </v>
    <v>       0.99937375       0.99874749       0.09589974 </v>
    <v>       0.65507274       0.31014548       0.06735138 </v>
    <v>       0.76953624       0.53907248       0.23045083 </v>
    <v>       0.93972855       0.87945710       0.17529657 </v>
    <v>       0.20515089       0.41030179       0.20660696 </v>
    <v>       0.20187748       0.40375497       0.11095544 </v>
    <v>       0.56378998       0.12757997       0.11969946 </v>
    <v>       0.56710199       0.13420397       0.21535419 </v>
    <v>       0.82920465       0.65840929       0.15107558 </v>
   </varray>
  </structure>
  <varray name="forces" >
   <v>      -0.00000000      -0.00042788       0.01622948 </v>
   <v>       0.00000000      -0.00476192       0.02690085 </v>
   <v>       0.00000000       0.00489543      -0.02302989 </v>
   <v>       0.00000000      -0.00570656      -0.01785056 </v>
   <v>       0.00000000      -0.00476644      -0.01141721 </v>
   <v>       0.00000000       0.00756037       0.01941787 </v>
   <v>      -0.00000000       0.00546745      -0.00104002 </v>
   <v>      -0.00000000      -0.00930462      -0.00886494 </v>
   <v>      -0.00000000      -0.00211370       0.00290260 </v>
   <v>      -0.00000000       0.01147183       0.01081603 </v>
   <v>      -0.00000000       0.00008375      -0.00750105 </v>
   <v>      -0.00000000      -0.00239769      -0.00656316 </v>
  </varray>
  <varray name="stress" >
   <v>      -0.52949502       0.00000000       0.00000000 </v>
   <v>       0.00000000      -0.45216995       0.01027576 </v>
   <v>       0.00000000       0.01027573      -0.48974963 </v>
  </varray>
  <energy>
   <i name="e_fr_energy">    -65.63818793 </i>
   <i name="e_wo_entrp">    -65.63818793 </i>
   <i name="e_0_energy">     -0.00000000 </i>
  </energy>
  <time name="totalsc">  144.66  144.71</time>
 </calculation>
 <calculation>
  <scstep>
   <time name="dav">   28.45   28.46</time>
   <time name="total">   42.94   42.95</time>
   <energy>
    <i name="alphaZ">     10.22148625 </i>
    <i name="ewald">   7233.86429700 </i>
    <i name="hartreedc">  -8673.60934462 </i>
    <i name="XCdc">    -40.00675071 </i>
    <i name="pawpsdc">    578.89731062 </i>
    <i name="pawaedc">   -418.28818011 </i>
    <i name="eentropy">     -0.00000000 </i>
    <i name="bandstr">   -433.73847239 </i>
    <i name="atom">   1677.02063022 </i>
    <i name="e_fr_energy">    -65.63902375 </i>
    <i name="e_wo_entrp">    -65.63902375 </i>
    <i name="e_0_energy">    -65.63902375 </i>
   </energy>
  </scstep>
  <scstep>
   <time name="dav">   29.14   29.15</time>
   <time name="total">   43.65   43.66</time>
   <energy>
    <i name="e_fr_energy">    -65.63899265 </i>
    <i name="e_wo_entrp">    -65.63899265 </i>
    <i name="e_0_energy">    -65.63899265 </i>
   </energy>
  </scstep>
  <scstep>
   <time name="dav">   30.30   30.31</time>
   <time name="total">   44.81   44.82</time>
   <energy>
    <i name="e_fr_energy">    -65.63933146 </i>
    <i name="e_wo_entrp">    -65.63933146 </i>
    <i name="e_0_energy">    -65.63933146 </i>
   </energy>
  </scstep>
  <scstep>
   <time name="dav">   29.24   29.24</time>
   <time name="total">   43.76   43.77</time>
   <energy>
    <i name="e_fr_energy">    -65.63975241 </i>
    <i name="e_wo_entrp">    -65.63975241 </i>
    <i name="e_0_energy">    -65.63975241 </i>
   </energy>
  </scstep>
  <scstep>
   <time name="dav">   28.99   28.99</time>
   <time name="total">   43.51   43.52</time>
   <energy>
    <i name="e_fr_energy">    -65.64007505 </i>
    <i name="e_wo_entrp">    -65.64007505 </i>
    <i name="e_0_energy">    -65.64007505 </i>
   </energy>
  </scstep>
  <scstep>
   <time name="dav">   23.33   23.34</time>
   <time name="total">   37.80   37.81</time>
   <energy>
    <i name="e_fr_energy">    -65.64023305 </i>
    <i name="e_wo_entrp">    -65.64023305 </i>
    <i name="e_0_energy">    -65.64023305 </i>
   </energy>
  </scstep>
  <scstep>
   <time name="dav">   23.25   23.25</time>
   <time name="total">   37.78   37.79</time>
   <energy>
    <i name="e_fr_energy">    -65.64033059 </i>
    <i name="e_wo_entrp">    -65.64033059 </i>
    <i name="e_0_energy">    -65.64033059 </i>
   </energy>
  </scstep>
  <scstep>
   <time name="dav">   24.33   24.34</time>
   <time name="total">   38.88   38.89</time>
   <energy>
    <i name="e_fr_energy">    -65.64031727 </i>
    <i name="e_wo_entrp">    -65.64031727 </i>
    <i name="e_0_energy">    -65.64031727 </i>
   </energy>
  </scstep>
  <scstep>
   <time name="dav">   22.24   22.24</time>
   <time name="total">   36.75   36.76</time>
   <energy>
    <i name="e_fr_energy">    -65.64033235 </i>
    <i name="e_wo_entrp">    -65.64033235 </i>
    <i name="e_0_energy">    -65.64033235 </i>
   </energy>
  </scstep>
  <scstep>
   <time name="dav">   22.57   22.58</time>
   <time name="total">   37.12   37.13</time>
   <energy>
    <i name="e_fr_energy">    -65.64033762 </i>
    <i name="e_wo_entrp">    -65.64033762 </i>
    <i name="e_0_energy">    -65.64033762 </i>
   </energy>
  </scstep>
  <scstep>
   <time name="dav">   22.96   22.97</time>
   <time name="total">   37.45   37.46</time>
   <energy>
    <i name="e_fr_energy">    -65.64035376 </i>
    <i name="e_wo_entrp">    -65.64035376 </i>
    <i name="e_0_energy">    -65.64035376 </i>
   </energy>
  </scstep>
  <scstep>
   <time name="dav">   21.90   21.90</time>
   <time name="total">   36.39   36.40</time>
   <energy>
    <i name="e_fr_energy">    -65.64035711 </i>
    <i name="e_wo_entrp">    -65.64035711 </i>
    <i name="e_0_energy">    -65.64035711 </i>
   </energy>
  </scstep>
  <scstep>
   <time name="dav">   24.40   24.41</time>
   <time name="total">   38.90   38.91</time>
   <energy>
    <i name="e_fr_energy">    -65.64037249 </i>
    <i name="e_wo_entrp">    -65.64037249 </i>
    <i name="e_0_energy">    -65.64037249 </i>
   </energy>
  </scstep>
  <scstep>
   <time name="dav">   21.74   21.75</time>
   <time name="total">   36.23   36.24</time>
   <energy>
    <i name="e_fr_energy">    -65.64037662 </i>
    <i name="e_wo_entrp">    -65.64037662 </i>
    <i name="e_0_energy">    -65.64037662 </i>
   </energy>
  </scstep>
  <scstep>
   <time name="dav">   24.73   24.73</time>
   <time name="total">   39.63   39.64</time>
   <energy>
    <i name="e_fr_energy">    -65.64038357 </i>
    <i name="e_wo_entrp">    -65.64038357 </i>
    <i name="e_0_energy">    -65.64038357 </i>
   </energy>
  </scstep>
  <scstep>
   <time name="dav">   20.54   20.55</time>
   <time name="total">   35.03   35.04</time>
   <energy>
    <i name="e_fr_energy">    -65.64038650 </i>
    <i name="e_wo_entrp">    -65.64038650 </i>
    <i name="e_0_energy">    -65.64038650 </i>
   </energy>
  </scstep>
  <scstep>
   <time name="dav">   19.98   19.98</time>
   <time name="total">   32.68   32.69</time>
   <energy>
    <i name="alphaZ">     10.22148625 </i>
    <i name="ewald">   7233.86429700 </i>
    <i name="hartreedc">  -8673.42802264 </i>
    <i name="XCdc">    -40.01740361 </i>
    <i name="pawpsdc">    579.22477865 </i>
    <i name="pawaedc">   -418.62563942 </i>
    <i name="eentropy">     -0.00000000 </i>
    <i name="bandstr">   -433.90051320 </i>
    <i name="atom">   1677.02063022 </i>
    <i name="e_fr_energy">    -65.64038675 </i>
    <i name="e_wo_entrp">    -65.64038675 </i>
    <i name="e_0_energy">    -65.64038675 </i>
   </energy>
  </scstep>
  <structure>
   <crystal>
    <varray name="basis" >
     <v>       3.54053095       0.00000000       0.00000000 </v>
     <v>      -1.77026548      10.30178009       0.00000000 </v>
     <v>       0.00000000       0.00000000      24.74024220 </v>
    </varray>
    <i name="volume">    902.36993572 </i>
    <varray name="rec_basis" >
     <v>       0.28244351       0.04853530       0.00000000 </v>
     <v>       0.00000000       0.09707060       0.00000000 </v>
     <v>       0.00000000       0.00000000       0.04041998 </v>
    </varray>
   </crystal>
   <varray name="positions" >
    <v>       0.11390761       0.22781521       0.25898350 </v>
    <v>       0.45822682       0.91645364       0.23251000 </v>
    <v>       0.31075261       0.62150523       0.09382757 </v>
    <v>       0.99936040       0.99872080       0.09586493 </v>
    <v>       0.65506159       0.31012318       0.06732912 </v>
    <v>       0.76955392       0.53910785       0.23048869 </v>
    <v>       0.93974134       0.87948268       0.17529455 </v>
    <v>       0.20512913       0.41025826       0.20658967 </v>
    <v>       0.20187254       0.40374508       0.11096110 </v>
    <v>       0.56381682       0.12763363       0.11972055 </v>
    <v>       0.56710218       0.13420436       0.21533956 </v>
    <v>       0.82919904       0.65839808       0.15106278 </v>
   </varray>
  </structure>
  <varray name="forces" >
   <v>      -0.00000000       0.00077573       0.02315503 </v>
   <v>       0.00000000      -0.01525556       0.02422217 </v>
   <v>      -0.00000000       0.01440065      -0.02523514 </v>
   <v>      -0.00000000      -0.01654670      -0.01664377 </v>
   <v>       0.00000000      -0.00396338      -0.02299482 </v>
   <v>      -0.00000000       0.02007711       0.01522923 </v>
   <v>       0.00000000       0.00579058       0.00042483 </v>
   <v>      -0.00000000      -0.01040891      -0.00450574 </v>
   <v>      -0.00000000      -0.00540935       0.00133569 </v>
   <v>      -0.00000000       0.00912960       0.00644737 </v>
   <v>      -0.00000000       0.00460139      -0.00047634 </v>
   <v>       0.00000000      -0.00319116      -0.00095850 </v>
  </varray>
  <varray name="stress" >
   <v>       0.12416999       0.00000000       0.00000000 </v>
   <v>       0.00000000       0.09091307       0.04107649 </v>
   <v>       0.00000000       0.04107647      -0.39335116 </v>
  </varray>
  <energy>
   <i name="e_fr_energy">    -65.64038675 </i>
   <i name="e_wo_entrp">    -65.64038675 </i>
   <i name="e_0_energy">     -0.00000000 </i>
  </energy>
  <time name="totalsc">  729.51  729.70</time>
 </calculation>
 <calculation>
  <scstep>
   <time name="dav">   22.40   22.41</time>
   <time name="total">   37.09   37.10</time>
   <energy>
    <i name="alphaZ">     10.22152576 </i>
    <i name="ewald">   7233.89383317 </i>
    <i name="hartreedc">  -8673.45821620 </i>
    <i name="XCdc">    -40.01729659 </i>
    <i name="pawpsdc">    579.22470607 </i>
    <i name="pawaedc">   -418.62556516 </i>
    <i name="eentropy">     -0.00000000 </i>
    <i name="bandstr">   -433.90000399 </i>
    <i name="atom">   1677.02063022 </i>
    <i name="e_fr_energy">    -65.64038672 </i>
    <i name="e_wo_entrp">    -65.64038672 </i>
    <i name="e_0_energy">    -65.64038672 </i>
   </energy>
  </scstep>
  <scstep>
   <time name="dav">   20.87   20.87</time>
   <time name="total">   35.51   35.52</time>
   <energy>
    <i name="e_fr_energy">    -65.64038828 </i>
    <i name="e_wo_entrp">    -65.64038828 </i>
    <i name="e_0_energy">    -65.64038828 </i>
   </energy>
  </scstep>
  <scstep>
   <time name="dav">   20.62   20.62</time>
   <time name="total">   35.30   35.31</time>
   <energy>
    <i name="e_fr_energy">    -65.64038944 </i>
    <i name="e_wo_entrp">    -65.64038944 </i>
    <i name="e_0_energy">    -65.64038944 </i>
   </energy>
  </scstep>
  <scstep>
   <time name="dav">   20.55   20.55</time>
   <time name="total">   33.33   33.34</time>
   <energy>
    <i name="alphaZ">     10.22152576 </i>
    <i name="ewald">   7233.89383317 </i>
    <i name="hartreedc">  -8673.45781782 </i>
    <i name="XCdc">    -40.01732013 </i>
    <i name="pawpsdc">    579.22508803 </i>
    <i name="pawaedc">   -418.62596005 </i>
    <i name="eentropy">     -0.00000000 </i>
    <i name="bandstr">   -433.90036866 </i>
    <i name="atom">   1677.02063022 </i>
    <i name="e_fr_energy">    -65.64038949 </i>
    <i name="e_wo_entrp">    -65.64038949 </i>
    <i name="e_0_energy">    -65.64038949 </i>
   </energy>
  </scstep>
  <structure>
   <crystal>
    <varray name="basis" >
     <v>       3.54052357       0.00000000       0.00000000 </v>
     <v>      -1.77026179      10.30176175       0.00000000 </v>
     <v>       0.00000000       0.00000000      24.74024220 </v>
    </varray>
    <i name="volume">    902.36644726 </i>
    <varray name="rec_basis" >
     <v>       0.28244410       0.04853539       0.00000000 </v>
     <v>       0.00000000       0.09707078       0.00000000 </v>
     <v>       0.00000000       0.00000000       0.04041998 </v>
    </varray>
   </crystal>
   <varray name="positions" >
    <v>       0.11390760       0.22781521       0.25898356 </v>
    <v>       0.45822680       0.91645361       0.23251009 </v>
    <v>       0.31075263       0.62150527       0.09382749 </v>
    <v>       0.99936037       0.99872075       0.09586487 </v>
    <v>       0.65506157       0.31012314       0.06732908 </v>
    <v>       0.76955395       0.53910791       0.23048876 </v>
    <v>       0.93974136       0.87948272       0.17529454 </v>
    <v>       0.20512909       0.41025818       0.20658964 </v>
    <v>       0.20187253       0.40374506       0.11096111 </v>
    <v>       0.56381686       0.12763373       0.11972059 </v>
    <v>       0.56710218       0.13420436       0.21533954 </v>
    <v>       0.82919903       0.65839806       0.15106276 </v>
   </varray>
  </structure>
  <varray name="forces" >
   <v>      -0.00000000       0.00077610       0.02313879 </v>
   <v>      -0.00000000      -0.01526767       0.02418828 </v>
   <v>      -0.00000000       0.01441757      -0.02521671 </v>
   <v>       0.00000000      -0.01656610      -0.01662745 </v>
   <v>       0.00000000      -0.00395682      -0.02300841 </v>
   <v>      -0.00000000       0.02008557       0.01523646 </v>
   <v>       0.00000000       0.00579182       0.00043605 </v>
   <v>       0.00000000      -0.01040663      -0.00449143 </v>
   <v>      -0.00000000      -0.00540845       0.00132596 </v>
   <v>      -0.00000000       0.00911927       0.00643036 </v>
   <v>      -0.00000000       0.00461149      -0.00045845 </v>
   <v>      -0.00000000      -0.00319615      -0.00095343 </v>
  </varray>
  <varray name="stress" >
   <v>       0.12528404       0.00000000       0.00000000 </v>
   <v>       0.00000000       0.09182811       0.04113662 </v>
   <v>       0.00000000       0.04113651      -0.39320625 </v>
  </varray>
  <energy>
   <i name="e_fr_energy">    -65.64038949 </i>
   <i name="e_wo_entrp">    -65.64038949 </i>
   <i name="e_0_energy">     -0.00000000 </i>
  </energy>
  <time name="totalsc">  205.73  205.78</time>
 </calculation>
 <calculation>
  <scstep>
   <time name="dav">   25.20   25.20</time>
   <time name="total">   39.72   39.73</time>
   <energy>
    <i name="alphaZ">     10.22297265 </i>
    <i name="ewald">   7232.44647377 </i>
    <i name="hartreedc">  -8672.18745121 </i>
    <i name="XCdc">    -40.03092585 </i>
    <i name="pawpsdc">    579.22518925 </i>
    <i name="pawaedc">   -418.62606337 </i>
    <i name="eentropy">     -0.00000000 </i>
    <i name="bandstr">   -433.71132018 </i>
    <i name="atom">   1677.02063022 </i>
    <i name="e_fr_energy">    -65.64049472 </i>
    <i name="e_wo_entrp">    -65.64049472 </i>
    <i name="e_0_energy">    -65.64049472 </i>
   </energy>
  </scstep>
  <scstep>
   <time name="dav">   30.27   30.27</time>
   <time name="total">   44.77   44.78</time>
   <energy>
    <i name="e_fr_energy">    -65.64009104 </i>
    <i name="e_wo_entrp">    -65.64009104 </i>
    <i name="e_0_energy">    -65.64009104 </i>
   </energy>
  </scstep>
  <scstep>
   <time name="dav">   31.75   31.76</time>
   <time name="total">   46.31   46.33</time>
   <energy>
    <i name="e_fr_energy">    -65.63999647 </i>
    <i name="e_wo_entrp">    -65.63999647 </i>
    <i name="e_0_energy">    -65.63999647 </i>
   </energy>
  </scstep>
  <scstep>
   <time name="dav">   29.24   29.25</time>
   <time name="total">   43.72   43.74</time>
   <energy>
    <i name="e_fr_energy">    -65.63996369 </i>
    <i name="e_wo_entrp">    -65.63996369 </i>
    <i name="e_0_energy">    -65.63996369 </i>
   </energy>
  </scstep>
  <scstep>
   <time name="dav">   26.29   26.29</time>
   <time name="total">   40.84   40.85</time>
   <energy>
    <i name="e_fr_energy">    -65.63998052 </i>
    <i name="e_wo_entrp">    -65.63998052 </i>
    <i name="e_0_energy">    -65.63998052 </i>
   </energy>
  </scstep>
  <scstep>
   <time name="dav">   21.41   21.42</time>
   <time name="total">   35.90   35.91</time>
   <energy>
    <i name="e_fr_energy">    -65.63997734 </i>
    <i name="e_wo_entrp">    -65.63997734 </i>
    <i name="e_0_energy">    -65.63997734 </i>
   </energy>
  </scstep>
  <scstep>
   <time name="dav">   21.24   21.24</time>
   <time name="total">   35.70   35.71</time>
   <energy>
    <i name="e_fr_energy">    -65.63998017 </i>
    <i name="e_wo_entrp">    -65.63998017 </i>
    <i name="e_0_energy">    -65.63998017 </i>
   </energy>
  </scstep>
  <scstep>
   <time name="dav">   19.86   19.87</time>
   <time name="total">   34.33   34.34</time>
   <energy>
    <i name="e_fr_energy">    -65.63998679 </i>
    <i name="e_wo_entrp">    -65.63998679 </i>
    <i name="e_0_energy">    -65.63998679 </i>
   </energy>
  </scstep>
  <scstep>
   <time name="dav">   20.80   20.80</time>
   <time name="total">   35.26   35.27</time>
   <energy>
    <i name="e_fr_energy">    -65.63999594 </i>
    <i name="e_wo_entrp">    -65.63999594 </i>
    <i name="e_0_energy">    -65.63999594 </i>
   </energy>
  </scstep>
  <scstep>
   <time name="dav">   22.60   22.60</time>
   <time name="total">   37.07   37.08</time>
   <energy>
    <i name="e_fr_energy">    -65.64000208 </i>
    <i name="e_wo_entrp">    -65.64000208 </i>
    <i name="e_0_energy">    -65.64000208 </i>
   </energy>
  </scstep>
  <scstep>
   <time name="dav">   20.04   20.04</time>
   <time name="total">   34.49   34.50</time>
   <energy>
    <i name="e_fr_energy">    -65.64000999 </i>
    <i name="e_wo_entrp">    -65.64000999 </i>
    <i name="e_0_energy">    -65.64000999 </i>
   </energy>
  </scstep>
  <scstep>
   <time name="dav">   21.93   21.94</time>
   <time name="total">   36.40   36.41</time>
   <energy>
    <i name="e_fr_energy">    -65.64001595 </i>
    <i name="e_wo_entrp">    -65.64001595 </i>
    <i name="e_0_energy">    -65.64001595 </i>
   </energy>
  </scstep>
  <scstep>
   <time name="dav">   22.00   22.00</time>
   <time name="total">   36.46   36.47</time>
   <energy>
    <i name="e_fr_energy">    -65.64002145 </i>
    <i name="e_wo_entrp">    -65.64002145 </i>
    <i name="e_0_energy">    -65.64002145 </i>
   </energy>
  </scstep>
  <scstep>
   <time name="dav">   19.96   19.96</time>
   <time name="total">   34.42   34.43</time>
   <energy>
    <i name="e_fr_energy">    -65.64002254 </i>
    <i name="e_wo_entrp">    -65.64002254 </i>
    <i name="e_0_energy">    -65.64002254 </i>
   </energy>
  </scstep>
  <scstep>
   <time name="dav">   19.65   19.65</time>
   <time name="total">   32.29   32.30</time>
   <energy>
    <i name="alphaZ">     10.22297265 </i>
    <i name="ewald">   7232.44647377 </i>
    <i name="hartreedc">  -8672.18419849 </i>
    <i name="XCdc">    -40.03381162 </i>
    <i name="pawpsdc">    579.07558774 </i>
    <i name="pawaedc">   -418.47222861 </i>
    <i name="eentropy">     -0.00000000 </i>
    <i name="bandstr">   -433.71544835 </i>
    <i name="atom">   1677.02063022 </i>
    <i name="e_fr_energy">    -65.64002269 </i>
    <i name="e_wo_entrp">    -65.64002269 </i>
    <i name="e_0_energy">    -65.64002269 </i>
   </energy>
  </scstep>
  <structure>
   <crystal>
    <varray name="basis" >
     <v>       3.54031885       0.00000000       0.00000000 </v>
     <v>      -1.77015943      10.30089933       0.00000000 </v>
     <v>       0.00000000       0.00000000      24.74024220 </v>
    </varray>
    <i name="volume">    902.23873297 </i>
    <varray name="rec_basis" >
     <v>       0.28246043       0.04853945       0.00000000 </v>
     <v>       0.00000000       0.09707890       0.00000000 </v>
     <v>       0.00000000       0.00000000       0.04041998 </v>
    </varray>
   </crystal>
   <varray name="positions" >
    <v>       0.11390914       0.22781828       0.25903769 </v>
    <v>       0.45818787       0.91637574       0.23257218 </v>
    <v>       0.31078966       0.62157932       0.09376553 </v>
    <v>       0.99931777       0.99863555       0.09582254 </v>
    <v>       0.65504913       0.31009826       0.06727787 </v>
    <v>       0.76960603       0.53921206       0.23052924 </v>
    <v>       0.93975857       0.87951714       0.17529482 </v>
    <v>       0.20509852       0.41019705       0.20657596 </v>
    <v>       0.20185846       0.40371691       0.11096530 </v>
    <v>       0.56384586       0.12769172       0.11973912 </v>
    <v>       0.56711304       0.13422608       0.21533449 </v>
    <v>       0.82918995       0.65837989       0.15105726 </v>
   </varray>
  </structure>
  <varray name="forces" >
   <v>       0.00000000       0.00057795       0.00999758 </v>
   <v>      -0.00000000      -0.00277733       0.00696455 </v>
   <v>      -0.00000000       0.00194239      -0.00876587 </v>
   <v>      -0.00000000      -0.00239429      -0.00178075 </v>
   <v>      -0.00000000      -0.00227050      -0.01039409 </v>
   <v>      -0.00000000       0.00437109       0.00043289 </v>
   <v>       0.00000000      -0.00176818       0.00593954 </v>
   <v>       0.00000000       0.00511236       0.01343592 </v>
   <v>       0.00000000       0.00309156      -0.01639098 </v>
   <v>       0.00000000      -0.00519902      -0.01204290 </v>
   <v>       0.00000000      -0.00417203       0.01847111 </v>
   <v>      -0.00000000       0.00348599      -0.00586700 </v>
  </varray>
  <varray name="stress" >
   <v>       0.02144571       0.00000000       0.00000000 </v>
   <v>       0.00000000      -0.04596563       0.03170496 </v>
   <v>       0.00000000       0.03170501      -0.52789514 </v>
  </varray>
  <energy>
   <i name="e_fr_energy">    -65.64002269 </i>
   <i name="e_wo_entrp">    -65.64002269 </i>
   <i name="e_0_energy">     -0.00000000 </i>
  </energy>
  <time name="totalsc">  630.78  630.95</time>
 </calculation>
 <calculation>
  <scstep>
   <time name="dav">   24.88   24.89</time>
   <time name="total">   39.34   39.35</time>
   <energy>
    <i name="alphaZ">     10.22328332 </i>
    <i name="ewald">   7232.13565053 </i>
    <i name="hartreedc">  -8671.91136379 </i>
    <i name="XCdc">    -40.03673444 </i>
    <i name="pawpsdc">    579.07557690 </i>
    <i name="pawaedc">   -418.47221780 </i>
    <i name="eentropy">     -0.00000000 </i>
    <i name="bandstr">   -433.67485110 </i>
    <i name="atom">   1677.02063022 </i>
    <i name="e_fr_energy">    -65.64002614 </i>
    <i name="e_wo_entrp">    -65.64002614 </i>
    <i name="e_0_energy">    -65.64002614 </i>
   </energy>
  </scstep>
  <scstep>
   <time name="dav">   27.68   27.68</time>
   <time name="total">   42.14   42.15</time>
   <energy>
    <i name="e_fr_energy">    -65.63992947 </i>
    <i name="e_wo_entrp">    -65.63992947 </i>
    <i name="e_0_energy">    -65.63992947 </i>
   </energy>
  </scstep>
  <scstep>
   <time name="dav">   22.17   22.17</time>
   <time name="total">   36.63   36.64</time>
   <energy>
    <i name="e_fr_energy">    -65.63991025 </i>
    <i name="e_wo_entrp">    -65.63991025 </i>
    <i name="e_0_energy">    -65.63991025 </i>
   </energy>
  </scstep>
  <scstep>
   <time name="dav">   23.11   23.11</time>
   <time name="total">   37.59   37.60</time>
   <energy>
    <i name="e_fr_energy">    -65.63990235 </i>
    <i name="e_wo_entrp">    -65.63990235 </i>
    <i name="e_0_energy">    -65.63990235 </i>
   </energy>
  </scstep>
  <scstep>
   <time name="dav">   21.40   21.40</time>
   <time name="total">   35.87   35.88</time>
   <energy>
    <i name="e_fr_energy">    -65.63991018 </i>
    <i name="e_wo_entrp">    -65.63991018 </i>
    <i name="e_0_energy">    -65.63991018 </i>
   </energy>
  </scstep>
  <scstep>
   <time name="dav">   20.51   20.52</time>
   <time name="total">   35.01   35.02</time>
   <energy>
    <i name="e_fr_energy">    -65.63991193 </i>
    <i name="e_wo_entrp">    -65.63991193 </i>
    <i name="e_0_energy">    -65.63991193 </i>
   </energy>
  </scstep>
  <scstep>
   <time name="dav">   20.37   20.37</time>
   <time name="total">   33.06   33.07</time>
   <energy>
    <i name="alphaZ">     10.22328332 </i>
    <i name="ewald">   7232.13565053 </i>
    <i name="hartreedc">  -8671.90810261 </i>
    <i name="XCdc">    -40.03736920 </i>
    <i name="pawpsdc">    579.04352531 </i>
    <i name="pawaedc">   -418.43925392 </i>
    <i name="eentropy">     -0.00000000 </i>
    <i name="bandstr">   -433.67827577 </i>
    <i name="atom">   1677.02063022 </i>
    <i name="e_fr_energy">    -65.63991212 </i>
    <i name="e_wo_entrp">    -65.63991212 </i>
    <i name="e_0_energy">    -65.63991212 </i>
   </energy>
  </scstep>
  <structure>
   <crystal>
    <varray name="basis" >
     <v>       3.54027490       0.00000000       0.00000000 </v>
     <v>      -1.77013745      10.30071418       0.00000000 </v>
     <v>       0.00000000       0.00000000      24.74024220 </v>
    </varray>
    <i name="volume">    902.21131482 </i>
    <varray name="rec_basis" >
     <v>       0.28246394       0.04854032       0.00000000 </v>
     <v>       0.00000000       0.09708065       0.00000000 </v>
     <v>       0.00000000       0.00000000       0.04041998 </v>
    </varray>
   </crystal>
   <varray name="positions" >
    <v>       0.11390947       0.22781893       0.25904931 </v>
    <v>       0.45817951       0.91635903       0.23258551 </v>
    <v>       0.31079761       0.62159523       0.09375223 </v>
    <v>       0.99930863       0.99861725       0.09581345 </v>
    <v>       0.65504646       0.31009292       0.06726687 </v>
    <v>       0.76961721       0.53923443       0.23053793 </v>
    <v>       0.93976226       0.87952452       0.17529487 </v>
    <v>       0.20509196       0.41018392       0.20657303 </v>
    <v>       0.20185543       0.40371087       0.11096620 </v>
    <v>       0.56385209       0.12770417       0.11974310 </v>
    <v>       0.56711537       0.13423074       0.21533340 </v>
    <v>       0.82918800       0.65837599       0.15105608 </v>
   </varray>
  </structure>
  <varray name="forces" >
   <v>      -0.00000000       0.00053091       0.00727762 </v>
   <v>      -0.00000000      -0.00010116       0.00334296 </v>
   <v>      -0.00000000      -0.00080156      -0.00538120 </v>
   <v>      -0.00000000       0.00058966       0.00134616 </v>
   <v>      -0.00000000      -0.00194119      -0.00766583 </v>
   <v>       0.00000000       0.00084919      -0.00269364 </v>
   <v>       0.00000000      -0.00341784       0.00719538 </v>
   <v>      -0.00000000       0.00893936       0.01703522 </v>
   <v>      -0.00000000       0.00485537      -0.02015616 </v>
   <v>      -0.00000000      -0.00833991      -0.01597513 </v>
   <v>       0.00000000      -0.00602971       0.02256583 </v>
   <v>      -0.00000000       0.00486689      -0.00689121 </v>
  </varray>
  <varray name="stress" >
   <v>       0.00007612       0.00000000       0.00000000 </v>
   <v>       0.00000000      -0.07372013       0.02951527 </v>
   <v>       0.00000000       0.02951523      -0.55549679 </v>
  </varray>
  <energy>
   <i name="e_fr_energy">    -65.63991212 </i>
   <i name="e_wo_entrp">    -65.63991212 </i>
   <i name="e_0_energy">     -0.00000000 </i>
  </energy>
  <time name="totalsc">  323.90  323.99</time>
 </calculation>
 <calculation>
  <scstep>
   <time name="dav">   25.11   25.11</time>
   <time name="total">   39.69   39.70</time>
   <energy>
    <i name="alphaZ">     10.22575431 </i>
    <i name="ewald">   7231.92337866 </i>
    <i name="hartreedc">  -8671.81806215 </i>
    <i name="XCdc">    -40.03952667 </i>
    <i name="pawpsdc">    579.04366181 </i>
    <i name="pawaedc">   -418.43939712 </i>
    <i name="eentropy">     -0.00000000 </i>
    <i name="bandstr">   -433.55640921 </i>
    <i name="atom">   1677.02063022 </i>
    <i name="e_fr_energy">    -65.63997015 </i>
    <i name="e_wo_entrp">    -65.63997015 </i>
    <i name="e_0_energy">    -65.63997015 </i>
   </energy>
  </scstep>
  <scstep>
   <time name="dav">   30.01   30.01</time>
   <time name="total">   44.53   44.54</time>
   <energy>
    <i name="e_fr_energy">    -65.63972000 </i>
    <i name="e_wo_entrp">    -65.63972000 </i>
    <i name="e_0_energy">    -65.63972000 </i>
   </energy>
  </scstep>
  <scstep>
   <time name="dav">   30.43   30.44</time>
   <time name="total">   44.96   44.97</time>
   <energy>
    <i name="e_fr_energy">    -65.63965156 </i>
    <i name="e_wo_entrp">    -65.63965156 </i>
    <i name="e_0_energy">    -65.63965156 </i>
   </energy>
  </scstep>
  <scstep>
   <time name="dav">   28.94   28.95</time>
   <time name="total">   43.49   43.50</time>
   <energy>
    <i name="e_fr_energy">    -65.63967105 </i>
    <i name="e_wo_entrp">    -65.63967105 </i>
    <i name="e_0_energy">    -65.63967105 </i>
   </energy>
  </scstep>
  <scstep>
   <time name="dav">   23.96   23.96</time>
   <time name="total">   38.50   38.51</time>
   <energy>
    <i name="e_fr_energy">    -65.63971050 </i>
    <i name="e_wo_entrp">    -65.63971050 </i>
    <i name="e_0_energy">    -65.63971050 </i>
   </energy>
  </scstep>
  <scstep>
   <time name="dav">   21.23   21.23</time>
   <time name="total">   35.75   35.76</time>
   <energy>
    <i name="e_fr_energy">    -65.63971512 </i>
    <i name="e_wo_entrp">    -65.63971512 </i>
    <i name="e_0_energy">    -65.63971512 </i>
   </energy>
  </scstep>
  <scstep>
   <time name="dav">   20.40   20.40</time>
   <time name="total">   34.91   34.92</time>
   <energy>
    <i name="e_fr_energy">    -65.63971933 </i>
    <i name="e_wo_entrp">    -65.63971933 </i>
    <i name="e_0_energy">    -65.63971933 </i>
   </energy>
  </scstep>
  <scstep>
   <time name="dav">   20.17   20.18</time>
   <time name="total">   34.72   34.73</time>
   <energy>
    <i name="e_fr_energy">    -65.63972399 </i>
    <i name="e_wo_entrp">    -65.63972399 </i>
    <i name="e_0_energy">    -65.63972399 </i>
   </energy>
  </scstep>
  <scstep>
   <time name="dav">   19.66   19.67</time>
   <time name="total">   34.20   34.21</time>
   <energy>
    <i name="e_fr_energy">    -65.63972632 </i>
    <i name="e_wo_entrp">    -65.63972632 </i>
    <i name="e_0_energy">    -65.63972632 </i>
   </energy>
  </scstep>
  <scstep>
   <time name="dav">   19.51   19.51</time>
   <time name="total">   32.25   32.26</time>
   <energy>
    <i name="alphaZ">     10.22575431 </i>
    <i name="ewald">   7231.92337866 </i>
    <i name="hartreedc">  -8671.77620036 </i>
    <i name="XCdc">    -40.04132199 </i>
    <i name="pawpsdc">    579.01288422 </i>
    <i name="pawaedc">   -418.40748105 </i>
    <i name="eentropy">     -0.00000000 </i>
    <i name="bandstr">   -433.59737132 </i>
    <i name="atom">   1677.02063022 </i>
    <i name="e_fr_energy">    -65.63972731 </i>
    <i name="e_wo_entrp">    -65.63972731 </i>
    <i name="e_0_energy">    -65.63972731 </i>
   </energy>
  </scstep>
  <structure>
   <crystal>
    <varray name="basis" >
     <v>       3.54017760       0.00000000       0.00000000 </v>
     <v>      -1.77008880      10.29850810       0.00000000 </v>
     <v>       0.00000000       0.00000000      24.74024220 </v>
    </varray>
    <i name="volume">    901.99330130 </i>
    <varray name="rec_basis" >
     <v>       0.28247170       0.04855072       0.00000000 </v>
     <v>       0.00000000       0.09710144       0.00000000 </v>
     <v>       0.00000000       0.00000000       0.04041998 </v>
    </varray>
   </crystal>
   <varray name="positions" >
    <v>       0.11391150       0.22782300       0.25909002 </v>
    <v>       0.45816064       0.91632128       0.23262202 </v>
    <v>       0.31081337       0.62162674       0.09371165 </v>
    <v>       0.99928968       0.99857937       0.09579594 </v>
    <v>       0.65503576       0.31007153       0.06722678 </v>
    <v>       0.76964421       0.53928841       0.23055182 </v>
    <v>       0.93976214       0.87952429       0.17530964 </v>
    <v>       0.20509917       0.41019835       0.20660114 </v>
    <v>       0.20186056       0.40372112       0.11092721 </v>
    <v>       0.56384558       0.12769117       0.11971947 </v>
    <v>       0.56710583       0.13421167       0.21537689 </v>
    <v>       0.82919554       0.65839108       0.15103943 </v>
   </varray>
  </structure>
  <varray name="forces" >
   <v>       0.00000000       0.00070050       0.00742011 </v>
   <v>       0.00000000      -0.00236067      -0.00123496 </v>
   <v>      -0.00000000       0.00165151       0.00019334 </v>
   <v>       0.00000000      -0.00159107       0.00532937 </v>
   <v>       0.00000000      -0.00033424      -0.00705529 </v>
   <v>       0.00000000       0.00172653      -0.00587737 </v>
   <v>       0.00000000      -0.00066560       0.00726132 </v>
   <v>       0.00000000       0.00797579       0.00356431 </v>
   <v>       0.00000000       0.00255382      -0.00697327 </v>
   <v>      -0.00000000      -0.00723955      -0.00288067 </v>
   <v>       0.00000000      -0.00344670       0.00822538 </v>
   <v>       0.00000000       0.00102967      -0.00797228 </v>
  </varray>
  <varray name="stress" >
   <v>      -0.00193888       0.00000000       0.00000000 </v>
   <v>       0.00000000      -0.01488515       0.03147185 </v>
   <v>       0.00000000       0.03147180      -0.72237489 </v>
  </varray>
  <energy>
   <i name="e_fr_energy">    -65.63972731 </i>
   <i name="e_wo_entrp">    -65.63972731 </i>
   <i name="e_0_energy">     -0.00000000 </i>
  </energy>
  <time name="totalsc">  447.17  447.29</time>
 </calculation>
 <calculation>
  <scstep>
   <time name="dav">   25.47   25.48</time>
   <time name="total">   40.02   40.03</time>
   <energy>
    <i name="alphaZ">     10.22741115 </i>
    <i name="ewald">   7231.78120249 </i>
    <i name="hartreedc">  -8671.71571741 </i>
    <i name="XCdc">    -40.04276846 </i>
    <i name="pawpsdc">    579.01280079 </i>
    <i name="pawaedc">   -418.40739580 </i>
    <i name="eentropy">     -0.00000000 </i>
    <i name="bandstr">   -433.51589815 </i>
    <i name="atom">   1677.02063022 </i>
    <i name="e_fr_energy">    -65.63973515 </i>
    <i name="e_wo_entrp">    -65.63973515 </i>
    <i name="e_0_energy">    -65.63973515 </i>
   </energy>
  </scstep>
  <scstep>
   <time name="dav">   29.94   29.95</time>
   <time name="total">   44.66   44.67</time>
   <energy>
    <i name="e_fr_energy">    -65.63956232 </i>
    <i name="e_wo_entrp">    -65.63956232 </i>
    <i name="e_0_energy">    -65.63956232 </i>
   </energy>
  </scstep>
  <scstep>
   <time name="dav">   27.87   27.88</time>
   <time name="total">   42.95   42.96</time>
   <energy>
    <i name="e_fr_energy">    -65.63952027 </i>
    <i name="e_wo_entrp">    -65.63952027 </i>
    <i name="e_0_energy">    -65.63952027 </i>
   </energy>
  </scstep>
  <scstep>
   <time name="dav">   26.22   26.22</time>
   <time name="total">   40.82   40.83</time>
   <energy>
    <i name="e_fr_energy">    -65.63953198 </i>
    <i name="e_wo_entrp">    -65.63953198 </i>
    <i name="e_0_energy">    -65.63953198 </i>
   </energy>
  </scstep>
  <scstep>
   <time name="dav">   22.70   22.70</time>
   <time name="total">   37.23   37.24</time>
   <energy>
    <i name="e_fr_energy">    -65.63955920 </i>
    <i name="e_wo_entrp">    -65.63955920 </i>
    <i name="e_0_energy">    -65.63955920 </i>
   </energy>
  </scstep>
  <scstep>
   <time name="dav">   20.99   20.99</time>
   <time name="total">   35.70   35.71</time>
   <energy>
    <i name="e_fr_energy">    -65.63956177 </i>
    <i name="e_wo_entrp">    -65.63956177 </i>
    <i name="e_0_energy">    -65.63956177 </i>
   </energy>
  </scstep>
  <scstep>
   <time name="dav">   20.44   20.45</time>
   <time name="total">   35.05   35.05</time>
   <energy>
    <i name="e_fr_energy">    -65.63956473 </i>
    <i name="e_wo_entrp">    -65.63956473 </i>
    <i name="e_0_energy">    -65.63956473 </i>
   </energy>
  </scstep>
  <scstep>
   <time name="dav">   19.40   19.40</time>
   <time name="total">   34.09   34.10</time>
   <energy>
    <i name="e_fr_energy">    -65.63956818 </i>
    <i name="e_wo_entrp">    -65.63956818 </i>
    <i name="e_0_energy">    -65.63956818 </i>
   </energy>
  </scstep>
  <scstep>
   <time name="dav">   19.55   19.55</time>
   <time name="total">   34.29   34.30</time>
   <energy>
    <i name="e_fr_energy">    -65.63956940 </i>
    <i name="e_wo_entrp">    -65.63956940 </i>
    <i name="e_0_energy">    -65.63956940 </i>
   </energy>
  </scstep>
  <scstep>
   <time name="dav">   21.45   21.45</time>
   <time name="total">   35.06   35.07</time>
   <energy>
    <i name="alphaZ">     10.22741115 </i>
    <i name="ewald">   7231.78120249 </i>
    <i name="hartreedc">  -8671.68790039 </i>
    <i name="XCdc">    -40.04396573 </i>
    <i name="pawpsdc">    578.99234449 </i>
    <i name="pawaedc">   -418.38618059 </i>
    <i name="eentropy">     -0.00000000 </i>
    <i name="bandstr">   -433.54311158 </i>
    <i name="atom">   1677.02063022 </i>
    <i name="e_fr_energy">    -65.63956994 </i>
    <i name="e_wo_entrp">    -65.63956994 </i>
    <i name="e_0_energy">    -65.63956994 </i>
   </energy>
  </scstep>
  <structure>
   <crystal>
    <varray name="basis" >
     <v>       3.54011239       0.00000000       0.00000000 </v>
     <v>      -1.77005620      10.29702942       0.00000000 </v>
     <v>       0.00000000       0.00000000      24.74024220 </v>
    </varray>
    <i name="volume">    901.84717801 </i>
    <varray name="rec_basis" >
     <v>       0.28247691       0.04855769       0.00000000 </v>
     <v>       0.00000000       0.09711539       0.00000000 </v>
     <v>       0.00000000       0.00000000       0.04041998 </v>
    </varray>
   </crystal>
   <varray name="positions" >
    <v>       0.11391286       0.22782572       0.25911730 </v>
    <v>       0.45814799       0.91629597       0.23264649 </v>
    <v>       0.31082394       0.62164787       0.09368444 </v>
    <v>       0.99927699       0.99855397       0.09578420 </v>
    <v>       0.65502859       0.31005719       0.06719990 </v>
    <v>       0.76966230       0.53932460       0.23056113 </v>
    <v>       0.93976206       0.87952413       0.17531954 </v>
    <v>       0.20510401       0.41020802       0.20661999 </v>
    <v>       0.20186400       0.40372800       0.11090107 </v>
    <v>       0.56384122       0.12768245       0.11970363 </v>
    <v>       0.56709944       0.13419888       0.21540604 </v>
    <v>       0.82920060       0.65840120       0.15102827 </v>
   </varray>
  </structure>
  <varray name="forces" >
   <v>       0.00000000       0.00052544       0.00764189 </v>
   <v>       0.00000000      -0.00380622      -0.00433202 </v>
   <v>      -0.00000000       0.00316546       0.00388813 </v>
   <v>       0.00000000      -0.00295858       0.00789482 </v>
   <v>       0.00000000       0.00074052      -0.00677863 </v>
   <v>       0.00000000       0.00244669      -0.00797611 </v>
   <v>      -0.00000000       0.00133806       0.00722502 </v>
   <v>      -0.00000000       0.00720077      -0.00517017 </v>
   <v>       0.00000000       0.00113675       0.00175967 </v>
   <v>       0.00000000      -0.00649841       0.00586114 </v>
   <v>       0.00000000      -0.00187504      -0.00092064 </v>
   <v>      -0.00000000      -0.00141545      -0.00909311 </v>
  </varray>
  <varray name="stress" >
   <v>      -0.00219412       0.00000000       0.00000000 </v>
   <v>       0.00000000       0.02679460       0.03054963 </v>
   <v>       0.00000000       0.03054948      -0.83070666 </v>
  </varray>
  <energy>
   <i name="e_fr_energy">    -65.63956994 </i>
   <i name="e_wo_entrp">    -65.63956994 </i>
   <i name="e_0_energy">     -0.00000000 </i>
  </energy>
  <time name="totalsc">  464.37  464.49</time>
 </calculation>
 <calculation>
  <scstep>
   <time name="dav">   30.05   30.05</time>
   <time name="total">   48.75   48.76</time>
   <energy>
    <i name="alphaZ">     10.22750097 </i>
    <i name="ewald">   7231.31783524 </i>
    <i name="hartreedc">  -8671.24548868 </i>
    <i name="XCdc">    -40.04620226 </i>
    <i name="pawpsdc">    578.99226691 </i>
    <i name="pawaedc">   -418.38610140 </i>
    <i name="eentropy">     -0.00000000 </i>
    <i name="bandstr">   -433.52002417 </i>
    <i name="atom">   1677.02063022 </i>
    <i name="e_fr_energy">    -65.63958316 </i>
    <i name="e_wo_entrp">    -65.63958316 </i>
    <i name="e_0_energy">    -65.63958316 </i>
   </energy>
  </scstep>
  <scstep>
   <time name="dav">   34.18   34.19</time>
   <time name="total">   56.45   56.46</time>
   <energy>
    <i name="e_fr_energy">    -65.63948920 </i>
    <i name="e_wo_entrp">    -65.63948920 </i>
    <i name="e_0_energy">    -65.63948920 </i>
   </energy>
  </scstep>
  <scstep>
   <time name="dav">   37.04   37.05</time>
   <time name="total">   60.29   60.31</time>
   <energy>
    <i name="e_fr_energy">    -65.63947420 </i>
    <i name="e_wo_entrp">    -65.63947420 </i>
    <i name="e_0_energy">    -65.63947420 </i>
   </energy>
  </scstep>
  <scstep>
   <time name="dav">   44.77   44.78</time>
   <time name="total">   66.03   66.05</time>
   <energy>
    <i name="e_fr_energy">    -65.63947659 </i>
    <i name="e_wo_entrp">    -65.63947659 </i>
    <i name="e_0_energy">    -65.63947659 </i>
   </energy>
  </scstep>
  <scstep>
   <time name="dav">   23.56   23.57</time>
   <time name="total">   46.75   46.77</time>
   <energy>
    <i name="e_fr_energy">    -65.63948053 </i>
    <i name="e_wo_entrp">    -65.63948053 </i>
    <i name="e_0_energy">    -65.63948053 </i>
   </energy>
  </scstep>
  <scstep>
   <time name="dav">   30.37   30.38</time>
   <time name="total">   51.01   51.02</time>
   <energy>
    <i name="alphaZ">     10.22750097 </i>
    <i name="ewald">   7231.31783524 </i>
    <i name="hartreedc">  -8671.24309125 </i>
    <i name="XCdc">    -40.04638674 </i>
    <i name="pawpsdc">    578.97294295 </i>
    <i name="pawaedc">   -418.36615282 </i>
    <i name="eentropy">     -0.00000000 </i>
    <i name="bandstr">   -433.52275836 </i>
    <i name="atom">   1677.02063022 </i>
    <i name="e_fr_energy">    -65.63947979 </i>
    <i name="e_wo_entrp">    -65.63947979 </i>
    <i name="e_0_energy">    -65.63947979 </i>
   </energy>
  </scstep>
  <structure>
   <crystal>
    <varray name="basis" >
     <v>       3.54006154       0.00000000       0.00000000 </v>
     <v>      -1.77003077      10.29708690       0.00000000 </v>
     <v>       0.00000000       0.00000000      24.74024220 </v>
    </varray>
    <i name="volume">    901.83925817 </i>
    <varray name="rec_basis" >
     <v>       0.28248097       0.04855742       0.00000000 </v>
     <v>       0.00000000       0.09711485       0.00000000 </v>
     <v>       0.00000000       0.00000000       0.04041998 </v>
    </varray>
   </crystal>
   <varray name="positions" >
    <v>       0.11391494       0.22782989       0.25914750 </v>
    <v>       0.45813160       0.91626321       0.23264777 </v>
    <v>       0.31083758       0.62167516       0.09368087 </v>
    <v>       0.99926293       0.99852586       0.09579701 </v>
    <v>       0.65502734       0.31005468       0.06717188 </v>
    <v>       0.76967742       0.53935485       0.23054702 </v>
    <v>       0.93976574       0.87953147       0.17534078 </v>
    <v>       0.20512620       0.41025239       0.20661674 </v>
    <v>       0.20186873       0.40373747       0.11089308 </v>
    <v>       0.56382120       0.12764241       0.11970986 </v>
    <v>       0.56709130       0.13418259       0.21541735 </v>
    <v>       0.82919901       0.65839802       0.15100215 </v>
   </varray>
  </structure>
  <varray name="forces" >
   <v>       0.00000000       0.00299922      -0.00071960 </v>
   <v>      -0.00000000      -0.00102654       0.00043383 </v>
   <v>      -0.00000000       0.00012023      -0.00116153 </v>
   <v>       0.00000000      -0.00348267       0.00747315 </v>
   <v>       0.00000000      -0.00212046       0.00153817 </v>
   <v>       0.00000000       0.00359437      -0.00774209 </v>
   <v>      -0.00000000      -0.00501173       0.00043828 </v>
   <v>      -0.00000000      -0.00089258      -0.00260058 </v>
   <v>       0.00000000      -0.00134248      -0.00133466 </v>
   <v>      -0.00000000       0.00133375       0.00272783 </v>
   <v>      -0.00000000       0.00122635       0.00221231 </v>
   <v>      -0.00000000       0.00460254      -0.00126512 </v>
  </varray>
  <varray name="stress" >
   <v>       0.00912454       0.00000000       0.00000000 </v>
   <v>       0.00000000      -0.02374563       0.05064500 </v>
   <v>       0.00000000       0.05064507      -0.84863420 </v>
  </varray>
  <energy>
   <i name="e_fr_energy">    -65.63947979 </i>
   <i name="e_wo_entrp">    -65.63947979 </i>
   <i name="e_0_energy">     -0.00000000 </i>
  </energy>
  <time name="totalsc">  414.12  414.35</time>
 </calculation>
 <calculation>
  <scstep>
   <time name="dav">   38.47   38.48</time>
   <time name="total">   68.51   68.52</time>
   <energy>
    <i name="alphaZ">     10.22752209 </i>
    <i name="ewald">   7231.20889394 </i>
    <i name="hartreedc">  -8671.13956683 </i>
    <i name="XCdc">    -40.04690398 </i>
    <i name="pawpsdc">    578.97299520 </i>
    <i name="pawaedc">   -418.36620587 </i>
    <i name="eentropy">     -0.00000000 </i>
    <i name="bandstr">   -433.51684380 </i>
    <i name="atom">   1677.02063022 </i>
    <i name="e_fr_energy">    -65.63947903 </i>
    <i name="e_wo_entrp">    -65.63947903 </i>
    <i name="e_0_energy">    -65.63947903 </i>
   </energy>
  </scstep>
  <scstep>
   <time name="dav">   40.93   40.94</time>
   <time name="total">   69.82   69.84</time>
   <energy>
    <i name="e_fr_energy">    -65.63945609 </i>
    <i name="e_wo_entrp">    -65.63945609 </i>
    <i name="e_0_energy">    -65.63945609 </i>
   </energy>
  </scstep>
  <scstep>
   <time name="dav">   35.12   35.12</time>
   <time name="total">   62.87   62.89</time>
   <energy>
    <i name="e_fr_energy">    -65.63945210 </i>
    <i name="e_wo_entrp">    -65.63945210 </i>
    <i name="e_0_energy">    -65.63945210 </i>
   </energy>
  </scstep>
  <scstep>
   <time name="dav">   37.69   37.70</time>
   <time name="total">   73.23   73.25</time>
   <energy>
    <i name="e_fr_energy">    -65.63945066 </i>
    <i name="e_wo_entrp">    -65.63945066 </i>
    <i name="e_0_energy">    -65.63945066 </i>
   </energy>
  </scstep>
  <scstep>
   <time name="dav">   47.75   47.76</time>
   <time name="total">   84.72   84.74</time>
   <energy>
    <i name="e_fr_energy">    -65.63945205 </i>
    <i name="e_wo_entrp">    -65.63945205 </i>
    <i name="e_0_energy">    -65.63945205 </i>
   </energy>
  </scstep>
  <scstep>
   <time name="dav">   32.74   32.75</time>
   <time name="total">   63.41   63.43</time>
   <energy>
    <i name="alphaZ">     10.22752209 </i>
    <i name="ewald">   7231.20889394 </i>
    <i name="hartreedc">  -8671.13960685 </i>
    <i name="XCdc">    -40.04693553 </i>
    <i name="pawpsdc">    578.96866030 </i>
    <i name="pawaedc">   -418.36172854 </i>
    <i name="eentropy">     -0.00000000 </i>
    <i name="bandstr">   -433.51688853 </i>
    <i name="atom">   1677.02063022 </i>
    <i name="e_fr_energy">    -65.63945289 </i>
    <i name="e_wo_entrp">    -65.63945289 </i>
    <i name="e_0_energy">    -65.63945289 </i>
   </energy>
  </scstep>
  <structure>
   <crystal>
    <varray name="basis" >
     <v>       3.54004958       0.00000000       0.00000000 </v>
     <v>      -1.77002479      10.29710042       0.00000000 </v>
     <v>       0.00000000       0.00000000      24.74024220 </v>
    </varray>
    <i name="volume">    901.83739615 </i>
    <varray name="rec_basis" >
     <v>       0.28248192       0.04855736       0.00000000 </v>
     <v>       0.00000000       0.09711472       0.00000000 </v>
     <v>       0.00000000       0.00000000       0.04041998 </v>
    </varray>
   </crystal>
   <varray name="positions" >
    <v>       0.11391543       0.22783087       0.25915460 </v>
    <v>       0.45812775       0.91625551       0.23264807 </v>
    <v>       0.31084079       0.62168157       0.09368004 </v>
    <v>       0.99925963       0.99851926       0.09580002 </v>
    <v>       0.65502705       0.31005410       0.06716529 </v>
    <v>       0.76968098       0.53936196       0.23054370 </v>
    <v>       0.93976660       0.87953320       0.17534577 </v>
    <v>       0.20513141       0.41026283       0.20661598 </v>
    <v>       0.20186985       0.40373970       0.11089120 </v>
    <v>       0.56381650       0.12763299       0.11971132 </v>
    <v>       0.56708938       0.13417876       0.21542001 </v>
    <v>       0.82919863       0.65839727       0.15099600 </v>
   </varray>
  </structure>
  <varray name="forces" >
   <v>      -0.00000000       0.00344860      -0.00276058 </v>
   <v>      -0.00000000      -0.00048197       0.00158121 </v>
   <v>      -0.00000000      -0.00063634      -0.00233092 </v>
   <v>      -0.00000000      -0.00360193       0.00716069 </v>
   <v>       0.00000000      -0.00280488       0.00336865 </v>
   <v>      -0.00000000       0.00390318      -0.00768767 </v>
   <v>       0.00000000      -0.00661169      -0.00111892 </v>
   <v>      -0.00000000      -0.00281650      -0.00198684 </v>
   <v>      -0.00000000      -0.00190564      -0.00211577 </v>
   <v>      -0.00000000       0.00297979       0.00206354 </v>
   <v>       0.00000000       0.00255784       0.00321862 </v>
   <v>      -0.00000000       0.00596955       0.00060800 </v>
  </varray>
  <varray name="stress" >
   <v>       0.01123975       0.00000000       0.00000000 </v>
   <v>       0.00000000      -0.03305561       0.05546916 </v>
   <v>       0.00000000       0.05546910      -0.85398407 </v>
  </varray>
  <energy>
   <i name="e_fr_energy">    -65.63945289 </i>
   <i name="e_wo_entrp">    -65.63945289 </i>
   <i name="e_0_energy">     -0.00000000 </i>
  </energy>
  <time name="totalsc">  585.93  586.13</time>
 </calculation>
 <calculation>
  <scstep>
   <time name="dav">   33.66   33.67</time>
   <time name="total">   56.12   56.15</time>
   <energy>
    <i name="alphaZ">     10.22820129 </i>
    <i name="ewald">   7231.72100936 </i>
    <i name="hartreedc">  -8671.66768523 </i>
    <i name="XCdc">    -40.04506423 </i>
    <i name="pawpsdc">    578.96870525 </i>
    <i name="pawaedc">   -418.36177382 </i>
    <i name="eentropy">     -0.00000000 </i>
    <i name="bandstr">   -433.50348652 </i>
    <i name="atom">   1677.02063022 </i>
    <i name="e_fr_energy">    -65.63946368 </i>
    <i name="e_wo_entrp">    -65.63946368 </i>
    <i name="e_0_energy">    -65.63946368 </i>
   </energy>
  </scstep>
  <scstep>
   <time name="dav">   29.21   29.21</time>
   <time name="total">   45.84   45.86</time>
   <energy>
    <i name="e_fr_energy">    -65.63946670 </i>
    <i name="e_wo_entrp">    -65.63946670 </i>
    <i name="e_0_energy">    -65.63946670 </i>
   </energy>
  </scstep>
  <scstep>
   <time name="dav">   52.62   52.64</time>
   <time name="total">   76.65   76.67</time>
   <energy>
    <i name="e_fr_energy">    -65.63947631 </i>
    <i name="e_wo_entrp">    -65.63947631 </i>
    <i name="e_0_energy">    -65.63947631 </i>
   </energy>
  </scstep>
  <scstep>
   <time name="dav">   24.93   24.94</time>
   <time name="total">   44.27   44.28</time>
   <energy>
    <i name="e_fr_energy">    -65.63950936 </i>
    <i name="e_wo_entrp">    -65.63950936 </i>
    <i name="e_0_energy">    -65.63950936 </i>
   </energy>
  </scstep>
  <scstep>
   <time name="dav">   21.12   21.13</time>
   <time name="total">   35.71   35.72</time>
   <energy>
    <i name="e_fr_energy">    -65.63952240 </i>
    <i name="e_wo_entrp">    -65.63952240 </i>
    <i name="e_0_energy">    -65.63952240 </i>
   </energy>
  </scstep>
  <scstep>
   <time name="dav">   22.39   22.40</time>
   <time name="total">   43.96   43.97</time>
   <energy>
    <i name="e_fr_energy">    -65.63952879 </i>
    <i name="e_wo_entrp">    -65.63952879 </i>
    <i name="e_0_energy">    -65.63952879 </i>
   </energy>
  </scstep>
  <scstep>
   <time name="dav">   20.10   20.10</time>
   <time name="total">   34.79   34.80</time>
   <energy>
    <i name="e_fr_energy">    -65.63953086 </i>
    <i name="e_wo_entrp">    -65.63953086 </i>
    <i name="e_0_energy">    -65.63953086 </i>
   </energy>
  </scstep>
  <scstep>
   <time name="dav">   20.10   20.10</time>
   <time name="total">   35.03   35.04</time>
   <energy>
    <i name="e_fr_energy">    -65.63953214 </i>
    <i name="e_wo_entrp">    -65.63953214 </i>
    <i name="e_0_energy">    -65.63953214 </i>
   </energy>
  </scstep>
  <scstep>
   <time name="dav">   19.30   19.31</time>
   <time name="total">   31.99   32.00</time>
   <energy>
    <i name="alphaZ">     10.22820129 </i>
    <i name="ewald">   7231.72100936 </i>
    <i name="hartreedc">  -8671.65213529 </i>
    <i name="XCdc">    -40.04543898 </i>
    <i name="pawpsdc">    578.97976703 </i>
    <i name="pawaedc">   -418.37320377 </i>
    <i name="eentropy">     -0.00000000 </i>
    <i name="bandstr">   -433.51836213 </i>
    <i name="atom">   1677.02063022 </i>
    <i name="e_fr_energy">    -65.63953227 </i>
    <i name="e_wo_entrp">    -65.63953227 </i>
    <i name="e_0_energy">    -65.63953227 </i>
   </energy>
  </scstep>
  <structure>
   <crystal>
    <varray name="basis" >
     <v>       3.54013074       0.00000000       0.00000000 </v>
     <v>      -1.77006537      10.29618059       0.00000000 </v>
     <v>       0.00000000       0.00000000      24.74024220 </v>
    </varray>
    <i name="volume">    901.77750987 </i>
    <varray name="rec_basis" >
     <v>       0.28247544       0.04856170       0.00000000 </v>
     <v>       0.00000000       0.09712339       0.00000000 </v>
     <v>       0.00000000       0.00000000       0.04041998 </v>
    </varray>
   </crystal>
   <varray name="positions" >
    <v>       0.11392669       0.22785337       0.25916598 </v>
    <v>       0.45811657       0.91623313       0.23265266 </v>
    <v>       0.31084709       0.62169418       0.09367227 </v>
    <v>       0.99924078       0.99848156       0.09582496 </v>
    <v>       0.65501816       0.31003632       0.06715669 </v>
    <v>       0.76970134       0.53940268       0.23051670 </v>
    <v>       0.93974961       0.87949921       0.17535575 </v>
    <v>       0.20513650       0.41027299       0.20660924 </v>
    <v>       0.20186715       0.40373429       0.11088132 </v>
    <v>       0.56381318       0.12762636       0.11972002 </v>
    <v>       0.56709194       0.13418388       0.21543454 </v>
    <v>       0.82921501       0.65843001       0.15098187 </v>
   </varray>
  </structure>
  <varray name="forces" >
   <v>       0.00000000       0.00321812      -0.00276434 </v>
   <v>       0.00000000      -0.00065967       0.00315642 </v>
   <v>       0.00000000       0.00006674      -0.00381671 </v>
   <v>       0.00000000      -0.00055222       0.00385092 </v>
   <v>       0.00000000      -0.00282305       0.00369625 </v>
   <v>       0.00000000       0.00177295      -0.00469004 </v>
   <v>       0.00000000      -0.00120300       0.00114616 </v>
   <v>      -0.00000000      -0.00254112      -0.00268196 </v>
   <v>       0.00000000      -0.00212625      -0.00112760 </v>
   <v>      -0.00000000       0.00267745       0.00300182 </v>
   <v>      -0.00000000       0.00172794       0.00161848 </v>
   <v>       0.00000000       0.00044211      -0.00138941 </v>
  </varray>
  <varray name="stress" >
   <v>       0.00410060       0.00000000       0.00000000 </v>
   <v>       0.00000000      -0.00865605       0.04312460 </v>
   <v>       0.00000000       0.04312457      -0.83445978 </v>
  </varray>
  <energy>
   <i name="e_fr_energy">    -65.63953227 </i>
   <i name="e_wo_entrp">    -65.63953227 </i>
   <i name="e_0_energy">     -0.00000000 </i>
  </energy>
  <time name="totalsc">  467.59  467.76</time>
 </calculation>
 <calculation>
  <scstep>
   <time name="dav">   24.64   24.65</time>
   <time name="total">   39.11   39.12</time>
   <energy>
    <i name="alphaZ">     10.22894961 </i>
    <i name="ewald">   7232.28516988 </i>
    <i name="hartreedc">  -8672.23370592 </i>
    <i name="XCdc">    -40.04338512 </i>
    <i name="pawpsdc">    578.97971779 </i>
    <i name="pawaedc">   -418.37315392 </i>
    <i name="eentropy">     -0.00000000 </i>
    <i name="bandstr">   -433.50375522 </i>
    <i name="atom">   1677.02063022 </i>
    <i name="e_fr_energy">    -65.63953267 </i>
[...]
       <r>   -5.1952    1.0000 </r>
       <r>   -5.0237    1.0000 </r>
       <r>   -4.8001    1.0000 </r>
       <r>   -4.5375    1.0000 </r>
       <r>   -4.2419    1.0000 </r>
       <r>   -4.1613    1.0000 </r>
       <r>   -4.0216    1.0000 </r>
       <r>   -3.5771    1.0000 </r>
       <r>   -0.9979    0.0000 </r>
       <r>   -0.9221    0.0000 </r>
       <r>   -0.1354    0.0000 </r>
       <r>   -0.0250    0.0000 </r>
       <r>    0.1674    0.0000 </r>
       <r>    0.2766    0.0000 </r>
       <r>    0.6924    0.0000 </r>
       <r>    0.8687    0.0000 </r>
       <r>    1.1485    0.0000 </r>
      </set>
      <set comment="kpoint 53">
       <r>  -14.3153    1.0000 </r>
       <r>  -13.9550    1.0000 </r>
       <r>  -13.5193    1.0000 </r>
       <r>  -13.0534    1.0000 </r>
       <r>  -12.9055    1.0000 </r>
       <r>  -12.7456    1.0000 </r>
       <r>  -11.1932    1.0000 </r>
       <r>  -10.5330    1.0000 </r>
       <r>   -9.9004    1.0000 </r>
       <r>   -9.6643    1.0000 </r>
       <r>   -9.0055    1.0000 </r>
       <r>   -8.9413    1.0000 </r>
       <r>   -7.5808    1.0000 </r>
       <r>   -6.9583    1.0000 </r>
       <r>   -6.7767    1.0000 </r>
       <r>   -6.4120    1.0000 </r>
       <r>   -6.3201    1.0000 </r>
       <r>   -5.8150    1.0000 </r>
       <r>   -5.4680    1.0000 </r>
       <r>   -5.4032    1.0000 </r>
       <r>   -5.1375    1.0000 </r>
       <r>   -4.8117    1.0000 </r>
       <r>   -4.5916    1.0000 </r>
       <r>   -4.4261    1.0000 </r>
       <r>   -4.3494    1.0000 </r>
       <r>   -4.1369    1.0000 </r>
       <r>   -3.6935    1.0000 </r>
       <r>   -1.0156    0.0000 </r>
       <r>   -0.7461    0.0000 </r>
       <r>   -0.4742    0.0000 </r>
       <r>   -0.2077    0.0000 </r>
       <r>   -0.1423    0.0000 </r>
       <r>    0.0432    0.0000 </r>
       <r>    0.3925    0.0000 </r>
       <r>    0.6413    0.0000 </r>
       <r>    0.9575    0.0000 </r>
      </set>
      <set comment="kpoint 54">
       <r>  -13.7721    1.0000 </r>
       <r>  -13.4565    1.0000 </r>
       <r>  -13.2209    1.0000 </r>
       <r>  -13.1349    1.0000 </r>
       <r>  -13.0056    1.0000 </r>
       <r>  -12.9052    1.0000 </r>
       <r>  -10.9521    1.0000 </r>
       <r>  -10.7232    1.0000 </r>
       <r>  -10.4036    1.0000 </r>
       <r>   -9.8407    1.0000 </r>
       <r>   -9.5710    1.0000 </r>
       <r>   -9.4586    1.0000 </r>
       <r>   -7.2276    1.0000 </r>
       <r>   -6.7624    1.0000 </r>
       <r>   -6.5411    1.0000 </r>
       <r>   -6.3539    1.0000 </r>
       <r>   -6.2184    1.0000 </r>
       <r>   -6.0546    1.0000 </r>
       <r>   -5.8342    1.0000 </r>
       <r>   -5.5424    1.0000 </r>
       <r>   -5.2966    1.0000 </r>
       <r>   -4.9695    1.0000 </r>
       <r>   -4.6556    1.0000 </r>
       <r>   -4.4695    1.0000 </r>
       <r>   -4.3827    1.0000 </r>
       <r>   -3.9734    1.0000 </r>
       <r>   -3.7799    1.0000 </r>
       <r>   -0.9327    0.0000 </r>
       <r>   -0.6940    0.0000 </r>
       <r>   -0.6434    0.0000 </r>
       <r>   -0.4166    0.0000 </r>
       <r>   -0.2310    0.0000 </r>
       <r>    0.0655    0.0000 </r>
       <r>    0.1936    0.0000 </r>
       <r>    0.4850    0.0000 </r>
       <r>    0.6480    0.0000 </r>
      </set>
     </set>
    </set>
   </array>
  </eigenvalues>
  <separator name="orbital magnetization" >
   <v name="MAGDIPOLOUT">      0.00000000      0.00000000      0.00000000</v>
  </separator>
  <dos>
   <i name="efermi">     -2.70227853 </i>
   <total>
    <array>
     <dimension dim="1">gridpoints</dimension>
     <dimension dim="2">spin</dimension>
     <field>energy</field>
     <field>total</field>
     <field>integrated</field>
     <set>
      <set comment="spin 1">
       <r>   -16.8239     0.0000     0.0000 </r>
       <r>   -16.7605     0.0000     0.0000 </r>
       <r>   -16.6972     0.0000     0.0000 </r>
       <r>   -16.6339     0.0000     0.0000 </r>
       <r>   -16.5706     0.0000     0.0000 </r>
       <r>   -16.5073     0.0000     0.0000 </r>
       <r>   -16.4439     0.0000     0.0000 </r>
       <r>   -16.3806     0.0000     0.0000 </r>
       <r>   -16.3173     0.0000     0.0000 </r>
       <r>   -16.2540     0.0000     0.0000 </r>
       <r>   -16.1906     0.0000     0.0000 </r>
       <r>   -16.1273     0.0000     0.0000 </r>
       <r>   -16.0640     0.0002     0.0000 </r>
       <r>   -16.0007     0.0047     0.0003 </r>
       <r>   -15.9373     0.0482     0.0034 </r>
       <r>   -15.8740     0.2704     0.0205 </r>
       <r>   -15.8107     0.8622     0.0751 </r>
       <r>   -15.7474     1.6311     0.1784 </r>
       <r>   -15.6841     2.0024     0.3052 </r>
       <r>   -15.6207     1.9568     0.4291 </r>
       <r>   -15.5574     1.8781     0.5480 </r>
       <r>   -15.4941     1.7787     0.6606 </r>
       <r>   -15.4308     1.6182     0.7631 </r>
       <r>   -15.3674     1.4924     0.8576 </r>
       <r>   -15.3041     1.7974     0.9714 </r>
       <r>   -15.2408     2.5765     1.1346 </r>
       <r>   -15.1775     3.0298     1.3264 </r>
       <r>   -15.1141     2.6678     1.4954 </r>
       <r>   -15.0508     1.8973     1.6155 </r>
       <r>   -14.9875     1.4848     1.7095 </r>
       <r>   -14.9242     1.8936     1.8294 </r>
       <r>   -14.8608     2.8060     2.0071 </r>
       <r>   -14.7975     3.3983     2.2223 </r>
       <r>   -14.7342     3.6837     2.4556 </r>
       <r>   -14.6709     3.6254     2.6852 </r>
       <r>   -14.6076     3.1155     2.8824 </r>
       <r>   -14.5442     2.8825     3.0650 </r>
       <r>   -14.4809     2.8077     3.2428 </r>
       <r>   -14.4176     2.5128     3.4019 </r>
       <r>   -14.3543     2.8702     3.5836 </r>
       <r>   -14.2909     3.9665     3.8348 </r>
       <r>   -14.2276     4.2799     4.1058 </r>
       <r>   -14.1643     3.3479     4.3178 </r>
       <r>   -14.1010     2.5785     4.4811 </r>
       <r>   -14.0376     2.5059     4.6398 </r>
       <r>   -13.9743     3.0026     4.8299 </r>
       <r>   -13.9110     4.0402     5.0858 </r>
       <r>   -13.8477     5.0821     5.4076 </r>
       <r>   -13.7844     5.7406     5.7711 </r>
       <r>   -13.7210     5.5120     6.1201 </r>
       <r>   -13.6577     4.4649     6.4029 </r>
       <r>   -13.5944     4.3717     6.6797 </r>
       <r>   -13.5311     5.4306     7.0236 </r>
       <r>   -13.4677     5.3519     7.3625 </r>
       <r>   -13.4044     4.2545     7.6319 </r>
       <r>   -13.3411     4.3849     7.9096 </r>
       <r>   -13.2778     5.7904     8.2762 </r>
       <r>   -13.2144     6.8577     8.7105 </r>
       <r>   -13.1511     7.2232     9.1679 </r>
       <r>   -13.0878     7.6227     9.6506 </r>
       <r>   -13.0245     7.3903    10.1185 </r>
       <r>   -12.9611     6.5346    10.5323 </r>
       <r>   -12.8978     6.0893    10.9179 </r>
       <r>   -12.8345     5.1671    11.2451 </r>
       <r>   -12.7712     3.8964    11.4919 </r>
       <r>   -12.7079     3.5200    11.7147 </r>
       <r>   -12.6445     2.8012    11.8921 </r>
       <r>   -12.5812     1.3262    11.9761 </r>
       <r>   -12.5179     0.3323    11.9971 </r>
       <r>   -12.4546     0.0423    11.9998 </r>
       <r>   -12.3912     0.0027    12.0000 </r>
       <r>   -12.3279     0.0001    12.0000 </r>
       <r>   -12.2646     0.0000    12.0000 </r>
       <r>   -12.2013     0.0000    12.0000 </r>
       <r>   -12.1379     0.0000    12.0000 </r>
       <r>   -12.0746     0.0000    12.0000 </r>
       <r>   -12.0113     0.0000    12.0000 </r>
       <r>   -11.9480     0.0000    12.0000 </r>
       <r>   -11.8847     0.0000    12.0000 </r>
       <r>   -11.8213     0.0000    12.0000 </r>
       <r>   -11.7580     0.0000    12.0000 </r>
       <r>   -11.6947     0.0000    12.0000 </r>
       <r>   -11.6314     0.0000    12.0000 </r>
       <r>   -11.5680     0.0000    12.0000 </r>
       <r>   -11.5047     0.0005    12.0000 </r>
       <r>   -11.4414     0.0097    12.0006 </r>
       <r>   -11.3781     0.0980    12.0068 </r>
       <r>   -11.3147     0.4892    12.0378 </r>
       <r>   -11.2514     1.2614    12.1177 </r>
       <r>   -11.1881     1.8760    12.2365 </r>
       <r>   -11.1248     2.2256    12.3774 </r>
       <r>   -11.0615     3.0264    12.5691 </r>
       <r>   -10.9981     3.8388    12.8122 </r>
       <r>   -10.9348     3.7199    13.0477 </r>
       <r>   -10.8715     3.1952    13.2500 </r>
       <r>   -10.8082     3.1672    13.4506 </r>
       <r>   -10.7448     3.7513    13.6881 </r>
       <r>   -10.6815     4.2960    13.9602 </r>
       <r>   -10.6182     3.7229    14.1959 </r>
       <r>   -10.5549     2.4247    14.3495 </r>
       <r>   -10.4915     1.8711    14.4680 </r>
       <r>   -10.4282     2.3036    14.6138 </r>
       <r>   -10.3649     2.7427    14.7875 </r>
       <r>   -10.3016     2.2935    14.9327 </r>
       <r>   -10.2382     1.4204    15.0227 </r>
       <r>   -10.1749     1.1795    15.0974 </r>
       <r>   -10.1116     1.9160    15.2187 </r>
       <r>   -10.0483     2.8356    15.3983 </r>
       <r>    -9.9850     2.7189    15.5704 </r>
       <r>    -9.9216     2.2196    15.7110 </r>
       <r>    -9.8583     2.4356    15.8652 </r>
       <r>    -9.7950     2.9240    16.0504 </r>
       <r>    -9.7317     3.5197    16.2732 </r>
       <r>    -9.6683     4.6272    16.5662 </r>
       <r>    -9.6050     5.5973    16.9207 </r>
       <r>    -9.5417     5.5810    17.2741 </r>
       <r>    -9.4784     4.7000    17.5717 </r>
       <r>    -9.4150     3.4848    17.7924 </r>
       <r>    -9.3517     2.5093    17.9513 </r>
       <r>    -9.2884     2.2719    18.0951 </r>
       <r>    -9.2251     2.4281    18.2489 </r>
       <r>    -9.1618     2.5519    18.4105 </r>
       <r>    -9.0984     3.2689    18.6175 </r>
       <r>    -9.0351     5.3892    18.9587 </r>
       <r>    -8.9718     8.5492    19.5001 </r>
       <r>    -8.9085     9.6554    20.1115 </r>
       <r>    -8.8451     7.1505    20.5643 </r>
       <r>    -8.7818     4.2537    20.8337 </r>
       <r>    -8.7185     2.5443    20.9948 </r>
       <r>    -8.6552     1.4868    21.0889 </r>
       <r>    -8.5918     1.1359    21.1609 </r>
       <r>    -8.5285     1.4101    21.2502 </r>
       <r>    -8.4652     1.8524    21.3675 </r>
       <r>    -8.4019     1.7017    21.4752 </r>
       <r>    -8.3385     1.0810    21.5437 </r>
       <r>    -8.2752     1.1306    21.6153 </r>
       <r>    -8.2119     1.8133    21.7301 </r>
       <r>    -8.1486     2.3524    21.8790 </r>
       <r>    -8.0853     3.0017    22.0691 </r>
       <r>    -8.0219     3.8742    22.3144 </r>
       <r>    -7.9586     3.9867    22.5669 </r>
       <r>    -7.8953     2.9726    22.7551 </r>
       <r>    -7.8320     1.7060    22.8632 </r>
       <r>    -7.7686     0.9039    22.9204 </r>
       <r>    -7.7053     1.0336    22.9859 </r>
       <r>    -7.6420     2.0429    23.1152 </r>
       <r>    -7.5787     2.7508    23.2894 </r>
       <r>    -7.5153     2.7300    23.4623 </r>
       <r>    -7.4520     2.5669    23.6248 </r>
       <r>    -7.3887     2.3183    23.7716 </r>
       <r>    -7.3254     2.5617    23.9338 </r>
       <r>    -7.2621     3.4339    24.1513 </r>
       <r>    -7.1987     4.4433    24.4327 </r>
       <r>    -7.1354     5.2751    24.7667 </r>
       <r>    -7.0721     5.4208    25.1100 </r>
       <r>    -7.0088     5.2984    25.4455 </r>
       <r>    -6.9454     5.7133    25.8073 </r>
       <r>    -6.8821     6.0958    26.1933 </r>
       <r>    -6.8188     6.1410    26.5821 </r>
       <r>    -6.7555     6.0962    26.9682 </r>
       <r>    -6.6921     5.6915    27.3286 </r>
       <r>    -6.6288     5.5986    27.6831 </r>
       <r>    -6.5655     6.3645    28.0861 </r>
       <r>    -6.5022     6.8635    28.5207 </r>
       <r>    -6.4388     6.8138    28.9522 </r>
       <r>    -6.3755     7.4786    29.4258 </r>
       <r>    -6.3122     8.6751    29.9751 </r>
       <r>    -6.2489     8.5111    30.5141 </r>
       <r>    -6.1856     6.4514    30.9226 </r>
       <r>    -6.1222     4.4463    31.2041 </r>
       <r>    -6.0589     4.2643    31.4742 </r>
       <r>    -5.9956     5.4485    31.8192 </r>
       <r>    -5.9323     6.4062    32.2248 </r>
       <r>    -5.8689     6.1779    32.6160 </r>
       <r>    -5.8056     5.3418    32.9543 </r>
       <r>    -5.7423     5.3095    33.2905 </r>
       <r>    -5.6790     6.2709    33.6876 </r>
       <r>    -5.6156     7.5018    34.1627 </r>
       <r>    -5.5523     8.4975    34.7007 </r>
       <r>    -5.4890     8.6008    35.2454 </r>
       <r>    -5.4257     8.3663    35.7752 </r>
       <r>    -5.3624     9.1309    36.3534 </r>
       <r>    -5.2990    10.4022    37.0121 </r>
       <r>    -5.2357    10.6239    37.6848 </r>
       <r>    -5.1724     8.8144    38.2430 </r>
       <r>    -5.1091     6.8168    38.6746 </r>
       <r>    -5.0457     6.9860    39.1170 </r>
       <r>    -4.9824     8.3413    39.6452 </r>
       <r>    -4.9191     8.8284    40.2042 </r>
       <r>    -4.8558     8.9600    40.7716 </r>
       <r>    -4.7924     9.0094    41.3421 </r>
       <r>    -4.7291     8.5201    41.8816 </r>
       <r>    -4.6658     8.1078    42.3950 </r>
       <r>    -4.6025     7.7480    42.8857 </r>
       <r>    -4.5391     7.2037    43.3418 </r>
       <r>    -4.4758     7.9354    43.8443 </r>
       <r>    -4.4125     9.9743    44.4759 </r>
       <r>    -4.3492    10.8401    45.1624 </r>
       <r>    -4.2859    10.8164    45.8473 </r>
       <r>    -4.2225    11.7446    46.5910 </r>
       <r>    -4.1592    12.8018    47.4017 </r>
       <r>    -4.0959    12.4687    48.1912 </r>
       <r>    -4.0326    11.1820    48.8993 </r>
       <r>    -3.9692     9.4283    49.4963 </r>
       <r>    -3.9059     6.7905    49.9263 </r>
       <r>    -3.8426     4.7845    50.2293 </r>
       <r>    -3.7793     5.2015    50.5587 </r>
       <r>    -3.7159     6.7623    50.9869 </r>
       <r>    -3.6526     7.0550    51.4336 </r>
       <r>    -3.5893     6.0598    51.8174 </r>
       <r>    -3.5260     4.9072    52.1281 </r>
       <r>    -3.4627     4.2916    52.3999 </r>
       <r>    -3.3993     4.3505    52.6754 </r>
       <r>    -3.3360     4.3366    52.9500 </r>
       <r>    -3.2727     4.2529    53.2193 </r>
       <r>    -3.2094     4.6763    53.5154 </r>
       <r>    -3.1460     4.3259    53.7893 </r>
       <r>    -3.0827     2.4507    53.9445 </r>
       <r>    -3.0194     0.7495    53.9920 </r>
       <r>    -2.9561     0.1175    53.9994 </r>
       <r>    -2.8927     0.0091    54.0000 </r>
       <r>    -2.8294     0.0003    54.0000 </r>
       <r>    -2.7661     0.0000    54.0000 </r>
       <r>    -2.7028     0.0000    54.0000 </r>
       <r>    -2.6394     0.0000    54.0000 </r>
       <r>    -2.5761     0.0000    54.0000 </r>
       <r>    -2.5128     0.0000    54.0000 </r>
       <r>    -2.4495     0.0000    54.0000 </r>
       <r>    -2.3862     0.0000    54.0000 </r>
       <r>    -2.3228     0.0000    54.0000 </r>
       <r>    -2.2595     0.0000    54.0000 </r>
       <r>    -2.1962     0.0000    54.0000 </r>
       <r>    -2.1329     0.0000    54.0000 </r>
       <r>    -2.0695     0.0000    54.0000 </r>
       <r>    -2.0062     0.0000    54.0000 </r>
       <r>    -1.9429     0.0000    54.0000 </r>
       <r>    -1.8796     0.0000    54.0000 </r>
       <r>    -1.8162     0.0000    54.0000 </r>
       <r>    -1.7529     0.0000    54.0000 </r>
       <r>    -1.6896     0.0000    54.0000 </r>
       <r>    -1.6263     0.0000    54.0000 </r>
       <r>    -1.5630     0.0000    54.0000 </r>
       <r>    -1.4996     0.0000    54.0000 </r>
       <r>    -1.4363     0.0000    54.0000 </r>
       <r>    -1.3730     0.0005    54.0000 </r>
       <r>    -1.3097     0.0088    54.0006 </r>
       <r>    -1.2463     0.0841    54.0059 </r>
       <r>    -1.1830     0.4411    54.0338 </r>
       <r>    -1.1197     1.3287    54.1180 </r>
       <r>    -1.0564     2.5564    54.2799 </r>
       <r>    -0.9930     3.8409    54.5231 </r>
       <r>    -0.9297     5.1105    54.8467 </r>
       <r>    -0.8664     5.3989    55.1886 </r>
       <r>    -0.8031     4.7350    55.4884 </r>
       <r>    -0.7398     5.4410    55.8330 </r>
       <r>    -0.6764     7.2382    56.2913 </r>
       <r>    -0.6131     7.7662    56.7831 </r>
       <r>    -0.5498     7.8559    57.2805 </r>
       <r>    -0.4865     8.3957    57.8122 </r>
       <r>    -0.4231     7.8471    58.3091 </r>
       <r>    -0.3598     6.5709    58.7252 </r>
       <r>    -0.2965     6.1067    59.1119 </r>
       <r>    -0.2332     6.4736    59.5218 </r>
       <r>    -0.1698     7.4131    59.9912 </r>
       <r>    -0.1065     8.9816    60.5600 </r>
       <r>    -0.0432    11.1383    61.2653 </r>
       <r>     0.0201    12.1143    62.0324 </r>
       <r>     0.0835    11.1757    62.7401 </r>
       <r>     0.1468    10.0029    63.3735 </r>
       <r>     0.2101     9.3524    63.9657 </r>
       <r>     0.2734     9.4787    64.5659 </r>
       <r>     0.3367    10.8183    65.2510 </r>
       <r>     0.4001    12.2702    66.0280 </r>
       <r>     0.4634    11.8431    66.7779 </r>
       <r>     0.5267    10.2038    67.4241 </r>
       <r>     0.5900     9.8430    68.0474 </r>
       <r>     0.6534    10.8632    68.7353 </r>
       <r>     0.7167    10.9503    69.4287 </r>
       <r>     0.7800     9.4766    70.0288 </r>
       <r>     0.8433     7.9206    70.5303 </r>
       <r>     0.9067     6.7739    70.9593 </r>
       <r>     0.9700     5.8362    71.3288 </r>
       <r>     1.0333     4.5176    71.6149 </r>
       <r>     1.0966     2.8828    71.7974 </r>
       <r>     1.1599     1.7195    71.9063 </r>
       <r>     1.2233     0.9835    71.9686 </r>
       <r>     1.2866     0.3974    71.9938 </r>
       <r>     1.3499     0.0881    71.9994 </r>
       <r>     1.4132     0.0097    72.0000 </r>
       <r>     1.4766     0.0005    72.0000 </r>
       <r>     1.5399     0.0000    72.0000 </r>
       <r>     1.6032     0.0000    72.0000 </r>
       <r>     1.6665     0.0000    72.0000 </r>
       <r>     1.7299     0.0000    72.0000 </r>
       <r>     1.7932     0.0000    72.0000 </r>
       <r>     1.8565     0.0000    72.0000 </r>
       <r>     1.9198     0.0000    72.0000 </r>
       <r>     1.9832     0.0000    72.0000 </r>
       <r>     2.0465     0.0000    72.0000 </r>
       <r>     2.1098     0.0000    72.0000 </r>
       <r>     2.1731     0.0000    72.0000 </r>
      </set>
     </set>
    </array>
   </total>
  </dos>
 </calculation>
 <structure name="finalpos" >
  <crystal>
   <varray name="basis" >
    <v>       3.54039967       0.00000000       0.00000000 </v>
    <v>      -1.77019984      10.29434848       0.00000000 </v>
    <v>       0.00000000       0.00000000      24.74024220 </v>
   </varray>
   <i name="volume">    901.68553862 </i>
   <varray name="rec_basis" >
    <v>       0.28245399       0.04857034       0.00000000 </v>
    <v>       0.00000000       0.09714068       0.00000000 </v>
    <v>       0.00000000       0.00000000       0.04041998 </v>
   </varray>
  </crystal>
  <varray name="positions" >
   <v>       0.11402251       0.22804503       0.25918451 </v>
   <v>       0.45808942       0.91617885       0.23276506 </v>
   <v>       0.31085447       0.62170894       0.09354150 </v>
   <v>       0.99923022       0.99846044       0.09594594 </v>
   <v>       0.65492681       0.30985363       0.06716075 </v>
   <v>       0.76973771       0.53947543       0.23038377 </v>
   <v>       0.93971640       0.87943280       0.17545324 </v>
   <v>       0.20515174       0.41030348       0.20652321 </v>
   <v>       0.20184945       0.40369889       0.11081808 </v>
   <v>       0.56380522       0.12761043       0.11982061 </v>
   <v>       0.56710587       0.13421173       0.21551392 </v>
   <v>       0.82923417       0.65846834       0.15086142 </v>
  </varray>
 </structure>
</modeling>
