<?xml version="1.0" encoding="ISO-8859-1"?>
<modeling>
 <generator>
  <i name="program" type="string">vasp </i>
  <i name="version" type="string">5.3.5  </i>
  <i name="subversion" type="string">31Mar14 (build Oct 29 2014 16:16:03) complex                          parallel </i>
  <i name="platform" type="string">Linux-UFHPC </i>
  <i name="date" type="string">2016 02 09 </i>
  <i name="time" type="string">18:02:53 </i>
 </generator>
 <incar>
  <i type="string" name="PREC">accurate</i>
  <i type="int" name="IBRION">     2</i>
  <i name="EDIFF">      0.00000100</i>
  <i type="int" name="NSW">     0</i>
  <i type="int" name="ISIF">     3</i>
  <i name="ENCUT">    300.00000000</i>
  <i type="string" name="LREAL"> Auto</i>
  <i type="int" name="ISMEAR">     0</i>
  <i name="SIGMA">      0.10000000</i>
  <i type="logical" name="LWAVE"> F  </i>
  <i type="logical" name="LCHARG"> F  </i>
  <i type="logical" name="LAECHG"> F  </i>
  <i type="string" name="GGA"> Bo</i>
  <i name="PARAM1">      0.18333333</i>
  <i name="PARAM2">      0.22000000</i>
  <i type="logical" name="LUSE_VDW"> T  </i>
  <i name="AGGAC">      0.00000000</i>
 </incar>
 <kpoints>
  <generation param="Gamma">
   <v type="int" name="divisions">      13        4        2 </v>
   <v name="usershift">      0.00000000       0.00000000       0.00000000 </v>
   <v name="genvec1">      0.07692308      -0.00000000       0.00000000 </v>
   <v name="genvec2">      0.00000000       0.25000000       0.00000000 </v>
   <v name="genvec3">      0.00000000       0.00000000       0.50000000 </v>
   <v name="shift">      0.00000000       0.00000000       0.00000000 </v>
  </generation>
  <varray name="kpointlist" >
   <v>       0.00000000       0.00000000       0.00000000 </v>
   <v>       0.07692308      -0.00000000       0.00000000 </v>
   <v>       0.15384615      -0.00000000       0.00000000 </v>
   <v>       0.23076923      -0.00000000       0.00000000 </v>
   <v>       0.30769231      -0.00000000       0.00000000 </v>
   <v>       0.38461538      -0.00000000       0.00000000 </v>
   <v>       0.46153846      -0.00000000       0.00000000 </v>
   <v>       0.00000000       0.25000000       0.00000000 </v>
   <v>       0.07692308       0.25000000       0.00000000 </v>
   <v>       0.15384615       0.25000000       0.00000000 </v>
   <v>       0.23076923       0.25000000       0.00000000 </v>
   <v>       0.30769231       0.25000000       0.00000000 </v>
   <v>       0.38461538       0.25000000       0.00000000 </v>
   <v>       0.46153846       0.25000000       0.00000000 </v>
   <v>      -0.46153846       0.25000000       0.00000000 </v>
   <v>      -0.38461538       0.25000000       0.00000000 </v>
   <v>      -0.30769231       0.25000000       0.00000000 </v>
   <v>      -0.23076923       0.25000000       0.00000000 </v>
   <v>      -0.15384615       0.25000000       0.00000000 </v>
   <v>      -0.07692308       0.25000000       0.00000000 </v>
   <v>       0.00000000       0.50000000       0.00000000 </v>
   <v>       0.07692308       0.50000000       0.00000000 </v>
   <v>       0.15384615       0.50000000       0.00000000 </v>
   <v>       0.23076923       0.50000000       0.00000000 </v>
   <v>       0.30769231       0.50000000       0.00000000 </v>
   <v>       0.38461538       0.50000000       0.00000000 </v>
   <v>       0.46153846       0.50000000       0.00000000 </v>
   <v>       0.00000000       0.00000000       0.50000000 </v>
   <v>       0.07692308      -0.00000000       0.50000000 </v>
   <v>       0.15384615      -0.00000000       0.50000000 </v>
   <v>       0.23076923      -0.00000000       0.50000000 </v>
   <v>       0.30769231      -0.00000000       0.50000000 </v>
   <v>       0.38461538      -0.00000000       0.50000000 </v>
   <v>       0.46153846      -0.00000000       0.50000000 </v>
   <v>       0.00000000       0.25000000       0.50000000 </v>
   <v>       0.07692308       0.25000000       0.50000000 </v>
   <v>       0.15384615       0.25000000       0.50000000 </v>
   <v>       0.23076923       0.25000000       0.50000000 </v>
   <v>       0.30769231       0.25000000       0.50000000 </v>
   <v>       0.38461538       0.25000000       0.50000000 </v>
   <v>       0.46153846       0.25000000       0.50000000 </v>
   <v>      -0.46153846       0.25000000       0.50000000 </v>
   <v>      -0.38461538       0.25000000       0.50000000 </v>
   <v>      -0.30769231       0.25000000       0.50000000 </v>
   <v>      -0.23076923       0.25000000       0.50000000 </v>
   <v>      -0.15384615       0.25000000       0.50000000 </v>
   <v>      -0.07692308       0.25000000       0.50000000 </v>
   <v>       0.00000000       0.50000000       0.50000000 </v>
   <v>       0.07692308       0.50000000       0.50000000 </v>
   <v>       0.15384615       0.50000000       0.50000000 </v>
   <v>       0.23076923       0.50000000       0.50000000 </v>
   <v>       0.30769231       0.50000000       0.50000000 </v>
   <v>       0.38461538       0.50000000       0.50000000 </v>
   <v>       0.46153846       0.50000000       0.50000000 </v>
  </varray>
  <varray name="weights" >
   <v>       0.00961538 </v>
   <v>       0.01923077 </v>
   <v>       0.01923077 </v>
   <v>       0.01923077 </v>
   <v>       0.01923077 </v>
   <v>       0.01923077 </v>
   <v>       0.01923077 </v>
   <v>       0.01923077 </v>
   <v>       0.01923077 </v>
   <v>       0.01923077 </v>
   <v>       0.01923077 </v>
   <v>       0.01923077 </v>
   <v>       0.01923077 </v>
   <v>       0.01923077 </v>
   <v>       0.01923077 </v>
   <v>       0.01923077 </v>
   <v>       0.01923077 </v>
   <v>       0.01923077 </v>
   <v>       0.01923077 </v>
   <v>       0.01923077 </v>
   <v>       0.00961538 </v>
   <v>       0.01923077 </v>
   <v>       0.01923077 </v>
   <v>       0.01923077 </v>
   <v>       0.01923077 </v>
   <v>       0.01923077 </v>
   <v>       0.01923077 </v>
   <v>       0.00961538 </v>
   <v>       0.01923077 </v>
   <v>       0.01923077 </v>
   <v>       0.01923077 </v>
   <v>       0.01923077 </v>
   <v>       0.01923077 </v>
   <v>       0.01923077 </v>
   <v>       0.01923077 </v>
   <v>       0.01923077 </v>
   <v>       0.01923077 </v>
   <v>       0.01923077 </v>
   <v>       0.01923077 </v>
   <v>       0.01923077 </v>
   <v>       0.01923077 </v>
   <v>       0.01923077 </v>
   <v>       0.01923077 </v>
   <v>       0.01923077 </v>
   <v>       0.01923077 </v>
   <v>       0.01923077 </v>
   <v>       0.01923077 </v>
   <v>       0.00961538 </v>
   <v>       0.01923077 </v>
   <v>       0.01923077 </v>
   <v>       0.01923077 </v>
   <v>       0.01923077 </v>
   <v>       0.01923077 </v>
   <v>       0.01923077 </v>
  </varray>
 </kpoints>
 <parameters>
  <separator name="general" >
   <i type="string" name="SYSTEM">unknown system</i>
   <i type="logical" name="LCOMPAT"> F  </i>
  </separator>
  <separator name="electronic" >
   <i type="string" name="PREC">accura</i>
   <i name="ENMAX">    300.00000000</i>
   <i name="ENAUG">    342.92400000</i>
   <i name="EDIFF">      0.00000100</i>
   <i type="int" name="IALGO">    38</i>
   <i type="int" name="IWAVPR">    10</i>
   <i type="int" name="NBANDS">    68</i>
   <i name="NELECT">    108.00000000</i>
   <i type="int" name="TURBO">     0</i>
   <i type="int" name="IRESTART">     0</i>
   <i type="int" name="NREBOOT">     0</i>
   <i type="int" name="NMIN">     0</i>
   <i name="EREF">      0.00000000</i>
   <separator name="electronic smearing" >
    <i type="int" name="ISMEAR">     0</i>
    <i name="SIGMA">      0.10000000</i>
    <i name="KSPACING">      0.50000000</i>
    <i type="logical" name="KGAMMA"> T  </i>
   </separator>
   <separator name="electronic projectors" >
    <i type="logical" name="LREAL"> T  </i>
    <v name="ROPT">     -0.00025000     -0.00025000</v>
    <i type="int" name="LMAXPAW">  -100</i>
    <i type="int" name="LMAXMIX">     2</i>
    <i type="logical" name="NLSPLINE"> F  </i>
   </separator>
   <separator name="electronic startup" >
    <i type="int" name="ISTART">     0</i>
    <i type="int" name="ICHARG">     2</i>
    <i type="int" name="INIWAV">     1</i>
   </separator>
   <separator name="electronic spin" >
    <i type="int" name="ISPIN">     1</i>
    <i type="logical" name="LNONCOLLINEAR"> F  </i>
    <v name="MAGMOM">      1.00000000      1.00000000      1.00000000      1.00000000      1.00000000      1.00000000      1.00000000      1.00000000      1.00000000      1.00000000      1.00000000      1.00000000      1.00000000      1.00000000      1.00000000      1.00000000      1.00000000      1.00000000      1.00000000      1.00000000
      1.00000000      1.00000000      1.00000000      1.00000000</v>
    <i name="NUPDOWN">     -1.00000000</i>
    <i type="logical" name="LSORBIT"> F  </i>
    <v name="SAXIS">      0.00000000      0.00000000      1.00000000</v>
    <i type="logical" name="LSPIRAL"> F  </i>
    <v name="QSPIRAL">      0.00000000      0.00000000      0.00000000</v>
    <i type="logical" name="LZEROZ"> F  </i>
   </separator>
   <separator name="electronic exchange-correlation" >
    <i type="logical" name="LASPH"> F  </i>
    <i type="logical" name="LMETAGGA"> F  </i>
   </separator>
   <separator name="electronic convergence" >
    <i type="int" name="NELM">    60</i>
    <i type="int" name="NELMDL">    -5</i>
    <i type="int" name="NELMIN">     2</i>
    <i name="ENINI">    300.00000000</i>
    <separator name="electronic convergence detail" >
     <i type="logical" name="LDIAG"> T  </i>
     <i type="logical" name="LSUBROT"> F  </i>
     <i name="WEIMIN">      0.00000000</i>
     <i name="EBREAK">      0.00000000</i>
     <i name="DEPER">      0.30000000</i>
     <i type="int" name="NRMM">     4</i>
     <i name="TIME">      0.40000000</i>
    </separator>
   </separator>
   <separator name="electronic mixer" >
    <i name="AMIX">      0.40000000</i>
    <i name="BMIX">      1.00000000</i>
    <i name="AMIN">      0.10000000</i>
    <i name="AMIX_MAG">      1.60000000</i>
    <i name="BMIX_MAG">      1.00000000</i>
    <separator name="electronic mixer details" >
     <i type="int" name="IMIX">     4</i>
     <i type="int" name="MAXMIX">   -45</i>
     <i name="WC">    100.00000000</i>
     <i type="int" name="INIMIX">     1</i>
     <i type="int" name="MIXPRE">     1</i>
     <i type="int" name="MREMOVE">     5</i>
    </separator>
   </separator>
   <separator name="electronic dipolcorrection" >
    <i type="logical" name="LDIPOL"> F  </i>
    <i type="logical" name="LMONO"> F  </i>
    <i type="int" name="IDIPOL">     0</i>
    <i name="EPSILON">      1.00000000</i>
    <v name="DIPOL">   -100.00000000   -100.00000000   -100.00000000</v>
    <i name="EFIELD">      0.00000000</i>
   </separator>
  </separator>
  <separator name="grids" >
   <i type="int" name="NGX">    20</i>
   <i type="int" name="NGY">    60</i>
   <i type="int" name="NGZ">   160</i>
   <i type="int" name="NGXF">    40</i>
   <i type="int" name="NGYF">   120</i>
   <i type="int" name="NGZF">   320</i>
   <i type="logical" name="ADDGRID"> F  </i>
  </separator>
  <separator name="ionic" >
   <i type="int" name="NSW">     0</i>
   <i type="int" name="IBRION">    -1</i>
   <i type="int" name="ISIF">     3</i>
   <i name="PSTRESS">      0.00000000</i>
   <i name="EDIFFG">      0.00001000</i>
   <i type="int" name="NFREE">     1</i>
   <i name="POTIM">      0.50000000</i>
   <i name="SMASS">     -3.00000000</i>
   <i name="SCALEE">      1.00000000</i>
  </separator>
  <separator name="ionic md" >
   <i name="TEBEG">      0.00010000</i>
   <i name="TEEND">      0.00010000</i>
   <i type="int" name="NBLOCK">     1</i>
   <i type="int" name="KBLOCK">     1</i>
   <i type="int" name="NPACO">   256</i>
   <i name="APACO">     16.00000000</i>
  </separator>
  <separator name="symmetry" >
   <i type="int" name="ISYM">     2</i>
   <i name="SYMPREC">      0.00001000</i>
  </separator>
  <separator name="dos" >
   <i type="logical" name="LORBIT"> F  </i>
   <v name="RWIGS">     -1.00000000     -1.00000000</v>
   <i type="int" name="NEDOS">   301</i>
   <i name="EMIN">     10.00000000</i>
   <i name="EMAX">    -10.00000000</i>
   <i name="EFERMI">      0.00000000</i>
  </separator>
  <separator name="writing" >
   <i type="int" name="NWRITE">     2</i>
   <i type="logical" name="LWAVE"> F  </i>
   <i type="logical" name="LCHARG"> F  </i>
   <i type="logical" name="LPARD"> F  </i>
   <i type="logical" name="LVTOT"> F  </i>
   <i type="logical" name="LVHAR"> F  </i>
   <i type="logical" name="LELF"> F  </i>
   <i type="logical" name="LOPTICS"> F  </i>
   <v name="STM">      0.00000000      0.00000000      0.00000000      0.00000000      0.00000000      0.00000000      0.00000000</v>
  </separator>
  <separator name="performance" >
   <i type="int" name="NPAR">     4</i>
   <i type="int" name="NSIM">     4</i>
   <i type="int" name="NBLK">    -1</i>
   <i type="logical" name="LPLANE"> T  </i>
   <i type="logical" name="LSCALAPACK"> T  </i>
   <i type="logical" name="LSCAAWARE"> F  </i>
   <i type="logical" name="LSCALU"> F  </i>
   <i type="logical" name="LASYNC"> F  </i>
   <i type="logical" name="LORBITALREAL"> F  </i>
  </separator>
  <separator name="miscellaneous" >
   <i type="int" name="IDIOT">     3</i>
   <i type="logical" name="LMUSIC"> F  </i>
   <v name="POMASS">     30.97400000     28.08500000</v>
   <v name="DARWINR">      0.00000000      0.00000000</v>
   <v name="DARWINV">      1.00000000      1.00000000</v>
   <i type="logical" name="LCORR"> T  </i>
  </separator>
  <i type="logical" name="GGA_COMPAT"> T  </i>
  <i type="logical" name="LBERRY"> F  </i>
  <i type="int" name="ICORELEVEL">     0</i>
  <i type="logical" name="LDAU"> F  </i>
  <i type="int" name="I_CONSTRAINED_M">     0</i>
  <separator name="electronic exchange-correlation" >
   <i type="string" name="GGA">BO</i>
   <i type="int" name="VOSKOWN">     0</i>
   <i type="logical" name="LHFCALC"> F  </i>
   <i type="string" name="PRECFOCK"></i>
   <i type="logical" name="LSYMGRAD"> F  </i>
   <i type="logical" name="LHFONE"> F  </i>
   <i type="logical" name="LRHFCALC"> F  </i>
   <i type="logical" name="LTHOMAS"> F  </i>
   <i type="logical" name="LMODELHF"> F  </i>
   <i name="ENCUT4O">     -1.00000000</i>
   <i type="int" name="EXXOEP">     0</i>
   <i type="int" name="FOURORBIT">     0</i>
   <i name="AEXX">      0.00000000</i>
   <i name="HFALPHA">      0.00000000</i>
   <i name="MCALPHA">      0.00000000</i>
   <i name="ALDAX">      1.00000000</i>
   <i name="AGGAX">      1.00000000</i>
   <i name="ALDAC">      1.00000000</i>
   <i name="AGGAC">      0.00000000</i>
   <i type="int" name="NKREDX">     1</i>
   <i type="int" name="NKREDY">     1</i>
   <i type="int" name="NKREDZ">     1</i>
   <i type="logical" name="SHIFTRED"> F  </i>
   <i type="logical" name="ODDONLY"> F  </i>
   <i type="logical" name="EVENONLY"> F  </i>
   <i type="int" name="LMAXFOCK">     0</i>
   <i type="int" name="NMAXFOCKAE">     0</i>
   <i type="logical" name="LFOCKAEDFT"> F  </i>
   <i name="HFSCREEN">      0.00000000</i>
   <i name="HFSCREENC">      0.00000000</i>
   <i type="int" name="NBANDSGWLOW">     0</i>
  </separator>
  <separator name="vdW DFT" >
   <i type="logical" name="LUSE_VDW"> T  </i>
   <i name="Zab_VDW">     -0.84910000</i>
   <i name="PARAM1">      0.18333333</i>
   <i name="PARAM2">      0.22000000</i>
   <i name="PARAM3">      0.00000000</i>
  </separator>
  <separator name="model GW" >
   <i type="int" name="MODEL_GW">     0</i>
   <i name="MODEL_EPS0">     25.05800243</i>
   <i name="MODEL_ALPHA">      1.00000000</i>
  </separator>
  <separator name="linear response parameters" >
   <i type="logical" name="LEPSILON"> F  </i>
   <i type="logical" name="LRPA"> F  </i>
   <i type="logical" name="LNABLA"> F  </i>
   <i type="logical" name="LVEL"> F  </i>
   <i type="int" name="KINTER">     0</i>
   <i name="CSHIFT">      0.10000000</i>
   <i name="OMEGAMAX">     -1.00000000</i>
   <i name="DEG_THRESHOLD">      0.00200000</i>
  </separator>
  <separator name="orbital magnetization" >
   <i type="logical" name="NUCIND"> F  </i>
   <v name="MAGPOS">      0.00000000      0.00000000      0.00000000</v>
   <i type="logical" name="LNICSALL"> T  </i>
   <i type="logical" name="ORBITALMAG"> F  </i>
   <i type="logical" name="LMAGBLOCH"> F  </i>
   <i type="logical" name="LCHIMAG"> F  </i>
   <i type="logical" name="LGAUGE"> T  </i>
   <i type="int" name="MAGATOM">     0</i>
   <v name="MAGDIPOL">      0.00000000      0.00000000      0.00000000</v>
   <v name="AVECCONST">      0.00000000      0.00000000      0.00000000</v>
  </separator>
  <separator name="response functions" >
   <i type="logical" name="LADDER"> F  </i>
   <i type="logical" name="LFXC"> F  </i>
   <i type="logical" name="LHARTREE"> T  </i>
   <i type="int" name="IBSE">     0</i>
   <i type="logical" name="LTCTE"> F  </i>
   <i type="logical" name="LTETE"> F  </i>
   <i type="logical" name="LTRIPLET"> F  </i>
   <i type="logical" name="LFXCEPS"> F  </i>
   <i type="logical" name="LFXHEG"> F  </i>
   <i type="logical" name="L2ORDER"> F  </i>
   <i type="logical" name="LUSEW"> F  </i>
   <i name="ENCUTGW">     -2.00000000</i>
   <i name="ENCUTGWSOFT">     -2.00000000</i>
   <i name="ENCUTLF">     -1.00000000</i>
   <i type="int" name="LMAXMP2">    -1</i>
   <i name="SCISSOR">      0.00000000</i>
   <i type="int" name="NOMEGA">     0</i>
   <i type="int" name="NOMEGAR">     0</i>
   <i type="int" name="NBANDSGW">    -1</i>
   <i type="int" name="NBANDSO">    -1</i>
   <i type="int" name="NBANDSV">    -1</i>
   <i type="int" name="NELM">     1</i>
   <i type="int" name="DIM">     3</i>
   <i type="int" name="ANTIRES">     0</i>
   <i name="OMEGAMAX">    -30.00000000</i>
   <i name="OMEGAMIN">    -30.00000000</i>
   <i name="OMEGATL">   -200.00000000</i>
   <i type="int" name="OMEGAGRID">     0</i>
   <i name="CSHIFT">     -0.10000000</i>
   <i type="logical" name="SELFENERGY"> F  </i>
   <i type="logical" name="LSPECTRAL"> F  </i>
   <i type="logical" name="ODDONLYGW"> F  </i>
   <i type="logical" name="EVENONLYGW"> F  </i>
   <i type="int" name="NKREDLFX">     1</i>
   <i type="int" name="NKREDLFY">     1</i>
   <i type="int" name="NKREDLFZ">     1</i>
   <i type="int" name="MAXMEM">  1800</i>
   <i type="int" name="TELESCOPE">     0</i>
   <i type="int" name="TAUPAR">     1</i>
  </separator>
  <separator name="External order field" >
   <i name="OFIELD_KAPPA">      0.00000000</i>
   <v name="OFIELD_K">      0.00000000      0.00000000      0.00000000</v>
   <i name="OFIELD_Q6_NEAR">      0.00000000</i>
   <i name="OFIELD_Q6_FAR">      0.00000000</i>
   <i name="OFIELD_A">      0.00000000</i>
  </separator>
 </parameters>
 <atominfo>
  <atoms>      24 </atoms>
  <types>       2 </types>
  <array name="atoms" >
   <dimension dim="1">ion</dimension>
   <field type="string">element</field>
   <field type="int">atomtype</field>
   <set>
    <rc><c>P </c><c>   1</c></rc>
    <rc><c>P </c><c>   1</c></rc>
    <rc><c>P </c><c>   1</c></rc>
    <rc><c>P </c><c>   1</c></rc>
    <rc><c>P </c><c>   1</c></rc>
    <rc><c>P </c><c>   1</c></rc>
    <rc><c>P </c><c>   1</c></rc>
    <rc><c>P </c><c>   1</c></rc>
    <rc><c>P </c><c>   1</c></rc>
    <rc><c>P </c><c>   1</c></rc>
    <rc><c>P </c><c>   1</c></rc>
    <rc><c>P </c><c>   1</c></rc>
    <rc><c>Si</c><c>   2</c></rc>
    <rc><c>Si</c><c>   2</c></rc>
    <rc><c>Si</c><c>   2</c></rc>
    <rc><c>Si</c><c>   2</c></rc>
    <rc><c>Si</c><c>   2</c></rc>
    <rc><c>Si</c><c>   2</c></rc>
    <rc><c>Si</c><c>   2</c></rc>
    <rc><c>Si</c><c>   2</c></rc>
    <rc><c>Si</c><c>   2</c></rc>
    <rc><c>Si</c><c>   2</c></rc>
    <rc><c>Si</c><c>   2</c></rc>
    <rc><c>Si</c><c>   2</c></rc>
   </set>
  </array>
  <array name="atomtypes" >
   <dimension dim="1">type</dimension>
   <field type="int">atomspertype</field>
   <field type="string">element</field>
   <field>mass</field>
   <field>valence</field>
   <field type="string">pseudopotential</field>
   <set>
    <rc><c>  12</c><c>P </c><c>     30.97400000</c><c>      5.00000000</c><c>  PAW_PBE P 17Jan2003                   </c></rc>
    <rc><c>  12</c><c>Si</c><c>     28.08500000</c><c>      4.00000000</c><c> PAW_PBE Si 05Jan2001                   </c></rc>
   </set>
  </array>
 </atominfo>
 <structure name="initialpos" >
  <crystal>
   <varray name="basis" >
    <v>       3.54040000       0.00000000       0.00000000 </v>
    <v>      -1.77020000      10.29434800       0.00000000 </v>
    <v>       0.00000000       0.00000000      27.50142900 </v>
   </varray>
   <i name="volume">   1002.32009712 </i>
   <varray name="rec_basis" >
    <v>       0.28245396       0.04857034       0.00000000 </v>
    <v>       0.00000000       0.09714068       0.00000000 </v>
    <v>       0.00000000       0.00000000       0.03636175 </v>
   </varray>
  </crystal>
  <varray name="positions" >
   <v>       0.11402300       0.22804500       0.23316207 </v>
   <v>       0.51402300       0.52804500       0.51499159 </v>
   <v>       0.45808900       0.91617900       0.20939482 </v>
   <v>       0.85808900       0.21617900       0.49122434 </v>
   <v>       0.31085400       0.62170900       0.08414979 </v>
   <v>       0.31085400       0.62170900       0.36597930 </v>
   <v>       0.99923000       0.99846000       0.08631254 </v>
   <v>       0.99923000       0.99846000       0.36814206 </v>
   <v>       0.65492700       0.30985400       0.06041748 </v>
   <v>       0.65492700       0.30985400       0.34224700 </v>
   <v>       0.76973800       0.53947500       0.20725292 </v>
   <v>       0.16973800       0.83947500       0.48908244 </v>
   <v>       0.93971600       0.87943300       0.15783749 </v>
   <v>       0.33971600       0.17943300       0.43966701 </v>
   <v>       0.20515200       0.41030300       0.18578822 </v>
   <v>       0.60515200       0.71030300       0.46761774 </v>
   <v>       0.20184900       0.40369900       0.09969156 </v>
   <v>       0.20184900       0.40369900       0.38152107 </v>
   <v>       0.56380500       0.12761000       0.10779021 </v>
   <v>       0.56380500       0.12761000       0.38961973 </v>
   <v>       0.56710600       0.13421200       0.19387616 </v>
   <v>       0.96710600       0.43421200       0.47570568 </v>
   <v>       0.82923400       0.65846800       0.13571444 </v>
   <v>       0.22923400       0.95846800       0.41754396 </v>
  </varray>
 </structure>
 <calculation>
  <scstep>
   <time name="dav">   74.03   74.06</time>
   <time name="total">   88.67   88.71</time>
   <energy>
    <i name="alphaZ">     36.80884744 </i>
    <i name="ewald">  11986.34426120 </i>
    <i name="hartreedc"> -15013.19895246 </i>
    <i name="XCdc">    -87.25352252 </i>
    <i name="pawpsdc">   1056.43050070 </i>
    <i name="pawaedc">   -732.41190547 </i>
    <i name="eentropy">     -0.04417461 </i>
    <i name="bandstr">    -97.09546451 </i>
    <i name="atom">   3354.04126044 </i>
    <i name="e_fr_energy">    503.62085020 </i>
    <i name="e_wo_entrp">    503.66502482 </i>
    <i name="e_0_energy">    503.64293751 </i>
   </energy>
  </scstep>
  <scstep>
   <time name="dav">   91.61   91.63</time>
   <time name="total">   91.63   91.65</time>
   <energy>
    <i name="e_fr_energy">    -61.17084938 </i>
    <i name="e_wo_entrp">    -61.14971718 </i>
    <i name="e_0_energy">    -61.16028328 </i>
   </energy>
  </scstep>
  <scstep>
   <time name="dav">   73.71   73.73</time>
   <time name="total">   73.72   73.74</time>
   <energy>
    <i name="e_fr_energy">   -118.58241127 </i>
    <i name="e_wo_entrp">   -118.55094243 </i>
    <i name="e_0_energy">   -118.56667685 </i>
   </energy>
  </scstep>
  <scstep>
   <time name="dav">   83.58   83.59</time>
   <time name="total">   83.59   83.61</time>
   <energy>
    <i name="e_fr_energy">   -121.28753168 </i>
    <i name="e_wo_entrp">   -121.25331040 </i>
    <i name="e_0_energy">   -121.27042104 </i>
   </energy>
  </scstep>
  <scstep>
   <time name="dav">   76.95   76.97</time>
   <time name="total">   80.50   80.52</time>
   <energy>
    <i name="e_fr_energy">   -121.34792509 </i>
    <i name="e_wo_entrp">   -121.31364566 </i>
    <i name="e_0_energy">   -121.33078537 </i>
   </energy>
  </scstep>
  <scstep>
   <time name="dav">   70.49   70.50</time>
   <time name="total">   86.97   86.99</time>
   <energy>
    <i name="e_fr_energy">   -117.03935441 </i>
    <i name="e_wo_entrp">   -117.00994911 </i>
    <i name="e_0_energy">   -117.02465176 </i>
   </energy>
  </scstep>
  <scstep>
   <time name="dav">   69.75   69.76</time>
   <time name="total">   85.67   85.69</time>
   <energy>
    <i name="e_fr_energy">   -116.83141810 </i>
    <i name="e_wo_entrp">   -116.79596570 </i>
    <i name="e_0_energy">   -116.81369190 </i>
   </energy>
  </scstep>
  <scstep>
   <time name="dav">   70.35   70.36</time>
   <time name="total">   87.13   87.15</time>
   <energy>
    <i name="e_fr_energy">   -116.85666729 </i>
    <i name="e_wo_entrp">   -116.82235755 </i>
    <i name="e_0_energy">   -116.83951242 </i>
   </energy>
  </scstep>
  <scstep>
   <time name="dav">   72.49   72.51</time>
   <time name="total">   87.95   87.96</time>
   <energy>
    <i name="e_fr_energy">   -116.84063746 </i>
    <i name="e_wo_entrp">   -116.80573604 </i>
    <i name="e_0_energy">   -116.82318675 </i>
   </energy>
  </scstep>
  <scstep>
   <time name="dav">   70.92   70.94</time>
   <time name="total">   87.58   87.60</time>
   <energy>
    <i name="e_fr_energy">   -116.83976516 </i>
    <i name="e_wo_entrp">   -116.80530968 </i>
    <i name="e_0_energy">   -116.82253742 </i>
   </energy>
  </scstep>
  <scstep>
   <time name="dav">   71.69   71.70</time>
   <time name="total">   87.42   87.44</time>
   <energy>
    <i name="e_fr_energy">   -116.83502371 </i>
    <i name="e_wo_entrp">   -116.80055074 </i>
    <i name="e_0_energy">   -116.81778722 </i>
   </energy>
  </scstep>
  <scstep>
   <time name="dav">   72.71   72.73</time>
   <time name="total">   89.22   89.24</time>
   <energy>
    <i name="e_fr_energy">   -116.82882629 </i>
    <i name="e_wo_entrp">   -116.79438505 </i>
    <i name="e_0_energy">   -116.81160567 </i>
   </energy>
  </scstep>
  <scstep>
   <time name="dav">   72.62   72.64</time>
   <time name="total">   89.03   89.05</time>
   <energy>
    <i name="e_fr_energy">   -116.82393576 </i>
    <i name="e_wo_entrp">   -116.78950117 </i>
    <i name="e_0_energy">   -116.80671847 </i>
   </energy>
  </scstep>
  <scstep>
   <time name="dav">   71.89   71.90</time>
   <time name="total">   87.33   87.34</time>
   <energy>
    <i name="e_fr_energy">   -116.82157898 </i>
    <i name="e_wo_entrp">   -116.78715863 </i>
    <i name="e_0_energy">   -116.80436881 </i>
   </energy>
  </scstep>
  <scstep>
   <time name="dav">   72.61   72.62</time>
   <time name="total">   89.33   89.35</time>
   <energy>
    <i name="e_fr_energy">   -116.82108214 </i>
    <i name="e_wo_entrp">   -116.78666629 </i>
    <i name="e_0_energy">   -116.80387422 </i>
   </energy>
  </scstep>
  <scstep>
   <time name="dav">   66.37   66.39</time>
   <time name="total">   82.18   82.20</time>
   <energy>
    <i name="e_fr_energy">   -116.82106281 </i>
    <i name="e_wo_entrp">   -116.78664975 </i>
    <i name="e_0_energy">   -116.80385628 </i>
   </energy>
  </scstep>
  <scstep>
   <time name="dav">   69.79   69.80</time>
   <time name="total">   86.64   86.66</time>
   <energy>
    <i name="e_fr_energy">   -116.82147150 </i>
    <i name="e_wo_entrp">   -116.78705966 </i>
    <i name="e_0_energy">   -116.80426558 </i>
   </energy>
  </scstep>
  <scstep>
   <time name="dav">   62.23   62.24</time>
   <time name="total">   78.03   78.05</time>
   <energy>
    <i name="e_fr_energy">   -116.82175562 </i>
    <i name="e_wo_entrp">   -116.78734001 </i>
    <i name="e_0_energy">   -116.80454781 </i>
   </energy>
  </scstep>
  <scstep>
   <time name="dav">   60.09   60.10</time>
   <time name="total">   75.72   75.74</time>
   <energy>
    <i name="e_fr_energy">   -116.82181224 </i>
    <i name="e_wo_entrp">   -116.78739668 </i>
    <i name="e_0_energy">   -116.80460446 </i>
   </energy>
  </scstep>
  <scstep>
   <time name="dav">   57.28   57.29</time>
   <time name="total">   73.49   73.54</time>
   <energy>
    <i name="e_fr_energy">   -116.82182998 </i>
    <i name="e_wo_entrp">   -116.78741476 </i>
    <i name="e_0_energy">   -116.80462237 </i>
   </energy>
  </scstep>
  <scstep>
   <time name="dav">   60.82   60.83</time>
   <time name="total">   77.02   77.04</time>
   <energy>
    <i name="e_fr_energy">   -116.82184749 </i>
    <i name="e_wo_entrp">   -116.78743236 </i>
    <i name="e_0_energy">   -116.80463993 </i>
   </energy>
  </scstep>
  <scstep>
   <time name="dav">   59.60   59.61</time>
   <time name="total">   75.56   75.58</time>
   <energy>
    <i name="e_fr_energy">   -116.82177725 </i>
    <i name="e_wo_entrp">   -116.78736252 </i>
    <i name="e_0_energy">   -116.80456989 </i>
   </energy>
  </scstep>
  <scstep>
   <time name="dav">   58.09   58.10</time>
   <time name="total">   74.12   74.14</time>
   <energy>
    <i name="e_fr_energy">   -116.82173416 </i>
    <i name="e_wo_entrp">   -116.78731928 </i>
    <i name="e_0_energy">   -116.80452672 </i>
   </energy>
  </scstep>
  <scstep>
   <time name="dav">   56.94   56.97</time>
   <time name="total">   72.77   72.80</time>
   <energy>
    <i name="e_fr_energy">   -116.82170084 </i>
    <i name="e_wo_entrp">   -116.78728604 </i>
    <i name="e_0_energy">   -116.80449344 </i>
   </energy>
  </scstep>
  <scstep>
   <time name="dav">   54.60   54.61</time>
   <time name="total">   70.71   70.73</time>
   <energy>
    <i name="e_fr_energy">   -116.82169529 </i>
    <i name="e_wo_entrp">   -116.78728043 </i>
    <i name="e_0_energy">   -116.80448786 </i>
   </energy>
  </scstep>
  <scstep>
   <time name="dav">   54.71   54.72</time>
   <time name="total">   71.20   71.22</time>
   <energy>
    <i name="e_fr_energy">   -116.82168834 </i>
    <i name="e_wo_entrp">   -116.78727345 </i>
    <i name="e_0_energy">   -116.80448089 </i>
   </energy>
  </scstep>
  <scstep>
   <time name="dav">   49.25   49.26</time>
   <time name="total">   65.07   65.08</time>
   <energy>
    <i name="e_fr_energy">   -116.82168705 </i>
    <i name="e_wo_entrp">   -116.78727215 </i>
    <i name="e_0_energy">   -116.80447960 </i>
   </energy>
  </scstep>
  <scstep>
   <time name="dav">   51.66   51.67</time>
   <time name="total">   68.13   68.15</time>
   <energy>
    <i name="e_fr_energy">   -116.82168570 </i>
    <i name="e_wo_entrp">   -116.78727080 </i>
    <i name="e_0_energy">   -116.80447825 </i>
   </energy>
  </scstep>
  <scstep>
   <time name="dav">   49.94   49.95</time>
   <time name="total">   62.38   62.40</time>
   <energy>
    <i name="alphaZ">     36.80884744 </i>
    <i name="ewald">  11986.34426120 </i>
    <i name="hartreedc"> -15117.94740467 </i>
    <i name="XCdc">    -79.15114659 </i>
    <i name="pawpsdc">   1184.64155129 </i>
    <i name="pawaedc">   -864.36394686 </i>
    <i name="eentropy">     -0.03441490 </i>
    <i name="bandstr">   -617.16069247 </i>
    <i name="atom">   3354.04126044 </i>
    <i name="e_fr_energy">   -116.82168510 </i>
    <i name="e_wo_entrp">   -116.78727021 </i>
    <i name="e_0_energy">   -116.80447765 </i>
   </energy>
  </scstep>
  <structure>
   <crystal>
    <varray name="basis" >
     <v>       3.54040000       0.00000000       0.00000000 </v>
     <v>      -1.77020000      10.29434800       0.00000000 </v>
     <v>       0.00000000       0.00000000      27.50142900 </v>
    </varray>
    <i name="volume">   1002.32009712 </i>
    <varray name="rec_basis" >
     <v>       0.28245396       0.04857034       0.00000000 </v>
     <v>       0.00000000       0.09714068       0.00000000 </v>
     <v>       0.00000000       0.00000000       0.03636175 </v>
    </varray>
   </crystal>
   <varray name="positions" >
    <v>       0.11402300       0.22804500       0.23316207 </v>
    <v>       0.51402300       0.52804500       0.51499159 </v>
    <v>       0.45808900       0.91617900       0.20939482 </v>
    <v>       0.85808900       0.21617900       0.49122434 </v>
    <v>       0.31085400       0.62170900       0.08414979 </v>
    <v>       0.31085400       0.62170900       0.36597930 </v>
    <v>       0.99923000       0.99846000       0.08631254 </v>
    <v>       0.99923000       0.99846000       0.36814206 </v>
    <v>       0.65492700       0.30985400       0.06041748 </v>
    <v>       0.65492700       0.30985400       0.34224700 </v>
    <v>       0.76973800       0.53947500       0.20725292 </v>
    <v>       0.16973800       0.83947500       0.48908244 </v>
    <v>       0.93971600       0.87943300       0.15783749 </v>
    <v>       0.33971600       0.17943300       0.43966701 </v>
    <v>       0.20515200       0.41030300       0.18578822 </v>
    <v>       0.60515200       0.71030300       0.46761774 </v>
    <v>       0.20184900       0.40369900       0.09969156 </v>
    <v>       0.20184900       0.40369900       0.38152107 </v>
    <v>       0.56380500       0.12761000       0.10779021 </v>
    <v>       0.56380500       0.12761000       0.38961973 </v>
    <v>       0.56710600       0.13421200       0.19387616 </v>
    <v>       0.96710600       0.43421200       0.47570568 </v>
    <v>       0.82923400       0.65846800       0.13571444 </v>
    <v>       0.22923400       0.95846800       0.41754396 </v>
   </varray>
  </structure>
  <varray name="forces" >
   <v>      -0.00045606      -0.02625258       0.02048401 </v>
   <v>       0.07278267       0.05186178      -0.01293696 </v>
   <v>      -0.00099304      -0.01577681       0.07798137 </v>
   <v>       0.03216457      -0.24149488       0.65855523 </v>
   <v>      -0.00093855      -0.00430586       0.00404433 </v>
   <v>       0.65289489       0.19825584       0.97101729 </v>
   <v>       0.00202223       0.00000790       0.00219692 </v>
   <v>     -10.97601490       3.85092602     -17.66136299 </v>
   <v>       0.00121995      -0.00021704       0.01149426 </v>
   <v>       0.69110089       0.55829213      -0.99819865 </v>
   <v>      -0.00015454       0.00595192       0.09792874 </v>
   <v>      -0.21395872       0.01923170      -0.29192484 </v>
   <v>       0.00262578      -0.00273345       0.01275891 </v>
   <v>      -9.36655995       6.15614573      16.80935101 </v>
   <v>      -0.00230399       0.02320747       0.06154610 </v>
   <v>      -0.40653134      -0.50939730      -1.25926638 </v>
   <v>      -0.00035568      -0.00124579      -0.02100574 </v>
   <v>      -0.65386591       1.28081270       0.41623803 </v>
   <v>      -0.00064659      -0.00752878      -0.02348963 </v>
   <v>       9.98343987      -2.64458950     -16.46625019 </v>
   <v>       0.00122562      -0.02420650       0.00460262 </v>
   <v>       0.70257207      -0.36944543      -0.79976097 </v>
   <v>       0.00207726       0.00274966       0.00030552 </v>
   <v>       9.47865346      -8.30024894      18.38569200 </v>
  </varray>
  <varray name="stress" >
   <v>      32.79923697      -8.20241902       0.33248828 </v>
   <v>      -8.20241898      20.39807595      -5.51791521 </v>
   <v>       0.33248816      -5.51791524      67.73504131 </v>
  </varray>
  <energy>
   <i name="e_fr_energy">   -116.82168510 </i>
   <i name="e_wo_entrp">   -116.80447765 </i>
   <i name="e_0_energy">     -0.03441490 </i>
  </energy>
  <time name="totalsc"> 2428.26 2428.89</time>
  <eigenvalues>
   <array>
    <dimension dim="1">band</dimension>
    <dimension dim="2">kpoint</dimension>
    <dimension dim="3">spin</dimension>
    <field>eigene</field>
    <field>occ</field>
    <set>
     <set comment="spin 1">
      <set comment="kpoint 1">
       <r>  -15.3055    1.0000 </r>
       <r>  -13.5047    1.0000 </r>
       <r>  -12.9903    1.0000 </r>
       <r>  -12.7651    1.0000 </r>
       <r>  -12.6159    1.0000 </r>
       <r>  -12.4463    1.0000 </r>
       <r>  -12.0730    1.0000 </r>
       <r>  -11.9961    1.0000 </r>
       <r>  -11.5194    1.0000 </r>
       <r>  -11.3963    1.0000 </r>
       <r>  -10.9547    1.0000 </r>
       <r>   -9.9172    1.0000 </r>
       <r>   -9.0935    1.0000 </r>
       <r>   -7.9983    1.0000 </r>
       <r>   -7.7934    1.0000 </r>
       <r>   -7.5309    1.0000 </r>
       <r>   -6.8822    1.0000 </r>
       <r>   -6.7633    1.0000 </r>
       <r>   -6.4547    1.0000 </r>
       <r>   -6.2875    1.0000 </r>
       <r>   -5.7876    1.0000 </r>
       <r>   -5.4046    1.0000 </r>
       <r>   -4.9948    1.0000 </r>
       <r>   -4.6923    1.0000 </r>
       <r>   -4.4917    1.0000 </r>
       <r>   -3.8145    1.0000 </r>
       <r>   -3.6598    1.0000 </r>
       <r>   -3.5765    1.0000 </r>
       <r>   -3.4191    1.0000 </r>
       <r>   -3.3007    1.0000 </r>
       <r>   -3.0368    1.0000 </r>
       <r>   -3.0187    1.0000 </r>
       <r>   -2.8709    1.0000 </r>
       <r>   -2.8077    1.0000 </r>
       <r>   -2.7311    1.0000 </r>
       <r>   -2.4420    1.0000 </r>
       <r>   -2.3841    1.0000 </r>
       <r>   -2.3584    1.0000 </r>
       <r>   -2.1782    1.0000 </r>
       <r>   -2.0684    1.0000 </r>
       <r>   -1.9600    1.0000 </r>
       <r>   -1.8416    1.0000 </r>
       <r>   -1.7626    1.0000 </r>
       <r>   -1.6933    1.0000 </r>
       <r>   -1.6147    1.0000 </r>
       <r>   -1.6036    1.0000 </r>
       <r>   -1.5476    1.0000 </r>
       <r>   -1.3957    1.0000 </r>
       <r>   -1.3426    1.0000 </r>
       <r>   -1.1741    1.0000 </r>
       <r>   -1.0596    1.0000 </r>
       <r>   -0.9206    1.0000 </r>
       <r>   -0.5837    1.0000 </r>
       <r>   -0.0549    0.9747 </r>
       <r>    0.7323    0.0000 </r>
       <r>    1.0780    0.0000 </r>
       <r>    1.2037    0.0000 </r>
       <r>    1.3570    0.0000 </r>
       <r>    1.4998    0.0000 </r>
       <r>    1.6167    0.0000 </r>
       <r>    1.7454    0.0000 </r>
       <r>    1.9350    0.0000 </r>
       <r>    1.9971    0.0000 </r>
       <r>    2.0503    0.0000 </r>
       <r>    2.1821    0.0000 </r>
       <r>    2.4678    0.0000 </r>
       <r>    2.5872    0.0000 </r>
       <r>    2.6823    0.0000 </r>
      </set>
      <set comment="kpoint 2">
       <r>  -15.2527    1.0000 </r>
       <r>  -13.4433    1.0000 </r>
       <r>  -12.9369    1.0000 </r>
       <r>  -12.7129    1.0000 </r>
       <r>  -12.5585    1.0000 </r>
       <r>  -12.3907    1.0000 </r>
       <r>  -12.0132    1.0000 </r>
       <r>  -11.9398    1.0000 </r>
       <r>  -11.4696    1.0000 </r>
       <r>  -11.3473    1.0000 </r>
       <r>  -10.9064    1.0000 </r>
       <r>   -9.8915    1.0000 </r>
       <r>   -9.0939    1.0000 </r>
       <r>   -8.0349    1.0000 </r>
       <r>   -7.7566    1.0000 </r>
       <r>   -7.5023    1.0000 </r>
       <r>   -6.8559    1.0000 </r>
       <r>   -6.7387    1.0000 </r>
       <r>   -6.4490    1.0000 </r>
       <r>   -6.2976    1.0000 </r>
       <r>   -5.7539    1.0000 </r>
       <r>   -5.4099    1.0000 </r>
       <r>   -5.1531    1.0000 </r>
       <r>   -4.7448    1.0000 </r>
       <r>   -4.6522    1.0000 </r>
       <r>   -3.9230    1.0000 </r>
       <r>   -3.7836    1.0000 </r>
       <r>   -3.6855    1.0000 </r>
       <r>   -3.5588    1.0000 </r>
       <r>   -3.3860    1.0000 </r>
       <r>   -3.3050    1.0000 </r>
       <r>   -3.2215    1.0000 </r>
       <r>   -3.1004    1.0000 </r>
       <r>   -2.9833    1.0000 </r>
       <r>   -2.7342    1.0000 </r>
       <r>   -2.7059    1.0000 </r>
       <r>   -2.5907    1.0000 </r>
       <r>   -2.4391    1.0000 </r>
       <r>   -2.3683    1.0000 </r>
       <r>   -2.2249    1.0000 </r>
       <r>   -2.1546    1.0000 </r>
       <r>   -2.0404    1.0000 </r>
       <r>   -1.9305    1.0000 </r>
       <r>   -1.9045    1.0000 </r>
       <r>   -1.8057    1.0000 </r>
       <r>   -1.6807    1.0000 </r>
       <r>   -1.5432    1.0000 </r>
       <r>   -1.4724    1.0000 </r>
       <r>   -1.2778    1.0000 </r>
       <r>   -1.1601    1.0000 </r>
       <r>   -1.0232    1.0000 </r>
       <r>   -0.8855    1.0000 </r>
       <r>   -0.4972    1.0000 </r>
       <r>   -0.0319    0.9485 </r>
       <r>    0.9042    0.0000 </r>
       <r>    1.1218    0.0000 </r>
       <r>    1.4573    0.0000 </r>
       <r>    1.5945    0.0000 </r>
       <r>    1.8015    0.0000 </r>
       <r>    1.8724    0.0000 </r>
       <r>    2.0387    0.0000 </r>
       <r>    2.1671    0.0000 </r>
       <r>    2.2533    0.0000 </r>
       <r>    2.3055    0.0000 </r>
       <r>    2.3444    0.0000 </r>
       <r>    2.6264    0.0000 </r>
       <r>    2.6509    0.0000 </r>
       <r>    2.8048    0.0000 </r>
      </set>
      <set comment="kpoint 3">
       <r>  -15.0971    1.0000 </r>
       <r>  -13.2603    1.0000 </r>
       <r>  -12.7792    1.0000 </r>
       <r>  -12.5571    1.0000 </r>
       <r>  -12.3895    1.0000 </r>
       <r>  -12.2260    1.0000 </r>
       <r>  -11.8402    1.0000 </r>
       <r>  -11.7719    1.0000 </r>
       <r>  -11.3246    1.0000 </r>
       <r>  -11.2054    1.0000 </r>
       <r>  -10.7675    1.0000 </r>
       <r>   -9.8291    1.0000 </r>
       <r>   -9.1176    1.0000 </r>
       <r>   -8.1312    1.0000 </r>
       <r>   -7.7146    1.0000 </r>
       <r>   -7.4443    1.0000 </r>
       <r>   -6.8231    1.0000 </r>
       <r>   -6.6892    1.0000 </r>
       <r>   -6.4621    1.0000 </r>
       <r>   -6.4293    1.0000 </r>
       <r>   -5.7805    1.0000 </r>
       <r>   -5.6778    1.0000 </r>
       <r>   -5.2881    1.0000 </r>
       <r>   -4.9113    1.0000 </r>
       <r>   -4.8109    1.0000 </r>
       <r>   -4.2469    1.0000 </r>
       <r>   -4.1767    1.0000 </r>
       <r>   -4.0535    1.0000 </r>
       <r>   -4.0087    1.0000 </r>
       <r>   -3.9328    1.0000 </r>
       <r>   -3.6833    1.0000 </r>
       <r>   -3.6574    1.0000 </r>
       <r>   -3.4847    1.0000 </r>
       <r>   -3.3409    1.0000 </r>
       <r>   -3.1401    1.0000 </r>
       <r>   -3.0381    1.0000 </r>
       <r>   -2.9418    1.0000 </r>
       <r>   -2.9198    1.0000 </r>
       <r>   -2.7496    1.0000 </r>
       <r>   -2.6655    1.0000 </r>
       <r>   -2.4155    1.0000 </r>
       <r>   -2.3315    1.0000 </r>
       <r>   -2.1250    1.0000 </r>
       <r>   -2.0252    1.0000 </r>
       <r>   -1.9096    1.0000 </r>
       <r>   -1.7391    1.0000 </r>
       <r>   -1.6324    1.0000 </r>
       <r>   -1.5652    1.0000 </r>
       <r>   -1.2539    1.0000 </r>
       <r>   -1.1214    1.0000 </r>
       <r>   -0.9270    1.0000 </r>
       <r>   -0.7443    1.0000 </r>
       <r>   -0.1954    1.0000 </r>
       <r>    0.0378    0.7407 </r>
       <r>    0.4588    0.0000 </r>
       <r>    1.0309    0.0000 </r>
       <r>    1.4968    0.0000 </r>
       <r>    1.7977    0.0000 </r>
       <r>    1.9949    0.0000 </r>
       <r>    2.2855    0.0000 </r>
       <r>    2.4623    0.0000 </r>
       <r>    2.5794    0.0000 </r>
       <r>    2.6415    0.0000 </r>
       <r>    2.6762    0.0000 </r>
       <r>    2.7123    0.0000 </r>
       <r>    2.8092    0.0000 </r>
       <r>    2.9779    0.0000 </r>
       <r>    3.0792    0.0000 </r>
      </set>
      <set comment="kpoint 4">
       <r>  -14.8491    1.0000 </r>
       <r>  -12.9593    1.0000 </r>
       <r>  -12.5258    1.0000 </r>
       <r>  -12.3008    1.0000 </r>
       <r>  -12.1202    1.0000 </r>
       <r>  -11.9594    1.0000 </r>
       <r>  -11.5739    1.0000 </r>
       <r>  -11.4986    1.0000 </r>
       <r>  -11.1007    1.0000 </r>
       <r>  -10.9886    1.0000 </r>
       <r>  -10.5645    1.0000 </r>
       <r>   -9.7943    1.0000 </r>
       <r>   -9.2098    1.0000 </r>
       <r>   -8.3227    1.0000 </r>
       <r>   -7.7879    1.0000 </r>
       <r>   -7.5156    1.0000 </r>
       <r>   -6.9988    1.0000 </r>
       <r>   -6.6930    1.0000 </r>
       <r>   -6.6299    1.0000 </r>
       <r>   -6.5940    1.0000 </r>
       <r>   -6.0700    1.0000 </r>
       <r>   -5.7003    1.0000 </r>
       <r>   -5.4772    1.0000 </r>
       <r>   -5.3018    1.0000 </r>
       <r>   -5.2464    1.0000 </r>
       <r>   -4.7826    1.0000 </r>
       <r>   -4.7172    1.0000 </r>
       <r>   -4.5686    1.0000 </r>
       <r>   -4.4787    1.0000 </r>
       <r>   -4.3931    1.0000 </r>
       <r>   -4.1575    1.0000 </r>
       <r>   -4.0757    1.0000 </r>
       <r>   -3.7653    1.0000 </r>
       <r>   -3.6991    1.0000 </r>
       <r>   -3.4347    1.0000 </r>
       <r>   -3.3301    1.0000 </r>
       <r>   -3.1969    1.0000 </r>
       <r>   -2.9613    1.0000 </r>
       <r>   -2.8939    1.0000 </r>
       <r>   -2.6784    1.0000 </r>
       <r>   -2.5976    1.0000 </r>
       <r>   -2.5074    1.0000 </r>
       <r>   -2.3947    1.0000 </r>
       <r>   -2.1453    1.0000 </r>
       <r>   -1.8815    1.0000 </r>
       <r>   -1.8297    1.0000 </r>
       <r>   -1.7610    1.0000 </r>
       <r>   -1.6694    1.0000 </r>
       <r>   -1.4371    1.0000 </r>
       <r>   -1.2277    1.0000 </r>
       <r>   -1.0566    1.0000 </r>
       <r>   -0.7636    1.0000 </r>
       <r>   -0.3290    1.0000 </r>
       <r>   -0.0257    0.9386 </r>
       <r>    0.3903    0.0000 </r>
       <r>    0.8086    0.0000 </r>
       <r>    1.3862    0.0000 </r>
       <r>    1.5449    0.0000 </r>
       <r>    1.9018    0.0000 </r>
       <r>    2.0698    0.0000 </r>
       <r>    2.2917    0.0000 </r>
       <r>    2.3868    0.0000 </r>
       <r>    2.5425    0.0000 </r>
       <r>    2.6806    0.0000 </r>
       <r>    2.8071    0.0000 </r>
       <r>    2.8671    0.0000 </r>
       <r>    2.9387    0.0000 </r>
       <r>    3.0281    0.0000 </r>
      </set>
      <set comment="kpoint 5">
       <r>  -14.5318    1.0000 </r>
       <r>  -12.5475    1.0000 </r>
       <r>  -12.2019    1.0000 </r>
       <r>  -11.9525    1.0000 </r>
       <r>  -11.7760    1.0000 </r>
       <r>  -11.6082    1.0000 </r>
       <r>  -11.2517    1.0000 </r>
       <r>  -11.1502    1.0000 </r>
       <r>  -10.8369    1.0000 </r>
       <r>  -10.7443    1.0000 </r>
       <r>  -10.3786    1.0000 </r>
       <r>   -9.9373    1.0000 </r>
       <r>   -9.3098    1.0000 </r>
       <r>   -8.6177    1.0000 </r>
       <r>   -8.0483    1.0000 </r>
       <r>   -7.8893    1.0000 </r>
       <r>   -7.2975    1.0000 </r>
       <r>   -6.9601    1.0000 </r>
       <r>   -6.8638    1.0000 </r>
       <r>   -6.7509    1.0000 </r>
       <r>   -6.4403    1.0000 </r>
       <r>   -6.1262    1.0000 </r>
       <r>   -5.9576    1.0000 </r>
       <r>   -5.9172    1.0000 </r>
       <r>   -5.6137    1.0000 </r>
       <r>   -5.1777    1.0000 </r>
       <r>   -4.9414    1.0000 </r>
       <r>   -4.7478    1.0000 </r>
       <r>   -4.6646    1.0000 </r>
       <r>   -4.5122    1.0000 </r>
       <r>   -4.2918    1.0000 </r>
       <r>   -4.2003    1.0000 </r>
       <r>   -4.1544    1.0000 </r>
       <r>   -3.8350    1.0000 </r>
       <r>   -3.3646    1.0000 </r>
       <r>   -3.3219    1.0000 </r>
       <r>   -3.1859    1.0000 </r>
       <r>   -3.0558    1.0000 </r>
       <r>   -2.9925    1.0000 </r>
       <r>   -2.8304    1.0000 </r>
       <r>   -2.7663    1.0000 </r>
       <r>   -2.6063    1.0000 </r>
       <r>   -2.4530    1.0000 </r>
       <r>   -2.2105    1.0000 </r>
       <r>   -2.0557    1.0000 </r>
       <r>   -1.9765    1.0000 </r>
       <r>   -1.8489    1.0000 </r>
       <r>   -1.8358    1.0000 </r>
       <r>   -1.6754    1.0000 </r>
       <r>   -1.3573    1.0000 </r>
       <r>   -1.2777    1.0000 </r>
       <r>   -1.0746    1.0000 </r>
       <r>   -0.5475    1.0000 </r>
       <r>   -0.2203    1.0000 </r>
       <r>    0.2586    0.0066 </r>
       <r>    0.6719    0.0000 </r>
       <r>    1.1418    0.0000 </r>
       <r>    1.3005    0.0000 </r>
       <r>    1.6359    0.0000 </r>
       <r>    1.8185    0.0000 </r>
       <r>    2.0149    0.0000 </r>
       <r>    2.2471    0.0000 </r>
       <r>    2.3935    0.0000 </r>
       <r>    2.4309    0.0000 </r>
       <r>    2.5868    0.0000 </r>
       <r>    2.6807    0.0000 </r>
       <r>    2.7934    0.0000 </r>
       <r>    2.8888    0.0000 </r>
      </set>
      <set comment="kpoint 6">
       <r>  -14.1972    1.0000 </r>
       <r>  -12.0395    1.0000 </r>
       <r>  -11.8871    1.0000 </r>
       <r>  -11.5333    1.0000 </r>
       <r>  -11.4045    1.0000 </r>
       <r>  -11.2115    1.0000 </r>
       <r>  -10.9694    1.0000 </r>
       <r>  -10.8137    1.0000 </r>
       <r>  -10.6169    1.0000 </r>
       <r>  -10.5896    1.0000 </r>
       <r>  -10.4188    1.0000 </r>
       <r>  -10.1530    1.0000 </r>
       <r>   -9.3887    1.0000 </r>
       <r>   -8.7941    1.0000 </r>
       <r>   -8.3411    1.0000 </r>
       <r>   -8.3080    1.0000 </r>
       <r>   -7.7070    1.0000 </r>
       <r>   -7.4226    1.0000 </r>
       <r>   -7.3786    1.0000 </r>
       <r>   -7.0966    1.0000 </r>
       <r>   -6.8010    1.0000 </r>
       <r>   -6.7228    1.0000 </r>
       <r>   -6.6222    1.0000 </r>
       <r>   -6.2260    1.0000 </r>
       <r>   -5.6330    1.0000 </r>
       <r>   -5.1802    1.0000 </r>
       <r>   -4.9342    1.0000 </r>
       <r>   -4.6057    1.0000 </r>
       <r>   -4.4928    1.0000 </r>
       <r>   -4.4359    1.0000 </r>
       <r>   -4.2000    1.0000 </r>
       <r>   -4.1567    1.0000 </r>
       <r>   -4.0381    1.0000 </r>
       <r>   -3.8860    1.0000 </r>
       <r>   -3.6222    1.0000 </r>
       <r>   -3.5280    1.0000 </r>
       <r>   -3.2391    1.0000 </r>
       <r>   -3.1968    1.0000 </r>
       <r>   -3.1130    1.0000 </r>
       <r>   -2.8779    1.0000 </r>
       <r>   -2.7902    1.0000 </r>
       <r>   -2.6818    1.0000 </r>
       <r>   -2.4450    1.0000 </r>
       <r>   -2.4007    1.0000 </r>
       <r>   -2.2456    1.0000 </r>
       <r>   -2.1119    1.0000 </r>
       <r>   -1.9966    1.0000 </r>
       <r>   -1.9614    1.0000 </r>
       <r>   -1.8044    1.0000 </r>
       <r>   -1.4906    1.0000 </r>
       <r>   -1.4215    1.0000 </r>
       <r>   -1.3401    1.0000 </r>
       <r>   -0.7257    1.0000 </r>
       <r>   -0.3586    1.0000 </r>
       <r>    0.1200    0.3025 </r>
       <r>    0.4911    0.0000 </r>
       <r>    0.9311    0.0000 </r>
       <r>    1.1841    0.0000 </r>
       <r>    1.4361    0.0000 </r>
       <r>    1.7358    0.0000 </r>
       <r>    1.7617    0.0000 </r>
       <r>    2.0920    0.0000 </r>
       <r>    2.1500    0.0000 </r>
       <r>    2.2877    0.0000 </r>
       <r>    2.3245    0.0000 </r>
       <r>    2.3643    0.0000 </r>
       <r>    2.5093    0.0000 </r>
       <r>    2.7737    0.0000 </r>
      </set>
      <set comment="kpoint 7">
       <r>  -13.9561    1.0000 </r>
       <r>  -11.7524    1.0000 </r>
       <r>  -11.4650    1.0000 </r>
       <r>  -11.1109    1.0000 </r>
       <r>  -11.0544    1.0000 </r>
       <r>  -10.9111    1.0000 </r>
       <r>  -10.8323    1.0000 </r>
       <r>  -10.8038    1.0000 </r>
       <r>  -10.6936    1.0000 </r>
       <r>  -10.6509    1.0000 </r>
       <r>  -10.5972    1.0000 </r>
       <r>  -10.0294    1.0000 </r>
       <r>   -9.5696    1.0000 </r>
       <r>   -8.6521    1.0000 </r>
       <r>   -8.5889    1.0000 </r>
       <r>   -8.4035    1.0000 </r>
       <r>   -8.0427    1.0000 </r>
       <r>   -7.8818    1.0000 </r>
       <r>   -7.5661    1.0000 </r>
       <r>   -7.5342    1.0000 </r>
       <r>   -7.2500    1.0000 </r>
       <r>   -7.1501    1.0000 </r>
       <r>   -7.1109    1.0000 </r>
       <r>   -6.0528    1.0000 </r>
       <r>   -5.4825    1.0000 </r>
       <r>   -5.1013    1.0000 </r>
       <r>   -4.8791    1.0000 </r>
       <r>   -4.4714    1.0000 </r>
       <r>   -4.4099    1.0000 </r>
       <r>   -4.2542    1.0000 </r>
       <r>   -4.1234    1.0000 </r>
       <r>   -4.0310    1.0000 </r>
       <r>   -3.9048    1.0000 </r>
       <r>   -3.7983    1.0000 </r>
       <r>   -3.7549    1.0000 </r>
       <r>   -3.5766    1.0000 </r>
       <r>   -3.4838    1.0000 </r>
       <r>   -3.3370    1.0000 </r>
       <r>   -3.2187    1.0000 </r>
       <r>   -3.0118    1.0000 </r>
       <r>   -2.9603    1.0000 </r>
       <r>   -2.6906    1.0000 </r>
       <r>   -2.6629    1.0000 </r>
       <r>   -2.6029    1.0000 </r>
       <r>   -2.3182    1.0000 </r>
       <r>   -2.1487    1.0000 </r>
       <r>   -2.0780    1.0000 </r>
       <r>   -1.8903    1.0000 </r>
       <r>   -1.6876    1.0000 </r>
       <r>   -1.6217    1.0000 </r>
       <r>   -1.4902    1.0000 </r>
       <r>   -1.3806    1.0000 </r>
       <r>   -0.9288    1.0000 </r>
       <r>   -0.4315    1.0000 </r>
       <r>    0.0434    0.7144 </r>
       <r>    0.3296    0.0002 </r>
       <r>    0.8433    0.0000 </r>
       <r>    1.1384    0.0000 </r>
       <r>    1.4120    0.0000 </r>
       <r>    1.6170    0.0000 </r>
       <r>    1.6684    0.0000 </r>
       <r>    1.8727    0.0000 </r>
       <r>    2.0210    0.0000 </r>
       <r>    2.1545    0.0000 </r>
       <r>    2.2388    0.0000 </r>
       <r>    2.3474    0.0000 </r>
       <r>    2.4426    0.0000 </r>
       <r>    2.5600    0.0000 </r>
      </set>
      <set comment="kpoint 8">
       <r>  -15.3042    1.0000 </r>
       <r>  -13.4493    1.0000 </r>
       <r>  -13.0509    1.0000 </r>
       <r>  -12.9384    1.0000 </r>
       <r>  -12.5133    1.0000 </r>
       <r>  -12.4398    1.0000 </r>
       <r>  -12.0702    1.0000 </r>
       <r>  -11.8321    1.0000 </r>
       <r>  -11.5222    1.0000 </r>
       <r>  -11.4413    1.0000 </r>
       <r>  -10.9635    1.0000 </r>
       <r>   -9.8705    1.0000 </r>
       <r>   -9.1460    1.0000 </r>
       <r>   -8.4800    1.0000 </r>
       <r>   -7.6291    1.0000 </r>
       <r>   -7.3522    1.0000 </r>
       <r>   -6.8555    1.0000 </r>
       <r>   -6.6330    1.0000 </r>
       <r>   -6.5644    1.0000 </r>
       <r>   -6.1743    1.0000 </r>
       <r>   -5.7107    1.0000 </r>
       <r>   -5.2790    1.0000 </r>
       <r>   -5.0157    1.0000 </r>
       <r>   -4.5981    1.0000 </r>
       <r>   -4.4053    1.0000 </r>
       <r>   -4.0041    1.0000 </r>
       <r>   -3.8154    1.0000 </r>
       <r>   -3.5325    1.0000 </r>
       <r>   -3.4161    1.0000 </r>
       <r>   -3.3432    1.0000 </r>
       <r>   -3.2554    1.0000 </r>
       <r>   -3.0916    1.0000 </r>
       <r>   -2.8927    1.0000 </r>
       <r>   -2.6731    1.0000 </r>
       <r>   -2.6378    1.0000 </r>
       <r>   -2.5345    1.0000 </r>
       <r>   -2.3620    1.0000 </r>
       <r>   -2.3355    1.0000 </r>
       <r>   -2.2253    1.0000 </r>
       <r>   -2.1187    1.0000 </r>
       <r>   -2.0050    1.0000 </r>
       <r>   -1.9309    1.0000 </r>
       <r>   -1.8471    1.0000 </r>
       <r>   -1.8076    1.0000 </r>
       <r>   -1.6488    1.0000 </r>
       <r>   -1.5909    1.0000 </r>
       <r>   -1.4095    1.0000 </r>
       <r>   -1.3268    1.0000 </r>
       <r>   -1.3228    1.0000 </r>
       <r>   -1.1457    1.0000 </r>
       <r>   -1.0350    1.0000 </r>
       <r>   -0.9158    1.0000 </r>
       <r>   -0.5268    1.0000 </r>
       <r>    0.0377    0.7411 </r>
       <r>    0.7034    0.0000 </r>
       <r>    1.1077    0.0000 </r>
       <r>    1.2390    0.0000 </r>
       <r>    1.4042    0.0000 </r>
       <r>    1.5215    0.0000 </r>
       <r>    1.6215    0.0000 </r>
       <r>    1.7616    0.0000 </r>
       <r>    1.8564    0.0000 </r>
       <r>    1.9149    0.0000 </r>
       <r>    2.2333    0.0000 </r>
       <r>    2.3100    0.0000 </r>
       <r>    2.5831    0.0000 </r>
       <r>    2.6345    0.0000 </r>
       <r>    2.6874    0.0000 </r>
      </set>
      <set comment="kpoint 9">
       <r>  -15.2512    1.0000 </r>
       <r>  -13.3725    1.0000 </r>
       <r>  -13.0069    1.0000 </r>
       <r>  -12.9193    1.0000 </r>
       <r>  -12.4383    1.0000 </r>
       <r>  -12.3792    1.0000 </r>
       <r>  -12.0280    1.0000 </r>
       <r>  -11.7331    1.0000 </r>
       <r>  -11.4707    1.0000 </r>
       <r>  -11.3999    1.0000 </r>
       <r>  -10.9192    1.0000 </r>
       <r>   -9.8348    1.0000 </r>
       <r>   -9.1649    1.0000 </r>
       <r>   -8.5385    1.0000 </r>
       <r>   -7.5942    1.0000 </r>
       <r>   -7.3026    1.0000 </r>
       <r>   -6.8451    1.0000 </r>
       <r>   -6.6418    1.0000 </r>
       <r>   -6.4951    1.0000 </r>
       <r>   -6.1786    1.0000 </r>
       <r>   -5.6627    1.0000 </r>
       <r>   -5.3549    1.0000 </r>
       <r>   -4.9849    1.0000 </r>
       <r>   -4.7648    1.0000 </r>
       <r>   -4.6392    1.0000 </r>
       <r>   -4.0752    1.0000 </r>
       <r>   -3.9327    1.0000 </r>
       <r>   -3.6861    1.0000 </r>
       <r>   -3.5820    1.0000 </r>
       <r>   -3.4345    1.0000 </r>
       <r>   -3.3461    1.0000 </r>
       <r>   -3.2739    1.0000 </r>
       <r>   -2.9978    1.0000 </r>
       <r>   -2.9661    1.0000 </r>
       <r>   -2.7844    1.0000 </r>
       <r>   -2.7023    1.0000 </r>
       <r>   -2.6459    1.0000 </r>
       <r>   -2.4916    1.0000 </r>
       <r>   -2.4505    1.0000 </r>
       <r>   -2.2727    1.0000 </r>
       <r>   -2.1482    1.0000 </r>
       <r>   -2.0745    1.0000 </r>
       <r>   -1.9778    1.0000 </r>
       <r>   -1.8849    1.0000 </r>
       <r>   -1.8072    1.0000 </r>
       <r>   -1.7157    1.0000 </r>
       <r>   -1.6522    1.0000 </r>
       <r>   -1.3300    1.0000 </r>
       <r>   -1.2715    1.0000 </r>
       <r>   -1.0731    1.0000 </r>
       <r>   -0.9840    1.0000 </r>
       <r>   -0.8563    1.0000 </r>
       <r>   -0.4946    1.0000 </r>
       <r>    0.0545    0.6585 </r>
       <r>    0.8967    0.0000 </r>
       <r>    1.0892    0.0000 </r>
       <r>    1.4717    0.0000 </r>
       <r>    1.6152    0.0000 </r>
       <r>    1.8137    0.0000 </r>
       <r>    1.8530    0.0000 </r>
       <r>    1.9876    0.0000 </r>
       <r>    2.1158    0.0000 </r>
       <r>    2.2639    0.0000 </r>
       <r>    2.4309    0.0000 </r>
       <r>    2.5546    0.0000 </r>
       <r>    2.6901    0.0000 </r>
       <r>    2.7638    0.0000 </r>
       <r>    2.9441    0.0000 </r>
      </set>
      <set comment="kpoint 10">
       <r>  -15.0956    1.0000 </r>
       <r>  -13.1760    1.0000 </r>
       <r>  -12.8514    1.0000 </r>
       <r>  -12.7827    1.0000 </r>
       <r>  -12.2610    1.0000 </r>
       <r>  -12.2094    1.0000 </r>
       <r>  -11.8822    1.0000 </r>
       <r>  -11.5357    1.0000 </r>
       <r>  -11.3206    1.0000 </r>
       <r>  -11.2604    1.0000 </r>
       <r>  -10.7779    1.0000 </r>
       <r>   -9.7689    1.0000 </r>
       <r>   -9.1966    1.0000 </r>
       <r>   -8.6041    1.0000 </r>
       <r>   -7.4945    1.0000 </r>
       <r>   -7.2693    1.0000 </r>
       <r>   -6.8862    1.0000 </r>
       <r>   -6.6201    1.0000 </r>
       <r>   -6.4697    1.0000 </r>
       <r>   -6.3405    1.0000 </r>
       <r>   -5.7212    1.0000 </r>
       <r>   -5.6133    1.0000 </r>
       <r>   -5.1191    1.0000 </r>
       <r>   -4.9836    1.0000 </r>
       <r>   -4.8019    1.0000 </r>
       <r>   -4.3460    1.0000 </r>
       <r>   -4.2633    1.0000 </r>
       <r>   -4.1827    1.0000 </r>
       <r>   -4.0595    1.0000 </r>
       <r>   -3.9353    1.0000 </r>
       <r>   -3.7729    1.0000 </r>
       <r>   -3.6009    1.0000 </r>
       <r>   -3.3913    1.0000 </r>
       <r>   -3.2222    1.0000 </r>
       <r>   -3.0927    1.0000 </r>
       <r>   -3.0381    1.0000 </r>
       <r>   -2.9257    1.0000 </r>
       <r>   -2.8314    1.0000 </r>
       <r>   -2.7864    1.0000 </r>
       <r>   -2.6410    1.0000 </r>
       <r>   -2.5591    1.0000 </r>
       <r>   -2.3770    1.0000 </r>
       <r>   -2.2865    1.0000 </r>
       <r>   -2.0169    1.0000 </r>
       <r>   -1.9290    1.0000 </r>
       <r>   -1.8543    1.0000 </r>
       <r>   -1.6929    1.0000 </r>
       <r>   -1.4475    1.0000 </r>
       <r>   -1.2020    1.0000 </r>
       <r>   -1.0736    1.0000 </r>
       <r>   -0.8873    1.0000 </r>
       <r>   -0.7188    1.0000 </r>
       <r>   -0.2676    1.0000 </r>
       <r>    0.0657    0.5987 </r>
       <r>    0.4668    0.0000 </r>
       <r>    1.0265    0.0000 </r>
       <r>    1.4457    0.0000 </r>
       <r>    1.6591    0.0000 </r>
       <r>    1.8503    0.0000 </r>
       <r>    2.1455    0.0000 </r>
       <r>    2.3858    0.0000 </r>
       <r>    2.4847    0.0000 </r>
       <r>    2.7270    0.0000 </r>
       <r>    2.8109    0.0000 </r>
       <r>    2.8913    0.0000 </r>
       <r>    3.0466    0.0000 </r>
       <r>    3.0982    0.0000 </r>
       <r>    3.1344    0.0000 </r>
      </set>
      <set comment="kpoint 11">
       <r>  -14.8477    1.0000 </r>
       <r>  -12.8646    1.0000 </r>
       <r>  -12.5927    1.0000 </r>
       <r>  -12.5313    1.0000 </r>
       <r>  -11.9914    1.0000 </r>
       <r>  -11.9426    1.0000 </r>
       <r>  -11.6431    1.0000 </r>
       <r>  -11.2597    1.0000 </r>
       <r>  -11.0865    1.0000 </r>
       <r>  -11.0384    1.0000 </r>
       <r>  -10.5606    1.0000 </r>
       <r>   -9.7472    1.0000 </r>
       <r>   -9.2728    1.0000 </r>
       <r>   -8.7353    1.0000 </r>
       <r>   -7.4033    1.0000 </r>
       <r>   -7.3516    1.0000 </r>
       <r>   -7.2430    1.0000 </r>
       <r>   -6.6618    1.0000 </r>
       <r>   -6.6191    1.0000 </r>
       <r>   -6.5842    1.0000 </r>
       <r>   -5.9792    1.0000 </r>
       <r>   -5.7847    1.0000 </r>
       <r>   -5.4937    1.0000 </r>
       <r>   -5.2885    1.0000 </r>
       <r>   -5.1707    1.0000 </r>
       <r>   -4.9908    1.0000 </r>
       <r>   -4.6678    1.0000 </r>
       <r>   -4.6243    1.0000 </r>
       <r>   -4.5195    1.0000 </r>
       <r>   -4.3238    1.0000 </r>
       <r>   -4.1794    1.0000 </r>
       <r>   -3.9861    1.0000 </r>
       <r>   -3.7167    1.0000 </r>
       <r>   -3.6406    1.0000 </r>
       <r>   -3.3607    1.0000 </r>
       <r>   -3.1770    1.0000 </r>
       <r>   -3.1302    1.0000 </r>
       <r>   -3.0573    1.0000 </r>
       <r>   -2.8900    1.0000 </r>
       <r>   -2.6984    1.0000 </r>
       <r>   -2.5567    1.0000 </r>
       <r>   -2.4964    1.0000 </r>
       <r>   -2.4869    1.0000 </r>
       <r>   -2.0860    1.0000 </r>
       <r>   -1.9714    1.0000 </r>
       <r>   -1.9061    1.0000 </r>
       <r>   -1.8115    1.0000 </r>
       <r>   -1.7249    1.0000 </r>
       <r>   -1.3683    1.0000 </r>
       <r>   -1.2441    1.0000 </r>
       <r>   -1.0204    1.0000 </r>
       <r>   -0.8282    1.0000 </r>
       <r>   -0.3334    1.0000 </r>
       <r>   -0.0921    0.9935 </r>
       <r>    0.3445    0.0001 </r>
       <r>    0.8636    0.0000 </r>
       <r>    1.2234    0.0000 </r>
       <r>    1.4241    0.0000 </r>
       <r>    1.5598    0.0000 </r>
       <r>    1.6573    0.0000 </r>
       <r>    2.2430    0.0000 </r>
       <r>    2.3980    0.0000 </r>
       <r>    2.5864    0.0000 </r>
       <r>    2.7431    0.0000 </r>
       <r>    2.8385    0.0000 </r>
       <r>    2.9983    0.0000 </r>
       <r>    3.0975    0.0000 </r>
       <r>    3.1614    0.0000 </r>
      </set>
      <set comment="kpoint 12">
       <r>  -14.5307    1.0000 </r>
       <r>  -12.4481    1.0000 </r>
       <r>  -12.2533    1.0000 </r>
       <r>  -12.1723    1.0000 </r>
       <r>  -11.6611    1.0000 </r>
       <r>  -11.5999    1.0000 </r>
       <r>  -11.3367    1.0000 </r>
       <r>  -10.9470    1.0000 </r>
       <r>  -10.8069    1.0000 </r>
       <r>  -10.7744    1.0000 </r>
       <r>  -10.3551    1.0000 </r>
       <r>   -9.9296    1.0000 </r>
       <r>   -9.3204    1.0000 </r>
       <r>   -8.9344    1.0000 </r>
       <r>   -7.8185    1.0000 </r>
       <r>   -7.6715    1.0000 </r>
       <r>   -7.4398    1.0000 </r>
       <r>   -7.0760    1.0000 </r>
       <r>   -6.9268    1.0000 </r>
       <r>   -6.7122    1.0000 </r>
       <r>   -6.3631    1.0000 </r>
       <r>   -6.1546    1.0000 </r>
       <r>   -6.0478    1.0000 </r>
       <r>   -5.8804    1.0000 </r>
       <r>   -5.6604    1.0000 </r>
       <r>   -5.3443    1.0000 </r>
       <r>   -4.9437    1.0000 </r>
       <r>   -4.9010    1.0000 </r>
       <r>   -4.4521    1.0000 </r>
       <r>   -4.3734    1.0000 </r>
       <r>   -4.2937    1.0000 </r>
       <r>   -4.1499    1.0000 </r>
       <r>   -3.9764    1.0000 </r>
       <r>   -3.8444    1.0000 </r>
       <r>   -3.3937    1.0000 </r>
       <r>   -3.3006    1.0000 </r>
       <r>   -3.0455    1.0000 </r>
       <r>   -2.9659    1.0000 </r>
       <r>   -2.9454    1.0000 </r>
       <r>   -2.8240    1.0000 </r>
       <r>   -2.6859    1.0000 </r>
       <r>   -2.5398    1.0000 </r>
       <r>   -2.4173    1.0000 </r>
       <r>   -2.2719    1.0000 </r>
       <r>   -2.2086    1.0000 </r>
       <r>   -2.0416    1.0000 </r>
       <r>   -1.9231    1.0000 </r>
       <r>   -1.8428    1.0000 </r>
       <r>   -1.7114    1.0000 </r>
       <r>   -1.4277    1.0000 </r>
       <r>   -1.2880    1.0000 </r>
       <r>   -1.0056    1.0000 </r>
       <r>   -0.6292    1.0000 </r>
       <r>   -0.3609    1.0000 </r>
       <r>    0.2656    0.0050 </r>
       <r>    0.6069    0.0000 </r>
       <r>    0.9525    0.0000 </r>
       <r>    1.1771    0.0000 </r>
       <r>    1.2740    0.0000 </r>
       <r>    1.3544    0.0000 </r>
       <r>    2.1982    0.0000 </r>
       <r>    2.2071    0.0000 </r>
       <r>    2.3384    0.0000 </r>
       <r>    2.4655    0.0000 </r>
       <r>    2.6285    0.0000 </r>
       <r>    2.7202    0.0000 </r>
       <r>    2.8587    0.0000 </r>
       <r>    3.0060    0.0000 </r>
      </set>
      <set comment="kpoint 13">
       <r>  -14.1966    1.0000 </r>
       <r>  -11.9471    1.0000 </r>
       <r>  -11.9053    1.0000 </r>
       <r>  -11.7222    1.0000 </r>
       <r>  -11.3541    1.0000 </r>
       <r>  -11.2112    1.0000 </r>
       <r>  -11.0210    1.0000 </r>
       <r>  -10.6898    1.0000 </r>
       <r>  -10.5957    1.0000 </r>
       <r>  -10.5637    1.0000 </r>
       <r>  -10.4316    1.0000 </r>
       <r>  -10.1472    1.0000 </r>
       <r>   -9.3755    1.0000 </r>
       <r>   -8.9243    1.0000 </r>
       <r>   -8.2918    1.0000 </r>
       <r>   -8.0756    1.0000 </r>
       <r>   -7.7741    1.0000 </r>
       <r>   -7.7413    1.0000 </r>
       <r>   -7.3215    1.0000 </r>
       <r>   -7.0521    1.0000 </r>
       <r>   -6.7847    1.0000 </r>
       <r>   -6.6576    1.0000 </r>
       <r>   -6.6214    1.0000 </r>
       <r>   -6.2569    1.0000 </r>
       <r>   -5.7269    1.0000 </r>
       <r>   -5.3087    1.0000 </r>
       <r>   -4.9667    1.0000 </r>
       <r>   -4.7475    1.0000 </r>
       <r>   -4.5152    1.0000 </r>
       <r>   -4.3635    1.0000 </r>
       <r>   -4.0876    1.0000 </r>
       <r>   -4.0698    1.0000 </r>
       <r>   -3.8380    1.0000 </r>
       <r>   -3.8183    1.0000 </r>
       <r>   -3.4096    1.0000 </r>
       <r>   -3.3174    1.0000 </r>
       <r>   -3.2553    1.0000 </r>
       <r>   -3.1441    1.0000 </r>
       <r>   -3.0867    1.0000 </r>
       <r>   -2.9397    1.0000 </r>
       <r>   -2.8328    1.0000 </r>
       <r>   -2.6815    1.0000 </r>
       <r>   -2.5966    1.0000 </r>
       <r>   -2.4385    1.0000 </r>
       <r>   -2.2592    1.0000 </r>
       <r>   -2.1360    1.0000 </r>
       <r>   -2.0343    1.0000 </r>
       <r>   -2.0031    1.0000 </r>
       <r>   -1.8150    1.0000 </r>
       <r>   -1.4946    1.0000 </r>
       <r>   -1.4261    1.0000 </r>
       <r>   -1.3419    1.0000 </r>
       <r>   -0.7648    1.0000 </r>
       <r>   -0.4582    1.0000 </r>
       <r>    0.1111    0.3476 </r>
       <r>    0.3578    0.0001 </r>
       <r>    0.8250    0.0000 </r>
       <r>    0.9704    0.0000 </r>
       <r>    1.2333    0.0000 </r>
       <r>    1.3744    0.0000 </r>
       <r>    1.8557    0.0000 </r>
       <r>    1.9763    0.0000 </r>
       <r>    2.1062    0.0000 </r>
       <r>    2.2306    0.0000 </r>
       <r>    2.3862    0.0000 </r>
       <r>    2.6059    0.0000 </r>
       <r>    2.6915    0.0000 </r>
       <r>    2.7169    0.0000 </r>
      </set>
      <set comment="kpoint 14">
       <r>  -13.9559    1.0000 </r>
       <r>  -11.7509    1.0000 </r>
       <r>  -11.3943    1.0000 </r>
       <r>  -11.2272    1.0000 </r>
       <r>  -11.0745    1.0000 </r>
       <r>  -10.9233    1.0000 </r>
       <r>  -10.8309    1.0000 </r>
       <r>  -10.8017    1.0000 </r>
       <r>  -10.6645    1.0000 </r>
       <r>  -10.6620    1.0000 </r>
       <r>  -10.5430    1.0000 </r>
       <r>  -10.0218    1.0000 </r>
       <r>   -9.5678    1.0000 </r>
       <r>   -8.5735    1.0000 </r>
       <r>   -8.5175    1.0000 </r>
       <r>   -8.3630    1.0000 </r>
       <r>   -8.2920    1.0000 </r>
       <r>   -7.9023    1.0000 </r>
       <r>   -7.5563    1.0000 </r>
       <r>   -7.4802    1.0000 </r>
       <r>   -7.2797    1.0000 </r>
       <r>   -7.1304    1.0000 </r>
       <r>   -7.0967    1.0000 </r>
       <r>   -6.0583    1.0000 </r>
       <r>   -5.5805    1.0000 </r>
       <r>   -5.0666    1.0000 </r>
       <r>   -4.9812    1.0000 </r>
       <r>   -4.4357    1.0000 </r>
       <r>   -4.3980    1.0000 </r>
       <r>   -4.2173    1.0000 </r>
       <r>   -4.1131    1.0000 </r>
       <r>   -4.0791    1.0000 </r>
       <r>   -3.8943    1.0000 </r>
       <r>   -3.6799    1.0000 </r>
       <r>   -3.6248    1.0000 </r>
       <r>   -3.5041    1.0000 </r>
       <r>   -3.4359    1.0000 </r>
       <r>   -3.3482    1.0000 </r>
       <r>   -3.2202    1.0000 </r>
       <r>   -3.0037    1.0000 </r>
       <r>   -2.9467    1.0000 </r>
       <r>   -2.7478    1.0000 </r>
       <r>   -2.5984    1.0000 </r>
       <r>   -2.5649    1.0000 </r>
       <r>   -2.5067    1.0000 </r>
       <r>   -2.1304    1.0000 </r>
       <r>   -2.0827    1.0000 </r>
       <r>   -1.9746    1.0000 </r>
       <r>   -1.6693    1.0000 </r>
       <r>   -1.6577    1.0000 </r>
       <r>   -1.5105    1.0000 </r>
       <r>   -1.3574    1.0000 </r>
       <r>   -0.9204    1.0000 </r>
       <r>   -0.4503    1.0000 </r>
       <r>    0.0545    0.6584 </r>
       <r>    0.2305    0.0188 </r>
       <r>    0.7937    0.0000 </r>
       <r>    0.9455    0.0000 </r>
       <r>    1.4556    0.0000 </r>
       <r>    1.5378    0.0000 </r>
       <r>    1.5996    0.0000 </r>
       <r>    1.7618    0.0000 </r>
       <r>    1.9890    0.0000 </r>
       <r>    2.1784    0.0000 </r>
       <r>    2.2920    0.0000 </r>
       <r>    2.4598    0.0000 </r>
       <r>    2.5064    0.0000 </r>
       <r>    2.5814    0.0000 </r>
      </set>
      <set comment="kpoint 15">
       <r>  -13.9563    1.0000 </r>
       <r>  -11.7491    1.0000 </r>
       <r>  -11.4986    1.0000 </r>
       <r>  -11.0639    1.0000 </r>
       <r>  -11.0346    1.0000 </r>
       <r>  -10.8975    1.0000 </r>
       <r>  -10.8092    1.0000 </r>
       <r>  -10.7708    1.0000 </r>
       <r>  -10.7211    1.0000 </r>
       <r>  -10.6658    1.0000 </r>
       <r>  -10.6624    1.0000 </r>
       <r>  -10.0443    1.0000 </r>
       <r>   -9.5708    1.0000 </r>
       <r>   -8.7202    1.0000 </r>
       <r>   -8.5484    1.0000 </r>
       <r>   -8.3973    1.0000 </r>
       <r>   -7.9079    1.0000 </r>
       <r>   -7.8696    1.0000 </r>
       <r>   -7.5963    1.0000 </r>
       <r>   -7.5670    1.0000 </r>
       <r>   -7.2439    1.0000 </r>
       <r>   -7.1882    1.0000 </r>
       <r>   -7.1339    1.0000 </r>
       <r>   -6.0951    1.0000 </r>
       <r>   -5.4657    1.0000 </r>
       <r>   -4.9891    1.0000 </r>
       <r>   -4.7003    1.0000 </r>
       <r>   -4.5428    1.0000 </r>
       <r>   -4.4614    1.0000 </r>
       <r>   -4.3345    1.0000 </r>
       <r>   -4.1163    1.0000 </r>
       <r>   -3.9837    1.0000 </r>
       <r>   -3.9618    1.0000 </r>
       <r>   -3.8796    1.0000 </r>
       <r>   -3.8419    1.0000 </r>
       <r>   -3.6347    1.0000 </r>
       <r>   -3.5159    1.0000 </r>
       <r>   -3.3211    1.0000 </r>
       <r>   -3.2143    1.0000 </r>
       <r>   -2.9834    1.0000 </r>
       <r>   -2.7769    1.0000 </r>
       <r>   -2.6784    1.0000 </r>
       <r>   -2.6295    1.0000 </r>
       <r>   -2.5805    1.0000 </r>
       <r>   -2.3396    1.0000 </r>
       <r>   -2.1342    1.0000 </r>
       <r>   -2.0999    1.0000 </r>
       <r>   -1.9694    1.0000 </r>
       <r>   -1.7340    1.0000 </r>
       <r>   -1.6623    1.0000 </r>
       <r>   -1.4695    1.0000 </r>
       <r>   -1.3437    1.0000 </r>
       <r>   -0.9011    1.0000 </r>
       <r>   -0.4237    1.0000 </r>
       <r>    0.0431    0.7156 </r>
       <r>    0.3154    0.0005 </r>
       <r>    0.8340    0.0000 </r>
       <r>    1.0745    0.0000 </r>
       <r>    1.3984    0.0000 </r>
       <r>    1.6782    0.0000 </r>
       <r>    1.7618    0.0000 </r>
       <r>    1.8140    0.0000 </r>
       <r>    2.0599    0.0000 </r>
       <r>    2.2768    0.0000 </r>
       <r>    2.3703    0.0000 </r>
       <r>    2.4037    0.0000 </r>
       <r>    2.5056    0.0000 </r>
       <r>    2.5910    0.0000 </r>
      </set>
      <set comment="kpoint 16">
       <r>  -14.1976    1.0000 </r>
       <r>  -12.0659    1.0000 </r>
       <r>  -11.8686    1.0000 </r>
       <r>  -11.4504    1.0000 </r>
       <r>  -11.4415    1.0000 </r>
       <r>  -11.2089    1.0000 </r>
       <r>  -10.9228    1.0000 </r>
       <r>  -10.8851    1.0000 </r>
       <r>  -10.6760    1.0000 </r>
       <r>  -10.5925    1.0000 </r>
       <r>  -10.4142    1.0000 </r>
       <r>  -10.1375    1.0000 </r>
       <r>   -9.3730    1.0000 </r>
       <r>   -8.7057    1.0000 </r>
       <r>   -8.4548    1.0000 </r>
       <r>   -8.3046    1.0000 </r>
       <r>   -7.7046    1.0000 </r>
       <r>   -7.4035    1.0000 </r>
       <r>   -7.2931    1.0000 </r>
       <r>   -7.1024    1.0000 </r>
       <r>   -6.8554    1.0000 </r>
       <r>   -6.7721    1.0000 </r>
       <r>   -6.6269    1.0000 </r>
       <r>   -6.2309    1.0000 </r>
       <r>   -5.5053    1.0000 </r>
       <r>   -5.0378    1.0000 </r>
       <r>   -4.9191    1.0000 </r>
       <r>   -4.7932    1.0000 </r>
       <r>   -4.5222    1.0000 </r>
       <r>   -4.3797    1.0000 </r>
       <r>   -4.2802    1.0000 </r>
       <r>   -4.2084    1.0000 </r>
       <r>   -4.0518    1.0000 </r>
       <r>   -3.8531    1.0000 </r>
       <r>   -3.6883    1.0000 </r>
       <r>   -3.3954    1.0000 </r>
       <r>   -3.3643    1.0000 </r>
       <r>   -3.1910    1.0000 </r>
       <r>   -3.0931    1.0000 </r>
       <r>   -3.0070    1.0000 </r>
       <r>   -2.7781    1.0000 </r>
       <r>   -2.6478    1.0000 </r>
       <r>   -2.4516    1.0000 </r>
       <r>   -2.3432    1.0000 </r>
       <r>   -2.2101    1.0000 </r>
       <r>   -2.1349    1.0000 </r>
       <r>   -1.9516    1.0000 </r>
       <r>   -1.9022    1.0000 </r>
       <r>   -1.7783    1.0000 </r>
       <r>   -1.5720    1.0000 </r>
       <r>   -1.4364    1.0000 </r>
       <r>   -1.3337    1.0000 </r>
       <r>   -0.7189    1.0000 </r>
       <r>   -0.3795    1.0000 </r>
       <r>    0.0988    0.4137 </r>
       <r>    0.4969    0.0000 </r>
       <r>    1.0228    0.0000 </r>
       <r>    1.1980    0.0000 </r>
       <r>    1.4152    0.0000 </r>
       <r>    1.8100    0.0000 </r>
       <r>    1.9318    0.0000 </r>
       <r>    2.0997    0.0000 </r>
       <r>    2.2071    0.0000 </r>
       <r>    2.3051    0.0000 </r>
       <r>    2.4251    0.0000 </r>
       <r>    2.4934    0.0000 </r>
       <r>    2.5999    0.0000 </r>
       <r>    2.6472    0.0000 </r>
      </set>
      <set comment="kpoint 17">
       <r>  -14.5320    1.0000 </r>
       <r>  -12.5598    1.0000 </r>
       <r>  -12.1855    1.0000 </r>
       <r>  -11.9110    1.0000 </r>
       <r>  -11.8009    1.0000 </r>
       <r>  -11.6080    1.0000 </r>
       <r>  -11.2478    1.0000 </r>
       <r>  -11.1861    1.0000 </r>
       <r>  -10.8545    1.0000 </r>
       <r>  -10.7360    1.0000 </r>
       <r>  -10.3847    1.0000 </r>
       <r>   -9.9399    1.0000 </r>
       <r>   -9.2626    1.0000 </r>
       <r>   -8.5187    1.0000 </r>
       <r>   -8.1510    1.0000 </r>
       <r>   -7.9505    1.0000 </r>
       <r>   -7.2869    1.0000 </r>
       <r>   -6.9641    1.0000 </r>
       <r>   -6.8354    1.0000 </r>
       <r>   -6.7558    1.0000 </r>
       <r>   -6.4423    1.0000 </r>
       <r>   -6.1188    1.0000 </r>
       <r>   -5.9621    1.0000 </r>
       <r>   -5.9276    1.0000 </r>
       <r>   -5.5211    1.0000 </r>
       <r>   -5.1168    1.0000 </r>
       <r>   -4.9527    1.0000 </r>
       <r>   -4.8286    1.0000 </r>
       <r>   -4.6482    1.0000 </r>
       <r>   -4.5981    1.0000 </r>
       <r>   -4.2927    1.0000 </r>
       <r>   -4.2165    1.0000 </r>
       <r>   -4.1655    1.0000 </r>
       <r>   -3.7627    1.0000 </r>
       <r>   -3.4288    1.0000 </r>
       <r>   -3.3148    1.0000 </r>
       <r>   -3.1672    1.0000 </r>
       <r>   -3.0464    1.0000 </r>
       <r>   -2.9767    1.0000 </r>
       <r>   -2.8305    1.0000 </r>
       <r>   -2.7846    1.0000 </r>
       <r>   -2.6181    1.0000 </r>
       <r>   -2.4555    1.0000 </r>
       <r>   -2.1885    1.0000 </r>
       <r>   -1.9935    1.0000 </r>
       <r>   -1.9698    1.0000 </r>
       <r>   -1.8281    1.0000 </r>
       <r>   -1.8227    1.0000 </r>
       <r>   -1.6718    1.0000 </r>
       <r>   -1.4130    1.0000 </r>
       <r>   -1.2889    1.0000 </r>
       <r>   -1.1426    1.0000 </r>
       <r>   -0.5575    1.0000 </r>
       <r>   -0.3057    1.0000 </r>
       <r>    0.2500    0.0092 </r>
       <r>    0.6749    0.0000 </r>
       <r>    1.2839    0.0000 </r>
       <r>    1.3886    0.0000 </r>
       <r>    1.6743    0.0000 </r>
       <r>    1.9289    0.0000 </r>
       <r>    2.0263    0.0000 </r>
       <r>    2.2783    0.0000 </r>
       <r>    2.3702    0.0000 </r>
       <r>    2.4068    0.0000 </r>
       <r>    2.6261    0.0000 </r>
       <r>    2.7007    0.0000 </r>
       <r>    2.8005    0.0000 </r>
       <r>    2.9094    0.0000 </r>
      </set>
      <set comment="kpoint 18">
       <r>  -14.8490    1.0000 </r>
       <r>  -12.9551    1.0000 </r>
       <r>  -12.5287    1.0000 </r>
       <r>  -12.3154    1.0000 </r>
       <r>  -12.1115    1.0000 </r>
       <r>  -11.9595    1.0000 </r>
       <r>  -11.5769    1.0000 </r>
       <r>  -11.4863    1.0000 </r>
       <r>  -11.1039    1.0000 </r>
       <r>  -10.9923    1.0000 </r>
       <r>  -10.5630    1.0000 </r>
       <r>   -9.8013    1.0000 </r>
       <r>   -9.1618    1.0000 </r>
       <r>   -8.3630    1.0000 </r>
       <r>   -7.7463    1.0000 </r>
       <r>   -7.6453    1.0000 </r>
       <r>   -6.9458    1.0000 </r>
       <r>   -6.6537    1.0000 </r>
       <r>   -6.6112    1.0000 </r>
       <r>   -6.5813    1.0000 </r>
       <r>   -6.0966    1.0000 </r>
       <r>   -5.7034    1.0000 </r>
       <r>   -5.5378    1.0000 </r>
       <r>   -5.2975    1.0000 </r>
       <r>   -5.1965    1.0000 </r>
       <r>   -4.8006    1.0000 </r>
       <r>   -4.7204    1.0000 </r>
       <r>   -4.5612    1.0000 </r>
       <r>   -4.4812    1.0000 </r>
       <r>   -4.4026    1.0000 </r>
       <r>   -4.1497    1.0000 </r>
       <r>   -4.0289    1.0000 </r>
       <r>   -3.7562    1.0000 </r>
       <r>   -3.7130    1.0000 </r>
       <r>   -3.4151    1.0000 </r>
       <r>   -3.3266    1.0000 </r>
       <r>   -3.2103    1.0000 </r>
       <r>   -2.9651    1.0000 </r>
       <r>   -2.8963    1.0000 </r>
       <r>   -2.7056    1.0000 </r>
       <r>   -2.5531    1.0000 </r>
       <r>   -2.5159    1.0000 </r>
       <r>   -2.3957    1.0000 </r>
       <r>   -2.0699    1.0000 </r>
       <r>   -1.8752    1.0000 </r>
       <r>   -1.8072    1.0000 </r>
       <r>   -1.7442    1.0000 </r>
       <r>   -1.6956    1.0000 </r>
       <r>   -1.4472    1.0000 </r>
       <r>   -1.3358    1.0000 </r>
       <r>   -1.0663    1.0000 </r>
[...]
       <r>    2.7576    0.0000 </r>
      </set>
      <set comment="kpoint 54">
       <r>  -13.9561    1.0000 </r>
       <r>  -11.7476    1.0000 </r>
       <r>  -11.4536    1.0000 </r>
       <r>  -11.1329    1.0000 </r>
       <r>  -11.0823    1.0000 </r>
       <r>  -10.9138    1.0000 </r>
       <r>  -10.8139    1.0000 </r>
       <r>  -10.7812    1.0000 </r>
       <r>  -10.6872    1.0000 </r>
       <r>  -10.6775    1.0000 </r>
       <r>  -10.5838    1.0000 </r>
       <r>  -10.0364    1.0000 </r>
       <r>   -9.5695    1.0000 </r>
       <r>   -8.6286    1.0000 </r>
       <r>   -8.5283    1.0000 </r>
       <r>   -8.4039    1.0000 </r>
       <r>   -8.0827    1.0000 </r>
       <r>   -7.8995    1.0000 </r>
       <r>   -7.5835    1.0000 </r>
       <r>   -7.5238    1.0000 </r>
       <r>   -7.2549    1.0000 </r>
       <r>   -7.1506    1.0000 </r>
       <r>   -7.1225    1.0000 </r>
       <r>   -6.1029    1.0000 </r>
       <r>   -5.5660    1.0000 </r>
       <r>   -4.9484    1.0000 </r>
       <r>   -4.9048    1.0000 </r>
       <r>   -4.4687    1.0000 </r>
       <r>   -4.4383    1.0000 </r>
       <r>   -4.2624    1.0000 </r>
       <r>   -4.1180    1.0000 </r>
       <r>   -4.0190    1.0000 </r>
       <r>   -3.9126    1.0000 </r>
       <r>   -3.7597    1.0000 </r>
       <r>   -3.7317    1.0000 </r>
       <r>   -3.5636    1.0000 </r>
       <r>   -3.4743    1.0000 </r>
       <r>   -3.2765    1.0000 </r>
       <r>   -3.2219    1.0000 </r>
       <r>   -2.9986    1.0000 </r>
       <r>   -2.8979    1.0000 </r>
       <r>   -2.7570    1.0000 </r>
       <r>   -2.6447    1.0000 </r>
       <r>   -2.4830    1.0000 </r>
       <r>   -2.3348    1.0000 </r>
       <r>   -2.1671    1.0000 </r>
       <r>   -2.0889    1.0000 </r>
       <r>   -1.9964    1.0000 </r>
       <r>   -1.7921    1.0000 </r>
       <r>   -1.6798    1.0000 </r>
       <r>   -1.4907    1.0000 </r>
       <r>   -1.3266    1.0000 </r>
       <r>   -0.8733    1.0000 </r>
       <r>   -0.4543    1.0000 </r>
       <r>    0.0660    0.5974 </r>
       <r>    0.1710    0.1077 </r>
       <r>    0.7610    0.0000 </r>
       <r>    0.9397    0.0000 </r>
       <r>    1.3889    0.0000 </r>
       <r>    1.6026    0.0000 </r>
       <r>    1.6651    0.0000 </r>
       <r>    1.8769    0.0000 </r>
       <r>    2.0489    0.0000 </r>
       <r>    2.0948    0.0000 </r>
       <r>    2.3822    0.0000 </r>
       <r>    2.4881    0.0000 </r>
       <r>    2.5080    0.0000 </r>
       <r>    2.5889    0.0000 </r>
      </set>
     </set>
    </set>
   </array>
  </eigenvalues>
  <separator name="orbital magnetization" >
   <v name="MAGDIPOLOUT">      0.00000000      0.00000000      0.00000000</v>
  </separator>
  <dos>
   <i name="efermi">      0.08339398 </i>
   <total>
    <array>
     <dimension dim="1">gridpoints</dimension>
     <dimension dim="2">spin</dimension>
     <field>energy</field>
     <field>total</field>
     <field>integrated</field>
     <set>
      <set comment="spin 1">
       <r>   -16.3055     0.0000     0.0000 </r>
       <r>   -16.2371     0.0000     0.0000 </r>
       <r>   -16.1687     0.0000     0.0000 </r>
       <r>   -16.1003     0.0000     0.0000 </r>
       <r>   -16.0319     0.0000     0.0000 </r>
       <r>   -15.9635     0.0000     0.0000 </r>
       <r>   -15.8951     0.0000     0.0000 </r>
       <r>   -15.8267     0.0000     0.0000 </r>
       <r>   -15.7583     0.0000     0.0000 </r>
       <r>   -15.6899     0.0000     0.0000 </r>
       <r>   -15.6215     0.0000     0.0000 </r>
       <r>   -15.5531     0.0005     0.0000 </r>
       <r>   -15.4847     0.0137     0.0010 </r>
       <r>   -15.4163     0.1574     0.0117 </r>
       <r>   -15.3479     0.8219     0.0680 </r>
       <r>   -15.2795     2.0172     0.2059 </r>
       <r>   -15.2111     2.4830     0.3758 </r>
       <r>   -15.1427     2.0983     0.5193 </r>
       <r>   -15.0743     1.9252     0.6510 </r>
       <r>   -15.0059     1.3321     0.7421 </r>
       <r>   -14.9375     0.8073     0.7973 </r>
       <r>   -14.8691     1.3160     0.8873 </r>
       <r>   -14.8007     1.6462     0.9999 </r>
       <r>   -14.7323     0.9094     1.0621 </r>
       <r>   -14.6639     0.3331     1.0849 </r>
       <r>   -14.5956     0.7013     1.1328 </r>
       <r>   -14.5272     1.5378     1.2380 </r>
       <r>   -14.4588     1.4584     1.3378 </r>
       <r>   -14.3904     0.5952     1.3785 </r>
       <r>   -14.3220     0.2570     1.3961 </r>
       <r>   -14.2536     0.7874     1.4499 </r>
       <r>   -14.1852     1.5985     1.5592 </r>
       <r>   -14.1168     1.4215     1.6565 </r>
       <r>   -14.0484     0.8758     1.7164 </r>
       <r>   -13.9800     1.2977     1.8051 </r>
       <r>   -13.9116     1.6590     1.9186 </r>
       <r>   -13.8432     0.9420     1.9830 </r>
       <r>   -13.7748     0.2250     1.9984 </r>
       <r>   -13.7064     0.0238     2.0000 </r>
       <r>   -13.6380     0.0244     2.0017 </r>
       <r>   -13.5696     0.1822     2.0142 </r>
       <r>   -13.5012     0.7257     2.0638 </r>
       <r>   -13.4328     1.5626     2.1707 </r>
       <r>   -13.3644     2.0085     2.3081 </r>
       <r>   -13.2960     1.9558     2.4418 </r>
       <r>   -13.2276     1.8841     2.5707 </r>
       <r>   -13.1592     1.9497     2.7040 </r>
       <r>   -13.0908     2.4223     2.8697 </r>
       <r>   -13.0224     3.3741     3.1005 </r>
       <r>   -12.9540     4.3664     3.3992 </r>
       <r>   -12.8856     4.9207     3.7357 </r>
       <r>   -12.8172     4.7230     4.0587 </r>
       <r>   -12.7489     3.5662     4.3027 </r>
       <r>   -12.6805     2.5275     4.4755 </r>
       <r>   -12.6121     3.3039     4.7015 </r>
       <r>   -12.5437     5.4271     5.0727 </r>
       <r>   -12.4753     6.5286     5.5192 </r>
       <r>   -12.4069     6.3364     5.9526 </r>
       <r>   -12.3385     5.8117     6.3501 </r>
       <r>   -12.2701     5.5869     6.7322 </r>
       <r>   -12.2017     5.9493     7.1391 </r>
       <r>   -12.1333     5.9651     7.5471 </r>
       <r>   -12.0649     6.0706     7.9623 </r>
       <r>   -11.9965     7.2295     8.4568 </r>
       <r>   -11.9281     8.4020     9.0315 </r>
       <r>   -11.8597     8.0770     9.5839 </r>
       <r>   -11.7913     7.1043    10.0698 </r>
       <r>   -11.7229     6.7170    10.5292 </r>
       <r>   -11.6545     6.7363    10.9900 </r>
       <r>   -11.5861     7.2395    11.4851 </r>
       <r>   -11.5177     8.3541    12.0565 </r>
       <r>   -11.4493     9.7038    12.7202 </r>
       <r>   -11.3809     9.6840    13.3826 </r>
       <r>   -11.3125     8.7574    13.9816 </r>
       <r>   -11.2441     8.3984    14.5560 </r>
       <r>   -11.1757     7.9585    15.1003 </r>
       <r>   -11.1073     7.5196    15.6146 </r>
       <r>   -11.0389     8.1394    16.1713 </r>
       <r>   -10.9705     9.0652    16.7914 </r>
       <r>   -10.9021     9.7479    17.4581 </r>
       <r>   -10.8338    10.4568    18.1733 </r>
       <r>   -10.7654    11.2194    18.9406 </r>
       <r>   -10.6970    10.8125    19.6802 </r>
       <r>   -10.6286     9.8823    20.3561 </r>
       <r>   -10.5602     8.4274    20.9325 </r>
       <r>   -10.4918     5.7066    21.3228 </r>
       <r>   -10.4234     3.8819    21.5883 </r>
       <r>   -10.3550     3.3391    21.8167 </r>
       <r>   -10.2866     2.0873    21.9595 </r>
       <r>   -10.2182     1.1730    22.0397 </r>
       <r>   -10.1498     1.7163    22.1571 </r>
       <r>   -10.0814     2.5417    22.3309 </r>
       <r>   -10.0130     3.0179    22.5373 </r>
       <r>    -9.9446     3.6742    22.7886 </r>
       <r>    -9.8762     4.7018    23.1102 </r>
       <r>    -9.8078     5.4411    23.4824 </r>
       <r>    -9.7394     4.6326    23.7992 </r>
       <r>    -9.6710     2.6049    23.9774 </r>
       <r>    -9.6026     1.6937    24.0932 </r>
       <r>    -9.5342     1.7981    24.2162 </r>
       <r>    -9.4658     1.5103    24.3195 </r>
       <r>    -9.3974     1.8788    24.4480 </r>
       <r>    -9.3290     3.1273    24.6619 </r>
       <r>    -9.2606     4.1878    24.9484 </r>
       <r>    -9.1922     5.0875    25.2963 </r>
       <r>    -9.1238     5.1917    25.6514 </r>
       <r>    -9.0554     3.5953    25.8973 </r>
       <r>    -8.9871     1.8421    26.0233 </r>
       <r>    -8.9187     1.6062    26.1332 </r>
       <r>    -8.8503     1.9747    26.2682 </r>
       <r>    -8.7819     2.4173    26.4336 </r>
       <r>    -8.7135     3.4772    26.6714 </r>
       <r>    -8.6451     4.3778    26.9708 </r>
       <r>    -8.5767     4.7113    27.2931 </r>
       <r>    -8.5083     4.6909    27.6139 </r>
       <r>    -8.4399     4.5397    27.9244 </r>
       <r>    -8.3715     5.0539    28.2701 </r>
       <r>    -8.3031     5.3264    28.6344 </r>
       <r>    -8.2347     4.0171    28.9091 </r>
       <r>    -8.1663     2.5861    29.0860 </r>
       <r>    -8.0979     2.5659    29.2615 </r>
       <r>    -8.0295     3.0378    29.4693 </r>
       <r>    -7.9611     3.3105    29.6957 </r>
       <r>    -7.8927     4.0546    29.9730 </r>
       <r>    -7.8243     4.8552    30.3051 </r>
       <r>    -7.7559     5.6889    30.6942 </r>
       <r>    -7.6875     6.4643    31.1363 </r>
       <r>    -7.6191     7.1491    31.6253 </r>
       <r>    -7.5507     8.1118    32.1801 </r>
       <r>    -7.4823     7.8744    32.7187 </r>
       <r>    -7.4139     7.0910    33.2037 </r>
       <r>    -7.3455     7.2278    33.6981 </r>
       <r>    -7.2771     7.6255    34.2196 </r>
       <r>    -7.2087     7.3092    34.7195 </r>
       <r>    -7.1403     6.8481    35.1879 </r>
       <r>    -7.0720     6.5752    35.6376 </r>
       <r>    -7.0036     5.5845    36.0196 </r>
       <r>    -6.9352     5.4986    36.3957 </r>
       <r>    -6.8668     7.4361    36.9043 </r>
       <r>    -6.7984     9.2594    37.5376 </r>
       <r>    -6.7300     9.8687    38.2126 </r>
       <r>    -6.6616    11.1434    38.9747 </r>
       <r>    -6.5932    11.7048    39.7753 </r>
       <r>    -6.5248     8.9629    40.3883 </r>
       <r>    -6.4564     5.9557    40.7957 </r>
       <r>    -6.3880     4.6506    41.1138 </r>
       <r>    -6.3196     4.3783    41.4132 </r>
       <r>    -6.2512     5.1452    41.7651 </r>
       <r>    -6.1828     6.1750    42.1875 </r>
       <r>    -6.1144     6.6718    42.6438 </r>
       <r>    -6.0460     6.3821    43.0803 </r>
       <r>    -5.9776     5.6976    43.4700 </r>
       <r>    -5.9092     5.0238    43.8136 </r>
       <r>    -5.8408     4.2941    44.1073 </r>
       <r>    -5.7724     4.6003    44.4220 </r>
       <r>    -5.7040     6.0755    44.8375 </r>
       <r>    -5.6356     7.2717    45.3349 </r>
       <r>    -5.5672     7.3785    45.8395 </r>
       <r>    -5.4988     6.6131    46.2919 </r>
       <r>    -5.4304     5.4716    46.6661 </r>
       <r>    -5.3620     5.1359    47.0174 </r>
       <r>    -5.2936     6.1422    47.4375 </r>
       <r>    -5.2252     6.7808    47.9013 </r>
       <r>    -5.1569     6.4095    48.3397 </r>
       <r>    -5.0885     5.7354    48.7319 </r>
       <r>    -5.0201     6.6152    49.1844 </r>
       <r>    -4.9517     9.4258    49.8291 </r>
       <r>    -4.8833    10.5183    50.5485 </r>
       <r>    -4.8149     9.3018    51.1847 </r>
       <r>    -4.7465     8.6013    51.7730 </r>
       <r>    -4.6781     8.8811    52.3804 </r>
       <r>    -4.6097     9.2199    53.0110 </r>
       <r>    -4.5413     9.6746    53.6728 </r>
       <r>    -4.4729    10.6549    54.4015 </r>
       <r>    -4.4045    11.1169    55.1619 </r>
       <r>    -4.3361    10.9066    55.9078 </r>
       <r>    -4.2677    11.2762    56.6791 </r>
       <r>    -4.1993    12.2943    57.5200 </r>
       <r>    -4.1309    13.1433    58.4189 </r>
       <r>    -4.0625    13.3521    59.3322 </r>
       <r>    -3.9941    13.1134    60.2291 </r>
       <r>    -3.9257    12.4995    61.0840 </r>
       <r>    -3.8573    11.6651    61.8818 </r>
       <r>    -3.7889    11.4108    62.6623 </r>
       <r>    -3.7205    11.7541    63.4662 </r>
       <r>    -3.6521    11.7344    64.2688 </r>
       <r>    -3.5837    11.0227    65.0227 </r>
       <r>    -3.5153    10.4946    65.7405 </r>
       <r>    -3.4469    11.4675    66.5249 </r>
       <r>    -3.3785    14.2155    67.4971 </r>
       <r>    -3.3102    15.9463    68.5878 </r>
       <r>    -3.2418    15.8145    69.6695 </r>
       <r>    -3.1734    15.4696    70.7275 </r>
       <r>    -3.1050    15.1304    71.7624 </r>
       <r>    -3.0366    16.1563    72.8674 </r>
       <r>    -2.9682    17.7518    74.0816 </r>
       <r>    -2.8998    17.4142    75.2727 </r>
       <r>    -2.8314    15.6864    76.3455 </r>
       <r>    -2.7630    15.0990    77.3783 </r>
       <r>    -2.6946    16.3694    78.4979 </r>
       <r>    -2.6262    17.6813    79.7072 </r>
       <r>    -2.5578    17.3948    80.8970 </r>
       <r>    -2.4894    16.7882    82.0452 </r>
       <r>    -2.4210    16.0122    83.1404 </r>
       <r>    -2.3526    14.0700    84.1027 </r>
       <r>    -2.2842    11.9586    84.9206 </r>
       <r>    -2.2158    11.8049    85.7281 </r>
       <r>    -2.1474    13.9008    86.6788 </r>
       <r>    -2.0790    15.9674    87.7709 </r>
       <r>    -2.0106    17.2949    88.9538 </r>
       <r>    -1.9422    18.8364    90.2422 </r>
       <r>    -1.8738    19.4029    91.5693 </r>
       <r>    -1.8054    18.3833    92.8266 </r>
       <r>    -1.7370    16.8595    93.9797 </r>
       <r>    -1.6686    15.5839    95.0456 </r>
       <r>    -1.6002    12.9603    95.9321 </r>
       <r>    -1.5318    10.3784    96.6419 </r>
       <r>    -1.4634    10.6714    97.3718 </r>
       <r>    -1.3951    12.9572    98.2580 </r>
       <r>    -1.3267    14.3454    99.2392 </r>
       <r>    -1.2583    12.5319   100.0963 </r>
       <r>    -1.1899     8.9157   100.7061 </r>
       <r>    -1.1215     7.3232   101.2070 </r>
       <r>    -1.0531     8.0602   101.7583 </r>
       <r>    -0.9847     8.6334   102.3488 </r>
       <r>    -0.9163     8.7879   102.9499 </r>
       <r>    -0.8479     8.6338   103.5404 </r>
       <r>    -0.7795     7.2308   104.0349 </r>
       <r>    -0.7111     5.3862   104.4033 </r>
       <r>    -0.6427     3.7034   104.6566 </r>
       <r>    -0.5743     3.6887   104.9089 </r>
       <r>    -0.5059     5.4854   105.2841 </r>
       <r>    -0.4375     6.8281   105.7511 </r>
       <r>    -0.3691     6.5262   106.1975 </r>
       <r>    -0.3007     5.1069   106.5468 </r>
       <r>    -0.2323     3.3777   106.7778 </r>
       <r>    -0.1639     2.4094   106.9426 </r>
       <r>    -0.0955     2.4170   107.1079 </r>
       <r>    -0.0271     3.4269   107.3423 </r>
       <r>     0.0413     5.4529   107.7153 </r>
       <r>     0.1097     6.7662   108.1781 </r>
       <r>     0.1781     5.8186   108.5760 </r>
       <r>     0.2465     4.5411   108.8866 </r>
       <r>     0.3149     4.5257   109.1962 </r>
       <r>     0.3833     4.6994   109.5176 </r>
       <r>     0.4517     4.3036   109.8119 </r>
       <r>     0.5200     3.4313   110.0466 </r>
       <r>     0.5884     2.4870   110.2167 </r>
       <r>     0.6568     2.4276   110.3828 </r>
       <r>     0.7252     2.9245   110.5828 </r>
       <r>     0.7936     3.8945   110.8492 </r>
       <r>     0.8620     5.6510   111.2357 </r>
       <r>     0.9304     6.6962   111.6937 </r>
       <r>     0.9988     6.4436   112.1344 </r>
       <r>     1.0672     6.6738   112.5909 </r>
       <r>     1.1356     7.1615   113.0807 </r>
       <r>     1.2040     6.6611   113.5363 </r>
       <r>     1.2724     6.1866   113.9594 </r>
       <r>     1.3408     6.8983   114.4312 </r>
       <r>     1.4092     8.8183   115.0344 </r>
       <r>     1.4776    10.1249   115.7269 </r>
       <r>     1.5460    10.6920   116.4582 </r>
       <r>     1.6144    11.2842   117.2300 </r>
       <r>     1.6828    10.6475   117.9582 </r>
       <r>     1.7512     9.7833   118.6274 </r>
       <r>     1.8196    10.9042   119.3732 </r>
       <r>     1.8880    11.5176   120.1609 </r>
       <r>     1.9564    10.0204   120.8463 </r>
       <r>     2.0248     9.5684   121.5007 </r>
       <r>     2.0932    10.6130   122.2266 </r>
       <r>     2.1616    11.5089   123.0138 </r>
       <r>     2.2300    13.0369   123.9055 </r>
       <r>     2.2984    14.9346   124.9269 </r>
       <r>     2.3667    15.5382   125.9897 </r>
       <r>     2.4351    15.4324   127.0452 </r>
       <r>     2.5035    15.2740   128.0899 </r>
       <r>     2.5719    15.3705   129.1412 </r>
       <r>     2.6403    15.6245   130.2098 </r>
       <r>     2.7087    15.8474   131.2938 </r>
       <r>     2.7771    15.3810   132.3458 </r>
       <r>     2.8455    13.3984   133.2622 </r>
       <r>     2.9139    10.6707   133.9920 </r>
       <r>     2.9823     8.6980   134.5869 </r>
       <r>     3.0507     7.7350   135.1159 </r>
       <r>     3.1191     6.2780   135.5453 </r>
       <r>     3.1875     4.0500   135.8223 </r>
       <r>     3.2559     1.9184   135.9536 </r>
       <r>     3.3243     0.5762   135.9930 </r>
       <r>     3.3927     0.0949   135.9995 </r>
       <r>     3.4611     0.0077   136.0000 </r>
       <r>     3.5295     0.0003   136.0000 </r>
       <r>     3.5979     0.0000   136.0000 </r>
       <r>     3.6663     0.0000   136.0000 </r>
       <r>     3.7347     0.0000   136.0000 </r>
       <r>     3.8031     0.0000   136.0000 </r>
       <r>     3.8715     0.0000   136.0000 </r>
       <r>     3.9399     0.0000   136.0000 </r>
       <r>     4.0083     0.0000   136.0000 </r>
       <r>     4.0767     0.0000   136.0000 </r>
       <r>     4.1451     0.0000   136.0000 </r>
       <r>     4.2135     0.0000   136.0000 </r>
      </set>
     </set>
    </array>
   </total>
  </dos>
 </calculation>
 <structure name="finalpos" >
  <crystal>
   <varray name="basis" >
    <v>       3.54040000       0.00000000       0.00000000 </v>
    <v>      -1.77020000      10.29434800       0.00000000 </v>
    <v>       0.00000000       0.00000000      27.50142900 </v>
   </varray>
   <i name="volume">   1002.32009712 </i>
   <varray name="rec_basis" >
    <v>       0.28245396       0.04857034       0.00000000 </v>
    <v>       0.00000000       0.09714068       0.00000000 </v>
    <v>       0.00000000       0.00000000       0.03636175 </v>
   </varray>
  </crystal>
  <varray name="positions" >
   <v>       0.11402300       0.22804500       0.23316207 </v>
   <v>       0.51402300       0.52804500       0.51499159 </v>
   <v>       0.45808900       0.91617900       0.20939482 </v>
   <v>       0.85808900       0.21617900       0.49122434 </v>
   <v>       0.31085400       0.62170900       0.08414979 </v>
   <v>       0.31085400       0.62170900       0.36597930 </v>
   <v>       0.99923000       0.99846000       0.08631254 </v>
   <v>       0.99923000       0.99846000       0.36814206 </v>
   <v>       0.65492700       0.30985400       0.06041748 </v>
   <v>       0.65492700       0.30985400       0.34224700 </v>
   <v>       0.76973800       0.53947500       0.20725292 </v>
   <v>       0.16973800       0.83947500       0.48908244 </v>
   <v>       0.93971600       0.87943300       0.15783749 </v>
   <v>       0.33971600       0.17943300       0.43966701 </v>
   <v>       0.20515200       0.41030300       0.18578822 </v>
   <v>       0.60515200       0.71030300       0.46761774 </v>
   <v>       0.20184900       0.40369900       0.09969156 </v>
   <v>       0.20184900       0.40369900       0.38152107 </v>
   <v>       0.56380500       0.12761000       0.10779021 </v>
   <v>       0.56380500       0.12761000       0.38961973 </v>
   <v>       0.56710600       0.13421200       0.19387616 </v>
   <v>       0.96710600       0.43421200       0.47570568 </v>
   <v>       0.82923400       0.65846800       0.13571444 </v>
   <v>       0.22923400       0.95846800       0.41754396 </v>
  </varray>
 </structure>
</modeling>
