  24  24   0   0
  0.4176334E+02  0.3540400E-09  0.1044544E-08  0.2750143E-08  0.5000000E-15
  1.000000000000000E-004
  CAR 
 unknown system                          
      4.18640861    -14.70740943  301     -0.02979539      1.00000000
    -14.707  0.0000E+00  0.0000E+00
    -14.644  0.0000E+00  0.0000E+00
    -14.581  0.0000E+00  0.0000E+00
    -14.518  0.0000E+00  0.0000E+00
    -14.455  0.0000E+00  0.0000E+00
    -14.393  0.0000E+00  0.0000E+00
    -14.330  0.0000E+00  0.0000E+00
    -14.267  0.8814E-15  0.5551E-16
    -14.204  0.7933E-12  0.5002E-13
    -14.141  0.3346E-09  0.2112E-10
    -14.078  0.6675E-07  0.4225E-08
    -14.015  0.6395E-05  0.4070E-06
    -13.952  0.2996E-03  0.1928E-04
    -13.889  0.7017E-02  0.4612E-03
    -13.826  0.8422E-01  0.5765E-02
    -13.763  0.5325E+00  0.3930E-01
    -13.700  0.1837E+01  0.1550E+00
    -13.637  0.3660E+01  0.3855E+00
    -13.574  0.4703E+01  0.6816E+00
    -13.511  0.4565E+01  0.9691E+00
    -13.448  0.3887E+01  0.1214E+01
    -13.385  0.3537E+01  0.1437E+01
    -13.322  0.3512E+01  0.1658E+01
    -13.259  0.3034E+01  0.1849E+01
    -13.196  0.2895E+01  0.2031E+01
    -13.133  0.3897E+01  0.2277E+01
    -13.070  0.5004E+01  0.2592E+01
    -13.007  0.5861E+01  0.2961E+01
    -12.944  0.6491E+01  0.3370E+01
    -12.881  0.6368E+01  0.3771E+01
    -12.818  0.5693E+01  0.4129E+01
    -12.755  0.5066E+01  0.4449E+01
    -12.692  0.4995E+01  0.4763E+01
    -12.629  0.5069E+01  0.5082E+01
    -12.566  0.4918E+01  0.5392E+01
    -12.503  0.4656E+01  0.5685E+01
    -12.440  0.4820E+01  0.5989E+01
    -12.377  0.5361E+01  0.6327E+01
    -12.314  0.5291E+01  0.6660E+01
    -12.251  0.4919E+01  0.6970E+01
    -12.188  0.6025E+01  0.7349E+01
    -12.125  0.7902E+01  0.7847E+01
    -12.062  0.7466E+01  0.8317E+01
    -11.999  0.5695E+01  0.8676E+01
    -11.936  0.5539E+01  0.9024E+01
    -11.873  0.6622E+01  0.9441E+01
    -11.810  0.7082E+01  0.9887E+01
    -11.747  0.7112E+01  0.1034E+02
    -11.684  0.7895E+01  0.1083E+02
    -11.621  0.9014E+01  0.1140E+02
    -11.558  0.8975E+01  0.1197E+02
    -11.495  0.7635E+01  0.1245E+02
    -11.432  0.6765E+01  0.1287E+02
    -11.370  0.7369E+01  0.1334E+02
    -11.307  0.8417E+01  0.1387E+02
    -11.244  0.9709E+01  0.1448E+02
    -11.181  0.1104E+02  0.1517E+02
    -11.118  0.1161E+02  0.1590E+02
    -11.055  0.1061E+02  0.1657E+02
    -10.992  0.1012E+02  0.1721E+02
    -10.929  0.1270E+02  0.1801E+02
    -10.866  0.1484E+02  0.1894E+02
    -10.803  0.1362E+02  0.1980E+02
    -10.740  0.1129E+02  0.2051E+02
    -10.677  0.8561E+01  0.2105E+02
    -10.614  0.6426E+01  0.2146E+02
    -10.551  0.6135E+01  0.2184E+02
    -10.488  0.5479E+01  0.2219E+02
    -10.425  0.3872E+01  0.2243E+02
    -10.362  0.3070E+01  0.2263E+02
    -10.299  0.3262E+01  0.2283E+02
    -10.236  0.3289E+01  0.2304E+02
    -10.173  0.2806E+01  0.2322E+02
    -10.110  0.1818E+01  0.2333E+02
    -10.047  0.7392E+00  0.2338E+02
     -9.984  0.3548E+00  0.2340E+02
     -9.921  0.8528E+00  0.2345E+02
     -9.858  0.1615E+01  0.2355E+02
     -9.795  0.1616E+01  0.2366E+02
     -9.732  0.1359E+01  0.2374E+02
     -9.669  0.1662E+01  0.2385E+02
     -9.606  0.1541E+01  0.2394E+02
     -9.543  0.7251E+00  0.2399E+02
     -9.480  0.1629E+00  0.2400E+02
     -9.417  0.1731E-01  0.2400E+02
     -9.354  0.1242E-02  0.2400E+02
     -9.291  0.8227E-02  0.2400E+02
     -9.228  0.8589E-01  0.2401E+02
     -9.165  0.4469E+00  0.2403E+02
     -9.102  0.1209E+01  0.2411E+02
     -9.039  0.1916E+01  0.2423E+02
     -8.976  0.2491E+01  0.2439E+02
     -8.913  0.3689E+01  0.2462E+02
     -8.850  0.4938E+01  0.2493E+02
     -8.787  0.4938E+01  0.2524E+02
     -8.724  0.4270E+01  0.2551E+02
     -8.661  0.4202E+01  0.2578E+02
     -8.598  0.4823E+01  0.2608E+02
     -8.535  0.5310E+01  0.2641E+02
     -8.472  0.4679E+01  0.2671E+02
     -8.409  0.3422E+01  0.2692E+02
     -8.346  0.3178E+01  0.2712E+02
     -8.284  0.4427E+01  0.2740E+02
     -8.221  0.6515E+01  0.2781E+02
     -8.158  0.7796E+01  0.2830E+02
     -8.095  0.6615E+01  0.2872E+02
     -8.032  0.4451E+01  0.2900E+02
     -7.969  0.4092E+01  0.2926E+02
     -7.906  0.5458E+01  0.2960E+02
     -7.843  0.6410E+01  0.3001E+02
     -7.780  0.6370E+01  0.3041E+02
     -7.717  0.5962E+01  0.3078E+02
     -7.654  0.5595E+01  0.3114E+02
     -7.591  0.6056E+01  0.3152E+02
     -7.528  0.7874E+01  0.3201E+02
     -7.465  0.8999E+01  0.3258E+02
     -7.402  0.7763E+01  0.3307E+02
     -7.339  0.5556E+01  0.3342E+02
     -7.276  0.4428E+01  0.3370E+02
     -7.213  0.4724E+01  0.3399E+02
     -7.150  0.5955E+01  0.3437E+02
     -7.087  0.7811E+01  0.3486E+02
     -7.024  0.9045E+01  0.3543E+02
     -6.961  0.8774E+01  0.3598E+02
     -6.898  0.8833E+01  0.3654E+02
     -6.835  0.1033E+02  0.3719E+02
     -6.772  0.1098E+02  0.3788E+02
     -6.709  0.9342E+01  0.3847E+02
     -6.646  0.8019E+01  0.3898E+02
     -6.583  0.8201E+01  0.3949E+02
     -6.520  0.8197E+01  0.4001E+02
     -6.457  0.7145E+01  0.4046E+02
     -6.394  0.6024E+01  0.4084E+02
     -6.331  0.5626E+01  0.4119E+02
     -6.268  0.5038E+01  0.4151E+02
     -6.205  0.3872E+01  0.4175E+02
     -6.142  0.3435E+01  0.4197E+02
     -6.079  0.3994E+01  0.4222E+02
     -6.016  0.4260E+01  0.4249E+02
     -5.953  0.4317E+01  0.4276E+02
     -5.890  0.4787E+01  0.4306E+02
     -5.827  0.4891E+01  0.4337E+02
     -5.764  0.3803E+01  0.4361E+02
     -5.701  0.2475E+01  0.4377E+02
     -5.638  0.2272E+01  0.4391E+02
     -5.575  0.3905E+01  0.4416E+02
     -5.512  0.7088E+01  0.4460E+02
     -5.449  0.9742E+01  0.4522E+02
     -5.386  0.9926E+01  0.4584E+02
     -5.323  0.8282E+01  0.4636E+02
     -5.261  0.6143E+01  0.4675E+02
     -5.198  0.5252E+01  0.4708E+02
     -5.135  0.6689E+01  0.4750E+02
     -5.072  0.8983E+01  0.4807E+02
     -5.009  0.1038E+02  0.4872E+02
     -4.946  0.1035E+02  0.4937E+02
     -4.883  0.9347E+01  0.4996E+02
     -4.820  0.9148E+01  0.5054E+02
     -4.757  0.1078E+02  0.5122E+02
     -4.694  0.1234E+02  0.5199E+02
     -4.631  0.1183E+02  0.5274E+02
     -4.568  0.1001E+02  0.5337E+02
     -4.505  0.9515E+01  0.5397E+02
     -4.442  0.1091E+02  0.5465E+02
     -4.379  0.1213E+02  0.5542E+02
     -4.316  0.1233E+02  0.5619E+02
     -4.253  0.1276E+02  0.5700E+02
     -4.190  0.1409E+02  0.5789E+02
     -4.127  0.1465E+02  0.5881E+02
     -4.064  0.1358E+02  0.5966E+02
     -4.001  0.1225E+02  0.6044E+02
     -3.938  0.1196E+02  0.6119E+02
     -3.875  0.1219E+02  0.6196E+02
     -3.812  0.1238E+02  0.6274E+02
     -3.749  0.1285E+02  0.6354E+02
     -3.686  0.1271E+02  0.6434E+02
     -3.623  0.1198E+02  0.6510E+02
     -3.560  0.1230E+02  0.6587E+02
     -3.497  0.1372E+02  0.6674E+02
     -3.434  0.1473E+02  0.6767E+02
     -3.371  0.1496E+02  0.6861E+02
     -3.308  0.1538E+02  0.6958E+02
     -3.245  0.1701E+02  0.7065E+02
     -3.182  0.1861E+02  0.7182E+02
     -3.119  0.1823E+02  0.7297E+02
     -3.056  0.1621E+02  0.7399E+02
     -2.993  0.1463E+02  0.7491E+02
     -2.930  0.1430E+02  0.7581E+02
     -2.867  0.1464E+02  0.7673E+02
     -2.804  0.1524E+02  0.7769E+02
     -2.741  0.1546E+02  0.7867E+02
     -2.678  0.1552E+02  0.7964E+02
     -2.615  0.1619E+02  0.8066E+02
     -2.552  0.1756E+02  0.8177E+02
     -2.489  0.1759E+02  0.8288E+02
     -2.426  0.1514E+02  0.8383E+02
     -2.363  0.1415E+02  0.8472E+02
     -2.300  0.1649E+02  0.8576E+02
     -2.237  0.1868E+02  0.8694E+02
     -2.175  0.1895E+02  0.8813E+02
     -2.112  0.1852E+02  0.8930E+02
     -2.049  0.1823E+02  0.9045E+02
     -1.986  0.1837E+02  0.9160E+02
     -1.923  0.1842E+02  0.9276E+02
     -1.860  0.1734E+02  0.9385E+02
     -1.797  0.1428E+02  0.9475E+02
     -1.734  0.1031E+02  0.9540E+02
     -1.671  0.8674E+01  0.9595E+02
     -1.608  0.1063E+02  0.9662E+02
     -1.545  0.1366E+02  0.9748E+02
     -1.482  0.1458E+02  0.9840E+02
     -1.419  0.1292E+02  0.9921E+02
     -1.356  0.9589E+01  0.9982E+02
     -1.293  0.6937E+01  0.1003E+03
     -1.230  0.6439E+01  0.1007E+03
     -1.167  0.7382E+01  0.1011E+03
     -1.104  0.8522E+01  0.1017E+03
     -1.041  0.8817E+01  0.1022E+03
     -0.978  0.8213E+01  0.1027E+03
     -0.915  0.7382E+01  0.1032E+03
     -0.852  0.6414E+01  0.1036E+03
     -0.789  0.5171E+01  0.1039E+03
     -0.726  0.4374E+01  0.1042E+03
     -0.663  0.3675E+01  0.1044E+03
     -0.600  0.2477E+01  0.1046E+03
     -0.537  0.1696E+01  0.1047E+03
     -0.474  0.1765E+01  0.1048E+03
     -0.411  0.2510E+01  0.1050E+03
     -0.348  0.4431E+01  0.1052E+03
     -0.285  0.7155E+01  0.1057E+03
     -0.222  0.9039E+01  0.1063E+03
     -0.159  0.9414E+01  0.1069E+03
     -0.096  0.8904E+01  0.1074E+03
     -0.033  0.8766E+01  0.1080E+03
      0.030  0.8267E+01  0.1085E+03
      0.093  0.6566E+01  0.1089E+03
      0.156  0.5213E+01  0.1092E+03
      0.219  0.4450E+01  0.1095E+03
      0.282  0.3785E+01  0.1098E+03
      0.345  0.3544E+01  0.1100E+03
      0.408  0.3511E+01  0.1102E+03
      0.471  0.3307E+01  0.1104E+03
      0.534  0.3199E+01  0.1106E+03
      0.597  0.3159E+01  0.1108E+03
      0.660  0.3164E+01  0.1110E+03
      0.723  0.3530E+01  0.1112E+03
      0.786  0.3425E+01  0.1114E+03
      0.849  0.3027E+01  0.1116E+03
      0.911  0.3224E+01  0.1118E+03
      0.974  0.3998E+01  0.1121E+03
      1.037  0.5314E+01  0.1124E+03
      1.100  0.6592E+01  0.1128E+03
      1.163  0.7446E+01  0.1133E+03
      1.226  0.8444E+01  0.1138E+03
      1.289  0.8942E+01  0.1144E+03
      1.352  0.8115E+01  0.1149E+03
      1.415  0.7774E+01  0.1154E+03
      1.478  0.8843E+01  0.1160E+03
      1.541  0.9708E+01  0.1166E+03
      1.604  0.1002E+02  0.1172E+03
      1.667  0.1041E+02  0.1179E+03
      1.730  0.1035E+02  0.1185E+03
      1.793  0.1058E+02  0.1192E+03
      1.856  0.1181E+02  0.1199E+03
      1.919  0.1327E+02  0.1208E+03
      1.982  0.1375E+02  0.1216E+03
      2.045  0.1343E+02  0.1225E+03
      2.108  0.1348E+02  0.1233E+03
      2.171  0.1416E+02  0.1242E+03
      2.234  0.1518E+02  0.1252E+03
      2.297  0.1491E+02  0.1261E+03
      2.360  0.1319E+02  0.1269E+03
      2.423  0.1240E+02  0.1277E+03
      2.486  0.1371E+02  0.1286E+03
      2.549  0.1610E+02  0.1296E+03
      2.612  0.1702E+02  0.1307E+03
      2.675  0.1514E+02  0.1316E+03
      2.738  0.1237E+02  0.1324E+03
      2.801  0.1076E+02  0.1331E+03
      2.864  0.1034E+02  0.1337E+03
      2.927  0.9538E+01  0.1343E+03
      2.990  0.7744E+01  0.1348E+03
      3.053  0.6164E+01  0.1352E+03
      3.116  0.5292E+01  0.1355E+03
      3.179  0.4173E+01  0.1358E+03
      3.242  0.2297E+01  0.1359E+03
      3.305  0.7428E+00  0.1360E+03
      3.368  0.1297E+00  0.1360E+03
      3.431  0.1164E-01  0.1360E+03
      3.494  0.5196E-03  0.1360E+03
      3.557  0.1127E-04  0.1360E+03
      3.620  0.1170E-06  0.1360E+03
      3.683  0.5736E-09  0.1360E+03
      3.746  0.1318E-11  0.1360E+03
      3.809  0.1288E-14  0.1360E+03
      3.872  0.0000E+00  0.1360E+03
      3.934  0.0000E+00  0.1360E+03
      3.997  0.0000E+00  0.1360E+03
      4.060  0.0000E+00  0.1360E+03
      4.123  0.0000E+00  0.1360E+03
      4.186  0.0000E+00  0.1360E+03
