   24   24    1    1
  0.4176334E+02  0.3540400E-09  0.1044544E-08  0.2750143E-08  0.5000000E-15
  1.000000000000000E-004
  CAR 
 unknown system                          
    108     54     68
 
  0.0000000E+00  0.0000000E+00  0.0000000E+00  0.9615385E-02
    1      -13.707409
    2      -13.669816
    3      -12.930781
    4      -12.877152
    5      -12.629280
    6      -12.366583
    7      -12.213266
    8      -12.111217
    9      -11.564957
   10      -11.313956
   11      -11.121329
   12      -10.927669
   13       -8.170882
   14       -7.967325
   15       -7.813945
   16       -7.300672
   17       -6.975560
   18       -6.629613
   19       -6.489284
   20       -6.365404
   21       -5.953682
   22       -5.546566
   23       -4.870454
   24       -4.665789
   25       -4.109229
   26       -3.819200
   27       -3.668942
   28       -3.527965
   29       -3.192433
   30       -3.141050
   31       -2.972502
   32       -2.946646
   33       -2.886701
   34       -2.643454
   35       -2.577294
   36       -2.529281
   37       -2.304514
   38       -2.282238
   39       -2.153176
   40       -2.052174
   41       -1.968003
   42       -1.857094
   43       -1.818873
   44       -1.777657
   45       -1.704192
   46       -1.589887
   47       -1.560154
   48       -1.468440
   49       -1.356634
   50       -1.262846
   51       -1.182717
   52       -1.141726
   53       -0.295517
   54       -0.065195
   55        0.584731
   56        0.960885
   57        1.089726
   58        1.189129
   59        1.577895
   60        1.763716
   61        1.858395
   62        1.901001
   63        2.054047
   64        2.145811
   65        2.296992
   66        2.523456
   67        2.577476
   68        2.647063
 
  0.7692308E-01 -0.1387779E-16  0.0000000E+00  0.1923077E-01
    1      -13.663019
    2      -13.609965
    3      -12.878695
    4      -12.828371
    5      -12.573670
    6      -12.311816
    7      -12.151510
    8      -12.052943
    9      -11.515973
   10      -11.263446
   11      -11.072957
   12      -10.875966
   13       -8.206191
   14       -7.932877
   15       -7.812666
   16       -7.262521
   17       -6.941508
   18       -6.623371
   19       -6.463332
   20       -6.345042
   21       -5.920005
   22       -5.507212
   23       -4.873762
   24       -4.708237
   25       -4.091092
   26       -3.847062
   27       -3.769073
   28       -3.659726
   29       -3.486527
   30       -3.377956
   31       -3.312544
   32       -3.233031
   33       -3.003532
   34       -2.929140
   35       -2.863377
   36       -2.632273
   37       -2.594529
   38       -2.345530
   39       -2.319201
   40       -2.196622
   41       -2.093753
   42       -2.089800
   43       -1.966956
   44       -1.960265
   45       -1.852417
   46       -1.755193
   47       -1.731055
   48       -1.632735
   49       -1.590660
   50       -1.297796
   51       -1.116449
   52       -1.041571
   53       -0.232065
   54       -0.036484
   55        0.971792
   56        1.292660
   57        1.464596
   58        1.632547
   59        1.910597
   60        2.013633
   61        2.081560
   62        2.145881
   63        2.232251
   64        2.377098
   65        2.479112
   66        2.561280
   67        2.630355
   68        3.121756
 
  0.1538462E+00 -0.2775558E-16  0.0000000E+00  0.1923077E-01
    1      -13.538855
    2      -13.428580
    3      -12.723172
    4      -12.681369
    5      -12.408832
    6      -12.149375
    7      -11.970187
    8      -11.882363
    9      -11.373840
   10      -11.115019
   11      -10.934177
   12      -10.723763
   13       -8.300916
   14       -7.893717
   15       -7.821870
   16       -7.184945
   17       -6.863434
   18       -6.634754
   19       -6.428955
   20       -6.298349
   21       -5.845385
   22       -5.414991
   23       -4.999731
   24       -4.990746
   25       -4.392847
   26       -4.333241
   27       -4.222874
   28       -4.116946
   29       -3.887263
   30       -3.776453
   31       -3.732511
   32       -3.595606
   33       -3.441855
   34       -3.303382
   35       -3.205783
   36       -3.133156
   37       -3.087583
   38       -2.908951
   39       -2.808320
   40       -2.562820
   41       -2.502912
   42       -2.339227
   43       -2.278355
   44       -2.099490
   45       -1.999807
   46       -1.946722
   47       -1.837639
   48       -1.768154
   49       -1.588054
   50       -1.344928
   51       -1.099184
   52       -0.959987
   53       -0.176312
   54       -0.042170
   55        1.140240
   56        1.427753
   57        1.776435
   58        1.846883
   59        2.105533
   60        2.243713
   61        2.360588
   62        2.466779
   63        2.510340
   64        2.630841
   65        2.814624
   66        2.895967
   67        2.945420
   68        3.113049
 
  0.2307692E+00 -0.4163336E-16  0.0000000E+00  0.1923077E-01
    1      -13.356324
    2      -13.128273
    3      -12.467298
    4      -12.434778
    5      -12.141885
    6      -11.886226
    7      -11.683566
    8      -11.613144
    9      -11.156696
   10      -10.880976
   11      -10.731185
   12      -10.481941
   13       -8.491707
   14       -7.961853
   15       -7.906680
   16       -7.200214
   17       -6.832679
   18       -6.768655
   19       -6.520893
   20       -6.361888
   21       -5.866190
   22       -5.603239
   23       -5.470306
   24       -5.304845
   25       -4.951986
   26       -4.924478
   27       -4.739450
   28       -4.641198
   29       -4.341859
   30       -4.305921
   31       -4.042425
   32       -3.930466
   33       -3.823214
   34       -3.718278
   35       -3.604230
   36       -3.592960
   37       -3.245228
   38       -3.123328
   39       -3.004617
   40       -2.798989
   41       -2.699973
   42       -2.620380
   43       -2.513861
   44       -2.107433
   45       -2.035524
   46       -1.937984
   47       -1.915623
   48       -1.835330
   49       -1.590674
   50       -1.540189
   51       -1.205410
   52       -0.897102
   53       -0.209636
   54       -0.124734
   55        0.586169
   56        0.997740
   57        1.241335
   58        1.745656
   59        1.894902
   60        2.092217
   61        2.183091
   62        2.225880
   63        2.386540
   64        2.551469
   65        2.734723
   66        2.771185
   67        2.853747
   68        3.059242
 
  0.3076923E+00 -0.5551115E-16  0.0000000E+00  0.1923077E-01
    1      -13.150972
    2      -12.716824
    3      -12.119153
    4      -12.089928
    5      -11.789476
    6      -11.539906
    7      -11.325642
    8      -11.274333
    9      -10.911870
   10      -10.596646
   11      -10.545700
   12      -10.176901
   13       -8.786530
   14       -8.219880
   15       -8.173899
   16       -7.461310
   17       -7.131229
   18       -7.039054
   19       -7.000826
   20       -6.630452
   21       -6.288131
   22       -6.104356
   23       -6.084462
   24       -5.373572
   25       -5.336503
   26       -5.099988
   27       -4.924323
   28       -4.832356
   29       -4.667628
   30       -4.504400
   31       -4.422183
   32       -4.346007
   33       -4.225992
   34       -3.910123
   35       -3.550158
   36       -3.505248
   37       -3.262605
   38       -3.194264
   39       -3.021374
   40       -2.948204
   41       -2.832008
   42       -2.749510
   43       -2.502154
   44       -2.306661
   45       -2.193441
   46       -2.039115
   47       -1.999546
   48       -1.869774
   49       -1.826327
   50       -1.561856
   51       -1.422081
   52       -0.834463
   53       -0.524974
   54       -0.219324
   55        0.278637
   56        0.460106
   57        0.716866
   58        1.470985
   59        1.530277
   60        1.665029
   61        1.857340
   62        2.089629
   63        2.198693
   64        2.247091
   65        2.555495
   66        2.582842
   67        2.703990
   68        2.889655
 
  0.3846154E+00 -0.8326673E-16  0.0000000E+00  0.1923077E-01
    1      -12.970739
    2      -12.208647
    3      -11.699269
    4      -11.662782
    5      -11.390066
    6      -11.155207
    7      -10.981022
    8      -10.936921
    9      -10.756505
   10      -10.586784
   11      -10.359126
   12       -9.866969
   13       -8.962473
   14       -8.596234
   15       -8.509690
   16       -7.777599
   17       -7.682649
   18       -7.589122
   19       -7.546504
   20       -7.038692
   21       -6.886700
   22       -6.796834
   23       -6.664798
   24       -5.447071
   25       -5.345144
   26       -5.078664
   27       -4.799323
   28       -4.721620
   29       -4.657157
   30       -4.464635
   31       -4.348870
   32       -4.309668
   33       -4.199064
   34       -3.897686
   35       -3.783824
   36       -3.431418
   37       -3.390232
   38       -3.300607
   39       -3.154493
   40       -3.043367
   41       -2.935247
   42       -2.708581
   43       -2.547720
   44       -2.500501
   45       -2.395291
   46       -2.221292
   47       -2.157742
   48       -2.054976
   49       -1.956982
   50       -1.554935
   51       -1.519368
   52       -0.879960
   53       -0.759326
   54       -0.306374
   55        0.025345
   56        0.172403
   57        0.382215
   58        1.000529
   59        1.286925
   60        1.579217
   61        1.602027
   62        1.935587
   63        1.994404
   64        2.130056
   65        2.184271
   66        2.423551
   67        2.587377
   68        2.666176
 
  0.4615385E+00 -0.8326673E-16  0.0000000E+00  0.1923077E-01
    1      -12.864595
    2      -11.635184
    3      -11.275331
    4      -11.226440
    5      -11.087207
    6      -10.975193
    7      -10.870698
    8      -10.856923
    9      -10.782995
   10      -10.767806
   11      -10.275982
   12       -9.669251
   13       -8.858663
   14       -8.818357
   15       -8.573963
   16       -8.214184
   17       -8.159510
   18       -7.833211
   19       -7.705517
   20       -7.506204
   21       -7.419008
   22       -7.307229
   23       -7.120156
   24       -5.465842
   25       -5.096324
   26       -5.043014
   27       -4.732900
   28       -4.632349
   29       -4.424767
   30       -4.218440
   31       -4.168492
   32       -4.088919
   33       -4.046572
   34       -3.956149
   35       -3.778099
   36       -3.713979
   37       -3.489112
   38       -3.390352
   39       -3.361186
   40       -3.219013
   41       -3.130047
   42       -2.832362
   43       -2.706077
   44       -2.527377
   45       -2.469754
   46       -2.315606
   47       -2.249432
   48       -2.179697
   49       -1.837095
   50       -1.646773
   51       -1.447406
   52       -1.122417
   53       -0.705210
   54       -0.308528
   55       -0.134005
   56        0.061223
   57        0.152502
   58        0.722728
   59        1.249273
   60        1.457634
   61        1.536388
   62        1.734107
   63        1.827422
   64        1.950980
   65        2.254446
   66        2.284580
   67        2.379127
   68        2.596310
 
  0.0000000E+00  0.2500000E+00  0.0000000E+00  0.1923077E-01
    1      -13.678949
    2      -13.616695
    3      -13.104478
    4      -12.974136
    5      -12.627228
    6      -12.376684
    7      -12.015662
    8      -11.970702
    9      -11.609875
   10      -11.324866
   11      -11.130530
   12      -10.931179
   13       -8.648361
   14       -8.148058
   15       -7.527012
   16       -6.987341
   17       -6.804383
   18       -6.737211
   19       -6.581153
   20       -6.219754
   21       -5.877582
   22       -5.465759
   23       -4.773080
   24       -4.606146
   25       -4.192761
   26       -4.028986
   27       -3.773456
   28       -3.532542
   29       -3.262203
   30       -3.260131
   31       -3.107664
   32       -2.998337
   33       -2.838472
   34       -2.551689
   35       -2.521717
   36       -2.492269
   37       -2.417327
   38       -2.291545
   39       -2.227204
   40       -2.167970
   41       -2.097669
   42       -2.012214
   43       -1.764421
   44       -1.733190
   45       -1.572942
   46       -1.507179
   47       -1.492958
   48       -1.457768
   49       -1.281949
   50       -1.197174
   51       -1.139941
   52       -1.048622
   53       -0.358149
   54       -0.038391
   55        0.542744
   56        1.048113
   57        1.120807
   58        1.275503
   59        1.596305
   60        1.633601
   61        1.828626
   62        1.931264
   63        2.119523
   64        2.209757
   65        2.453879
   66        2.505133
   67        2.565325
   68        2.855972
 
  0.7692308E-01  0.2500000E+00  0.0000000E+00  0.1923077E-01
    1      -13.630635
    2      -13.540838
    3      -13.085225
    4      -12.940276
    5      -12.570109
    6      -12.321464
    7      -11.927583
    8      -11.884824
    9      -11.568597
   10      -11.271404
   11      -11.086306
   12      -10.882454
   13       -8.706605
   14       -8.173834
   15       -7.478039
   16       -6.935845
   17       -6.813423
   18       -6.668497
   19       -6.570729
   20       -6.142912
   21       -5.828603
   22       -5.417593
   23       -4.818284
   24       -4.679782
   25       -4.243650
   26       -4.062606
   27       -3.804157
   28       -3.710334
   29       -3.527809
   30       -3.472296
   31       -3.264669
   32       -3.150393
   33       -3.126597
   34       -2.872815
   35       -2.813950
   36       -2.669688
   37       -2.616791
   38       -2.466499
   39       -2.385275
   40       -2.302485
   41       -2.211789
   42       -2.133126
   43       -2.078476
   44       -1.963329
   45       -1.877631
   46       -1.836413
   47       -1.572148
   48       -1.484177
   49       -1.387333
   50       -1.212385
   51       -1.060126
   52       -0.948047
   53       -0.294877
   54       -0.007004
   55        0.901319
   56        1.379681
   57        1.523691
   58        1.664193
   59        1.789051
   60        1.913756
   61        2.072838
   62        2.259249
   63        2.390520
   64        2.512765
   65        2.535009
   66        2.725338
   67        2.805268
   68        2.868473
 
  0.1538462E+00  0.2500000E+00  0.0000000E+00  0.1923077E-01
    1      -13.508569
    2      -13.345347
    3      -12.948476
    4      -12.791522
    5      -12.403745
    6      -12.156061
    7      -11.756518
    8      -11.695283
    9      -11.429275
   10      -11.114032
   11      -10.945151
   12      -10.731655
   13       -8.772120
   14       -8.155481
   15       -7.445346
   16       -6.903928
   17       -6.791459
   18       -6.636859
   19       -6.509770
   20       -6.129386
   21       -5.779834
   22       -5.367189
   23       -4.973828
   24       -4.903111
   25       -4.517430
   26       -4.430366
   27       -4.384548
   28       -4.118541
   29       -4.027732
   30       -3.790664
   31       -3.652593
   32       -3.546672
   33       -3.403757
   34       -3.251970
   35       -3.156556
   36       -3.092417
   37       -3.026432
   38       -2.954624
   39       -2.834007
   40       -2.720891
   41       -2.589901
   42       -2.444785
   43       -2.296350
   44       -2.173124
   45       -2.089096
   46       -2.016736
   47       -1.961515
   48       -1.615464
   49       -1.327072
   50       -1.265326
   51       -1.046724
   52       -0.969834
   53       -0.213767
   54       -0.003894
   55        1.068717
   56        1.475057
   57        1.626319
   58        1.873983
   59        1.972072
   60        2.118725
   61        2.286524
   62        2.587656
   63        2.644031
   64        2.760190
   65        2.878135
   66        2.944124
   67        2.991832
   68        3.121638
 
  0.2307692E+00  0.2500000E+00  0.0000000E+00  0.1923077E-01
    1      -13.333779
    2      -13.034715
    3      -12.696729
    4      -12.526608
    5      -12.135935
    6      -11.888268
    7      -11.514795
    8      -11.421794
    9      -11.207714
   10      -10.867407
   11      -10.727923
   12      -10.488171
   13       -8.903473
   14       -8.137695
   15       -7.530656
   16       -7.054804
   17       -6.830055
   18       -6.778311
   19       -6.513631
   20       -6.383305
   21       -5.948269
   22       -5.536598
   23       -5.343574
   24       -5.201660
   25       -5.155922
   26       -4.810853
   27       -4.787160
   28       -4.681528
   29       -4.484981
   30       -4.168787
   31       -4.103885
   32       -3.934128
   33       -3.876652
   34       -3.696302
   35       -3.458320
   36       -3.347548
   37       -3.290713
   38       -3.221257
   39       -2.931028
   40       -2.794922
   41       -2.719325
   42       -2.655986
   43       -2.529321
   44       -2.253014
   45       -2.120082
   46       -2.037988
   47       -1.910151
   48       -1.888025
   49       -1.515744
   50       -1.452446
   51       -1.165396
   52       -0.993572
   53       -0.188806
   54       -0.074111
   55        0.547358
   56        1.059962
   57        1.238805
   58        1.340067
   59        1.487667
   60        1.898297
   61        2.013546
   62        2.212204
   63        2.437621
   64        2.584021
   65        2.716910
   66        2.915048
   67        3.119977
   68        3.160960
 
  0.3076923E+00  0.2500000E+00  0.0000000E+00  0.1923077E-01
    1      -13.138612
    2      -12.618601
    3      -12.337160
    4      -12.152097
    5      -11.784215
    6      -11.536492
    7      -11.220700
    8      -11.109459
    9      -10.944396
   10      -10.574988
   11      -10.522456
   12      -10.178073
   13       -9.102972
   14       -8.202234
   15       -7.843156
   16       -7.543203
   17       -7.243549
   18       -7.096883
   19       -7.080663
   20       -6.567446
   21       -6.316372
   22       -6.055950
   23       -5.978933
   24       -5.510295
   25       -5.464233
   26       -5.075932
   27       -5.012693
   28       -4.731613
   29       -4.571613
   30       -4.477574
   31       -4.339198
   32       -4.184840
   33       -4.136030
   34       -3.956062
   35       -3.546095
   36       -3.468499
   37       -3.220804
   38       -3.120719
   39       -2.998674
   40       -2.936618
   41       -2.760174
   42       -2.644876
   43       -2.535369
   44       -2.406924
   45       -2.306117
   46       -2.088688
   47       -2.014520
   48       -1.932998
   49       -1.866661
   50       -1.702622
   51       -1.436103
   52       -0.880248
   53       -0.436226
   54       -0.183548
   55        0.244976
   56        0.374851
   57        0.700538
   58        1.108459
   59        1.195504
   60        1.228912
   61        1.936850
   62        2.055800
   63        2.180382
   64        2.328690
   65        2.490085
   66        2.641693
   67        2.857314
   68        3.010172
 
  0.3846154E+00  0.2500000E+00  0.0000000E+00  0.1923077E-01
    1      -12.966255
    2      -12.115570
    3      -11.886504
    4      -11.692634
    5      -11.388126
    6      -11.146803
    7      -10.928066
    8      -10.852385
    9      -10.734656
   10      -10.599030
   11      -10.347061
   12       -9.864054
   13       -9.093096
   14       -8.401368
   15       -8.246800
   16       -8.077437
   17       -7.909129
   18       -7.682329
   19       -7.492021
   20       -7.042212
   21       -6.831025
   22       -6.786744
   23       -6.559158
   24       -5.560010
   25       -5.474102
   26       -5.120374
   27       -4.918413
   28       -4.693762
   29       -4.562267
   30       -4.413280
   31       -4.247737
   32       -4.125385
   33       -3.993080
   34       -3.956592
   35       -3.483071
   36       -3.443037
   37       -3.413068
   38       -3.252251
   39       -3.174877
   40       -3.063356
   41       -2.925086
   42       -2.807410
   43       -2.591227
   44       -2.448665
   45       -2.389895
   46       -2.318786
   47       -2.208572
   48       -2.174178
   49       -1.972951
   50       -1.605138
   51       -1.577555
   52       -0.898735
   53       -0.660571
   54       -0.297770
   55       -0.081922
   56        0.131948
   57        0.324445
   58        0.817655
   59        1.079707
   60        1.214577
   61        1.689736
   62        1.804297
   63        1.917467
   64        2.038878
   65        2.452762
   66        2.531300
   67        2.651701
   68        2.782882
 
  0.4615385E+00  0.2500000E+00  0.0000000E+00  0.1923077E-01
    1      -12.863742
    2      -11.566332
    3      -11.390528
    4      -11.230759
    5      -11.098728
    6      -10.996347
    7      -10.866279
    8      -10.827873
    9      -10.788499
   10      -10.715372
   11      -10.278986
   12       -9.670408
   13       -8.734367
   14       -8.685710
   15       -8.531007
   16       -8.462576
   17       -8.302335
   18       -7.824820
   19       -7.652501
   20       -7.547524
   21       -7.449629
   22       -7.265379
   23       -7.061662
   24       -5.544504
   25       -5.152495
   26       -5.052380
   27       -4.678169
   28       -4.605522
   29       -4.391057
   30       -4.282474
   31       -4.134008
   32       -4.059661
   33       -4.020395
   34       -3.796431
   35       -3.751378
   36       -3.660468
   37       -3.634572
   38       -3.396944
   39       -3.334674
   40       -3.122811
   41       -3.084359
   42       -2.784238
   43       -2.729148
   44       -2.657686
   45       -2.517131
   46       -2.354082
   47       -2.241511
   48       -2.216317
   49       -1.823780
   50       -1.677942
   51       -1.436186
   52       -1.149824
   53       -0.662321
   54       -0.343257
   55       -0.135275
   56        0.000504
   57        0.115841
   58        0.718631
   59        1.300193
   60        1.379624
   61        1.441681
   62        1.645262
   63        1.805143
   64        1.998537
   65        2.285572
   66        2.367170
   67        2.459408
   68        2.590179
 
 -0.4615385E+00  0.2500000E+00  0.0000000E+00  0.1923077E-01
    1      -12.865269
    2      -11.668488
    3      -11.223594
    4      -11.198221
    5      -11.073421
    6      -10.938342
    7      -10.890432
    8      -10.874530
    9      -10.831610
   10      -10.776927
   11      -10.273588
   12       -9.668346
   13       -8.926848
   14       -8.887186
   15       -8.567898
   16       -8.115025
   17       -8.074124
   18       -7.789541
   19       -7.736977
   20       -7.479458
   21       -7.410458
   22       -7.347965
   23       -7.179383
   24       -5.469582
   25       -5.025010
   26       -4.875297
   27       -4.741806
   28       -4.706733
   29       -4.502321
   30       -4.258584
   31       -4.163725
   32       -4.132092
   33       -4.016283
   34       -3.983590
   35       -3.922376
   36       -3.781830
   37       -3.492828
   38       -3.447353
   39       -3.377585
   40       -3.189573
   41       -2.934491
   42       -2.824619
   43       -2.676049
   44       -2.580781
   45       -2.498283
   46       -2.303472
   47       -2.229210
   48       -2.133518
   49       -1.826411
   50       -1.625337
   51       -1.444547
   52       -1.111222
   53       -0.745116
   54       -0.276691
   55       -0.165124
   56        0.045762
   57        0.170639
   58        0.842250
   59        1.249677
   60        1.530320
   61        1.634573
   62        1.662578
   63        1.980780
   64        2.099309
   65        2.233873
   66        2.263806
   67        2.433852
   68        2.489129
 
 -0.3846154E+00  0.2500000E+00  0.0000000E+00  0.1923077E-01
    1      -12.972731
    2      -12.234976
    3      -11.650825
    4      -11.612342
    5      -11.388351
    6      -11.160933
    7      -11.058703
    8      -10.944103
    9      -10.758712
   10      -10.582360
   11      -10.363576
   12       -9.868572
   13       -8.873794
   14       -8.647345
   15       -8.623400
   16       -7.760282
   17       -7.595595
   18       -7.551594
   19       -7.459985
   20       -7.055697
   21       -6.934180
   22       -6.800984
   23       -6.715046
   24       -5.407667
   25       -5.195615
   26       -5.064202
   27       -4.974680
   28       -4.756412
   29       -4.549299
   30       -4.469858
   31       -4.409533
   32       -4.333102
   33       -4.210898
   34       -3.908119
   35       -3.850628
   36       -3.540986
   37       -3.421182
   38       -3.313621
   39       -3.169945
   40       -3.069592
   41       -2.890161
   42       -2.683235
   43       -2.565312
   44       -2.554248
   45       -2.362168
   46       -2.201304
   47       -2.074012
   48       -1.979682
   49       -1.934374
   50       -1.543679
   51       -1.458162
   52       -0.880129
   53       -0.790044
   54       -0.316165
   55        0.015919
   56        0.177949
   57        0.408151
   58        1.144718
   59        1.266752
   60        1.646115
   61        1.774758
   62        1.991507
   63        2.134666
   64        2.190953
   65        2.280470
   66        2.298779
   67        2.470621
   68        2.584118
 
 -0.3076923E+00  0.2500000E+00  0.0000000E+00  0.1923077E-01
    1      -13.153142
    2      -12.729019
    3      -12.083895
    4      -12.071483
    5      -11.789180
    6      -11.540586
    7      -11.369147
    8      -11.289832
    9      -10.903520
   10      -10.598262
   11      -10.551730
   12      -10.178109
   13       -8.687659
   14       -8.321553
   15       -8.169454
   16       -7.450816
   17       -7.135995
   18       -7.008405
   19       -6.967237
   20       -6.660707
   21       -6.281263
   22       -6.113071
   23       -6.101045
   24       -5.343288
   25       -5.278077
   26       -5.148495
   27       -5.015742
   28       -4.779038
   29       -4.629173
   30       -4.500526
   31       -4.433680
   32       -4.367779
   33       -4.237396
   34       -3.901877
   35       -3.599537
   36       -3.544348
   37       -3.271548
   38       -3.201352
   39       -3.027788
   40       -2.935977
   41       -2.829586
   42       -2.758291
   43       -2.498605
   44       -2.307973
   45       -2.154782
   46       -2.039764
   47       -1.983631
   48       -1.863718
   49       -1.816239
   50       -1.523794
   51       -1.420482
   52       -0.825978
   53       -0.539226
   54       -0.237581
   55        0.281878
   56        0.462006
   57        0.722476
   58        1.510502
   59        1.605404
   60        1.784745
   61        1.860136
   62        2.123552
   63        2.246177
   64        2.304628
   65        2.535261
   66        2.554412
   67        2.628404
   68        2.858208
 
 -0.2307692E+00  0.2500000E+00  0.0000000E+00  0.1923077E-01
    1      -13.355032
    2      -13.124070
    3      -12.481759
    4      -12.440873
    5      -12.141886
    6      -11.886613
    7      -11.667480
    8      -11.604530
    9      -11.160413
   10      -10.881189
   11      -10.729804
   12      -10.481569
   13       -8.531932
   14       -7.936613
   15       -7.908481
   16       -7.185150
   17       -6.830664
   18       -6.772414
   19       -6.524738
   20       -6.361553
   21       -5.868119
   22       -5.597765
   23       -5.465865
   24       -5.298749
   25       -4.966542
   26       -4.925977
   27       -4.732700
   28       -4.644952
   29       -4.343667
   30       -4.307935
   31       -4.049699
   32       -3.926766
   33       -3.827750
   34       -3.715083
   35       -3.589999
   36       -3.575518
   37       -3.244676
   38       -3.120023
   39       -3.000746
   40       -2.812933
   41       -2.712287
   42       -2.618516
   43       -2.520439
   44       -2.115325
   45       -2.027100
   46       -1.939640
   47       -1.915701
   48       -1.845578
   49       -1.584665
   50       -1.536678
   51       -1.202190
   52       -0.902798
   53       -0.208810
   54       -0.119911
   55        0.584350
   56        1.004364
   57        1.238189
   58        1.705014
   59        1.872142
   60        2.071521
   61        2.160264
   62        2.228415
   63        2.374546
   64        2.584418
   65        2.743232
   66        2.795917
   67        2.857953
   68        3.061305
 
 -0.1538462E+00  0.2500000E+00  0.0000000E+00  0.1923077E-01
    1      -13.529925
    2      -13.407360
    3      -12.796640
    4      -12.717546
    5      -12.408545
    6      -12.153198
    7      -11.886947
    8      -11.829482
    9      -11.393137
   10      -11.118863
   11      -10.932352
   12      -10.722911
   13       -8.511792
   14       -7.963953
   15       -7.672728
   16       -7.052596
   17       -6.806758
   18       -6.687832
   19       -6.464971
   20       -6.266799
   21       -5.820381
   22       -5.391845
   23       -4.970401
   24       -4.959876
   25       -4.435606
   26       -4.380532
   27       -4.296691
   28       -4.083270
   29       -3.886878
   30       -3.795387
   31       -3.708443
   32       -3.610181
   33       -3.436865
   34       -3.301857
   35       -3.196727
   36       -3.124866
   37       -3.032247
   38       -2.909414
   39       -2.834068
   40       -2.636398
   41       -2.576500
   42       -2.325353
   43       -2.294181
   44       -2.126069
   45       -2.008890
   46       -1.949596
   47       -1.880354
   48       -1.727200
   49       -1.471699
   50       -1.329146
   51       -1.083825
   52       -0.977567
   53       -0.194745
   54       -0.025007
   55        1.117729
   56        1.456656
   57        1.686501
   58        1.817466
   59        2.046359
   60        2.220621
   61        2.366228
   62        2.526175
   63        2.615352
   64        2.684313
   65        2.826750
   66        2.944451
   67        3.008935
   68        3.081351
 
 -0.7692308E-01  0.2500000E+00  0.0000000E+00  0.1923077E-01
    1      -13.644048
    2      -13.572277
    3      -13.006993
    4      -12.897812
    5      -12.572725