       N       E                     dE             d eps       ncg     rms          rms(c)
DAV:   1     0.500341746633E+03    0.50034E+03   -0.28664E+04  7352   0.790E+02
DAV:   2    -0.603596008159E+02   -0.56070E+03   -0.54648E+03  9820   0.189E+02
DAV:   3    -0.117913849963E+03   -0.57554E+02   -0.56767E+02  8828   0.627E+01
DAV:   4    -0.120636567225E+03   -0.27227E+01   -0.27070E+01 11064   0.146E+01
DAV:   5    -0.120692536995E+03   -0.55970E-01   -0.55909E-01  9760   0.215E+00    0.125E+01
DAV:   6    -0.116326305599E+03    0.43662E+01   -0.82517E+00  8920   0.824E+00    0.636E+00
DAV:   7    -0.116363740952E+03   -0.37435E-01   -0.10552E+01  8520   0.781E+00    0.255E+00
DAV:   8    -0.116229802791E+03    0.13394E+00   -0.11128E+00  8548   0.336E+00    0.172E+00
DAV:   9    -0.116254699748E+03   -0.24897E-01   -0.10115E+00  8480   0.231E+00    0.108E+00
DAV:  10    -0.116237205460E+03    0.17494E-01   -0.36159E-01  8760   0.141E+00    0.526E-01
DAV:  11    -0.116226947735E+03    0.10258E-01   -0.79718E-02  8568   0.758E-01    0.169E-01
DAV:  12    -0.116216410623E+03    0.10537E-01   -0.21183E-02  8712   0.385E-01    0.775E-02
DAV:  13    -0.116211565798E+03    0.48448E-02   -0.14427E-03 10872   0.107E-01    0.428E-02
DAV:  14    -0.116209487910E+03    0.20779E-02   -0.25225E-04  9328   0.485E-02    0.170E-02
DAV:  15    -0.116208074212E+03    0.14137E-02   -0.18382E-04  9448   0.347E-02    0.141E-02
DAV:  16    -0.116207961660E+03    0.11255E-03   -0.34727E-05  8240   0.167E-02    0.936E-03
DAV:  17    -0.116208450423E+03   -0.48876E-03   -0.16196E-04  8280   0.280E-02    0.597E-03
DAV:  18    -0.116208663929E+03   -0.21351E-03   -0.97134E-05  8616   0.191E-02    0.563E-03
DAV:  19    -0.116208757462E+03   -0.93533E-04   -0.36406E-05  8088   0.127E-02    0.134E-03
DAV:  20    -0.116208804160E+03   -0.46697E-04   -0.15711E-05  7688   0.917E-03    0.206E-03
DAV:  21    -0.116208816350E+03   -0.12190E-04   -0.16240E-05  6856   0.847E-03    0.146E-03
DAV:  22    -0.116208773293E+03    0.43057E-04   -0.20951E-05  6920   0.115E-02    0.111E-03
DAV:  23    -0.116208719823E+03    0.53470E-04   -0.15949E-05  6840   0.800E-03    0.811E-04
DAV:  24    -0.116208707666E+03    0.12157E-04   -0.10757E-05  6284   0.852E-03    0.215E-04
DAV:  25    -0.116208680251E+03    0.27415E-04   -0.12664E-05  6984   0.821E-03    0.140E-04
DAV:  26    -0.116208676786E+03    0.34648E-05   -0.71033E-06  6272   0.775E-03    0.103E-04
DAV:  27    -0.116208671886E+03    0.48993E-05   -0.31772E-06  6036   0.547E-03    0.479E-05
DAV:  28    -0.116208672017E+03   -0.13070E-06   -0.27532E-06  6336   0.532E-03
   1 F= -.11620867E+03 E0= -.11618687E+03  d E =-.436059E-01
