 vasp.5.3.5 31Mar14 (build Oct 29 2014 16:16:03) complex                        
  
 executed on          Linux-UFHPC date 2016.02.09  18:07:41
 running on    8 total cores
 distrk:  each k-point on    8 cores,    1 groups
 distr:  one band on NCORES_PER_BAND=   2 cores,    4 groups


--------------------------------------------------------------------------------------------------------


 INCAR:
 POTCAR:    PAW_PBE P 17Jan2003                   
 POTCAR:   PAW_PBE Si 05Jan2001                   

 ----------------------------------------------------------------------------- 
|                                                                             |
|  ADVICE TO THIS USER RUNNING 'VASP/VAMP'   (HEAR YOUR MASTER'S VOICE ...):  |
|                                                                             |
|      You have switched on vdW-DFT.                                          |
|      This routine was written and supplied by Jiri Klimes.                  |
|      We recommed that you carefully read and cite the following             |
|      publication                                                            |
|      J. Klimes, D.R. Bowler, A. Michelides                                  |
|        J. Phys.: Cond Matt. 22 022201 (2010)                                |
|      J. Klimes, D.R. Bowler, A. Michelides                                  |
|        Phys. Rev. B. 83, 195131 (2011)                                      |
|      and references therein.                                                |
|                                                                             |
 ----------------------------------------------------------------------------- 

 POTCAR:    PAW_PBE P 17Jan2003                   
   VRHFIN =P : s2p3                                                             
   LEXCH  = PE                                                                  
   EATOM  =   176.0430 eV,   12.9388 Ry                                         
                                                                                
   TITEL  = PAW_PBE P 17Jan2003                                                 
   LULTRA =        F    use ultrasoft PP ?                                      
   IUNSCR =        1    unscreen: 0-lin 1-nonlin 2-no                           
   RPACOR =    1.500    partial core radius                                     
   POMASS =   30.974; ZVAL   =    5.000    mass and valenz                      
   RCORE  =    1.900    outmost cutoff radius                                   
   RWIGS  =    2.330; RWIGS  =    1.233    wigner-seitz radius (au A)           
   ENMAX  =  270.000; ENMIN  =  191.280 eV                                      
   ICORE  =        2    local potential                                         
   LCOR   =        T    correct aug charges                                     
   LPAW   =        T    paw PP                                                  
   EAUG   =  342.924                                                            
   DEXC   =    -.002                                                            
   RMAX   =    2.887    core radius for proj-oper                               
   RAUG   =    1.300    factor for augmentation sphere                          
   RDEP   =    1.931    radius for radial grids                                 
   QCUT   =   -4.330; QGAM   =    8.659    optimization parameters              
                                                                                
   Description                                                                  
     l     E      TYP  RCUT    TYP  RCUT                                        
     0   .000     23  1.900                                                     
     0   .000     23  1.900                                                     
     1   .000     23  1.900                                                     
     1   .000     23  1.900                                                     
     2   .000     23  1.900                                                     
  local pseudopotential read in
  partial core-charges read in
  atomic valenz-charges read in
  non local Contribution for L=           0  read in
    real space projection operators read in
  non local Contribution for L=           0  read in
    real space projection operators read in
  non local Contribution for L=           1  read in
    real space projection operators read in
  non local Contribution for L=           1  read in
    real space projection operators read in
    PAW grid and wavefunctions read in
 
   number of l-projection  operators is LMAX  =           4
   number of lm-projection operators is LMMAX =           8
 
 POTCAR:   PAW_PBE Si 05Jan2001                   
   VRHFIN =Si: s2p2                                                             
   LEXCH  = PE                                                                  
   EATOM  =   103.0669 eV,    7.5752 Ry                                         
                                                                                
   TITEL  = PAW_PBE Si 05Jan2001                                                
   LULTRA =        F    use ultrasoft PP ?                                      
   IUNSCR =        1    unscreen: 0-lin 1-nonlin 2-no                           
   RPACOR =    1.500    partial core radius                                     
   POMASS =   28.085; ZVAL   =    4.000    mass and valenz                      
   RCORE  =    1.900    outmost cutoff radius                                   
   RWIGS  =    2.480; RWIGS  =    1.312    wigner-seitz radius (au A)           
   ENMAX  =  245.345; ENMIN  =  184.009 eV                                      
   ICORE  =        2    local potential                                         
   LCOR   =        T    correct aug charges                                     
   LPAW   =        T    paw PP                                                  
   EAUG   =  322.069                                                            
   DEXC   =    -.007                                                            
   RMAX   =    2.944    core radius for proj-oper                               
   RAUG   =    1.300    factor for augmentation sphere                          
   RDEP   =    1.993    radius for radial grids                                 
   QCUT   =   -4.246; QGAM   =    8.493    optimization parameters              
                                                                                
   Description                                                                  
     l     E      TYP  RCUT    TYP  RCUT                                        
     0   .000     23  1.900                                                     
     0   .000     23  1.900                                                     
     1   .000     23  1.900                                                     
     1   .000     23  1.900                                                     
     2   .000      7  1.900                                                     
  local pseudopotential read in
  partial core-charges read in
  atomic valenz-charges read in
  non local Contribution for L=           0  read in
    real space projection operators read in
  non local Contribution for L=           0  read in
    real space projection operators read in
  non local Contribution for L=           1  read in
    real space projection operators read in
  non local Contribution for L=           1  read in
    real space projection operators read in
    PAW grid and wavefunctions read in
 
   number of l-projection  operators is LMAX  =           4
   number of lm-projection operators is LMMAX =           8
 
 Optimization of the real space projectors (new method)

 maximal supplied QI-value         = 19.84
 optimisation between [QCUT,QGAM] = [  8.73, 17.66] = [ 21.34, 87.33] Ry 
 Optimized for a Real-space Cutoff    1.50 Angstroem

   l    n(q)    QCUT    max X(q) W(low)/X(q) W(high)/X(q)  e(spline) 
   0      8     8.731     6.651    0.16E-04    0.15E-04    0.77E-08
   0      8     8.731    90.285    0.16E-03    0.90E-04    0.16E-06
   1      7     8.731     4.328    0.47E-04    0.36E-04    0.45E-07
   1      7     8.731    54.583    0.13E-03    0.39E-03    0.20E-06
 Optimization of the real space projectors (new method)

 maximal supplied QI-value         = 19.84
 optimisation between [QCUT,QGAM] = [  8.73, 17.66] = [ 21.34, 87.33] Ry 
 Optimized for a Real-space Cutoff    1.46 Angstroem

   l    n(q)    QCUT    max X(q) W(low)/X(q) W(high)/X(q)  e(spline) 
   0      8     8.731     8.708    0.16E-04    0.11E-04    0.68E-08
   0      8     8.731   106.241    0.24E-03    0.77E-04    0.13E-06
   1      7     8.731     5.901    0.34E-04    0.38E-04    0.36E-07
   1      7     8.731    73.241    0.12E-03    0.39E-03    0.15E-06

 ----------------------------------------------------------------------------- 
|                                                                             |
|  ADVICE TO THIS USER RUNNING 'VASP/VAMP'   (HEAR YOUR MASTER'S VOICE ...):  |
|                                                                             |
|      You enforced a specific xc-type in the INCAR file,                     |
|      a different type was found on the POTCAR file                          |
|          I HOPE YOU KNOW, WHAT YOU ARE  DOING                               |
|                                                                             |
 ----------------------------------------------------------------------------- 

  PAW_PBE P 17Jan2003                   :
 energy of atom  1       EATOM= -176.0430
 kinetic energy error for atom=    0.0040 (will be added to EATOM!!)
 PAW_PBE Si 05Jan2001                   :
 energy of atom  2       EATOM= -103.0669
 kinetic energy error for atom=    0.0021 (will be added to EATOM!!)
 
 
 POSCAR: Si12                                    
  positions in direct lattice
  No initial velocities read in
 exchange correlation table for  LEXCH =       42
   RHO(1)=    0.500       N(1)  =     2000
   RHO(2)=  100.500       N(2)  =     4000
 


--------------------------------------------------------------------------------------------------------


 ion  position               nearest neighbor table
   1  0.114  0.228  0.233-  15 2.28  21 2.29  21 2.29
   2  0.614  0.228  0.515-  16 2.28  22 2.29  22 2.29
   3  0.458  0.916  0.209-  21 2.28  13 2.30  13 2.30
   4  0.958  0.916  0.491-  22 2.28  14 2.30  14 2.30
   5  0.311  0.622  0.084-  17 2.28  23 2.30  23 2.30
   6  0.311  0.622  0.366-  24 1.47  18 2.28
   7  0.999  0.998  0.086-  19 2.29  19 2.29  13 2.32
   8  0.999  0.998  0.368-  20 2.29  20 2.29  14 2.92  14 2.92
   9  0.655  0.310  0.060-  19 2.28  17 2.29  17 2.29
  10  0.655  0.310  0.342-  20 2.28  18 2.29  18 2.29
  11  0.770  0.539  0.207-  15 2.29  15 2.29  23 2.32
  12  0.270  0.539  0.489-  16 2.29  16 2.29  24 2.32
  13  0.940  0.879  0.158-   3 2.30   3 2.30   7 2.32  23 2.35
  14  0.440  0.879  0.440-   4 2.30   4 2.30  24 2.35  20 2.90   8 2.92   8 2.92
  15  0.205  0.410  0.186-   1 2.28  11 2.29  11 2.29  17 2.37
  16  0.705  0.410  0.468-   2 2.28  12 2.29  12 2.29  18 2.96  18 2.96
  17  0.202  0.404  0.100-   5 2.28   9 2.29   9 2.29  15 2.37
  18  0.202  0.404  0.382-   6 2.28  10 2.29  10 2.29  24 2.80  16 2.96  16 2.96
  19  0.564  0.128  0.108-   9 2.28   7 2.29   7 2.29  21 2.37
  20  0.564  0.128  0.390-  10 2.28   8 2.29   8 2.29  14 2.90  22 2.96  22 2.96
  21  0.567  0.134  0.194-   3 2.28   1 2.29   1 2.29  19 2.37
  22  0.067  0.134  0.476-   4 2.28   2 2.29   2 2.29  20 2.96  20 2.96
  23  0.829  0.658  0.136-   5 2.30   5 2.30  11 2.32  13 2.35
  24  0.329  0.658  0.418-   6 1.47  12 2.32  14 2.35  18 2.80
 

 ----------------------------------------------------------------------------- 
|                                                                             |
|           W    W    AA    RRRRR   N    N  II  N    N   GGGG   !!!           |
|           W    W   A  A   R    R  NN   N  II  NN   N  G    G  !!!           |
|           W    W  A    A  R    R  N N  N  II  N N  N  G       !!!           |
|           W WW W  AAAAAA  RRRRR   N  N N  II  N  N N  G  GGG   !            |
|           WW  WW  A    A  R   R   N   NN  II  N   NN  G    G                |
|           W    W  A    A  R    R  N    N  II  N    N   GGGG   !!!           |
|                                                                             |
|      The distance between some ions is very small                           |
|      please check the nearest neigbor list in the OUTCAR file               |
|          I HOPE YOU KNOW, WHAT YOU ARE  DOING                               |
|                                                                             |
 ----------------------------------------------------------------------------- 

  LATTYP: Found a base centered orthorhombic cell.
 ALAT       =     3.5404000000
 B/A-ratio  =     5.8153587165
 C/A-ratio  =     7.7678875268
  
  Lattice vectors:
  
 A1 = (   1.7702000000,  10.2943480000,   0.0000000000)
 A2 = (   1.7702000000, -10.2943480000,   0.0000000000)
 A3 = (   0.0000000000,   0.0000000000, -27.5014290000)


Analysis of symmetry for initial positions (statically):
=====================================================================
 Subroutine PRICEL returns:
 Original cell was already a primitive cell.
 

 Routine SETGRP: Setting up the symmetry group for a 
 base centered orthorhombic supercell.


 Subroutine GETGRP returns: Found  2 space group operations
 (whereof  2 operations were pure point group operations)
 out of a pool of  8 trial point group operations.


The static configuration has the point symmetry C_1h.


Analysis of symmetry for dynamics (positions and initial velocities):
=====================================================================
 Subroutine PRICEL returns:
 Original cell was already a primitive cell.
 

 Routine SETGRP: Setting up the symmetry group for a 
 base centered orthorhombic supercell.


 Subroutine GETGRP returns: Found  2 space group operations
 (whereof  2 operations were pure point group operations)
 out of a pool of  8 trial point group operations.


The dynamic configuration has the point symmetry C_1h.
 
 
 KPOINTS: pymatgen generated KPOINTS with grid den

Automatic generation of k-mesh.
Space group operators:
 irot       det(A)        alpha          n_x          n_y          n_z        tau_x        tau_y        tau_z
    1     1.000000     0.000000     1.000000     0.000000     0.000000     0.000000     0.000000     0.000000
    2    -1.000000   180.000000     1.000000     0.000000     0.000000     0.000000     0.000000     0.000000
 
 Subroutine IBZKPT returns following result:
 ===========================================
 
 Found     54 irreducible k-points:
 
 Following reciprocal coordinates:
            Coordinates               Weight
  0.000000  0.000000  0.000000      1.000000
  0.076923 -0.000000  0.000000      2.000000
  0.153846 -0.000000  0.000000      2.000000
  0.230769 -0.000000  0.000000      2.000000
  0.307692 -0.000000  0.000000      2.000000
  0.384615 -0.000000  0.000000      2.000000
  0.461538 -0.000000  0.000000      2.000000
  0.000000  0.250000  0.000000      2.000000
  0.076923  0.250000  0.000000      2.000000
  0.153846  0.250000  0.000000      2.000000
  0.230769  0.250000  0.000000      2.000000
  0.307692  0.250000  0.000000      2.000000
  0.384615  0.250000  0.000000      2.000000
  0.461538  0.250000  0.000000      2.000000
 -0.461538  0.250000  0.000000      2.000000
 -0.384615  0.250000  0.000000      2.000000
 -0.307692  0.250000  0.000000      2.000000
 -0.230769  0.250000  0.000000      2.000000
 -0.153846  0.250000  0.000000      2.000000
 -0.076923  0.250000  0.000000      2.000000
  0.000000  0.500000  0.000000      1.000000
  0.076923  0.500000  0.000000      2.000000
  0.153846  0.500000  0.000000      2.000000
  0.230769  0.500000  0.000000      2.000000
  0.307692  0.500000  0.000000      2.000000
  0.384615  0.500000  0.000000      2.000000
  0.461538  0.500000  0.000000      2.000000
  0.000000  0.000000  0.500000      1.000000
  0.076923 -0.000000  0.500000      2.000000
  0.153846 -0.000000  0.500000      2.000000
  0.230769 -0.000000  0.500000      2.000000
  0.307692 -0.000000  0.500000      2.000000
  0.384615 -0.000000  0.500000      2.000000
  0.461538 -0.000000  0.500000      2.000000
  0.000000  0.250000  0.500000      2.000000
  0.076923  0.250000  0.500000      2.000000
  0.153846  0.250000  0.500000      2.000000
  0.230769  0.250000  0.500000      2.000000
  0.307692  0.250000  0.500000      2.000000
  0.384615  0.250000  0.500000      2.000000
  0.461538  0.250000  0.500000      2.000000
 -0.461538  0.250000  0.500000      2.000000
 -0.384615  0.250000  0.500000      2.000000
 -0.307692  0.250000  0.500000      2.000000
 -0.230769  0.250000  0.500000      2.000000
 -0.153846  0.250000  0.500000      2.000000
 -0.076923  0.250000  0.500000      2.000000
  0.000000  0.500000  0.500000      1.000000
  0.076923  0.500000  0.500000      2.000000
  0.153846  0.500000  0.500000      2.000000
  0.230769  0.500000  0.500000      2.000000
  0.307692  0.500000  0.500000      2.000000
  0.384615  0.500000  0.500000      2.000000
  0.461538  0.500000  0.500000      2.000000
 
 Following cartesian coordinates:
            Coordinates               Weight
  0.000000  0.000000  0.000000      1.000000
  0.021727  0.003736  0.000000      2.000000
  0.043454  0.007472  0.000000      2.000000
  0.065182  0.011209  0.000000      2.000000
  0.086909  0.014945  0.000000      2.000000
  0.108636  0.018681  0.000000      2.000000
  0.130363  0.022417  0.000000      2.000000
  0.000000  0.024285  0.000000      2.000000
  0.021727  0.028021  0.000000      2.000000
  0.043454  0.031758  0.000000      2.000000
  0.065182  0.035494  0.000000      2.000000
  0.086909  0.039230  0.000000      2.000000
  0.108636  0.042966  0.000000      2.000000
  0.130363  0.046702  0.000000      2.000000
 -0.130363  0.001868  0.000000      2.000000
 -0.108636  0.005604  0.000000      2.000000
 -0.086909  0.009340  0.000000      2.000000
 -0.065182  0.013077  0.000000      2.000000
 -0.043454  0.016813  0.000000      2.000000
 -0.021727  0.020549  0.000000      2.000000
  0.000000  0.048570  0.000000      1.000000
  0.021727  0.052307  0.000000      2.000000
  0.043454  0.056043  0.000000      2.000000
  0.065182  0.059779  0.000000      2.000000
  0.086909  0.063515  0.000000      2.000000
  0.108636  0.067251  0.000000      2.000000
  0.130363  0.070987  0.000000      2.000000
  0.000000  0.000000  0.018181      1.000000
  0.021727  0.003736  0.018181      2.000000
  0.043454  0.007472  0.018181      2.000000
  0.065182  0.011209  0.018181      2.000000
  0.086909  0.014945  0.018181      2.000000
  0.108636  0.018681  0.018181      2.000000
  0.130363  0.022417  0.018181      2.000000
  0.000000  0.024285  0.018181      2.000000
  0.021727  0.028021  0.018181      2.000000
  0.043454  0.031758  0.018181      2.000000
  0.065182  0.035494  0.018181      2.000000
  0.086909  0.039230  0.018181      2.000000
  0.108636  0.042966  0.018181      2.000000
  0.130363  0.046702  0.018181      2.000000
 -0.130363  0.001868  0.018181      2.000000
 -0.108636  0.005604  0.018181      2.000000
 -0.086909  0.009340  0.018181      2.000000
 -0.065182  0.013077  0.018181      2.000000
 -0.043454  0.016813  0.018181      2.000000
 -0.021727  0.020549  0.018181      2.000000
  0.000000  0.048570  0.018181      1.000000
  0.021727  0.052307  0.018181      2.000000
  0.043454  0.056043  0.018181      2.000000
  0.065182  0.059779  0.018181      2.000000
  0.086909  0.063515  0.018181      2.000000
  0.108636  0.067251  0.018181      2.000000
  0.130363  0.070987  0.018181      2.000000
 


--------------------------------------------------------------------------------------------------------




 Dimension of arrays:
   k-points           NKPTS =     54   k-points in BZ     NKDIM =     54   number of bands    NBANDS=     68
   number of dos      NEDOS =    301   number of ions     NIONS =     24
   non local maximal  LDIM  =      4   non local SUM 2l+1 LMDIM =      8
   total plane-waves  NPLWV = 192000
   max r-space proj   IRMAX =   2772   max aug-charges    IRDMAX=   6603
   dimension x,y,z NGX =    20 NGY =   60 NGZ =  160
   dimension x,y,z NGXF=    40 NGYF=  120 NGZF=  320
   support grid    NGXF=    40 NGYF=  120 NGZF=  320
   ions per type =              12  12
 NGX,Y,Z   is equivalent  to a cutoff of   9.39,  9.55,  9.67 a.u.
 NGXF,Y,Z  is equivalent  to a cutoff of  18.78, 19.10, 19.34 a.u.


 I would recommend the setting:
   dimension x,y,z NGX =    20 NGY =   59 NGZ =  155
 SYSTEM =  unknown system                          
 POSCAR =  Si12                                    

 Startparameter for this run:
   NWRITE =      2    write-flag & timer
   PREC   = accura    normal or accurate (medium, high low for compatibility)
   ISTART =      0    job   : 0-new  1-cont  2-samecut
   ICHARG =      2    charge: 1-file 2-atom 10-const
   ISPIN  =      1    spin polarized calculation?
   LNONCOLLINEAR =      F non collinear calculations
   LSORBIT =      F    spin-orbit coupling
   INIWAV =      1    electr: 0-lowe 1-rand  2-diag
   LASPH  =      F    aspherical Exc in radial PAW
   METAGGA=      F    non-selfconsistent MetaGGA calc.

 Electronic Relaxation 1
   ENCUT  =  300.0 eV  22.05 Ry    4.70 a.u.   5.00 14.75 38.84*2*pi/ulx,y,z
   ENINI  =  300.0     initial cutoff
   ENAUG  =  342.9 eV  augmentation charge cutoff
   NELM   =     60;   NELMIN=  2; NELMDL= -5     # of ELM steps 
   EDIFF  = 0.1E-05   stopping-criterion for ELM
   LREAL  =      T    real-space projection
   NLSPLINE    = F    spline interpolate recip. space projectors
   LCOMPAT=      F    compatible to vasp.4.4
   GGA_COMPAT  = T    GGA compatible to vasp.4.4-vasp.4.6
   LMAXPAW     = -100 max onsite density
   LMAXMIX     =    2 max onsite mixed and CHGCAR
   VOSKOWN=      0    Vosko Wilk Nusair interpolation
   ROPT   =   -0.00025  -0.00025
 Ionic relaxation
   EDIFFG = 0.1E-04   stopping-criterion for IOM
   NSW    =      0    number of steps for IOM
   NBLOCK =      1;   KBLOCK =      1    inner block; outer block 
   IBRION =     -1    ionic relax: 0-MD 1-quasi-New 2-CG
   NFREE  =      1    steps in history (QN), initial steepest desc. (CG)
   ISIF   =      3    stress and relaxation
   IWAVPR =     10    prediction:  0-non 1-charg 2-wave 3-comb
   ISYM   =      2    0-nonsym 1-usesym 2-fastsym
   LCORR  =      T    Harris-Foulkes like correction to forces

   POTIM  = 0.5000    time-step for ionic-motion
   TEIN   =    0.0    initial temperature
   TEBEG  =    0.0;   TEEND  =   0.0 temperature during run
   SMASS  =  -3.00    Nose mass-parameter (am)
   estimated Nose-frequenzy (Omega)   =  0.10E-29 period in steps =****** mass=  -0.286E-27a.u.
   SCALEE = 1.0000    scale energy and forces
   NPACO  =    256;   APACO  = 16.0  distance and # of slots for P.C.
   PSTRESS=    0.0 pullay stress

  Mass of Ions in am
   POMASS =  30.97 28.09
  Ionic Valenz
   ZVAL   =   5.00  4.00
  Atomic Wigner-Seitz radii
   RWIGS  =  -1.00 -1.00
  virtual crystal weights 
   VCA    =   1.00  1.00
   NELECT =     108.0000    total number of electrons
   NUPDOWN=      -1.0000    fix difference up-down

 DOS related values:
   EMIN   =  10.00;   EMAX   =-10.00  energy-range for DOS
   EFERMI =   0.00
   ISMEAR =     0;   SIGMA  =   0.10  broadening in eV -4-tet -1-fermi 0-gaus

 Electronic relaxation 2 (details)
   IALGO  =     38    algorithm
   LDIAG  =      T    sub-space diagonalisation (order eigenvalues)
   LSUBROT=      F    optimize rotation matrix (better conditioning)
   TURBO    =      0    0=normal 1=particle mesh
   IRESTART =      0    0=no restart 2=restart with 2 vectors
   NREBOOT  =      0    no. of reboots
   NMIN     =      0    reboot dimension
   EREF     =   0.00    reference energy to select bands
   IMIX   =      4    mixing-type and parameters
     AMIX     =   0.40;   BMIX     =  1.00
     AMIX_MAG =   1.60;   BMIX_MAG =  1.00
     AMIN     =   0.10
     WC   =   100.;   INIMIX=   1;  MIXPRE=   1;  MAXMIX= -45

 Intra band minimization:
   WEIMIN = 0.0000     energy-eigenvalue tresh-hold
   EBREAK =  0.37E-08  absolut break condition
   DEPER  =   0.30     relativ break condition  

   TIME   =   0.40     timestep for ELM

  volume/ion in A,a.u.               =      41.76       281.83
  Fermi-wavevector in a.u.,A,eV,Ry     =   0.779018  1.472130  8.256946  0.606868
  Thomas-Fermi vector in A             =   1.882034
 
 Write flags
   LWAVE  =      F    write WAVECAR
   LCHARG =      F    write CHGCAR
   LVTOT  =      F    write LOCPOT, total local potential
   LVHAR  =      F    write LOCPOT, Hartree potential only
   LELF   =      F    write electronic localiz. function (ELF)
   LORBIT =      0    0 simple, 1 ext, 2 COOP (PROOUT)


 Dipole corrections
   LMONO  =      F    monopole corrections only (constant potential shift)
   LDIPOL =      F    correct potential (dipole corrections)
   IDIPOL =      0    1-x, 2-y, 3-z, 4-all directions 
   EPSILON=  1.0000000 bulk dielectric constant

 Exchange correlation treatment:
   GGA     =    BO    GGA type
   LEXCH   =    42    internal setting for exchange type
   VOSKOWN=      0    Vosko Wilk Nusair interpolation
   LHFCALC =     F    Hartree Fock is set to
   LHFONE  =     F    Hartree Fock one center treatment
   AEXX    =    0.0000 exact exchange contribution

 vdW DFT:
   LUSE_VDW   =     T    switch on vdW DFT
   Zab_VDW    =-.8491    correlation parameter
   PARAM1     =0.1833
   PARAM2     =0.2200
   PARAM3     =0.0000

 Linear response parameters
   LEPSILON=     F    determine dielectric tensor
   LRPA    =     F    only Hartree local field effects (RPA)
   LNABLA  =     F    use nabla operator in PAW spheres
   LVEL    =     F    velocity operator in full k-point grid
   LINTERFAST=   F  fast interpolation
   KINTER  =     0    interpolate to denser k-point grid
   CSHIFT  =0.1000    complex shift for real part using Kramers Kronig
   OMEGAMAX=  -1.0    maximum frequency
   DEG_THRESHOLD= 0.2000000E-02 threshold for treating states as degnerate
   RTIME   =    0.100 relaxation time in fs

 Orbital magnetization related:
   ORBITALMAG=     F  switch on orbital magnetization
   LCHIMAG   =     F  perturbation theory with respect to B field
   DQ        =  0.001000  dq finite difference perturbation B field



--------------------------------------------------------------------------------------------------------


 Static calculation
 charge density and potential will be updated during run
 non-spin polarized calculation
 Variant of blocked Davidson
 Davidson routine will perform the subspace rotation
 perform sub-space diagonalisation
    after iterative eigenvector-optimisation
 modified Broyden-mixing scheme, WC =      100.0
 initial mixing is a Kerker type mixing with AMIX =  0.4000 and BMIX =      1.0000
 Hartree-type preconditioning will be used
 using additional bands           14
 real space projection scheme for non local part
 use partial core corrections
 calculate Harris-corrections to forces 
   (improved forces if not selfconsistent)
 use gradient corrections 
 use of overlap-Matrix (Vanderbilt PP)
 Gauss-broadening in eV      SIGMA  =   0.10


--------------------------------------------------------------------------------------------------------


  energy-cutoff  :      300.00
  volume of cell :     1002.32
      direct lattice vectors                 reciprocal lattice vectors
     3.540400000  0.000000000  0.000000000     0.282453960  0.048570342  0.000000000
    -1.770200000 10.294348000  0.000000000     0.000000000  0.097140683  0.000000000
     0.000000000  0.000000000 27.501429000     0.000000000  0.000000000  0.036361747

  length of vectors
     3.540400000 10.445439617 27.501429000     0.286599577  0.097140683  0.036361747


 
 k-points in units of 2pi/SCALE and weight: pymatgen generated KPOINTS with grid den
   0.00000000  0.00000000  0.00000000       0.010
   0.02172723  0.00373618  0.00000000       0.019
   0.04345446  0.00747236  0.00000000       0.019
   0.06518168  0.01120854  0.00000000       0.019
   0.08690891  0.01494472  0.00000000       0.019
   0.10863614  0.01868090  0.00000000       0.019
   0.13036337  0.02241708  0.00000000       0.019
   0.00000000  0.02428517  0.00000000       0.019
   0.02172723  0.02802135  0.00000000       0.019
   0.04345446  0.03175753  0.00000000       0.019
   0.06518168  0.03549371  0.00000000       0.019
   0.08690891  0.03922989  0.00000000       0.019
   0.10863614  0.04296607  0.00000000       0.019
   0.13036337  0.04670225  0.00000000       0.019
  -0.13036337  0.00186809  0.00000000       0.019
  -0.10863614  0.00560427  0.00000000       0.019
  -0.08690891  0.00934045  0.00000000       0.019
  -0.06518168  0.01307663  0.00000000       0.019
  -0.04345446  0.01681281  0.00000000       0.019
  -0.02172723  0.02054899  0.00000000       0.019
   0.00000000  0.04857034  0.00000000       0.010
   0.02172723  0.05230652  0.00000000       0.019
   0.04345446  0.05604270  0.00000000       0.019
   0.06518168  0.05977888  0.00000000       0.019
   0.08690891  0.06351506  0.00000000       0.019
   0.10863614  0.06725124  0.00000000       0.019
   0.13036337  0.07098742  0.00000000       0.019
   0.00000000  0.00000000  0.01818087       0.010
   0.02172723  0.00373618  0.01818087       0.019
   0.04345446  0.00747236  0.01818087       0.019
   0.06518168  0.01120854  0.01818087       0.019
   0.08690891  0.01494472  0.01818087       0.019
   0.10863614  0.01868090  0.01818087       0.019
   0.13036337  0.02241708  0.01818087       0.019
   0.00000000  0.02428517  0.01818087       0.019
   0.02172723  0.02802135  0.01818087       0.019
   0.04345446  0.03175753  0.01818087       0.019
   0.06518168  0.03549371  0.01818087       0.019
   0.08690891  0.03922989  0.01818087       0.019
   0.10863614  0.04296607  0.01818087       0.019
   0.13036337  0.04670225  0.01818087       0.019
  -0.13036337  0.00186809  0.01818087       0.019
  -0.10863614  0.00560427  0.01818087       0.019
  -0.08690891  0.00934045  0.01818087       0.019
  -0.06518168  0.01307663  0.01818087       0.019
  -0.04345446  0.01681281  0.01818087       0.019
  -0.02172723  0.02054899  0.01818087       0.019
   0.00000000  0.04857034  0.01818087       0.010
   0.02172723  0.05230652  0.01818087       0.019
   0.04345446  0.05604270  0.01818087       0.019
   0.06518168  0.05977888  0.01818087       0.019
   0.08690891  0.06351506  0.01818087       0.019
   0.10863614  0.06725124  0.01818087       0.019
   0.13036337  0.07098742  0.01818087       0.019
 
 k-points in reciprocal lattice and weights: pymatgen generated KPOINTS with grid den
   0.00000000  0.00000000  0.00000000       0.010
   0.07692308 -0.00000000  0.00000000       0.019
   0.15384615 -0.00000000  0.00000000       0.019
   0.23076923 -0.00000000  0.00000000       0.019
   0.30769231 -0.00000000  0.00000000       0.019
   0.38461538 -0.00000000  0.00000000       0.019
   0.46153846 -0.00000000  0.00000000       0.019
   0.00000000  0.25000000  0.00000000       0.019
   0.07692308  0.25000000  0.00000000       0.019
   0.15384615  0.25000000  0.00000000       0.019
   0.23076923  0.25000000  0.00000000       0.019
   0.30769231  0.25000000  0.00000000       0.019
   0.38461538  0.25000000  0.00000000       0.019
   0.46153846  0.25000000  0.00000000       0.019
  -0.46153846  0.25000000  0.00000000       0.019
  -0.38461538  0.25000000  0.00000000       0.019
  -0.30769231  0.25000000  0.00000000       0.019
  -0.23076923  0.25000000  0.00000000       0.019
  -0.15384615  0.25000000  0.00000000       0.019
  -0.07692308  0.25000000  0.00000000       0.019
   0.00000000  0.50000000  0.00000000       0.010
   0.07692308  0.50000000  0.00000000       0.019
   0.15384615  0.50000000  0.00000000       0.019
   0.23076923  0.50000000  0.00000000       0.019
   0.30769231  0.50000000  0.00000000       0.019
   0.38461538  0.50000000  0.00000000       0.019
   0.46153846  0.50000000  0.00000000       0.019
   0.00000000  0.00000000  0.50000000       0.010
   0.07692308 -0.00000000  0.50000000       0.019
   0.15384615 -0.00000000  0.50000000       0.019
   0.23076923 -0.00000000  0.50000000       0.019
   0.30769231 -0.00000000  0.50000000       0.019
   0.38461538 -0.00000000  0.50000000       0.019
   0.46153846 -0.00000000  0.50000000       0.019
   0.00000000  0.25000000  0.50000000       0.019
   0.07692308  0.25000000  0.50000000       0.019
   0.15384615  0.25000000  0.50000000       0.019
   0.23076923  0.25000000  0.50000000       0.019
   0.30769231  0.25000000  0.50000000       0.019
   0.38461538  0.25000000  0.50000000       0.019
   0.46153846  0.25000000  0.50000000       0.019
  -0.46153846  0.25000000  0.50000000       0.019
  -0.38461538  0.25000000  0.50000000       0.019
  -0.30769231  0.25000000  0.50000000       0.019
  -0.23076923  0.25000000  0.50000000       0.019
  -0.15384615  0.25000000  0.50000000       0.019
  -0.07692308  0.25000000  0.50000000       0.019
   0.00000000  0.50000000  0.50000000       0.010
   0.07692308  0.50000000  0.50000000       0.019
   0.15384615  0.50000000  0.50000000       0.019
   0.23076923  0.50000000  0.50000000       0.019
   0.30769231  0.50000000  0.50000000       0.019
   0.38461538  0.50000000  0.50000000       0.019
   0.46153846  0.50000000  0.50000000       0.019
 
 position of ions in fractional coordinates (direct lattice) 
   0.11402300  0.22804500  0.23316207
   0.61402300  0.22804500  0.51499159
   0.45808900  0.91617900  0.20939482
   0.95808900  0.91617900  0.49122434
   0.31085400  0.62170900  0.08414979
   0.31085400  0.62170900  0.36597930
   0.99923000  0.99846000  0.08631254
   0.99923000  0.99846000  0.36814206
   0.65492700  0.30985400  0.06041748
   0.65492700  0.30985400  0.34224700
   0.76973800  0.53947500  0.20725292
   0.26973800  0.53947500  0.48908244
   0.93971600  0.87943300  0.15783749
   0.43971600  0.87943300  0.43966701
   0.20515200  0.41030300  0.18578822
   0.70515200  0.41030300  0.46761774
   0.20184900  0.40369900  0.09969156
   0.20184900  0.40369900  0.38152107
   0.56380500  0.12761000  0.10779021
   0.56380500  0.12761000  0.38961973
   0.56710600  0.13421200  0.19387616
   0.06710600  0.13421200  0.47570568
   0.82923400  0.65846800  0.13571444
   0.32923400  0.65846800  0.41754396
 
 position of ions in cartesian coordinates  (Angst):
   0.00000177  2.34757459  6.41229012
   1.77020177  2.34757459 14.16300462
  -0.00000177  9.43146546  5.75865686
   1.77019823  9.43146546 13.50937136
  -0.00000177  6.40008880  2.31423934
  -0.00000177  6.40008880 10.06495384
   1.77020000 10.27849470  2.37371832
   1.77020000 10.27849470 10.12443282
   1.77020000  3.18974491  1.66156717
   1.77020000  3.18974491  9.41228167
   1.77020177  5.55354339  5.69975143
   0.00000177  5.55354339 13.45046593
   1.77019823  9.05318934  4.34075665
  -0.00000177  9.05318934 12.09147115
   0.00000177  4.22380187  5.10944151
   1.77020177  4.22380187 12.86015601
  -0.00000177  4.15581799  2.74166024
  -0.00000177  4.15581799 10.49237474
   1.77020000  1.31366175  2.96438477
   1.77020000  1.31366175 10.71509927
   1.77020000  1.38162503  5.33187152
   0.00000000  1.38162503 13.08258602
   1.77020000  6.77849874  3.73234107
   0.00000000  6.77849874 11.48305557
 


--------------------------------------------------------------------------------------------------------


 k-point  1 :   0.0000 0.0000 0.0000  plane waves:   11717
 k-point  2 :   0.0769-0.0000 0.0000  plane waves:   11762
 k-point  3 :   0.1538-0.0000 0.0000  plane waves:   11805
 k-point  4 :   0.2308-0.0000 0.0000  plane waves:   11824
 k-point  5 :   0.3077-0.0000 0.0000  plane waves:   11875
 k-point  6 :   0.3846-0.0000 0.0000  plane waves:   11864
 k-point  7 :   0.4615-0.0000 0.0000  plane waves:   11883
 k-point  8 :   0.0000 0.2500 0.0000  plane waves:   11683
 k-point  9 :   0.0769 0.2500 0.0000  plane waves:   11756
 k-point 10 :   0.1538 0.2500 0.0000  plane waves:   11807
 k-point 11 :   0.2308 0.2500 0.0000  plane waves:   11853
 k-point 12 :   0.3077 0.2500 0.0000  plane waves:   11866
 k-point 13 :   0.3846 0.2500 0.0000  plane waves:   11889
 k-point 14 :   0.4615 0.2500 0.0000  plane waves:   11885
 k-point 15 :  -0.4615 0.2500 0.0000  plane waves:   11886
 k-point 16 :  -0.3846 0.2500 0.0000  plane waves:   11867
 k-point 17 :  -0.3077 0.2500 0.0000  plane waves:   11849
 k-point 18 :  -0.2308 0.2500 0.0000  plane waves:   11827
 k-point 19 :  -0.1538 0.2500 0.0000  plane waves:   11801
 k-point 20 :  -0.0769 0.2500 0.0000  plane waves:   11757
 k-point 21 :   0.0000 0.5000 0.0000  plane waves:   11710
 k-point 22 :   0.0769 0.5000 0.0000  plane waves:   11762
 k-point 23 :   0.1538 0.5000 0.0000  plane waves:   11782
 k-point 24 :   0.2308 0.5000 0.0000  plane waves:   11841
 k-point 25 :   0.3077 0.5000 0.0000  plane waves:   11876
 k-point 26 :   0.3846 0.5000 0.0000  plane waves:   11889
 k-point 27 :   0.4615 0.5000 0.0000  plane waves:   11881
 k-point 28 :   0.0000 0.0000 0.5000  plane waves:   11698
 k-point 29 :   0.0769-0.0000 0.5000  plane waves:   11752
 k-point 30 :   0.1538-0.0000 0.5000  plane waves:   11800
 k-point 31 :   0.2308-0.0000 0.5000  plane waves:   11834
 k-point 32 :   0.3077-0.0000 0.5000  plane waves:   11850
 k-point 33 :   0.3846-0.0000 0.5000  plane waves:   11888
 k-point 34 :   0.4615-0.0000 0.5000  plane waves:   11896
 k-point 35 :   0.0000 0.2500 0.5000  plane waves:   11714
 k-point 36 :   0.0769 0.2500 0.5000  plane waves:   11754
 k-point 37 :   0.1538 0.2500 0.5000  plane waves:   11802
 k-point 38 :   0.2308 0.2500 0.5000  plane waves:   11840
 k-point 39 :   0.3077 0.2500 0.5000  plane waves:   11858
 k-point 40 :   0.3846 0.2500 0.5000  plane waves:   11896
 k-point 41 :   0.4615 0.2500 0.5000  plane waves:   11886
 k-point 42 :  -0.4615 0.2500 0.5000  plane waves:   11852
 k-point 43 :  -0.3846 0.2500 0.5000  plane waves:   11838
 k-point 44 :  -0.3077 0.2500 0.5000  plane waves:   11842
 k-point 45 :  -0.2308 0.2500 0.5000  plane waves:   11840
 k-point 46 :  -0.1538 0.2500 0.5000  plane waves:   11804
 k-point 47 :  -0.0769 0.2500 0.5000  plane waves:   11748
 k-point 48 :   0.0000 0.5000 0.5000  plane waves:   11724
 k-point 49 :   0.0769 0.5000 0.5000  plane waves:   11748
 k-point 50 :   0.1538 0.5000 0.5000  plane waves:   11814
 k-point 51 :   0.2308 0.5000 0.5000  plane waves:   11832
 k-point 52 :   0.3077 0.5000 0.5000  plane waves:   11868
 k-point 53 :   0.3846 0.5000 0.5000  plane waves:   11892
 k-point 54 :   0.4615 0.5000 0.5000  plane waves:   11878

 maximum and minimum number of plane-waves per node :      5964     5832

 maximum number of plane-waves:     11896
 maximum index in each direction: 
   IXMAX=    5   IYMAX=   14   IZMAX=   38
   IXMIN=   -5   IYMIN=  -15   IZMIN=  -39

 WARNING: aliasing errors must be expected set NGX to  22 to avoid them
 NGY is ok and might be reduce to  60
 NGZ is ok and might be reduce to 156
 aliasing errors are usually negligible using standard VASP settings
 and one can safely disregard these warnings

 real space projection operators:
  total allocation   :       3793.25 KBytes
  max/ min on nodes  :       1899.38       1893.88


 parallel 3D FFT for wavefunctions:
    minimum data exchange during FFTs selected (reduces bandwidth)
 parallel 3D FFT for charge:
    minimum data exchange during FFTs selected (reduces bandwidth)


 total amount of memory used by VASP on root node   146493. kBytes
========================================================================

   base      :      30000. kBytes
   nonlr-proj:       3452. kBytes
   fftplans  :       9347. kBytes
   grid      :      14649. kBytes
   one-center:         36. kBytes
   wavefun   :      89009. kBytes
 
     INWAV:  cpu time    0.00: real time    0.00
 Broyden mixing: mesh for mixing (old mesh)
   NGX =  9   NGY = 29   NGZ = 77
  (NGX  = 40   NGY  =120   NGZ  =320)
  gives a total of  20097 points

 initial charge density was supplied:
 charge density of overlapping atoms calculated
 number of electron     108.0000000 magnetization 
 keeping initial charge density in first step


--------------------------------------------------------------------------------------------------------


 Maximum index for non-local projection operator         1333
 Maximum index for augmentation-charges          822 (set IRDMAX)


--------------------------------------------------------------------------------------------------------


 First call to EWALD:  gamma=   0.177
 Maximum number of real-space cells 7x 3x 1
 Maximum number of reciprocal cells 1x 3x 7

 FEWALD executed in parallel
    FEWALD:  cpu time    0.00: real time    0.00


----------------------------------------- Iteration    1(   1)  ---------------------------------------


vdW kernel read from vdw_kernel.bindat
  0.0000  0.2424  0.5071  0.7962  1.1119  1.4567  1.8333  2.2446  2.6937  3.1842
  3.7199  4.3049  4.9438  5.6415  6.4036  7.2358  8.1446  9.1372 10.2212 11.4050
 12.6979 14.1099 15.6519 17.3360 19.1751 21.1837 23.3773 25.7729 28.3892 31.2465
 34.3669 37.7748 41.4965 45.5611 50.0000
 
    POTLOK:  cpu time   14.71: real time   14.72
    SETDIJ:  cpu time    0.01: real time    0.01
     EDDAV:  cpu time   61.81: real time   61.83
       DOS:  cpu time    0.01: real time    0.01
    --------------------------------------------
      LOOP:  cpu time   76.55: real time   76.58

 eigenvalue-minimisations  :  7352
 total energy-change (2. order) : 0.5003417E+03  (-0.2866372E+04)
 number of electron     108.0000000 magnetization 
 augmentation part      108.0000000 magnetization 

 Free energy of the ion-electron system (eV)
  ---------------------------------------------------
  alpha Z        PSCENC =        36.80884744
  Ewald energy   TEWEN  =     11915.06724916
  -Hartree energ DENC   =    -14952.90532124
  -exchange      EXHF   =         0.00000000
  -V(xc)+E(xc)   XCENC  =       -88.10906465
  PAW double counting   =      1056.43050070     -732.41190547
  entropy T*S    EENTRO =        -0.04347849
  eigenvalues    EBANDS =       -88.53634126
  atomic energy  EATOM  =      3354.04126044
  ---------------------------------------------------
  free energy    TOTEN  =       500.34174663 eV

  energy without entropy =      500.38522513  energy(sigma->0) =      500.36348588


--------------------------------------------------------------------------------------------------------




----------------------------------------- Iteration    1(   2)  ---------------------------------------


     EDDAV:  cpu time   82.57: real time   82.59
       DOS:  cpu time    0.01: real time    0.01
    --------------------------------------------
      LOOP:  cpu time   82.58: real time   82.60

 eigenvalue-minimisations  :  9820
 total energy-change (2. order) :-0.5607013E+03  (-0.5464753E+03)
 number of electron     108.0000000 magnetization 
 augmentation part      108.0000000 magnetization 

 Free energy of the ion-electron system (eV)
  ---------------------------------------------------
  alpha Z        PSCENC =        36.80884744
  Ewald energy   TEWEN  =     11915.06724916
  -Hartree energ DENC   =    -14952.90532124
  -exchange      EXHF   =         0.00000000
  -V(xc)+E(xc)   XCENC  =       -88.10906465
  PAW double counting   =      1056.43050070     -732.41190547
  entropy T*S    EENTRO =        -0.02690002
  eigenvalues    EBANDS =      -649.25426718
  atomic energy  EATOM  =      3354.04126044
  ---------------------------------------------------
  free energy    TOTEN  =       -60.35960082 eV

  energy without entropy =      -60.33270080  energy(sigma->0) =      -60.34615081


--------------------------------------------------------------------------------------------------------




----------------------------------------- Iteration    1(   3)  ---------------------------------------


     EDDAV:  cpu time   75.19: real time   75.24
       DOS:  cpu time    0.01: real time    0.01
    --------------------------------------------
      LOOP:  cpu time   75.20: real time   75.25

 eigenvalue-minimisations  :  8828
 total energy-change (2. order) :-0.5755425E+02  (-0.5676726E+02)
 number of electron     108.0000000 magnetization 
 augmentation part      108.0000000 magnetization 

 Free energy of the ion-electron system (eV)
  ---------------------------------------------------
  alpha Z        PSCENC =        36.80884744
  Ewald energy   TEWEN  =     11915.06724916
  -Hartree energ DENC   =    -14952.90532124
  -exchange      EXHF   =         0.00000000
  -V(xc)+E(xc)   XCENC  =       -88.10906465
  PAW double counting   =      1056.43050070     -732.41190547
  entropy T*S    EENTRO =        -0.03262806
  eigenvalues    EBANDS =      -706.80278828
  atomic energy  EATOM  =      3354.04126044
  ---------------------------------------------------
  free energy    TOTEN  =      -117.91384996 eV

  energy without entropy =     -117.88122190  energy(sigma->0) =     -117.89753593


--------------------------------------------------------------------------------------------------------




----------------------------------------- Iteration    1(   4)  ---------------------------------------


     EDDAV:  cpu time   91.92: real time   91.98
       DOS:  cpu time    0.01: real time    0.01
    --------------------------------------------
      LOOP:  cpu time   91.93: real time   92.00

 eigenvalue-minimisations  : 11064
 total energy-change (2. order) :-0.2722717E+01  (-0.2707014E+01)
 number of electron     108.0000000 magnetization 
 augmentation part      108.0000000 magnetization 

 Free energy of the ion-electron system (eV)
  ---------------------------------------------------
  alpha Z        PSCENC =        36.80884744
  Ewald energy   TEWEN  =     11915.06724916
  -Hartree energ DENC   =    -14952.90532124
  -exchange      EXHF   =         0.00000000
  -V(xc)+E(xc)   XCENC  =       -88.10906465
  PAW double counting   =      1056.43050070     -732.41190547
  entropy T*S    EENTRO =        -0.03574267
  eigenvalues    EBANDS =      -709.52239094
  atomic energy  EATOM  =      3354.04126044
  ---------------------------------------------------
  free energy    TOTEN  =      -120.63656722 eV

  energy without entropy =     -120.60082456  energy(sigma->0) =     -120.61869589


--------------------------------------------------------------------------------------------------------




----------------------------------------- Iteration    1(   5)  ---------------------------------------


     EDDAV:  cpu time   88.95: real time   89.01
       DOS:  cpu time    0.01: real time    0.01
    CHARGE:  cpu time    5.80: real time    5.80
    MIXING:  cpu time    0.01: real time    0.01
    --------------------------------------------
      LOOP:  cpu time   94.77: real time   94.83

 eigenvalue-minimisations  :  9760
 total energy-change (2. order) :-0.5596977E-01  (-0.5590947E-01)
 number of electron     107.9999994 magnetization 
 augmentation part       -9.6991321 magnetization 

 Broyden mixing:
  rms(total) = 0.12487E+01    rms(broyden)= 0.12484E+01
  rms(prec ) = 0.13269E+01
  weight for this iteration     100.00

 Free energy of the ion-electron system (eV)
  ---------------------------------------------------
  alpha Z        PSCENC =        36.80884744
  Ewald energy   TEWEN  =     11915.06724916
  -Hartree energ DENC   =    -14952.90532124
  -exchange      EXHF   =         0.00000000
  -V(xc)+E(xc)   XCENC  =       -88.10906465
  PAW double counting   =      1056.43050070     -732.41190547
  entropy T*S    EENTRO =        -0.03585947
  eigenvalues    EBANDS =      -709.57824391
  atomic energy  EATOM  =      3354.04126044
  ---------------------------------------------------
  free energy    TOTEN  =      -120.69253700 eV

  energy without entropy =     -120.65667753  energy(sigma->0) =     -120.67460726


--------------------------------------------------------------------------------------------------------




----------------------------------------- Iteration    1(   6)  ---------------------------------------


    POTLOK:  cpu time   14.19: real time   14.19
    SETDIJ:  cpu time    0.01: real time    0.01
     EDDAV:  cpu time   83.36: real time   83.43
       DOS:  cpu time    0.01: real time    0.01
    CHARGE:  cpu time    4.50: real time    4.50
    MIXING:  cpu time    0.01: real time    0.01
    --------------------------------------------
      LOOP:  cpu time  102.08: real time  102.16

 eigenvalue-minimisations  :  8920
 total energy-change (2. order) : 0.4366231E+01  (-0.8251729E+00)
 number of electron     107.9999994 magnetization 
 augmentation part       -9.5175643 magnetization 

 Broyden mixing:
  rms(total) = 0.63611E+00    rms(broyden)= 0.63609E+00
  rms(prec ) = 0.66871E+00
  weight for this iteration     100.00

 eigenvalues of (default mixing * dielectric matrix)
  average eigenvalue GAMMA=   1.8111
  1.8111

 Free energy of the ion-electron system (eV)
  ---------------------------------------------------
  alpha Z        PSCENC =        36.80884744
  Ewald energy   TEWEN  =     11915.06724916
  -Hartree energ DENC   =    -14995.77360490
  -exchange      EXHF   =         0.00000000
  -V(xc)+E(xc)   XCENC  =       -84.61645981
  PAW double counting   =      1130.92017505     -808.95118543
  entropy T*S    EENTRO =        -0.04508636
  eigenvalues    EBANDS =      -663.77750120
  atomic energy  EATOM  =      3354.04126044
  ---------------------------------------------------
  free energy    TOTEN  =      -116.32630560 eV

  energy without entropy =     -116.28121924  energy(sigma->0) =     -116.30376242


--------------------------------------------------------------------------------------------------------




----------------------------------------- Iteration    1(   7)  ---------------------------------------


    POTLOK:  cpu time   13.92: real time   13.94
    SETDIJ:  cpu time    0.01: real time    0.01
     EDDAV:  cpu time   79.87: real time   79.92
       DOS:  cpu time    0.01: real time    0.01
    CHARGE:  cpu time    5.20: real time    5.20
    MIXING:  cpu time    0.01: real time    0.01
    --------------------------------------------
      LOOP:  cpu time   99.03: real time   99.09

 eigenvalue-minimisations  :  8520
 total energy-change (2. order) :-0.3743535E-01  (-0.1055232E+01)
 number of electron     107.9999994 magnetization 
 augmentation part       -9.3770748 magnetization 

 Broyden mixing:
  rms(total) = 0.25476E+00    rms(broyden)= 0.25466E+00
  rms(prec ) = 0.27581E+00
  weight for this iteration     100.00

 eigenvalues of (default mixing * dielectric matrix)
  average eigenvalue GAMMA=   1.3323
  1.1156  1.5490

 Free energy of the ion-electron system (eV)
  ---------------------------------------------------
  alpha Z        PSCENC =        36.80884744
  Ewald energy   TEWEN  =     11915.06724916
  -Hartree energ DENC   =    -15028.57158146
  -exchange      EXHF   =         0.00000000
  -V(xc)+E(xc)   XCENC  =       -81.19539294
  PAW double counting   =      1190.65529890     -870.33524182
  entropy T*S    EENTRO =        -0.03768493
  eigenvalues    EBANDS =      -632.79649574
  atomic energy  EATOM  =      3354.04126044
  ---------------------------------------------------
  free energy    TOTEN  =      -116.36374095 eV

  energy without entropy =     -116.32605603  energy(sigma->0) =     -116.34489849


--------------------------------------------------------------------------------------------------------




----------------------------------------- Iteration    1(   8)  ---------------------------------------


    POTLOK:  cpu time   14.29: real time   14.30
    SETDIJ:  cpu time    0.01: real time    0.01
     EDDAV:  cpu time   83.61: real time   83.67
       DOS:  cpu time    0.01: real time    0.01
    CHARGE:  cpu time    5.45: real time    5.45
    MIXING:  cpu time    0.01: real time    0.01
    --------------------------------------------
      LOOP:  cpu time  103.39: real time  103.46

 eigenvalue-minimisations  :  8548
 total energy-change (2. order) : 0.1339382E+00  (-0.1112837E+00)
 number of electron     107.9999994 magnetization 
 augmentation part       -9.4003626 magnetization 

 Broyden mixing:
  rms(total) = 0.17212E+00    rms(broyden)= 0.17211E+00
  rms(prec ) = 0.18274E+00
  weight for this iteration     100.00

 eigenvalues of (default mixing * dielectric matrix)
  average eigenvalue GAMMA=   1.4686
  1.7961  1.7961  0.8135

 Free energy of the ion-electron system (eV)
  ---------------------------------------------------
  alpha Z        PSCENC =        36.80884744
  Ewald energy   TEWEN  =     11915.06724916
  -Hartree energ DENC   =    -15032.18117376
  -exchange      EXHF   =         0.00000000
  -V(xc)+E(xc)   XCENC  =       -81.00966418
  PAW double counting   =      1187.00449602     -866.59485255
  entropy T*S    EENTRO =        -0.04520631
  eigenvalues    EBANDS =      -629.32075907
  atomic energy  EATOM  =      3354.04126044
  ---------------------------------------------------
  free energy    TOTEN  =      -116.22980279 eV

  energy without entropy =     -116.18459648  energy(sigma->0) =     -116.20719963


--------------------------------------------------------------------------------------------------------




----------------------------------------- Iteration    1(   9)  ---------------------------------------


    POTLOK:  cpu time   14.05: real time   14.07
    SETDIJ:  cpu time    0.01: real time    0.01
     EDDAV:  cpu time   82.11: real time   82.16
       DOS:  cpu time    0.01: real time    0.01
    CHARGE:  cpu time    5.28: real time    5.28
    MIXING:  cpu time    0.01: real time    0.01
    --------------------------------------------
      LOOP:  cpu time  101.49: real time  101.55

 eigenvalue-minimisations  :  8480
 total energy-change (2. order) :-0.2489696E-01  (-0.1011501E+00)
 number of electron     107.9999994 magnetization 
 augmentation part       -9.4137654 magnetization 

 Broyden mixing:
  rms(total) = 0.10773E+00    rms(broyden)= 0.10770E+00
  rms(prec ) = 0.12977E+00
  weight for this iteration     100.00

 eigenvalues of (default mixing * dielectric matrix)
  average eigenvalue GAMMA=   1.3313
  2.4004  1.1857  1.1857  0.5536

 Free energy of the ion-electron system (eV)
  ---------------------------------------------------
  alpha Z        PSCENC =        36.80884744
  Ewald energy   TEWEN  =     11915.06724916
  -Hartree energ DENC   =    -15035.39705524
  -exchange      EXHF   =         0.00000000
  -V(xc)+E(xc)   XCENC  =       -80.53515214
  PAW double counting   =      1187.53075548     -867.14217855
  entropy T*S    EENTRO =        -0.03869459
  eigenvalues    EBANDS =      -626.58973175
  atomic energy  EATOM  =      3354.04126044
  ---------------------------------------------------
  free energy    TOTEN  =      -116.25469975 eV

  energy without entropy =     -116.21600516  energy(sigma->0) =     -116.23535245


--------------------------------------------------------------------------------------------------------




----------------------------------------- Iteration    1(  10)  ---------------------------------------


    POTLOK:  cpu time   13.92: real time   13.94
    SETDIJ:  cpu time    0.01: real time    0.01
     EDDAV:  cpu time   85.87: real time   85.93
       DOS:  cpu time    0.01: real time    0.01
    CHARGE:  cpu time    4.80: real time    4.80
    MIXING:  cpu time    0.01: real time    0.01
    --------------------------------------------
      LOOP:  cpu time  104.63: real time  104.71

 eigenvalue-minimisations  :  8760
 total energy-change (2. order) : 0.1749429E-01  (-0.3615860E-01)
 number of electron     107.9999994 magnetization 
 augmentation part       -9.4054118 magnetization 

 Broyden mixing:
  rms(total) = 0.52566E-01    rms(broyden)= 0.52552E-01
  rms(prec ) = 0.60463E-01
  weight for this iteration     100.00

 eigenvalues of (default mixing * dielectric matrix)
  average eigenvalue GAMMA=   1.2412
  2.5474  1.1549  1.1549  0.8885  0.4606

 Free energy of the ion-electron system (eV)
  ---------------------------------------------------
  alpha Z        PSCENC =        36.80884744
  Ewald energy   TEWEN  =     11915.06724916
  -Hartree energ DENC   =    -15039.67109680
  -exchange      EXHF   =         0.00000000
  -V(xc)+E(xc)   XCENC  =       -80.12249491
  PAW double counting   =      1192.04308304     -871.77669178
  entropy T*S    EENTRO =        -0.04424299
  eigenvalues    EBANDS =      -622.58311906
  atomic energy  EATOM  =      3354.04126044
  ---------------------------------------------------
  free energy    TOTEN  =      -116.23720546 eV

  energy without entropy =     -116.19296247  energy(sigma->0) =     -116.21508396


--------------------------------------------------------------------------------------------------------




----------------------------------------- Iteration    1(  11)  ---------------------------------------


    POTLOK:  cpu time   14.30: real time   14.32
    SETDIJ:  cpu time    0.01: real time    0.01
     EDDAV:  cpu time   80.25: real time   80.28
       DOS:  cpu time    0.01: real time    0.01
    CHARGE:  cpu time    4.29: real time    4.29
    MIXING:  cpu time    0.01: real time    0.01
    --------------------------------------------
      LOOP:  cpu time   98.87: real time   98.92

 eigenvalue-minimisations  :  8568
 total energy-change (2. order) : 0.1025772E-01  (-0.7971847E-02)
 number of electron     107.9999994 magnetization 
 augmentation part       -9.3973628 magnetization 

 Broyden mixing:
  rms(total) = 0.16888E-01    rms(broyden)= 0.16882E-01
  rms(prec ) = 0.18266E-01
  weight for this iteration     100.00

 eigenvalues of (default mixing * dielectric matrix)
  average eigenvalue GAMMA=   1.3048
  2.5917  1.6771  1.1634  1.1634  0.7833  0.4497

 Free energy of the ion-electron system (eV)
  ---------------------------------------------------
  alpha Z        PSCENC =        36.80884744
  Ewald energy   TEWEN  =     11915.06724916
  -Hartree energ DENC   =    -15042.15375245
  -exchange      EXHF   =         0.00000000
  -V(xc)+E(xc)   XCENC  =       -79.98234309
  PAW double counting   =      1193.60284469     -873.37763362
  entropy T*S    EENTRO =        -0.04329542
  eigenvalues    EBANDS =      -620.19012489
  atomic energy  EATOM  =      3354.04126044
  ---------------------------------------------------
  free energy    TOTEN  =      -116.22694773 eV

  energy without entropy =     -116.18365231  energy(sigma->0) =     -116.20530002


--------------------------------------------------------------------------------------------------------




----------------------------------------- Iteration    1(  12)  ---------------------------------------


    POTLOK:  cpu time   13.69: real time   13.70
    SETDIJ:  cpu time    0.02: real time    0.02
     EDDAV:  cpu time   77.29: real time   77.34
       DOS:  cpu time    0.01: real time    0.01
    CHARGE:  cpu time    4.60: real time    4.60
    MIXING:  cpu time    0.01: real time    0.01
    --------------------------------------------
      LOOP:  cpu time   95.63: real time   95.69

 eigenvalue-minimisations  :  8712
 total energy-change (2. order) : 0.1053711E-01  (-0.2118282E-02)
 number of electron     107.9999994 magnetization 
 augmentation part       -9.3999171 magnetization 

 Broyden mixing:
  rms(total) = 0.77501E-02    rms(broyden)= 0.77397E-02
  rms(prec ) = 0.89183E-02
  weight for this iteration     100.00

 eigenvalues of (default mixing * dielectric matrix)
  average eigenvalue GAMMA=   1.3028
  2.6882  1.9510  1.1132  1.1132  1.0159  0.7847  0.4534

 Free energy of the ion-electron system (eV)
  ---------------------------------------------------
  alpha Z        PSCENC =        36.80884744
  Ewald energy   TEWEN  =     11915.06724916
  -Hartree energ DENC   =    -15042.83151814
  -exchange      EXHF   =         0.00000000
  -V(xc)+E(xc)   XCENC  =       -79.97486330
  PAW double counting   =      1191.34387467     -871.05799302
  entropy T*S    EENTRO =        -0.04353545
  eigenvalues    EBANDS =      -619.56973242
  atomic energy  EATOM  =      3354.04126044
  ---------------------------------------------------
  free energy    TOTEN  =      -116.21641062 eV

  energy without entropy =     -116.17287517  energy(sigma->0) =     -116.19464290


--------------------------------------------------------------------------------------------------------




----------------------------------------- Iteration    1(  13)  ---------------------------------------


    POTLOK:  cpu time   13.67: real time   13.69
    SETDIJ:  cpu time    0.01: real time    0.01
     EDDAV:  cpu time   90.96: real time   91.00
       DOS:  cpu time    0.01: real time    0.01
    CHARGE:  cpu time    4.52: real time    4.52
    MIXING:  cpu time    0.02: real time    0.02
    --------------------------------------------
      LOOP:  cpu time  109.19: real time  109.25

 eigenvalue-minimisations  : 10872
 total energy-change (2. order) : 0.4844824E-02  (-0.1442685E-03)
 number of electron     107.9999994 magnetization 
 augmentation part       -9.4002154 magnetization 

 Broyden mixing:
  rms(total) = 0.42755E-02    rms(broyden)= 0.42743E-02
  rms(prec ) = 0.52292E-02
  weight for this iteration     100.00

 eigenvalues of (default mixing * dielectric matrix)
  average eigenvalue GAMMA=   1.3202
  2.6878  2.0785  1.1414  1.1414  1.3614  0.8491  0.8491  0.4529

 Free energy of the ion-electron system (eV)
  ---------------------------------------------------
  alpha Z        PSCENC =        36.80884744
  Ewald energy   TEWEN  =     11915.06724916
  -Hartree energ DENC   =    -15043.65053282
  -exchange      EXHF   =         0.00000000
  -V(xc)+E(xc)   XCENC  =       -79.96310231
  PAW double counting   =      1190.54944176     -870.24213714
  entropy T*S    EENTRO =        -0.04362302
  eigenvalues    EBANDS =      -618.77896932
  atomic energy  EATOM  =      3354.04126044
  ---------------------------------------------------
  free energy    TOTEN  =      -116.21156580 eV

  energy without entropy =     -116.16794277  energy(sigma->0) =     -116.18975429


--------------------------------------------------------------------------------------------------------




----------------------------------------- Iteration    1(  14)  ---------------------------------------


    POTLOK:  cpu time   13.66: real time   13.67
    SETDIJ:  cpu time    0.01: real time    0.02
     EDDAV:  cpu time   80.80: real time   80.85
       DOS:  cpu time    0.01: real time    0.01
    CHARGE:  cpu time    4.75: real time    4.75
    MIXING:  cpu time    0.02: real time    0.02
    --------------------------------------------
      LOOP:  cpu time   99.25: real time   99.32

 eigenvalue-minimisations  :  9328
 total energy-change (2. order) : 0.2077889E-02  (-0.2522487E-04)
 number of electron     107.9999994 magnetization 
 augmentation part       -9.4000501 magnetization 

 Broyden mixing:
  rms(total) = 0.16998E-02    rms(broyden)= 0.16997E-02
  rms(prec ) = 0.26590E-02
  weight for this iteration     100.00

 eigenvalues of (default mixing * dielectric matrix)
  average eigenvalue GAMMA=   1.3750
  2.8052  2.4128  1.6008  1.1595  1.1595  0.9832  0.9832  0.8180  0.4530

 Free energy of the ion-electron system (eV)
  ---------------------------------------------------
  alpha Z        PSCENC =        36.80884744
  Ewald energy   TEWEN  =     11915.06724916
  -Hartree energ DENC   =    -15044.39790542
  -exchange      EXHF   =         0.00000000
  -V(xc)+E(xc)   XCENC  =       -79.96202479
  PAW double counting   =      1190.21996052     -869.90440131
  entropy T*S    EENTRO =        -0.04356600
  eigenvalues    EBANDS =      -618.03890796
  atomic energy  EATOM  =      3354.04126044
  ---------------------------------------------------
  free energy    TOTEN  =      -116.20948791 eV

  energy without entropy =     -116.16592191  energy(sigma->0) =     -116.18770491


--------------------------------------------------------------------------------------------------------




----------------------------------------- Iteration    1(  15)  ---------------------------------------


    POTLOK:  cpu time   13.83: real time   13.85
    SETDIJ:  cpu time    0.02: real time    0.02
     EDDAV:  cpu time   80.93: real time   80.95
       DOS:  cpu time    0.01: real time    0.01
    CHARGE:  cpu time    4.62: real time    4.62
    MIXING:  cpu time    0.01: real time    0.01
    --------------------------------------------
      LOOP:  cpu time   99.43: real time   99.47

 eigenvalue-minimisations  :  9448
 total energy-change (2. order) : 0.1413697E-02  (-0.1838155E-04)
 number of electron     107.9999994 magnetization 
 augmentation part       -9.4000246 magnetization 

 Broyden mixing:
  rms(total) = 0.14131E-02    rms(broyden)= 0.14129E-02
  rms(prec ) = 0.19912E-02
  weight for this iteration     100.00

 eigenvalues of (default mixing * dielectric matrix)
  average eigenvalue GAMMA=   1.3982
  2.9683  2.5211  1.5542  1.5542  1.1583  1.1583  0.4530  0.9123  0.9123  0.7899

 Free energy of the ion-electron system (eV)
  ---------------------------------------------------
  alpha Z        PSCENC =        36.80884744
  Ewald energy   TEWEN  =     11915.06724916
  -Hartree energ DENC   =    -15045.18942533
  -exchange      EXHF   =         0.00000000
  -V(xc)+E(xc)   XCENC  =       -79.95840451
  PAW double counting   =      1189.97772923     -869.65620508
  entropy T*S    EENTRO =        -0.04360567
  eigenvalues    EBANDS =      -617.25551990
  atomic energy  EATOM  =      3354.04126044
  ---------------------------------------------------
  free energy    TOTEN  =      -116.20807421 eV

  energy without entropy =     -116.16446854  energy(sigma->0) =     -116.18627138


--------------------------------------------------------------------------------------------------------




----------------------------------------- Iteration    1(  16)  ---------------------------------------


    POTLOK:  cpu time   13.64: real time   13.65
    SETDIJ:  cpu time    0.01: real time    0.01
     EDDAV:  cpu time   74.44: real time   74.49
       DOS:  cpu time    0.01: real time    0.01
    CHARGE:  cpu time    4.64: real time    4.64
    MIXING:  cpu time    0.01: real time    0.01
    --------------------------------------------
      LOOP:  cpu time   92.76: real time   92.83

 eigenvalue-minimisations  :  8240
 total energy-change (2. order) : 0.1125526E-03  (-0.3472669E-05)
 number of electron     107.9999994 magnetization 
 augmentation part       -9.3998885 magnetization 

 Broyden mixing:
  rms(total) = 0.93592E-03    rms(broyden)= 0.93589E-03
  rms(prec ) = 0.13498E-02
  weight for this iteration     100.00

 eigenvalues of (default mixing * dielectric matrix)
  average eigenvalue GAMMA=   1.5030
  3.5318  2.6899  2.1982  1.5012  1.1758  1.1758  0.4530  1.1787  0.8068  0.9109
  0.9109

 Free energy of the ion-electron system (eV)
  ---------------------------------------------------
  alpha Z        PSCENC =        36.80884744
  Ewald energy   TEWEN  =     11915.06724916
  -Hartree energ DENC   =    -15045.76151543
  -exchange      EXHF   =         0.00000000
  -V(xc)+E(xc)   XCENC  =       -79.95512878
  PAW double counting   =      1189.93363229     -869.61127750
  entropy T*S    EENTRO =        -0.04360196
  eigenvalues    EBANDS =      -616.68742732
  atomic energy  EATOM  =      3354.04126044
  ---------------------------------------------------
  free energy    TOTEN  =      -116.20796166 eV

  energy without entropy =     -116.16435970  energy(sigma->0) =     -116.18616068


--------------------------------------------------------------------------------------------------------




----------------------------------------- Iteration    1(  17)  ---------------------------------------


    POTLOK:  cpu time   13.62: real time   13.64
    SETDIJ:  cpu time    0.01: real time    0.01
     EDDAV:  cpu time   76.40: real time   76.44
       DOS:  cpu time    0.01: real time    0.01
    CHARGE:  cpu time    4.84: real time    4.84
    MIXING:  cpu time    0.02: real time    0.02
    --------------------------------------------
      LOOP:  cpu time   94.90: real time   94.96

 eigenvalue-minimisations  :  8280
 total energy-change (2. order) :-0.4887628E-03  (-0.1619636E-04)
 number of electron     107.9999994 magnetization 
 augmentation part       -9.3996486 magnetization 

 Broyden mixing:
  rms(total) = 0.59683E-03    rms(broyden)= 0.59667E-03
  rms(prec ) = 0.77423E-03
  weight for this iteration     100.00

 eigenvalues of (default mixing * dielectric matrix)
  average eigenvalue GAMMA=   1.5813
  4.4902  2.7935  2.3278  1.1737  1.1737  1.5185  1.4423  0.4530  0.9563  0.9563
  0.8181  0.8727

 Free energy of the ion-electron system (eV)
  ---------------------------------------------------
  alpha Z        PSCENC =        36.80884744
  Ewald energy   TEWEN  =     11915.06724916
  -Hartree energ DENC   =    -15046.51361471
  -exchange      EXHF   =         0.00000000
  -V(xc)+E(xc)   XCENC  =       -79.95011907
  PAW double counting   =      1189.97231163     -869.65111374
  entropy T*S    EENTRO =        -0.04360445
  eigenvalues    EBANDS =      -615.93966713
  atomic energy  EATOM  =      3354.04126044
  ---------------------------------------------------
  free energy    TOTEN  =      -116.20845042 eV

  energy without entropy =     -116.16484597  energy(sigma->0) =     -116.18664820


--------------------------------------------------------------------------------------------------------




----------------------------------------- Iteration    1(  18)  ---------------------------------------


    POTLOK:  cpu time   12.90: real time   12.91
    SETDIJ:  cpu time    0.01: real time    0.01
     EDDAV:  cpu time   78.12: real time   78.15
       DOS:  cpu time    0.01: real time    0.01
    CHARGE:  cpu time    4.79: real time    4.79
    MIXING:  cpu time    0.01: real time    0.01
    --------------------------------------------
      LOOP:  cpu time   95.85: real time   95.89

 eigenvalue-minimisations  :  8616
 total energy-change (2. order) :-0.2135068E-03  (-0.9713397E-05)
 number of electron     107.9999994 magnetization 
 augmentation part       -9.3996411 magnetization 

 Broyden mixing:
  rms(total) = 0.56264E-03    rms(broyden)= 0.56260E-03
  rms(prec ) = 0.65868E-03
  weight for this iteration     100.00

 eigenvalues of (default mixing * dielectric matrix)
  average eigenvalue GAMMA=   1.6580
  5.4133  2.8020  2.3941  1.7571  1.5718  1.1907  1.1907  0.4530  1.0821  1.0821
  0.8101  0.9032  0.9032

 Free energy of the ion-electron system (eV)
  ---------------------------------------------------
  alpha Z        PSCENC =        36.80884744
  Ewald energy   TEWEN  =     11915.06724916
  -Hartree energ DENC   =    -15046.80254529
  -exchange      EXHF   =         0.00000000
  -V(xc)+E(xc)   XCENC  =       -79.94890505
  PAW double counting   =      1189.98417319     -869.66314993
  entropy T*S    EENTRO =        -0.04360820
  eigenvalues    EBANDS =      -615.65198571
  atomic energy  EATOM  =      3354.04126044
  ---------------------------------------------------
  free energy    TOTEN  =      -116.20866393 eV

  energy without entropy =     -116.16505573  energy(sigma->0) =     -116.18685983


--------------------------------------------------------------------------------------------------------




----------------------------------------- Iteration    1(  19)  ---------------------------------------


    POTLOK:  cpu time   12.45: real time   12.46
    SETDIJ:  cpu time    0.01: real time    0.01
     EDDAV:  cpu time   81.09: real time   81.11
       DOS:  cpu time    0.01: real time    0.01
    CHARGE:  cpu time    4.98: real time    4.98
    MIXING:  cpu time    0.02: real time    0.02
    --------------------------------------------
      LOOP:  cpu time   98.56: real time   98.59

 eigenvalue-minimisations  :  8088
 total energy-change (2. order) :-0.9353286E-04  (-0.3640588E-05)
 number of electron     107.9999994 magnetization 
 augmentation part       -9.3996642 magnetization 

 Broyden mixing:
  rms(total) = 0.13448E-03    rms(broyden)= 0.13437E-03
  rms(prec ) = 0.23405E-03
  weight for this iteration     100.00

 eigenvalues of (default mixing * dielectric matrix)
  average eigenvalue GAMMA=   1.7398
  6.2040  2.8620  2.6150  2.1874  1.1859  1.1859  1.4574  1.4574  0.4530  1.0492
  1.0492  0.8099  0.9202  0.9202

 Free energy of the ion-electron system (eV)
  ---------------------------------------------------
  alpha Z        PSCENC =        36.80884744
  Ewald energy   TEWEN  =     11915.06724916
  -Hartree energ DENC   =    -15046.98959075
  -exchange      EXHF   =         0.00000000
  -V(xc)+E(xc)   XCENC  =       -79.94828266
  PAW double counting   =      1189.98688893     -869.66577694
  entropy T*S    EENTRO =        -0.04360604
  eigenvalues    EBANDS =      -615.46574704
  atomic energy  EATOM  =      3354.04126044
  ---------------------------------------------------
  free energy    TOTEN  =      -116.20875746 eV

  energy without entropy =     -116.16515142  energy(sigma->0) =     -116.18695444


--------------------------------------------------------------------------------------------------------




----------------------------------------- Iteration    1(  20)  ---------------------------------------


    POTLOK:  cpu time   14.14: real time   14.14
    SETDIJ:  cpu time    0.01: real time    0.01
     EDDAV:  cpu time   72.93: real time   72.99
       DOS:  cpu time    0.01: real time    0.01
    CHARGE:  cpu time    5.18: real time    5.18
    MIXING:  cpu time    0.02: real time    0.02
    --------------------------------------------
      LOOP:  cpu time   92.30: real time   92.36

 eigenvalue-minimisations  :  7688
 total energy-change (2. order) :-0.4669746E-04  (-0.1571052E-05)
 number of electron     107.9999994 magnetization 
 augmentation part       -9.3996756 magnetization 

 Broyden mixing:
  rms(total) = 0.20631E-03    rms(broyden)= 0.20627E-03
  rms(prec ) = 0.24886E-03
  weight for this iteration     100.00

 eigenvalues of (default mixing * dielectric matrix)
  average eigenvalue GAMMA=   1.7453
  6.6362  3.0166  2.6903  2.1578  1.1930  1.1930  0.4530  1.3057  1.3057  1.3923
  1.2612  0.9384  0.9384  0.8117  0.8858

 Free energy of the ion-electron system (eV)
  ---------------------------------------------------
  alpha Z        PSCENC =        36.80884744
  Ewald energy   TEWEN  =     11915.06724916
  -Hartree energ DENC   =    -15047.08123911
  -exchange      EXHF   =         0.00000000
  -V(xc)+E(xc)   XCENC  =       -79.94812658
  PAW double counting   =      1189.98577334     -869.66457113
  entropy T*S    EENTRO =        -0.04360504
  eigenvalues    EBANDS =      -615.37439269
  atomic energy  EATOM  =      3354.04126044
  ---------------------------------------------------
  free energy    TOTEN  =      -116.20880416 eV

  energy without entropy =     -116.16519912  energy(sigma->0) =     -116.18700164


--------------------------------------------------------------------------------------------------------




----------------------------------------- Iteration    1(  21)  ---------------------------------------


    POTLOK:  cpu time   14.06: real time   14.07
    SETDIJ:  cpu time    0.01: real time    0.01
     EDDAV:  cpu time   73.66: real time   73.71
       DOS:  cpu time    0.01: real time    0.01
    CHARGE:  cpu time    5.48: real time    5.48
    MIXING:  cpu time    0.02: real time    0.02
    --------------------------------------------
      LOOP:  cpu time   93.25: real time   93.32

 eigenvalue-minimisations  :  6856
 total energy-change (2. order) :-0.1218976E-04  (-0.1624039E-05)
 number of electron     107.9999994 magnetization 
 augmentation part       -9.3996689 magnetization 

 Broyden mixing:
  rms(total) = 0.14636E-03    rms(broyden)= 0.14635E-03
  rms(prec ) = 0.17717E-03
  weight for this iteration     100.00

 eigenvalues of (default mixing * dielectric matrix)
  average eigenvalue GAMMA=   1.8164
  6.9020  3.4499  2.7396  2.3515  2.0959  1.1864  1.1864  1.5651  0.4530  1.2399
  1.2399  0.8107  0.9563  0.9563  0.9647  0.9647

 Free energy of the ion-electron system (eV)
  ---------------------------------------------------
  alpha Z        PSCENC =        36.80884744
  Ewald energy   TEWEN  =     11915.06724916
  -Hartree energ DENC   =    -15047.12228476
  -exchange      EXHF   =         0.00000000
  -V(xc)+E(xc)   XCENC  =       -79.94809173
  PAW double counting   =      1189.98384860     -869.66260203
  entropy T*S    EENTRO =        -0.04360510
  eigenvalues    EBANDS =      -615.33343837
  atomic energy  EATOM  =      3354.04126044
  ---------------------------------------------------
  free energy    TOTEN  =      -116.20881635 eV

  energy without entropy =     -116.16521125  energy(sigma->0) =     -116.18701380


--------------------------------------------------------------------------------------------------------




----------------------------------------- Iteration    1(  22)  ---------------------------------------


    POTLOK:  cpu time   14.21: real time   14.23
    SETDIJ:  cpu time    0.02: real time    0.02
     EDDAV:  cpu time   69.54: real time   69.57
       DOS:  cpu time    0.01: real time    0.01
    CHARGE:  cpu time    4.25: real time    4.26
    MIXING:  cpu time    0.02: real time    0.02
    --------------------------------------------
      LOOP:  cpu time   88.05: real time   88.11

 eigenvalue-minimisations  :  6920
 total energy-change (2. order) : 0.4305678E-04  (-0.2095078E-05)
 number of electron     107.9999994 magnetization 
 augmentation part       -9.3996552 magnetization 

 Broyden mixing:
  rms(total) = 0.11077E-03    rms(broyden)= 0.11075E-03
  rms(prec ) = 0.12162E-03
  weight for this iteration     100.00

 eigenvalues of (default mixing * dielectric matrix)
  average eigenvalue GAMMA=   1.8853
  7.2462  4.6259  2.7967  2.5201  1.1874  1.1874  1.7911  1.5230  1.5230  1.5367
  0.4530  1.0865  0.9884  0.9884  0.8107  0.8932  0.8932

 Free energy of the ion-electron system (eV)
  ---------------------------------------------------
  alpha Z        PSCENC =        36.80884744
  Ewald energy   TEWEN  =     11915.06724916
  -Hartree energ DENC   =    -15047.15116212
  -exchange      EXHF   =         0.00000000
  -V(xc)+E(xc)   XCENC  =       -79.94810861
  PAW double counting   =      1189.98076332     -869.65947185
  entropy T*S    EENTRO =        -0.04360605
  eigenvalues    EBANDS =      -615.30454502
  atomic energy  EATOM  =      3354.04126044
  ---------------------------------------------------
  free energy    TOTEN  =      -116.20877329 eV

  energy without entropy =     -116.16516724  energy(sigma->0) =     -116.18697027


--------------------------------------------------------------------------------------------------------




----------------------------------------- Iteration    1(  23)  ---------------------------------------


    POTLOK:  cpu time   13.91: real time   13.91
    SETDIJ:  cpu time    0.02: real time    0.02
     EDDAV:  cpu time   68.16: real time   68.20
       DOS:  cpu time    0.01: real time    0.01
    CHARGE:  cpu time    4.72: real time    4.72
    MIXING:  cpu time    0.02: real time    0.02
    --------------------------------------------
      LOOP:  cpu time   86.83: real time   86.88

 eigenvalue-minimisations  :  6840
[...]
     31      -4.1072      2.00000
     32      -3.9329      2.00000
     33      -3.8745      2.00000
     34      -3.7062      2.00000
     35      -3.4602      2.00000
     36      -3.3685      2.00000
     37      -3.2905      2.00000
     38      -3.1926      2.00000
     39      -2.9279      2.00000
     40      -2.7814      2.00000
     41      -2.7134      2.00000
     42      -2.6661      2.00000
     43      -2.5217      2.00000
     44      -2.2646      2.00000
     45      -2.1391      2.00000
     46      -2.0435      2.00000
     47      -1.9113      2.00000
     48      -1.8872      2.00000
     49      -1.5126      2.00000
     50      -1.4459      2.00000
     51      -1.1638      2.00000
     52      -0.9995      2.00000
     53      -0.1871      1.97387
     54      -0.0727      1.45632
     55       0.5445      0.00000
     56       1.0602      0.00000
     57       1.2416      0.00000
     58       1.3251      0.00000
     59       1.4664      0.00000
     60       1.8863      0.00000
     61       2.0107      0.00000
     62       2.2148      0.00000
     63       2.4441      0.00000
     64       2.5823      0.00000
     65       2.7167      0.00000
     66       2.9206      0.00000
     67       3.1172      0.00000
     68       3.1610      0.00000

 k-point    52 :       0.3077    0.5000    0.5000
  band No.  band energies     occupation 
      1     -13.1409      2.00000
      2     -12.6437      2.00000
      3     -12.2934      2.00000
      4     -12.1413      2.00000
      5     -11.7856      2.00000
      6     -11.5374      2.00000
      7     -11.2304      2.00000
      8     -11.1436      2.00000
      9     -10.9411      2.00000
     10     -10.5807      2.00000
     11     -10.5254      2.00000
     12     -10.1768      2.00000
     13      -9.0551      2.00000
     14      -8.1976      2.00000
     15      -7.9104      2.00000
     16      -7.5260      2.00000
     17      -7.1971      2.00000
     18      -7.1026      2.00000
     19      -7.0750      2.00000
     20      -6.5721      2.00000
     21      -6.3122      2.00000
     22      -6.0641      2.00000
     23      -6.0002      2.00000
     24      -5.4888      2.00000
     25      -5.4488      2.00000
     26      -5.0411      2.00000
     27      -5.0015      2.00000
     28      -4.7335      2.00000
     29      -4.6174      2.00000
     30      -4.4838      2.00000
     31      -4.3822      2.00000
     32      -4.2124      2.00000
     33      -4.1897      2.00000
     34      -3.9336      2.00000
     35      -3.5242      2.00000
     36      -3.3858      2.00000
     37      -3.2429      2.00000
     38      -3.1639      2.00000
     39      -3.0243      2.00000
     40      -2.9322      2.00000
     41      -2.7959      2.00000
     42      -2.6651      2.00000
     43      -2.5187      2.00000
     44      -2.3800      2.00000
     45      -2.2942      2.00000
     46      -2.0804      2.00000
     47      -2.0122      2.00000
     48      -1.9205      2.00000
     49      -1.8604      2.00000
     50      -1.6837      2.00000
     51      -1.4319      2.00000
     52      -0.8716      2.00000
     53      -0.4554      2.00000
     54      -0.1816      1.96822
     55       0.2521      0.00007
     56       0.3957      0.00000
     57       0.7060      0.00000
     58       1.1692      0.00000
     59       1.2665      0.00000
     60       1.2783      0.00000
     61       1.9568      0.00000
     62       2.0518      0.00000
     63       2.1549      0.00000
     64       2.3293      0.00000
     65       2.4242      0.00000
     66       2.6400      0.00000
     67       2.8661      0.00000
     68       2.9637      0.00000

 k-point    53 :       0.3846    0.5000    0.5000
  band No.  band energies     occupation 
      1     -12.9683      2.00000
      2     -12.1671      2.00000
      3     -11.7965      2.00000
      4     -11.6796      2.00000
      5     -11.3894      2.00000
      6     -11.1506      2.00000
      7     -10.9326      2.00000
      8     -10.9011      2.00000
      9     -10.7494      2.00000
     10     -10.5929      2.00000
     11     -10.3529      2.00000
     12      -9.8653      2.00000
     13      -9.0393      2.00000
     14      -8.5139      2.00000
     15      -8.3831      2.00000
     16      -7.9107      2.00000
     17      -7.7461      2.00000
     18      -7.6956      2.00000
     19      -7.5181      2.00000
     20      -7.0364      2.00000
     21      -6.8498      2.00000
     22      -6.7916      2.00000
     23      -6.6060      2.00000
     24      -5.5071      2.00000
     25      -5.4311      2.00000
     26      -5.0990      2.00000
     27      -4.8080      2.00000
     28      -4.7203      2.00000
     29      -4.6296      2.00000
     30      -4.4498      2.00000
     31      -4.2669      2.00000
     32      -4.2080      2.00000
     33      -4.1651      2.00000
     34      -3.9187      2.00000
     35      -3.6602      2.00000
     36      -3.4203      2.00000
     37      -3.3260      2.00000
     38      -3.2602      2.00000
     39      -3.1665      2.00000
     40      -3.0128      2.00000
     41      -2.9803      2.00000
     42      -2.7533      2.00000
     43      -2.5639      2.00000
     44      -2.4539      2.00000
     45      -2.4178      2.00000
     46      -2.2642      2.00000
     47      -2.2083      2.00000
     48      -2.1303      2.00000
     49      -1.9726      2.00000
     50      -1.5701      2.00000
     51      -1.5672      2.00000
     52      -0.8874      2.00000
     53      -0.7114      2.00000
     54      -0.2992      1.99986
     55      -0.0175      0.86231
     56       0.1553      0.00887
     57       0.3514      0.00000
     58       0.8865      0.00000
     59       1.1505      0.00000
     60       1.3990      0.00000
     61       1.7026      0.00000
     62       1.8780      0.00000
     63       1.9531      0.00000
     64       2.0310      0.00000
     65       2.1993      0.00000
     66       2.5148      0.00000
     67       2.5744      0.00000
     68       2.7052      0.00000

 k-point    54 :       0.4615    0.5000    0.5000
  band No.  band energies     occupation 
      1     -12.8644      2.00000
      2     -11.6240      2.00000
      3     -11.2973      2.00000
      4     -11.2274      2.00000
      5     -11.0899      2.00000
      6     -10.9810      2.00000
      7     -10.8694      2.00000
      8     -10.8503      2.00000
      9     -10.7838      2.00000
     10     -10.7552      2.00000
     11     -10.2766      2.00000
     12      -9.6695      2.00000
     13      -8.8366      2.00000
     14      -8.7954      2.00000
     15      -8.5744      2.00000
     16      -8.2535      2.00000
     17      -8.1827      2.00000
     18      -7.8368      2.00000
     19      -7.6954      2.00000
     20      -7.5141      2.00000
     21      -7.4238      2.00000
     22      -7.2970      2.00000
     23      -7.1064      2.00000
     24      -5.4768      2.00000
     25      -5.1023      2.00000
     26      -5.0660      2.00000
     27      -4.7256      2.00000
     28      -4.6092      2.00000
     29      -4.4347      2.00000
     30      -4.2385      2.00000
     31      -4.1599      2.00000
     32      -4.0861      2.00000
     33      -4.0423      2.00000
     34      -3.8958      2.00000
     35      -3.7633      2.00000
     36      -3.6966      2.00000
     37      -3.5181      2.00000
     38      -3.3881      2.00000
     39      -3.3570      2.00000
     40      -3.2050      2.00000
     41      -3.1517      2.00000
     42      -2.8340      2.00000
     43      -2.7082      2.00000
     44      -2.5310      2.00000
     45      -2.4766      2.00000
     46      -2.3138      2.00000
     47      -2.2617      2.00000
     48      -2.1856      2.00000
     49      -1.8378      2.00000
     50      -1.6524      2.00000
     51      -1.4462      2.00000
     52      -1.1268      2.00000
     53      -0.6948      2.00000
     54      -0.3171      1.99995
     55      -0.1324      1.85304
     56       0.0567      0.22105
     57       0.1455      0.01318
     58       0.7095      0.00000
     59       1.2286      0.00000
     60       1.4702      0.00000
     61       1.5249      0.00000
     62       1.7489      0.00000
     63       1.8157      0.00000
     64       1.9250      0.00000
     65       2.2226      0.00000
     66       2.2882      0.00000
     67       2.3693      0.00000
     68       2.6232      0.00000


--------------------------------------------------------------------------------------------------------


 soft charge-density along one line, spin component           1
         0         1         2         3         4         5         6         7         8         9
 total charge-density along one line
 
 pseudopotential strength for first ion, spin component:           1
 29.813   0.008  -0.001  -0.022   0.000  -0.000  -0.001  -0.000
  0.008   0.009   0.000  -0.000  -0.000  -0.000   0.000   0.000
 -0.001   0.000   6.554  -0.001  -0.000  -0.003   0.000   0.000
 -0.022  -0.000  -0.001   6.550   0.000   0.000  -0.003  -0.000
  0.000  -0.000  -0.000   0.000   6.555   0.000  -0.000  -0.003
 -0.000  -0.000  -0.003   0.000   0.000   0.015  -0.000  -0.000
 -0.001   0.000   0.000  -0.003  -0.000  -0.000   0.015   0.000
 -0.000   0.000   0.000  -0.000  -0.003  -0.000   0.000   0.015
 total augmentation occupancy for first ion, spin component:           1
  1.814  -0.351   0.004   0.248   0.000   0.002   0.118   0.000
 -0.351   1.284   0.017   0.849   0.000   0.005  -0.432   0.000
  0.004   0.017   1.145   0.011   0.000  -0.501   0.013   0.000
  0.248   0.849   0.011   1.279   0.000   0.013  -0.414   0.000
  0.000   0.000   0.000   0.000   1.147   0.000   0.000  -0.525
  0.002   0.005  -0.501   0.013   0.000   0.289  -0.014   0.000
  0.118  -0.432   0.013  -0.414   0.000  -0.014   0.225   0.000
  0.000   0.000   0.000   0.000  -0.525   0.000   0.000   0.323


------------------------ aborting loop because EDIFF is reached ----------------------------------------


    CHARGE:  cpu time    4.42: real time    4.42
    FORLOC:  cpu time    0.05: real time    0.05
    FORNL :  cpu time   17.91: real time   17.92
    STRESS:  cpu time   60.06: real time   60.11
    FORCOR:  cpu time   13.12: real time   13.12
    FORHAR:  cpu time    0.17: real time    0.17
    MIXING:  cpu time    0.03: real time    0.03
    OFIELD:  cpu time    0.00: real time    0.00

  FORCE on cell =-STRESS in cart. coord.  units (eV):
  Direction    XX          YY          ZZ          XY          YZ          ZX
  --------------------------------------------------------------------------------------
  Alpha Z    36.80885    36.80885    36.80885
  Ewald   14312.65047 13971.14102-16368.73200    -0.00001    32.26843     0.00011
  Hartree 14868.83021 14605.01962-14426.68346     0.00000     2.34545    -0.00001
  E(xc)    -357.68139  -357.79478  -357.13410     0.00001    -0.43205    -0.00000
  Local  -30744.34029-30144.97940 29226.42010    -0.00013   -31.63834    -0.00003
  n-local  1156.11929  1163.11431  1176.94129     0.00047    12.88819     0.00014
  augment  -202.90139  -203.92770  -204.95487     0.00016    -0.77157     0.00007
  Kinetic   925.03425   937.11568   985.60901    -0.00168    10.17307    -0.00126
  Fock        0.00000     0.00000     0.00000     0.00000     0.00000     0.00000
  -------------------------------------------------------------------------------------
  Total      -5.47999     6.49758    68.27482     0.00000    24.83319     0.00000
  in kB      -8.75959    10.38619   109.13517     0.00000    39.69508     0.00000
  external pressure =       36.92 kB  Pullay stress =        0.00 kB


 VOLUME and BASIS-vectors are now :
 -----------------------------------------------------------------------------
  energy-cutoff  :      300.00
  volume of cell :     1002.32
      direct lattice vectors                 reciprocal lattice vectors
     3.540400000  0.000000000  0.000000000     0.282453960  0.048570342  0.000000000
    -1.770200000 10.294348000  0.000000000     0.000000000  0.097140683  0.000000000
     0.000000000  0.000000000 27.501429000     0.000000000  0.000000000  0.036361747

  length of vectors
     3.540400000 10.445439617 27.501429000     0.286599577  0.097140683  0.036361747


 FORCES acting on ions
    electron-ion (+dipol)            ewald-force                    non-local-force                 convergence-correction
 -----------------------------------------------------------------------------------------------
   -.422E-03 0.819E+01 0.263E+02   -.938E-04 -.802E+01 -.220E+02   -.347E-17 -.195E+00 -.423E+01   -.905E-10 -.202E-05 0.193E-05
   -.436E-03 -.181E+01 -.575E+03   -.895E-04 0.240E+01 0.578E+03   0.173E-17 0.169E+00 -.290E+01   -.990E-10 -.106E-04 0.168E-04
   0.416E-03 0.621E+02 0.493E+02   -.773E-05 -.637E+02 -.450E+02   0.278E-16 0.159E+01 -.421E+01   0.119E-09 0.313E-06 -.153E-06
   0.417E-03 0.575E+02 -.527E+03   -.920E-05 -.585E+02 0.531E+03   0.000E+00 0.117E+01 -.335E+01   0.235E-11 0.727E-05 -.596E-05
   0.434E-03 -.572E+02 0.526E+03   0.869E-04 0.587E+02 -.531E+03   -.278E-16 -.154E+01 0.428E+01   0.812E-10 -.273E-05 -.687E-05
   0.680E-03 -.426E+02 0.248E+02   -.121E-03 0.427E+02 -.296E+02   0.000E+00 -.130E+02 -.419E+02   -.164E-09 0.142E-04 0.244E-04
   0.598E-05 0.537E+02 0.526E+03   0.155E-04 -.556E+02 -.530E+03   0.000E+00 0.192E+01 0.416E+01   0.183E-10 0.603E-06 0.836E-06
   -.372E-05 0.705E+02 -.679E+02   -.158E-04 -.727E+02 0.633E+02   -.278E-16 0.196E+01 0.367E+01   0.217E-10 -.396E-05 -.385E-05
   -.549E-05 0.181E+01 0.572E+03   -.859E-04 -.202E+01 -.577E+03   0.000E+00 0.210E+00 0.477E+01   -.344E-10 0.549E-05 -.126E-04
   -.740E-05 -.913E+01 -.247E+02   -.841E-04 0.799E+01 0.216E+02   0.139E-16 0.859E+00 0.285E+01   -.449E-10 -.156E-05 -.115E-04
   -.406E-03 -.631E+02 0.595E+02   0.896E-05 0.650E+02 -.553E+02   0.000E+00 -.192E+01 -.406E+01   -.626E-10 0.227E-05 0.613E-06
   -.425E-03 -.538E+02 -.529E+03   0.291E-04 0.560E+02 0.533E+03   0.278E-16 -.159E+01 -.333E+01   0.293E-10 0.664E-05 -.167E-04
   0.686E-04 0.306E+02 0.209E+03   -.258E-04 -.327E+02 -.209E+03   -.278E-16 0.210E+01 0.305E+00   -.431E-10 0.862E-06 0.205E-05
   0.592E-04 0.249E+02 -.245E+03   0.761E-06 -.281E+02 0.246E+03   0.000E+00 0.368E+01 -.894E+00   -.547E-10 -.411E-05 -.134E-04
   -.835E-04 -.117E+02 0.139E+03   0.180E-04 0.120E+02 -.141E+03   0.000E+00 -.250E+00 0.252E+01   0.137E-10 0.134E-05 0.144E-05
   -.379E-04 -.110E+02 -.325E+03   -.350E-04 0.112E+02 0.324E+03   -.173E-17 0.118E+00 0.659E+00   -.303E-10 0.109E-05 -.930E-05
   0.845E-04 -.507E+01 0.346E+03   0.720E-04 0.553E+01 -.343E+03   0.000E+00 -.470E+00 -.252E+01   0.542E-10 0.217E-05 -.102E-04
   0.635E-04 -.862E+01 -.135E+03   0.102E-03 0.726E+01 0.135E+03   -.139E-16 0.106E+01 0.274E+00   -.461E-10 0.141E-04 -.785E-05
   -.118E-04 0.966E+01 0.335E+03   -.522E-05 -.992E+01 -.332E+03   -.347E-17 0.241E+00 -.245E+01   -.101E-10 -.200E-06 -.394E-05
   0.334E-06 0.909E+01 -.150E+03   -.417E-05 -.104E+02 0.148E+03   0.000E+00 0.438E+00 0.104E+01   -.172E-09 -.476E-05 -.447E-05
   0.250E-05 0.107E+02 0.126E+03   0.102E-03 -.112E+02 -.129E+03   0.694E-17 0.417E+00 0.257E+01   0.656E-11 -.357E-05 0.282E-05
   0.159E-04 0.408E+01 -.336E+03   0.104E-03 -.523E+01 0.336E+03   0.139E-16 0.104E+01 -.854E-01   0.874E-10 -.642E-05 -.225E-05
   -.123E-04 -.312E+02 0.254E+03   -.894E-04 0.334E+02 -.254E+03   -.278E-16 -.216E+01 -.346E+00   -.329E-10 -.527E-07 -.304E-05
   -.119E-04 -.574E+02 -.290E+03   0.127E-03 0.561E+02 0.283E+03   0.222E-15 0.139E+02 0.532E+02   0.160E-09 -.144E-05 -.344E-04
 -----------------------------------------------------------------------------------------------
   0.384E-03 -.967E+01 -.100E+02   -.138E-13 0.639E-13 0.000E+00   0.180E-15 0.967E+01 0.100E+02   -.291E-09 0.149E-04 -.956E-04
 
 
 POSITION                                       TOTAL-FORCE (eV/Angst)
 -----------------------------------------------------------------------------------
      0.00000      2.34757      6.41229        -0.000000     -0.028723      0.056580
      1.77020      2.34757     14.16300         0.000000      0.757213      0.150215
     -0.00000      9.43147      5.75866         0.000000     -0.012125      0.097977
      1.77020      9.43147     13.50937         0.000000      0.204092      0.682200
     -0.00000      6.40009      2.31424        -0.000000     -0.010035      0.011400
     -0.00000      6.40009     10.06495        -0.000000    -12.947088    -46.741449
      1.77020     10.27849      2.37372         0.000000      0.013510     -0.000882
      1.77020     10.27849     10.12443         0.000000     -0.304607     -0.967029
      1.77020      3.18974      1.66157         0.000000     -0.001632      0.023180
      1.77020      3.18974      9.41228        -0.000000     -0.280397     -0.286003
      1.77020      5.55354      5.69975         0.000000      0.000782      0.090300
      0.00000      5.55354     13.45047         0.000000      0.629004      1.137866
      1.77020      9.05319      4.34076         0.000000      0.007194      0.011974
     -0.00000      9.05319     12.09147         0.000000      0.468250      0.119164
      0.00000      4.22380      5.10944         0.000000      0.024235      0.045842
      1.77020      4.22380     12.86016         0.000000      0.299738     -0.184419
     -0.00000      4.15582      2.74166         0.000000     -0.000782     -0.033766
     -0.00000      4.15582     10.49237        -0.000000     -0.300216      0.403183
      1.77020      1.31366      2.96438         0.000000     -0.013487     -0.047754
      1.77020      1.31366     10.71510         0.000000     -0.873091     -0.335992
      1.77020      1.38163      5.33187         0.000000     -0.055347      0.057232
      0.00000      1.38163     13.08259         0.000000     -0.117516     -0.538247
      1.77020      6.77850      3.73234         0.000000      0.018078     -0.001003
      0.00000      6.77850     11.48306         0.000000     12.522951     46.249431
 -----------------------------------------------------------------------------------
    total drift:                                0.000384     -0.000183      0.004152


--------------------------------------------------------------------------------------------------------



  FREE ENERGIE OF THE ION-ELECTRON SYSTEM (eV)
  ---------------------------------------------------
  free  energy   TOTEN  =      -116.20867202 eV

  energy  without entropy=     -116.16506615  energy(sigma->0) =     -116.18686908
 


--------------------------------------------------------------------------------------------------------


    POTLOK:  cpu time   13.17: real time   13.18


--------------------------------------------------------------------------------------------------------


     LOOP+:  cpu time 2696.12: real time 2697.74
    4ORBIT:  cpu time    0.00: real time    0.00

 total amount of memory used by VASP on root node   146493. kBytes
========================================================================

   base      :      30000. kBytes
   nonlr-proj:       3452. kBytes
   fftplans  :       9347. kBytes
   grid      :      14649. kBytes
   one-center:         36. kBytes
   wavefun   :      89009. kBytes
 
  
  
 General timing and accounting informations for this job:
 ========================================================
  
                  Total CPU time used (sec):     2714.524
                            User time (sec):     2669.932
                          System time (sec):       44.592
                         Elapsed time (sec):     2717.167
  
                   Maximum memory used (kb):      335308.
                   Average memory used (kb):           0.
  
                          Minor page faults:      8292675
                          Major page faults:            6
                 Voluntary context switches:         1553
