<?xml version="1.0" encoding="ISO-8859-1"?>
<modeling>
 <generator>
  <i name="program" type="string">vasp </i>
  <i name="version" type="string">5.4.1  </i>
  <i name="subversion" type="string">24Jun15 (build May 10 2016 14:18:23) complex                          parallel </i>
  <i name="platform" type="string">IFC91_ompi </i>
  <i name="date" type="string">2016 12 09 </i>
  <i name="time" type="string">14:59:17 </i>
 </generator>
 <incar>
  <i type="string" name="PREC">accurate</i>
  <i type="string" name="ALGO"> Fast</i>
  <i type="int" name="ISPIN">     2</i>
  <i type="int" name="IBRION">     2</i>
  <i name="EDIFF">      0.00010000</i>
  <i type="int" name="NSW">     0</i>
  <i type="int" name="ISIF">     3</i>
  <i name="ENCUT">    500.00000000</i>
  <v name="MAGMOM">      6.00000000      0.50000000      0.50000000      6.00000000      0.50000000      0.50000000</v>
  <i type="string" name="LREAL"> Auto</i>
  <i type="int" name="ISMEAR">     1</i>
  <i name="SIGMA">      0.10000000</i>
  <i type="logical" name="LWAVE"> F  </i>
  <i type="logical" name="LCHARG"> F  </i>
  <i type="logical" name="LVTOT"> T  </i>
  <i type="logical" name="LVHAR"> T  </i>
  <i type="logical" name="LAECHG"> F  </i>
  <v type="int" name="KPOINT_BSE">    -1     0     0     0</v>
  <i type="string" name="GGA"> Bo</i>
  <i name="PARAM1">      0.18333333</i>
  <i name="PARAM2">      0.22000000</i>
  <i type="logical" name="LUSE_VDW"> T  </i>
  <i name="AGGAC">      0.00000000</i>
 </incar>
 <kpoints>
  <generation param="Gamma">
   <v type="int" name="divisions">      13       13        1 </v>
   <v name="usershift">      0.00000000       0.00000000       0.00000000 </v>
   <v name="genvec1">      0.07692308       0.00000000       0.00000000 </v>
   <v name="genvec2">      0.00000000       0.07692308       0.00000000 </v>
   <v name="genvec3">      0.00000000       0.00000000       1.00000000 </v>
   <v name="shift">      0.00000000       0.00000000       0.00000000 </v>
  </generation>
  <varray name="kpointlist" >
   <v>       0.00000000       0.00000000       0.00000000 </v>
   <v>       0.07692308      -0.00000000       0.00000000 </v>
   <v>       0.15384615       0.00000000       0.00000000 </v>
   <v>       0.23076923       0.00000000       0.00000000 </v>
   <v>       0.30769231      -0.00000000       0.00000000 </v>
   <v>       0.38461538       0.00000000       0.00000000 </v>
   <v>       0.46153846       0.00000000       0.00000000 </v>
   <v>       0.00000000       0.07692308       0.00000000 </v>
   <v>       0.07692308       0.07692308       0.00000000 </v>
   <v>       0.15384615       0.07692308       0.00000000 </v>
   <v>       0.23076923       0.07692308       0.00000000 </v>
   <v>       0.30769231       0.07692308       0.00000000 </v>
   <v>       0.38461538       0.07692308       0.00000000 </v>
   <v>       0.46153846       0.07692308       0.00000000 </v>
   <v>      -0.46153846       0.07692308       0.00000000 </v>
   <v>      -0.38461538       0.07692308       0.00000000 </v>
   <v>      -0.30769231       0.07692308       0.00000000 </v>
   <v>      -0.23076923       0.07692308       0.00000000 </v>
   <v>      -0.15384615       0.07692308       0.00000000 </v>
   <v>      -0.07692308       0.07692308       0.00000000 </v>
   <v>       0.00000000       0.15384615       0.00000000 </v>
   <v>       0.07692308       0.15384615       0.00000000 </v>
   <v>       0.15384615       0.15384615       0.00000000 </v>
   <v>       0.23076923       0.15384615       0.00000000 </v>
   <v>       0.30769231       0.15384615       0.00000000 </v>
   <v>       0.38461538       0.15384615       0.00000000 </v>
   <v>       0.46153846       0.15384615       0.00000000 </v>
   <v>      -0.46153846       0.15384615       0.00000000 </v>
   <v>      -0.38461538       0.15384615       0.00000000 </v>
   <v>      -0.30769231       0.15384615       0.00000000 </v>
   <v>      -0.23076923       0.15384615       0.00000000 </v>
   <v>      -0.15384615       0.15384615       0.00000000 </v>
   <v>      -0.07692308       0.15384615       0.00000000 </v>
   <v>       0.00000000       0.23076923       0.00000000 </v>
   <v>       0.07692308       0.23076923       0.00000000 </v>
   <v>       0.15384615       0.23076923       0.00000000 </v>
   <v>       0.23076923       0.23076923       0.00000000 </v>
   <v>       0.30769231       0.23076923       0.00000000 </v>
   <v>       0.38461538       0.23076923       0.00000000 </v>
   <v>       0.46153846       0.23076923       0.00000000 </v>
   <v>      -0.46153846       0.23076923       0.00000000 </v>
   <v>      -0.38461538       0.23076923       0.00000000 </v>
   <v>      -0.30769231       0.23076923       0.00000000 </v>
   <v>      -0.23076923       0.23076923       0.00000000 </v>
   <v>      -0.15384615       0.23076923       0.00000000 </v>
   <v>      -0.07692308       0.23076923       0.00000000 </v>
   <v>       0.00000000       0.30769231       0.00000000 </v>
   <v>       0.07692308       0.30769231       0.00000000 </v>
   <v>       0.15384615       0.30769231       0.00000000 </v>
   <v>       0.23076923       0.30769231       0.00000000 </v>
   <v>       0.30769231       0.30769231       0.00000000 </v>
   <v>       0.38461538       0.30769231       0.00000000 </v>
   <v>       0.46153846       0.30769231       0.00000000 </v>
   <v>      -0.46153846       0.30769231       0.00000000 </v>
   <v>      -0.38461538       0.30769231       0.00000000 </v>
   <v>      -0.30769231       0.30769231       0.00000000 </v>
   <v>      -0.23076923       0.30769231       0.00000000 </v>
   <v>      -0.15384615       0.30769231       0.00000000 </v>
   <v>      -0.07692308       0.30769231       0.00000000 </v>
   <v>       0.00000000       0.38461538       0.00000000 </v>
   <v>       0.07692308       0.38461538       0.00000000 </v>
   <v>       0.15384615       0.38461538       0.00000000 </v>
   <v>       0.23076923       0.38461538       0.00000000 </v>
   <v>       0.30769231       0.38461538       0.00000000 </v>
   <v>       0.38461538       0.38461538       0.00000000 </v>
   <v>       0.46153846       0.38461538       0.00000000 </v>
   <v>      -0.46153846       0.38461538       0.00000000 </v>
   <v>      -0.38461538       0.38461538       0.00000000 </v>
   <v>      -0.30769231       0.38461538       0.00000000 </v>
   <v>      -0.23076923       0.38461538       0.00000000 </v>
   <v>      -0.15384615       0.38461538       0.00000000 </v>
   <v>      -0.07692308       0.38461538       0.00000000 </v>
   <v>       0.00000000       0.46153846       0.00000000 </v>
   <v>       0.07692308       0.46153846       0.00000000 </v>
   <v>       0.15384615       0.46153846       0.00000000 </v>
   <v>       0.23076923       0.46153846       0.00000000 </v>
   <v>       0.30769231       0.46153846       0.00000000 </v>
   <v>       0.38461538       0.46153846       0.00000000 </v>
   <v>       0.46153846       0.46153846       0.00000000 </v>
   <v>      -0.46153846       0.46153846       0.00000000 </v>
   <v>      -0.38461538       0.46153846       0.00000000 </v>
   <v>      -0.30769231       0.46153846       0.00000000 </v>
   <v>      -0.23076923       0.46153846       0.00000000 </v>
   <v>      -0.15384615       0.46153846       0.00000000 </v>
   <v>      -0.07692308       0.46153846       0.00000000 </v>
  </varray>
  <varray name="weights" >
   <v>       0.00591716 </v>
   <v>       0.01183432 </v>
   <v>       0.01183432 </v>
   <v>       0.01183432 </v>
   <v>       0.01183432 </v>
   <v>       0.01183432 </v>
   <v>       0.01183432 </v>
   <v>       0.01183432 </v>
   <v>       0.01183432 </v>
   <v>       0.01183432 </v>
   <v>       0.01183432 </v>
   <v>       0.01183432 </v>
   <v>       0.01183432 </v>
   <v>       0.01183432 </v>
   <v>       0.01183432 </v>
   <v>       0.01183432 </v>
   <v>       0.01183432 </v>
   <v>       0.01183432 </v>
   <v>       0.01183432 </v>
   <v>       0.01183432 </v>
   <v>       0.01183432 </v>
   <v>       0.01183432 </v>
   <v>       0.01183432 </v>
   <v>       0.01183432 </v>
   <v>       0.01183432 </v>
   <v>       0.01183432 </v>
   <v>       0.01183432 </v>
   <v>       0.01183432 </v>
   <v>       0.01183432 </v>
   <v>       0.01183432 </v>
   <v>       0.01183432 </v>
   <v>       0.01183432 </v>
   <v>       0.01183432 </v>
   <v>       0.01183432 </v>
   <v>       0.01183432 </v>
   <v>       0.01183432 </v>
   <v>       0.01183432 </v>
   <v>       0.01183432 </v>
   <v>       0.01183432 </v>
   <v>       0.01183432 </v>
   <v>       0.01183432 </v>
   <v>       0.01183432 </v>
   <v>       0.01183432 </v>
   <v>       0.01183432 </v>
   <v>       0.01183432 </v>
   <v>       0.01183432 </v>
   <v>       0.01183432 </v>
   <v>       0.01183432 </v>
   <v>       0.01183432 </v>
   <v>       0.01183432 </v>
   <v>       0.01183432 </v>
   <v>       0.01183432 </v>
   <v>       0.01183432 </v>
   <v>       0.01183432 </v>
   <v>       0.01183432 </v>
   <v>       0.01183432 </v>
   <v>       0.01183432 </v>
   <v>       0.01183432 </v>
   <v>       0.01183432 </v>
   <v>       0.01183432 </v>
   <v>       0.01183432 </v>
   <v>       0.01183432 </v>
   <v>       0.01183432 </v>
   <v>       0.01183432 </v>
   <v>       0.01183432 </v>
   <v>       0.01183432 </v>
   <v>       0.01183432 </v>
   <v>       0.01183432 </v>
   <v>       0.01183432 </v>
   <v>       0.01183432 </v>
   <v>       0.01183432 </v>
   <v>       0.01183432 </v>
   <v>       0.01183432 </v>
   <v>       0.01183432 </v>
   <v>       0.01183432 </v>
   <v>       0.01183432 </v>
   <v>       0.01183432 </v>
   <v>       0.01183432 </v>
   <v>       0.01183432 </v>
   <v>       0.01183432 </v>
   <v>       0.01183432 </v>
   <v>       0.01183432 </v>
   <v>       0.01183432 </v>
   <v>       0.01183432 </v>
   <v>       0.01183432 </v>
  </varray>
 </kpoints>
 <parameters>
  <separator name="general" >
   <i type="string" name="SYSTEM">unknown system</i>
   <i type="logical" name="LCOMPAT"> F  </i>
  </separator>
  <separator name="electronic" >
   <i type="string" name="PREC">accura</i>
   <i name="ENMAX">    500.00000000</i>
   <i name="ENAUG">    392.42700000</i>
   <i name="EDIFF">      0.00010000</i>
   <i type="int" name="IALGO">    68</i>
   <i type="int" name="IWAVPR">    10</i>
   <i type="int" name="NBANDS">    36</i>
   <i name="NELECT">     48.00000000</i>
   <i type="int" name="TURBO">     0</i>
   <i type="int" name="IRESTART">     0</i>
   <i type="int" name="NREBOOT">     0</i>
   <i type="int" name="NMIN">     0</i>
   <i name="EREF">      0.00000000</i>
   <separator name="electronic smearing" >
    <i type="int" name="ISMEAR">     1</i>
    <i name="SIGMA">      0.10000000</i>
    <i name="KSPACING">      0.50000000</i>
    <i type="logical" name="KGAMMA"> T  </i>
   </separator>
   <separator name="electronic projectors" >
    <i type="logical" name="LREAL"> T  </i>
    <v name="ROPT">     -0.00025000     -0.00025000     -0.00025000     -0.00025000</v>
    <i type="int" name="LMAXPAW">  -100</i>
    <i type="int" name="LMAXMIX">     2</i>
    <i type="logical" name="NLSPLINE"> F  </i>
   </separator>
   <separator name="electronic startup" >
    <i type="int" name="ISTART">     0</i>
    <i type="int" name="ICHARG">     2</i>
    <i type="int" name="INIWAV">     1</i>
   </separator>
   <separator name="electronic spin" >
    <i type="int" name="ISPIN">     2</i>
    <i type="logical" name="LNONCOLLINEAR"> F  </i>
    <v name="MAGMOM">      6.00000000      0.50000000      0.50000000      6.00000000      0.50000000      0.50000000</v>
    <i name="NUPDOWN">     -1.00000000</i>
    <i type="logical" name="LSORBIT"> F  </i>
    <v name="SAXIS">      0.00000000      0.00000000      1.00000000</v>
    <i type="logical" name="LSPIRAL"> F  </i>
    <v name="QSPIRAL">      0.00000000      0.00000000      0.00000000</v>
    <i type="logical" name="LZEROZ"> F  </i>
   </separator>
   <separator name="electronic exchange-correlation" >
    <i type="logical" name="LASPH"> F  </i>
    <i type="logical" name="LMETAGGA"> F  </i>
   </separator>
   <separator name="electronic convergence" >
    <i type="int" name="NELM">    60</i>
    <i type="int" name="NELMDL">     0</i>
    <i type="int" name="NELMIN">     2</i>
    <i name="ENINI">    500.00000000</i>
    <separator name="electronic convergence detail" >
     <i type="logical" name="LDIAG"> T  </i>
     <i type="logical" name="LSUBROT"> F  </i>
     <i name="WEIMIN">      0.00000000</i>
     <i name="EBREAK">      0.00000069</i>
     <i name="DEPER">      0.30000000</i>
     <i type="int" name="NRMM">     4</i>
     <i name="TIME">      0.40000000</i>
    </separator>
   </separator>
   <separator name="electronic mixer" >
    <i name="AMIX">      0.40000000</i>
    <i name="BMIX">      1.00000000</i>
    <i name="AMIN">      0.10000000</i>
    <i name="AMIX_MAG">      1.60000000</i>
    <i name="BMIX_MAG">      1.00000000</i>
    <separator name="electronic mixer details" >
     <i type="int" name="IMIX">     4</i>
     <i type="logical" name="MIXFIRST"> F  </i>
     <i type="int" name="MAXMIX">   -45</i>
     <i name="WC">    100.00000000</i>
     <i type="int" name="INIMIX">     1</i>
     <i type="int" name="MIXPRE">     1</i>
     <i type="int" name="MREMOVE">     5</i>
    </separator>
   </separator>
   <separator name="electronic dipolcorrection" >
    <i type="logical" name="LDIPOL"> F  </i>
    <i type="logical" name="LMONO"> F  </i>
    <i type="int" name="IDIPOL">     0</i>
    <i name="EPSILON">      1.00000000</i>
    <v name="DIPOL">   -100.00000000   -100.00000000   -100.00000000</v>
    <i name="EFIELD">      0.00000000</i>
   </separator>
  </separator>
  <separator name="grids" >
   <i type="int" name="NGX">    24</i>
   <i type="int" name="NGY">    24</i>
   <i type="int" name="NGZ">   180</i>
   <i type="int" name="NGXF">    48</i>
   <i type="int" name="NGYF">    48</i>
   <i type="int" name="NGZF">   360</i>
   <i type="logical" name="ADDGRID"> F  </i>
  </separator>
  <separator name="ionic" >
   <i type="int" name="NSW">     0</i>
   <i type="int" name="IBRION">    -1</i>
   <i type="int" name="ISIF">     3</i>
   <i name="PSTRESS">      0.00000000</i>
   <i name="EDIFFG">      0.00100000</i>
   <i type="int" name="NFREE">     1</i>
   <i name="POTIM">      0.50000000</i>
   <i name="SMASS">     -3.00000000</i>
   <i name="SCALEE">      1.00000000</i>
  </separator>
  <separator name="ionic md" >
   <i name="TEBEG">      0.00010000</i>
   <i name="TEEND">      0.00010000</i>
   <i type="int" name="NBLOCK">     1</i>
   <i type="int" name="KBLOCK">     1</i>
   <i type="int" name="NPACO">   256</i>
   <i name="APACO">     16.00000000</i>
  </separator>
  <separator name="symmetry" >
   <i type="int" name="ISYM">     2</i>
   <i name="SYMPREC">      0.00001000</i>
  </separator>
  <separator name="dos" >
   <i type="logical" name="LORBIT"> F  </i>
   <v name="RWIGS">     -1.00000000     -1.00000000     -1.00000000     -1.00000000</v>
   <i type="int" name="NEDOS">   301</i>
   <i name="EMIN">     10.00000000</i>
   <i name="EMAX">    -10.00000000</i>
   <i name="EFERMI">      0.00000000</i>
  </separator>
  <separator name="writing" >
   <i type="int" name="NWRITE">     2</i>
   <i type="logical" name="LWAVE"> F  </i>
   <i type="logical" name="LCHARG"> F  </i>
   <i type="logical" name="LPARD"> F  </i>
   <i type="logical" name="LVTOT"> F  </i>
   <i type="logical" name="LVHAR"> T  </i>
   <i type="logical" name="LELF"> F  </i>
   <i type="logical" name="LOPTICS"> F  </i>
   <v name="STM">      0.00000000      0.00000000      0.00000000      0.00000000      0.00000000      0.00000000      0.00000000</v>
  </separator>
  <separator name="performance" >
   <i type="int" name="NPAR">     4</i>
   <i type="int" name="NSIM">     4</i>
   <i type="int" name="NBLK">    -1</i>
   <i type="logical" name="LPLANE"> T  </i>
   <i type="logical" name="LSCALAPACK"> T  </i>
   <i type="logical" name="LSCAAWARE"> F  </i>
   <i type="logical" name="LSCALU"> F  </i>
   <i type="logical" name="LASYNC"> F  </i>
   <i type="logical" name="LORBITALREAL"> F  </i>
  </separator>
  <separator name="miscellaneous" >
   <i type="int" name="IDIOT">     3</i>
   <i type="logical" name="LMUSIC"> F  </i>
   <v name="POMASS">     95.94000000     32.06600000     95.94000000     32.06600000</v>
   <v name="DARWINR">      0.00000000      0.00000000      0.00000000      0.00000000</v>
   <v name="DARWINV">      1.00000000      1.00000000      1.00000000      1.00000000</v>
   <i type="logical" name="LCORR"> T  </i>
  </separator>
  <i type="logical" name="GGA_COMPAT"> T  </i>
  <i type="logical" name="LBERRY"> F  </i>
  <i type="int" name="ICORELEVEL">     0</i>
  <i type="logical" name="LDAU"> F  </i>
  <i type="int" name="I_CONSTRAINED_M">     0</i>
  <separator name="electronic exchange-correlation" >
   <i type="string" name="GGA">BO</i>
   <i type="int" name="VOSKOWN">     0</i>
   <i type="logical" name="LHFCALC"> F  </i>
   <i type="string" name="PRECFOCK"></i>
   <i type="logical" name="LSYMGRAD"> F  </i>
   <i type="logical" name="LHFONE"> F  </i>
   <i type="logical" name="LRHFCALC"> F  </i>
   <i type="logical" name="LTHOMAS"> F  </i>
   <i type="logical" name="LMODELHF"> F  </i>
   <i name="ENCUT4O">     -1.00000000</i>
   <i type="int" name="EXXOEP">     0</i>
   <i type="int" name="FOURORBIT">     0</i>
   <i name="AEXX">      0.00000000</i>
   <i name="HFALPHA">      0.00000000</i>
   <i name="MCALPHA">      0.00000000</i>
   <i name="ALDAX">      1.00000000</i>
   <i name="AGGAX">      1.00000000</i>
   <i name="ALDAC">      1.00000000</i>
   <i name="AGGAC">      0.00000000</i>
   <i type="int" name="NKREDX">     1</i>
   <i type="int" name="NKREDY">     1</i>
   <i type="int" name="NKREDZ">     1</i>
   <i type="logical" name="SHIFTRED"> F  </i>
   <i type="logical" name="ODDONLY"> F  </i>
   <i type="logical" name="EVENONLY"> F  </i>
   <i type="int" name="LMAXFOCK">     0</i>
   <i type="int" name="NMAXFOCKAE">     0</i>
   <i type="logical" name="LFOCKAEDFT"> F  </i>
   <i name="HFSCREEN">      0.00000000</i>
   <i name="HFSCREENC">      0.00000000</i>
   <i type="int" name="NBANDSGWLOW">     0</i>
  </separator>
  <separator name="vdW DFT" >
   <i type="logical" name="LUSE_VDW"> T  </i>
   <i name="Zab_VDW">     -0.84910000</i>
   <i name="PARAM1">      0.18333333</i>
   <i name="PARAM2">      0.22000000</i>
   <i name="PARAM3">      0.00000000</i>
  </separator>
  <separator name="model GW" >
   <i type="int" name="MODEL_GW">     0</i>
   <i name="MODEL_EPS0">     20.39722663</i>
   <i name="MODEL_ALPHA">      1.00000000</i>
  </separator>
  <separator name="linear response parameters" >
   <i type="logical" name="LEPSILON"> F  </i>
   <i type="logical" name="LRPA"> F  </i>
   <i type="logical" name="LNABLA"> F  </i>
   <i type="logical" name="LVEL"> F  </i>
   <i type="int" name="KINTER">     0</i>
   <i name="CSHIFT">      0.10000000</i>
   <i name="OMEGAMAX">     -1.00000000</i>
   <i name="DEG_THRESHOLD">      0.00200000</i>
  </separator>
  <separator name="orbital magnetization" >
   <i type="logical" name="NUCIND"> F  </i>
   <v name="MAGPOS">      0.00000000      0.00000000      0.00000000</v>
   <i type="logical" name="LNICSALL"> T  </i>
   <i type="logical" name="ORBITALMAG"> F  </i>
   <i type="logical" name="LMAGBLOCH"> F  </i>
   <i type="logical" name="LCHIMAG"> F  </i>
   <i type="logical" name="LGAUGE"> T  </i>
   <i type="int" name="MAGATOM">     0</i>
   <v name="MAGDIPOL">      0.00000000      0.00000000      0.00000000</v>
   <v name="AVECCONST">      0.00000000      0.00000000      0.00000000</v>
  </separator>
  <separator name="response functions" >
   <i type="logical" name="LADDER"> F  </i>
   <i type="logical" name="LFXC"> F  </i>
   <i type="logical" name="LHARTREE"> T  </i>
   <i type="int" name="IBSE">     0</i>
   <v type="int" name="KPOINT">    -1     0     0     0</v>
   <i type="logical" name="LTCTE"> F  </i>
   <i type="logical" name="LTETE"> F  </i>
   <i type="logical" name="LTRIPLET"> F  </i>
   <i type="logical" name="LFXCEPS"> F  </i>
   <i type="logical" name="LFXHEG"> F  </i>
   <i type="int" name="NATURALO">     0</i>
   <i type="logical" name="L2ORDER"> F  </i>
   <i type="logical" name="LUSEW"> F  </i>
   <i name="ENCUTGW">     -2.00000000</i>
   <i name="ENCUTGWSOFT">     -2.00000000</i>
   <i name="ENCUTLF">     -1.00000000</i>
   <i type="int" name="LMAXMP2">    -1</i>
   <i name="SCISSOR">      0.00000000</i>
   <i type="int" name="NOMEGA">     0</i>
   <i type="int" name="NOMEGAR">     0</i>
   <i type="int" name="NBANDSGW">    -1</i>
   <i type="int" name="NBANDSO">    -1</i>
   <i type="int" name="NBANDSV">    -1</i>
   <i type="int" name="NELM">     1</i>
   <i type="int" name="NELMHF">     1</i>
   <i type="int" name="DIM">     3</i>
   <i type="int" name="ANTIRES">     0</i>
   <i name="OMEGAMAX">    -30.00000000</i>
   <i name="OMEGAMIN">    -30.00000000</i>
   <i name="OMEGATL">   -200.00000000</i>
   <i type="int" name="OMEGAGRID">     0</i>
   <i name="CSHIFT">     -0.10000000</i>
   <i type="logical" name="SELFENERGY"> F  </i>
   <i type="logical" name="LSPECTRAL"> F  </i>
   <i type="logical" name="LSPECTRALGW"> F  </i>
   <i type="logical" name="LSINGLES"> F  </i>
   <i type="logical" name="LFERMIGW"> F  </i>
   <i type="logical" name="ODDONLYGW"> F  </i>
   <i type="logical" name="EVENONLYGW"> F  </i>
   <i type="int" name="NKREDLFX">     1</i>
   <i type="int" name="NKREDLFY">     1</i>
   <i type="int" name="NKREDLFZ">     1</i>
   <i type="int" name="MAXMEM">  1800</i>
   <i type="int" name="TELESCOPE">     0</i>
   <i type="int" name="TAUPAR">     1</i>
   <i type="int" name="OMEGAPAR">    -1</i>
   <i name="LAMBDA">      1.00000000</i>
  </separator>
  <separator name="External order field" >
   <i name="OFIELD_KAPPA">      0.00000000</i>
   <v name="OFIELD_K">      0.00000000      0.00000000      0.00000000</v>
   <i name="OFIELD_Q6_NEAR">      0.00000000</i>
   <i name="OFIELD_Q6_FAR">      0.00000000</i>
   <i name="OFIELD_A">      0.00000000</i>
  </separator>
 </parameters>
 <atominfo>
  <atoms>       6 </atoms>
  <types>       4 </types>
  <array name="atoms" >
   <dimension dim="1">ion</dimension>
   <field type="string">element</field>
   <field type="int">atomtype</field>
   <set>
    <rc><c>Mo</c><c>   1</c></rc>
    <rc><c>S </c><c>   2</c></rc>
    <rc><c>S </c><c>   2</c></rc>
    <rc><c>Mo</c><c>   3</c></rc>
    <rc><c>S </c><c>   4</c></rc>
    <rc><c>S </c><c>   4</c></rc>
   </set>
  </array>
  <array name="atomtypes" >
   <dimension dim="1">type</dimension>
   <field type="int">atomspertype</field>
   <field type="string">element</field>
   <field>mass</field>
   <field>valence</field>
   <field type="string">pseudopotential</field>
   <set>
    <rc><c>   1</c><c>Mo</c><c>     95.94000000</c><c>     12.00000000</c><c> PAW_PBE Mo_pv 08Apr2002                </c></rc>
    <rc><c>   2</c><c>S </c><c>     32.06600000</c><c>      6.00000000</c><c>  PAW_PBE S 17Jan2003                   </c></rc>
    <rc><c>   1</c><c>Mo</c><c>     95.94000000</c><c>     12.00000000</c><c> PAW_PBE Mo_pv 08Apr2002                </c></rc>
    <rc><c>   2</c><c>S </c><c>     32.06600000</c><c>      6.00000000</c><c>  PAW_PBE S 17Jan2003                   </c></rc>
   </set>
  </array>
 </atominfo>
 <structure name="initialpos" >
  <crystal>
   <varray name="basis" >
    <v>       3.19031700       0.00000000       0.00000000 </v>
    <v>      -1.59515800       2.76289700       0.00000000 </v>
    <v>       0.00000000       0.00000000      23.14049200 </v>
   </varray>
   <i name="volume">    203.97226633 </i>
   <varray name="rec_basis" >
    <v>       0.31344848       0.18096941       0.00000000 </v>
    <v>       0.00000000       0.36193894       0.00000000 </v>
    <v>       0.00000000       0.00000000       0.04321429 </v>
   </varray>
  </crystal>
  <varray name="positions" >
   <v>       0.66666700       0.33333300       0.06785900 </v>
   <v>       0.33333300       0.66666700       0.00000000 </v>
   <v>       0.33333300       0.66666700       0.13571500 </v>
   <v>       0.09523843       0.76190443       0.35482300 </v>
   <v>       0.76190443       0.09523843       0.28696500 </v>
   <v>       0.76190443       0.09523843       0.42267900 </v>
  </varray>
 </structure>
 <calculation>
  <scstep>
   <time name="dav">   55.38   55.42</time>
   <time name="total">   65.54   65.60</time>
   <energy>
    <i name="alphaZ">    104.15310261 </i>
    <i name="ewald">   7699.01324743 </i>
    <i name="hartreedc"> -11109.06843965 </i>
    <i name="XCdc">    128.46334710 </i>
    <i name="pawpsdc">   2252.92270536 </i>
    <i name="pawaedc">  -2205.68654582 </i>
    <i name="eentropy">     -0.00014816 </i>
    <i name="bandstr">   -159.27567405 </i>
    <i name="atom">   3688.31848598 </i>
    <i name="e_fr_energy">    398.84008080 </i>
    <i name="e_wo_entrp">    398.84022896 </i>
    <i name="e_0_energy">    398.84013018 </i>
   </energy>
  </scstep>
  <scstep>
   <time name="dav">   59.49   59.53</time>
   <time name="total">   59.50   59.56</time>
   <energy>
    <i name="e_fr_energy">     -1.58038768 </i>
    <i name="e_wo_entrp">     -1.57928232 </i>
    <i name="e_0_energy">     -1.58001923 </i>
   </energy>
  </scstep>
  <scstep>
   <time name="dav">   61.72   61.77</time>
   <time name="total">   61.73   61.77</time>
   <energy>
    <i name="e_fr_energy">    -32.96226764 </i>
    <i name="e_wo_entrp">    -32.96311460 </i>
    <i name="e_0_energy">    -32.96254996 </i>
   </energy>
  </scstep>
  <scstep>
   <time name="dav">   58.34   58.39</time>
   <time name="total">   58.35   58.40</time>
   <energy>
    <i name="e_fr_energy">    -33.84740506 </i>
    <i name="e_wo_entrp">    -33.84870412 </i>
    <i name="e_0_energy">    -33.84783808 </i>
   </energy>
  </scstep>
  <scstep>
   <time name="dav">   61.50   61.54</time>
   <time name="total">   66.31   66.36</time>
   <energy>
    <i name="e_fr_energy">    -33.87461588 </i>
    <i name="e_wo_entrp">    -33.87594971 </i>
    <i name="e_0_energy">    -33.87506049 </i>
   </energy>
  </scstep>
  <scstep>
   <time name="diag">   11.45   11.46</time>
   <time name="diis">   41.88   41.91</time>
   <time name="orth">    0.38    0.38</time>
   <time name="total">   68.32   68.37</time>
   <energy>
    <i name="e_fr_energy">    -30.46051243 </i>
    <i name="e_wo_entrp">    -30.45994833 </i>
    <i name="e_0_energy">    -30.46032440 </i>
   </energy>
  </scstep>
  <scstep>
   <time name="diag">   11.45   11.46</time>
   <time name="diis">   39.85   39.88</time>
   <time name="orth">    0.38    0.38</time>
   <time name="total">   66.33   66.38</time>
   <energy>
    <i name="e_fr_energy">    -32.84691581 </i>
    <i name="e_wo_entrp">    -32.84711589 </i>
    <i name="e_0_energy">    -32.84698250 </i>
   </energy>
  </scstep>
  <scstep>
   <time name="diag">   11.47   11.48</time>
   <time name="diis">   43.79   43.83</time>
   <time name="orth">    0.38    0.38</time>
   <time name="total">   70.18   70.23</time>
   <energy>
    <i name="e_fr_energy">    -34.31219607 </i>
    <i name="e_wo_entrp">    -34.31236356 </i>
    <i name="e_0_energy">    -34.31225190 </i>
   </energy>
  </scstep>
  <scstep>
   <time name="diag">   11.43   11.43</time>
   <time name="diis">   40.27   40.31</time>
   <time name="orth">    0.38    0.38</time>
   <time name="total">   66.82   66.87</time>
   <energy>
    <i name="e_fr_energy">    -36.92051055 </i>
    <i name="e_wo_entrp">    -36.92067652 </i>
    <i name="e_0_energy">    -36.92056588 </i>
   </energy>
  </scstep>
  <scstep>
   <time name="diag">   11.46   11.47</time>
   <time name="diis">   37.85   37.87</time>
   <time name="orth">    0.38    0.38</time>
   <time name="total">   64.41   64.45</time>
   <energy>
    <i name="e_fr_energy">    -38.93176805 </i>
    <i name="e_wo_entrp">    -38.93193517 </i>
    <i name="e_0_energy">    -38.93182375 </i>
   </energy>
  </scstep>
  <scstep>
   <time name="diag">   11.43   11.44</time>
   <time name="diis">   40.56   40.59</time>
   <time name="orth">    0.38    0.38</time>
   <time name="total">   67.21   67.31</time>
   <energy>
    <i name="e_fr_energy">    -39.37304137 </i>
    <i name="e_wo_entrp">    -39.37336907 </i>
    <i name="e_0_energy">    -39.37315060 </i>
   </energy>
  </scstep>
  <scstep>
   <time name="diag">   11.44   11.45</time>
   <time name="diis">   40.82   40.85</time>
   <time name="orth">    0.38    0.38</time>
   <time name="total">   67.47   67.52</time>
   <energy>
    <i name="e_fr_energy">    -39.40191239 </i>
    <i name="e_wo_entrp">    -39.40224624 </i>
    <i name="e_0_energy">    -39.40202367 </i>
   </energy>
  </scstep>
  <scstep>
   <time name="diag">   11.47   11.48</time>
   <time name="diis">   43.59   43.63</time>
   <time name="orth">    0.38    0.38</time>
   <time name="total">   70.29   70.34</time>
   <energy>
    <i name="e_fr_energy">    -39.41908081 </i>
    <i name="e_wo_entrp">    -39.41941400 </i>
    <i name="e_0_energy">    -39.41919187 </i>
   </energy>
  </scstep>
  <scstep>
   <time name="diag">   11.51   11.51</time>
   <time name="diis">   43.24   43.27</time>
   <time name="orth">    0.38    0.38</time>
   <time name="total">   69.91   69.97</time>
   <energy>
    <i name="e_fr_energy">    -39.42331655 </i>
    <i name="e_wo_entrp">    -39.42365084 </i>
    <i name="e_0_energy">    -39.42342798 </i>
   </energy>
  </scstep>
  <scstep>
   <time name="diag">   11.41   11.42</time>
   <time name="diis">   35.94   35.97</time>
   <time name="orth">    0.38    0.38</time>
   <time name="total">   62.52   62.57</time>
   <energy>
    <i name="e_fr_energy">    -39.42347511 </i>
    <i name="e_wo_entrp">    -39.42380934 </i>
    <i name="e_0_energy">    -39.42358652 </i>
   </energy>
  </scstep>
  <scstep>
   <time name="diag">   11.44   11.45</time>
   <time name="diis">   30.51   30.53</time>
   <time name="orth">    0.38    0.38</time>
   <time name="total">   57.12   57.37</time>
   <energy>
    <i name="e_fr_energy">    -39.42324127 </i>
    <i name="e_wo_entrp">    -39.42357558 </i>
    <i name="e_0_energy">    -39.42335271 </i>
   </energy>
  </scstep>
  <scstep>
   <time name="diag">   11.47   11.48</time>
   <time name="diis">   29.31   29.33</time>
   <time name="orth">    0.38    0.38</time>
   <time name="total">   55.94   55.98</time>
   <energy>
    <i name="e_fr_energy">    -39.42343463 </i>
    <i name="e_wo_entrp">    -39.42376892 </i>
    <i name="e_0_energy">    -39.42354606 </i>
   </energy>
  </scstep>
  <scstep>
   <time name="diag">   11.45   11.46</time>
   <time name="diis">   27.88   27.90</time>
   <time name="orth">    0.38    0.38</time>
   <time name="total">   54.48   54.52</time>
   <energy>
    <i name="e_fr_energy">    -39.42380643 </i>
    <i name="e_wo_entrp">    -39.42414070 </i>
    <i name="e_0_energy">    -39.42391785 </i>
   </energy>
  </scstep>
  <scstep>
   <time name="diag">   11.53   11.54</time>
   <time name="diis">   27.81   27.83</time>
   <time name="orth">    0.38    0.38</time>
   <time name="total">   54.57   54.61</time>
   <energy>
    <i name="e_fr_energy">    -39.42426830 </i>
    <i name="e_wo_entrp">    -39.42460254 </i>
    <i name="e_0_energy">    -39.42437971 </i>
   </energy>
  </scstep>
  <scstep>
   <time name="diag">   11.46   11.47</time>
   <time name="diis">   27.99   28.01</time>
   <time name="orth">    0.38    0.38</time>
   <time name="total">   54.62   54.66</time>
   <energy>
    <i name="e_fr_energy">    -39.42449627 </i>
    <i name="e_wo_entrp">    -39.42483049 </i>
    <i name="e_0_energy">    -39.42460767 </i>
   </energy>
  </scstep>
  <scstep>
   <time name="diag">   11.47   11.48</time>
   <time name="diis">   27.23   27.25</time>
   <time name="orth">    0.38    0.38</time>
   <time name="total">   48.75   48.78</time>
   <energy>
    <i name="alphaZ">    104.15310261 </i>
    <i name="ewald">   7699.01324743 </i>
    <i name="hartreedc"> -11092.66902141 </i>
    <i name="XCdc">    122.65930150 </i>
    <i name="pawpsdc">   2399.29880251 </i>
    <i name="pawaedc">  -2361.48290938 </i>
    <i name="eentropy">      0.00033422 </i>
    <i name="bandstr">   -598.71587400 </i>
    <i name="atom">   3688.31848598 </i>
    <i name="e_fr_energy">    -39.42453055 </i>
    <i name="e_wo_entrp">    -39.42486476 </i>
    <i name="e_0_energy">    -39.42464195 </i>
   </energy>
  </scstep>
  <structure>
   <crystal>
    <varray name="basis" >
     <v>       3.19031700       0.00000000       0.00000000 </v>
     <v>      -1.59515800       2.76289700       0.00000000 </v>
     <v>       0.00000000       0.00000000      23.14049200 </v>
    </varray>
    <i name="volume">    203.97226633 </i>
    <varray name="rec_basis" >
     <v>       0.31344848       0.18096941       0.00000000 </v>
     <v>       0.00000000       0.36193894       0.00000000 </v>
     <v>       0.00000000       0.00000000       0.04321429 </v>
    </varray>
   </crystal>
   <varray name="positions" >
    <v>       0.66666700       0.33333300       0.06785900 </v>
    <v>       0.33333300       0.66666700       0.00000000 </v>
    <v>       0.33333300       0.66666700       0.13571500 </v>
    <v>       0.09523843       0.76190443       0.35482300 </v>
    <v>       0.76190443       0.09523843       0.28696500 </v>
    <v>       0.76190443       0.09523843       0.42267900 </v>
   </varray>
  </structure>
  <varray name="forces" >
   <v>      -0.00111803      -0.00327325      -0.00372168 </v>
   <v>      -0.00139751       0.00006644      -0.05522536 </v>
   <v>      -0.00741052      -0.01406044       0.11581730 </v>
   <v>       0.00059311       0.00047115       0.00474859 </v>
   <v>       0.00960062       0.01508410      -0.12033050 </v>
   <v>      -0.00026768       0.00171201       0.05871166 </v>
  </varray>
  <varray name="stress" >
   <v>       3.33030030       0.29483466       0.26743032 </v>
   <v>       0.29483472       3.66284138       0.46497323 </v>
   <v>       0.26743041       0.46497327       0.00008256 </v>
  </varray>
  <energy>
   <i name="e_fr_energy">    -39.42453055 </i>
   <i name="e_wo_entrp">    -39.42464195 </i>
   <i name="e_0_energy">      0.00033422 </i>
  </energy>
  <time name="totalsc"> 1410.73 1412.09</time>
  <eigenvalues>
   <array>
    <dimension dim="1">band</dimension>
    <dimension dim="2">kpoint</dimension>
    <dimension dim="3">spin</dimension>
    <field>eigene</field>
    <field>occ</field>
    <set>
     <set comment="spin 1">
      <set comment="kpoint 1">
       <r>  -34.9914    1.0000 </r>
       <r>  -34.9913    1.0000 </r>
       <r>  -34.8007    1.0000 </r>
       <r>  -34.8006    1.0000 </r>
       <r>  -34.8006    1.0000 </r>
       <r>  -34.8005    1.0000 </r>
       <r>  -13.9751    1.0000 </r>
       <r>  -13.9201    1.0000 </r>
       <r>  -12.7091    1.0000 </r>
       <r>  -12.6167    1.0000 </r>
       <r>   -5.6855    1.0000 </r>
       <r>   -5.3990    1.0000 </r>
       <r>   -2.6230    1.0000 </r>
       <r>   -2.6217    1.0000 </r>
       <r>   -2.6197    1.0000 </r>
       <r>   -2.6182    1.0000 </r>
       <r>   -2.1749    1.0000 </r>
       <r>   -1.5316    1.0000 </r>
       <r>   -1.5288    1.0000 </r>
       <r>   -1.5251    1.0000 </r>
       <r>   -1.5225    1.0000 </r>
       <r>   -1.4761    1.0000 </r>
       <r>   -0.2227    1.0000 </r>
       <r>    0.2114    0.7956 </r>
       <r>    2.6854   -0.0000 </r>
       <r>    2.6972   -0.0000 </r>
       <r>    2.7111   -0.0000 </r>
       <r>    2.7197   -0.0000 </r>
       <r>    2.8663   -0.0000 </r>
       <r>    2.8781   -0.0000 </r>
       <r>    2.8963   -0.0000 </r>
       <r>    2.9114   -0.0000 </r>
       <r>    5.2701    0.0000 </r>
       <r>    5.3945    0.0000 </r>
       <r>    6.3844    0.0000 </r>
       <r>    6.5411    0.0000 </r>
      </set>
      <set comment="kpoint 2">
       <r>  -34.9873    1.0000 </r>
       <r>  -34.9872    1.0000 </r>
       <r>  -34.8219    1.0000 </r>
       <r>  -34.8218    1.0000 </r>
       <r>  -34.8055    1.0000 </r>
       <r>  -34.8053    1.0000 </r>
       <r>  -13.8883    1.0000 </r>
       <r>  -13.8336    1.0000 </r>
       <r>  -12.6723    1.0000 </r>
       <r>  -12.5824    1.0000 </r>
       <r>   -5.5861    1.0000 </r>
       <r>   -5.3004    1.0000 </r>
       <r>   -2.8097    1.0000 </r>
       <r>   -2.8053    1.0000 </r>
       <r>   -2.5302    1.0000 </r>
       <r>   -2.5297    1.0000 </r>
       <r>   -2.4617    1.0000 </r>
       <r>   -2.0737    1.0000 </r>
       <r>   -1.6650    1.0000 </r>
       <r>   -1.6639    1.0000 </r>
       <r>   -1.3549    1.0000 </r>
       <r>   -1.0770    1.0000 </r>
       <r>   -0.2430    1.0000 </r>
       <r>    0.1325    1.0349 </r>
       <r>    2.5941   -0.0000 </r>
       <r>    2.6003   -0.0000 </r>
       <r>    2.6467   -0.0000 </r>
       <r>    2.6919   -0.0000 </r>
       <r>    2.7920   -0.0000 </r>
       <r>    2.7972   -0.0000 </r>
       <r>    2.8511   -0.0000 </r>
       <r>    2.8540   -0.0000 </r>
       <r>    5.4128    0.0000 </r>
       <r>    5.5316    0.0000 </r>
       <r>    6.7414    0.0000 </r>
       <r>    6.9246    0.0000 </r>
      </set>
      <set comment="kpoint 3">
       <r>  -34.9760    1.0000 </r>
       <r>  -34.9758    1.0000 </r>
       <r>  -34.8804    1.0000 </r>
       <r>  -34.8803    1.0000 </r>
       <r>  -34.8189    1.0000 </r>
       <r>  -34.8187    1.0000 </r>
       <r>  -13.6395    1.0000 </r>
       <r>  -13.5861    1.0000 </r>
       <r>  -12.5670    1.0000 </r>
       <r>  -12.4845    1.0000 </r>
       <r>   -5.3253    1.0000 </r>
       <r>   -5.0468    1.0000 </r>
       <r>   -3.2598    1.0000 </r>
       <r>   -3.2531    1.0000 </r>
       <r>   -2.9616    1.0000 </r>
       <r>   -2.6898    1.0000 </r>
       <r>   -2.2749    1.0000 </r>
       <r>   -2.2738    1.0000 </r>
       <r>   -2.0005    1.0000 </r>
       <r>   -1.9986    1.0000 </r>
       <r>   -1.2592    1.0000 </r>
       <r>   -0.9549    1.0000 </r>
       <r>   -0.3704    1.0000 </r>
       <r>   -0.1541    1.0000 </r>
       <r>    2.1860   -0.0000 </r>
       <r>    2.3555   -0.0000 </r>
       <r>    2.4969   -0.0000 </r>
       <r>    2.5597   -0.0000 </r>
       <r>    2.5687   -0.0000 </r>
       <r>    2.6101   -0.0000 </r>
       <r>    3.1979    0.0000 </r>
       <r>    3.2036    0.0000 </r>
       <r>    5.7675    0.0000 </r>
       <r>    5.8805    0.0000 </r>
       <r>    7.4043    0.0000 </r>
       <r>    7.8299    0.0000 </r>
      </set>
      <set comment="kpoint 4">
       <r>  -34.9620    1.0000 </r>
       <r>  -34.9618    1.0000 </r>
       <r>  -34.9598    1.0000 </r>
       <r>  -34.9597    1.0000 </r>
       <r>  -34.8377    1.0000 </r>
       <r>  -34.8375    1.0000 </r>
       <r>  -13.2636    1.0000 </r>
       <r>  -13.2133    1.0000 </r>
       <r>  -12.4086    1.0000 </r>
       <r>  -12.3381    1.0000 </r>
       <r>   -5.0617    1.0000 </r>
       <r>   -4.8299    1.0000 </r>
       <r>   -3.7178    1.0000 </r>
       <r>   -3.6877    1.0000 </r>
       <r>   -3.4904    1.0000 </r>
       <r>   -3.3108    1.0000 </r>
       <r>   -2.3958    1.0000 </r>
       <r>   -2.3933    1.0000 </r>
       <r>   -1.9060    1.0000 </r>
       <r>   -1.9039    1.0000 </r>
       <r>   -1.4177    1.0000 </r>
       <r>   -1.1565    1.0000 </r>
       <r>   -0.6833    1.0000 </r>
       <r>   -0.6101    1.0000 </r>
       <r>    1.9512   -0.0000 </r>
       <r>    2.2324   -0.0000 </r>
       <r>    2.3103   -0.0000 </r>
       <r>    2.3190   -0.0000 </r>
       <r>    2.6954   -0.0000 </r>
       <r>    2.8917   -0.0000 </r>
       <r>    3.5797    0.0000 </r>
       <r>    3.5893    0.0000 </r>
       <r>    6.2839    0.0000 </r>
       <r>    6.3879    0.0000 </r>
       <r>    7.8672    0.0000 </r>
       <r>    8.2909    0.0000 </r>
      </set>
      <set comment="kpoint 5">
       <r>  -35.0471    1.0000 </r>
       <r>  -35.0471    1.0000 </r>
       <r>  -34.9427    1.0000 </r>
       <r>  -34.9426    1.0000 </r>
       <r>  -34.8577    1.0000 </r>
       <r>  -34.8575    1.0000 </r>
       <r>  -12.8219    1.0000 </r>
       <r>  -12.7781    1.0000 </r>
       <r>  -12.2249    1.0000 </r>
       <r>  -12.1705    1.0000 </r>
       <r>   -5.1165    1.0000 </r>
       <r>   -5.0008    1.0000 </r>
       <r>   -4.0536    1.0000 </r>
       <r>   -3.9396    1.0000 </r>
       <r>   -3.8482    1.0000 </r>
       <r>   -3.7677    1.0000 </r>
       <r>   -2.7512    1.0000 </r>
       <r>   -2.7484    1.0000 </r>
       <r>   -1.6770    1.0000 </r>
       <r>   -1.5136    1.0000 </r>
       <r>   -1.5065    1.0000 </r>
       <r>   -1.4672    1.0000 </r>
       <r>   -0.9753    1.0000 </r>
       <r>   -0.9313    1.0000 </r>
       <r>    2.0421   -0.0000 </r>
       <r>    2.1417   -0.0000 </r>
       <r>    2.1494   -0.0000 </r>
       <r>    2.3153   -0.0000 </r>
       <r>    3.1093    0.0000 </r>
       <r>    3.3325    0.0000 </r>
       <r>    3.8828    0.0000 </r>
       <r>    3.8968    0.0000 </r>
       <r>    6.9117    0.0000 </r>
       <r>    6.9952    0.0000 </r>
       <r>    7.9162    0.0000 </r>
       <r>    8.0278    0.0000 </r>
      </set>
      <set comment="kpoint 6">
       <r>  -35.1169    1.0000 </r>
       <r>  -35.1168    1.0000 </r>
       <r>  -34.9285    1.0000 </r>
       <r>  -34.9283    1.0000 </r>
       <r>  -34.8741    1.0000 </r>
       <r>  -34.8739    1.0000 </r>
       <r>  -12.4075    1.0000 </r>
       <r>  -12.3754    1.0000 </r>
       <r>  -12.0566    1.0000 </r>
       <r>  -12.0211    1.0000 </r>
       <r>   -5.4277    1.0000 </r>
       <r>   -5.3790    1.0000 </r>
       <r>   -4.4672    1.0000 </r>
       <r>   -4.4020    1.0000 </r>
       <r>   -3.9218    1.0000 </r>
       <r>   -3.8558    1.0000 </r>
       <r>   -3.0111    1.0000 </r>
       <r>   -3.0081    1.0000 </r>
       <r>   -1.8703    1.0000 </r>
       <r>   -1.7202    1.0000 </r>
       <r>   -1.1937    1.0000 </r>
       <r>   -1.1875    1.0000 </r>
       <r>   -0.9344    1.0000 </r>
       <r>   -0.8643    1.0000 </r>
       <r>    2.0972   -0.0000 </r>
       <r>    2.1020   -0.0000 </r>
       <r>    2.3062   -0.0000 </r>
       <r>    2.4895   -0.0000 </r>
       <r>    3.5214    0.0000 </r>
       <r>    3.6981    0.0000 </r>
       <r>    4.0717    0.0000 </r>
       <r>    4.0895    0.0000 </r>
       <r>    6.9080    0.0000 </r>
       <r>    7.0676    0.0000 </r>
       <r>    7.6060    0.0000 </r>
       <r>    7.8905    0.0000 </r>
      </set>
      <set comment="kpoint 7">
       <r>  -35.1559    1.0000 </r>
       <r>  -35.1558    1.0000 </r>
       <r>  -34.9204    1.0000 </r>
       <r>  -34.9203    1.0000 </r>
       <r>  -34.8834    1.0000 </r>
       <r>  -34.8832    1.0000 </r>
       <r>  -12.1437    1.0000 </r>
       <r>  -12.1274    1.0000 </r>
       <r>  -11.9515    1.0000 </r>
       <r>  -11.9345    1.0000 </r>
       <r>   -5.6595    1.0000 </r>
       <r>   -5.6398    1.0000 </r>
       <r>   -4.7085    1.0000 </r>
       <r>   -4.6783    1.0000 </r>
       <r>   -4.0203    1.0000 </r>
       <r>   -3.9713    1.0000 </r>
       <r>   -3.1471    1.0000 </r>
       <r>   -3.1440    1.0000 </r>
       <r>   -1.9555    1.0000 </r>
       <r>   -1.8517    1.0000 </r>
       <r>   -1.0270    1.0000 </r>
       <r>   -1.0192    1.0000 </r>
       <r>   -0.7044    1.0000 </r>
       <r>   -0.6477    1.0000 </r>
       <r>    2.1236   -0.0000 </r>
       <r>    2.1261   -0.0000 </r>
       <r>    2.5643   -0.0000 </r>
       <r>    2.6304   -0.0000 </r>
       <r>    3.7700    0.0000 </r>
       <r>    3.8625    0.0000 </r>
       <r>    4.1573    0.0000 </r>
       <r>    4.1772    0.0000 </r>
       <r>    6.1805    0.0000 </r>
       <r>    6.3487    0.0000 </r>
       <r>    7.8888    0.0000 </r>
       <r>    7.9663    0.0000 </r>
      </set>
      <set comment="kpoint 8">
       <r>  -34.9873    1.0000 </r>
       <r>  -34.9872    1.0000 </r>
       <r>  -34.8220    1.0000 </r>
       <r>  -34.8218    1.0000 </r>
       <r>  -34.8055    1.0000 </r>
       <r>  -34.8054    1.0000 </r>
       <r>  -13.8883    1.0000 </r>
       <r>  -13.8336    1.0000 </r>
       <r>  -12.6723    1.0000 </r>
       <r>  -12.5824    1.0000 </r>
       <r>   -5.5861    1.0000 </r>
       <r>   -5.3004    1.0000 </r>
       <r>   -2.8097    1.0000 </r>
       <r>   -2.8053    1.0000 </r>
       <r>   -2.5303    1.0000 </r>
       <r>   -2.5297    1.0000 </r>
       <r>   -2.4617    1.0000 </r>
       <r>   -2.0737    1.0000 </r>
       <r>   -1.6650    1.0000 </r>
       <r>   -1.6639    1.0000 </r>
       <r>   -1.3549    1.0000 </r>
       <r>   -1.0770    1.0000 </r>
       <r>   -0.2430    1.0000 </r>
       <r>    0.1325    1.0349 </r>
       <r>    2.5940   -0.0000 </r>
       <r>    2.6003   -0.0000 </r>
       <r>    2.6467   -0.0000 </r>
       <r>    2.6919   -0.0000 </r>
       <r>    2.7920   -0.0000 </r>
       <r>    2.7972   -0.0000 </r>
       <r>    2.8511   -0.0000 </r>
       <r>    2.8540   -0.0000 </r>
       <r>    5.4129    0.0000 </r>
       <r>    5.5316    0.0000 </r>
       <r>    6.7422    0.0000 </r>
       <r>    6.9266    0.0000 </r>
      </set>
      <set comment="kpoint 9">
       <r>  -34.9796    1.0000 </r>
       <r>  -34.9794    1.0000 </r>
       <r>  -34.8609    1.0000 </r>
       <r>  -34.8608    1.0000 </r>
       <r>  -34.8155    1.0000 </r>
       <r>  -34.8154    1.0000 </r>
       <r>  -13.7204    1.0000 </r>
       <r>  -13.6667    1.0000 </r>
       <r>  -12.6010    1.0000 </r>
       <r>  -12.5165    1.0000 </r>
       <r>   -5.4036    1.0000 </r>
       <r>   -5.1220    1.0000 </r>
       <r>   -3.1252    1.0000 </r>
       <r>   -3.1163    1.0000 </r>
       <r>   -2.8010    1.0000 </r>
       <r>   -2.4860    1.0000 </r>
       <r>   -2.3626    1.0000 </r>
       <r>   -2.3610    1.0000 </r>
       <r>   -1.9793    1.0000 </r>
       <r>   -1.9752    1.0000 </r>
       <r>   -1.1872    1.0000 </r>
       <r>   -0.9019    1.0000 </r>
       <r>   -0.3147    1.0000 </r>
       <r>   -0.0567    1.0001 </r>
       <r>    2.3092   -0.0000 </r>
       <r>    2.4180   -0.0000 </r>
       <r>    2.4635   -0.0000 </r>
       <r>    2.5270   -0.0000 </r>
       <r>    2.6187   -0.0000 </r>
       <r>    2.6354   -0.0000 </r>
       <r>    3.1215    0.0000 </r>
       <r>    3.1428    0.0000 </r>
       <r>    5.6597    0.0000 </r>
       <r>    5.7734    0.0000 </r>
       <r>    7.2582    0.0000 </r>
       <r>    7.6326    0.0000 </r>
      </set>
      <set comment="kpoint 10">
       <r>  -34.9659    1.0000 </r>
       <r>  -34.9657    1.0000 </r>
       <r>  -34.9284    1.0000 </r>
       <r>  -34.9283    1.0000 </r>
       <r>  -34.8340    1.0000 </r>
       <r>  -34.8339    1.0000 </r>
       <r>  -13.4073    1.0000 </r>
       <r>  -13.3560    1.0000 </r>
       <r>  -12.4683    1.0000 </r>
       <r>  -12.3939    1.0000 </r>
       <r>   -5.1240    1.0000 </r>
       <r>   -4.8637    1.0000 </r>
       <r>   -3.5634    1.0000 </r>
       <r>   -3.5515    1.0000 </r>
       <r>   -3.2356    1.0000 </r>
       <r>   -3.0077    1.0000 </r>
       <r>   -2.4650    1.0000 </r>
       <r>   -2.4483    1.0000 </r>
       <r>   -2.0791    1.0000 </r>
       <r>   -2.0758    1.0000 </r>
       <r>   -1.1539    1.0000 </r>
       <r>   -0.9172    1.0000 </r>
       <r>   -0.5409    1.0000 </r>
       <r>   -0.4396    1.0000 </r>
       <r>    1.9620   -0.0000 </r>
       <r>    2.1815   -0.0000 </r>
       <r>    2.3906   -0.0000 </r>
       <r>    2.4130   -0.0000 </r>
       <r>    2.4712   -0.0000 </r>
       <r>    2.6175   -0.0000 </r>
       <r>    3.5279    0.0000 </r>
       <r>    3.5589    0.0000 </r>
       <r>    6.0913    0.0000 </r>
       <r>    6.2023    0.0000 </r>
       <r>    7.7935    0.0000 </r>
       <r>    8.2484    0.0000 </r>
      </set>
      <set comment="kpoint 11">
       <r>  -35.0088    1.0000 </r>
       <r>  -35.0087    1.0000 </r>
       <r>  -34.9492    1.0000 </r>
       <r>  -34.9491    1.0000 </r>
       <r>  -34.8564    1.0000 </r>
       <r>  -34.8563    1.0000 </r>
       <r>  -12.9962    1.0000 </r>
       <r>  -12.9501    1.0000 </r>
       <r>  -12.2952    1.0000 </r>
       <r>  -12.2351    1.0000 </r>
       <r>   -5.0018    1.0000 </r>
       <r>   -4.8328    1.0000 </r>
       <r>   -3.8614    1.0000 </r>
       <r>   -3.7901    1.0000 </r>
       <r>   -3.7164    1.0000 </r>
       <r>   -3.6052    1.0000 </r>
       <r>   -2.8612    1.0000 </r>
       <r>   -2.8092    1.0000 </r>
       <r>   -1.7983    1.0000 </r>
       <r>   -1.7887    1.0000 </r>
       <r>   -1.3519    1.0000 </r>
       <r>   -1.1830    1.0000 </r>
       <r>   -0.8435    1.0000 </r>
       <r>   -0.8162    1.0000 </r>
       <r>    1.8519   -0.0000 </r>
       <r>    2.0572   -0.0000 </r>
       <r>    2.2772   -0.0000 </r>
       <r>    2.3659   -0.0000 </r>
       <r>    2.7530   -0.0000 </r>
       <r>    2.9369   -0.0000 </r>
       <r>    3.8841    0.0000 </r>
       <r>    3.9179    0.0000 </r>
       <r>    6.6842    0.0000 </r>
       <r>    6.7773    0.0000 </r>
       <r>    8.1913    0.0000 </r>
       <r>    8.5215    0.0000 </r>
      </set>
      <set comment="kpoint 12">
       <r>  -35.0834    1.0000 </r>
       <r>  -35.0833    1.0000 </r>
       <r>  -34.9335    1.0000 </r>
       <r>  -34.9334    1.0000 </r>
       <r>  -34.8775    1.0000 </r>
       <r>  -34.8773    1.0000 </r>
       <r>  -12.5630    1.0000 </r>
       <r>  -12.5262    1.0000 </r>
       <r>  -12.1155    1.0000 </r>
       <r>  -12.0729    1.0000 </r>
       <r>   -5.2215    1.0000 </r>
       <r>   -5.1463    1.0000 </r>
       <r>   -4.2873    1.0000 </r>
       <r>   -4.2207    1.0000 </r>
       <r>   -3.8444    1.0000 </r>
       <r>   -3.7706    1.0000 </r>
       <r>   -3.0776    1.0000 </r>
       <r>   -3.0211    1.0000 </r>
       <r>   -1.6541    1.0000 </r>
       <r>   -1.6320    1.0000 </r>
       <r>   -1.6133    1.0000 </r>
       <r>   -1.5160    1.0000 </r>
       <r>   -0.8674    1.0000 </r>
       <r>   -0.8434    1.0000 </r>
       <r>    1.9528   -0.0000 </r>
       <r>    2.0939   -0.0000 </r>
       <r>    2.3200   -0.0000 </r>
       <r>    2.4286   -0.0000 </r>
       <r>    3.1840    0.0000 </r>
       <r>    3.3533    0.0000 </r>
       <r>    4.0898    0.0000 </r>
       <r>    4.1241    0.0000 </r>
       <r>    7.2723    0.0000 </r>
       <r>    7.3757    0.0000 </r>
       <r>    7.5831    0.0000 </r>
       <r>    8.1161    0.0000 </r>
      </set>
      <set comment="kpoint 13">
       <r>  -35.1357    1.0000 </r>
       <r>  -35.1357    1.0000 </r>
       <r>  -34.9224    1.0000 </r>
       <r>  -34.9222    1.0000 </r>
       <r>  -34.8923    1.0000 </r>
       <r>  -34.8921    1.0000 </r>
       <r>  -12.2158    1.0000 </r>
       <r>  -12.1934    1.0000 </r>
       <r>  -11.9743    1.0000 </r>
       <r>  -11.9509    1.0000 </r>
       <r>   -5.4952    1.0000 </r>
       <r>   -5.4627    1.0000 </r>
       <r>   -4.6659    1.0000 </r>
       <r>   -4.6346    1.0000 </r>
       <r>   -3.9400    1.0000 </r>
       <r>   -3.8867    1.0000 </r>
       <r>   -3.1651    1.0000 </r>
       <r>   -3.1288    1.0000 </r>
       <r>   -1.8609    1.0000 </r>
       <r>   -1.7678    1.0000 </r>
       <r>   -1.4991    1.0000 </r>
       <r>   -1.4724    1.0000 </r>
       <r>   -0.6545    1.0000 </r>
       <r>   -0.6160    1.0000 </r>
       <r>    2.0961   -0.0000 </r>
       <r>    2.1605   -0.0000 </r>
       <r>    2.4977   -0.0000 </r>
       <r>    2.5834   -0.0000 </r>
       <r>    3.5927    0.0000 </r>
       <r>    3.7153    0.0000 </r>
       <r>    4.0838    0.0000 </r>
       <r>    4.1570    0.0000 </r>
       <r>    6.5721    0.0000 </r>
       <r>    6.7713    0.0000 </r>
       <r>    8.0060    0.0000 </r>
       <r>    8.2476    0.0000 </r>
      </set>
      <set comment="kpoint 14">
       <r>  -35.1545    1.0000 </r>
       <r>  -35.1544    1.0000 </r>
       <r>  -34.9184    1.0000 </r>
       <r>  -34.9182    1.0000 </r>
       <r>  -34.8977    1.0000 </r>
       <r>  -34.8975    1.0000 </r>
       <r>  -12.0783    1.0000 </r>
       <r>  -12.0661    1.0000 </r>
       <r>  -11.9191    1.0000 </r>
       <r>  -11.9063    1.0000 </r>
       <r>   -5.6060    1.0000 </r>
       <r>   -5.5912    1.0000 </r>
       <r>   -4.8051    1.0000 </r>
       <r>   -4.7850    1.0000 </r>
       <r>   -4.0092    1.0000 </r>
       <r>   -3.9611    1.0000 </r>
       <r>   -3.1786    1.0000 </r>
       <r>   -3.1673    1.0000 </r>
       <r>   -1.9497    1.0000 </r>
       <r>   -1.8543    1.0000 </r>
       <r>   -1.4431    1.0000 </r>
       <r>   -1.3885    1.0000 </r>
       <r>   -0.5146    1.0000 </r>
       <r>   -0.4818    1.0000 </r>
       <r>    2.1418   -0.0000 </r>
       <r>    2.1514   -0.0000 </r>
       <r>    2.6607   -0.0000 </r>
       <r>    2.6793   -0.0000 </r>
       <r>    3.8551    0.0000 </r>
       <r>    3.8901    0.0000 </r>
       <r>    3.9988    0.0000 </r>
       <r>    4.0565    0.0000 </r>
       <r>    6.1780    0.0000 </r>
       <r>    6.3376    0.0000 </r>
       <r>    8.3200    0.0000 </r>
       <r>    8.3653    0.0000 </r>
      </set>
      <set comment="kpoint 15">
       <r>  -35.1357    1.0000 </r>
       <r>  -35.1357    1.0000 </r>
       <r>  -34.9224    1.0000 </r>
       <r>  -34.9222    1.0000 </r>
       <r>  -34.8923    1.0000 </r>
       <r>  -34.8921    1.0000 </r>
       <r>  -12.2176    1.0000 </r>
       <r>  -12.1919    1.0000 </r>
       <r>  -11.9760    1.0000 </r>
       <r>  -11.9488    1.0000 </r>
       <r>   -5.4956    1.0000 </r>
       <r>   -5.4621    1.0000 </r>
       <r>   -4.6688    1.0000 </r>
       <r>   -4.6319    1.0000 </r>
       <r>   -3.9413    1.0000 </r>
       <r>   -3.8849    1.0000 </r>
       <r>   -3.1636    1.0000 </r>
       <r>   -3.1315    1.0000 </r>
       <r>   -1.8773    1.0000 </r>
       <r>   -1.7596    1.0000 </r>
       <r>   -1.5137    1.0000 </r>
       <r>   -1.4459    1.0000 </r>
       <r>   -0.6496    1.0000 </r>
       <r>   -0.6214    1.0000 </r>
       <r>    2.1014   -0.0000 </r>
       <r>    2.1533   -0.0000 </r>
       <r>    2.4946   -0.0000 </r>
       <r>    2.5867   -0.0000 </r>
       <r>    3.5602    0.0000 </r>
       <r>    3.7469    0.0000 </r>
       <r>    4.1003    0.0000 </r>
       <r>    4.1442    0.0000 </r>
       <r>    6.5737    0.0000 </r>
       <r>    6.7700    0.0000 </r>
       <r>    7.9890    0.0000 </r>
       <r>    8.1888    0.0000 </r>
      </set>
      <set comment="kpoint 16">
       <r>  -35.0834    1.0000 </r>
       <r>  -35.0833    1.0000 </r>
       <r>  -34.9335    1.0000 </r>
       <r>  -34.9334    1.0000 </r>
       <r>  -34.8775    1.0000 </r>
       <r>  -34.8773    1.0000 </r>
       <r>  -12.5645    1.0000 </r>
       <r>  -12.5249    1.0000 </r>
       <r>  -12.1172    1.0000 </r>
       <r>  -12.0710    1.0000 </r>
       <r>   -5.2216    1.0000 </r>
       <r>   -5.1460    1.0000 </r>
       <r>   -4.2905    1.0000 </r>
       <r>   -4.2183    1.0000 </r>
       <r>   -3.8494    1.0000 </r>
       <r>   -3.7642    1.0000 </r>
       <r>   -3.0790    1.0000 </r>
       <r>   -3.0222    1.0000 </r>
       <r>   -1.6957    1.0000 </r>
       <r>   -1.6277    1.0000 </r>
       <r>   -1.6039    1.0000 </r>
       <r>   -1.4829    1.0000 </r>
       <r>   -0.8688    1.0000 </r>
       <r>   -0.8412    1.0000 </r>
       <r>    1.9496   -0.0000 </r>
       <r>    2.0932   -0.0000 </r>
       <r>    2.3186   -0.0000 </r>
       <r>    2.4322   -0.0000 </r>
       <r>    3.1574    0.0000 </r>
       <r>    3.3827    0.0000 </r>
       <r>    4.0878    0.0000 </r>
       <r>    4.1242    0.0000 </r>
       <r>    7.2715    0.0000 </r>
       <r>    7.3818    0.0000 </r>
       <r>    7.5944    0.0000 </r>
       <r>    8.0485    0.0000 </r>
      </set>
      <set comment="kpoint 17">
       <r>  -35.0087    1.0000 </r>
       <r>  -35.0087    1.0000 </r>
       <r>  -34.9492    1.0000 </r>
       <r>  -34.9491    1.0000 </r>
       <r>  -34.8565    1.0000 </r>
       <r>  -34.8563    1.0000 </r>
       <r>  -12.9973    1.0000 </r>
       <r>  -12.9491    1.0000 </r>
       <r>  -12.2966    1.0000 </r>
       <r>  -12.2335    1.0000 </r>
       <r>   -5.0018    1.0000 </r>
       <r>   -4.8330    1.0000 </r>
       <r>   -3.8691    1.0000 </r>
       <r>   -3.7832    1.0000 </r>
       <r>   -3.7177    1.0000 </r>
       <r>   -3.6023    1.0000 </r>
       <r>   -2.8650    1.0000 </r>
       <r>   -2.8075    1.0000 </r>
       <r>   -1.7976    1.0000 </r>
       <r>   -1.7915    1.0000 </r>
       <r>   -1.3694    1.0000 </r>
       <r>   -1.1628    1.0000 </r>
       <r>   -0.8477    1.0000 </r>
       <r>   -0.8053    1.0000 </r>
       <r>    1.8447   -0.0000 </r>
       <r>    2.0619   -0.0000 </r>
       <r>    2.2755   -0.0000 </r>
       <r>    2.3694   -0.0000 </r>
       <r>    2.7342   -0.0000 </r>
       <r>    2.9547   -0.0000 </r>
       <r>    3.8833    0.0000 </r>
       <r>    3.9155    0.0000 </r>
       <r>    6.6869    0.0000 </r>
       <r>    6.7771    0.0000 </r>
       <r>    8.2118    0.0000 </r>
       <r>    8.5036    0.0000 </r>
      </set>
      <set comment="kpoint 18">
       <r>  -34.9659    1.0000 </r>
       <r>  -34.9657    1.0000 </r>
       <r>  -34.9284    1.0000 </r>
       <r>  -34.9283    1.0000 </r>
       <r>  -34.8341    1.0000 </r>
       <r>  -34.8339    1.0000 </r>
       <r>  -13.4080    1.0000 </r>
       <r>  -13.3554    1.0000 </r>
       <r>  -12.4694    1.0000 </r>
       <r>  -12.3928    1.0000 </r>
       <r>   -5.1251    1.0000 </r>
       <r>   -4.8629    1.0000 </r>
       <r>   -3.5661    1.0000 </r>
       <r>   -3.5490    1.0000 </r>
       <r>   -3.2336    1.0000 </r>
       <r>   -3.0093    1.0000 </r>
       <r>   -2.4691    1.0000 </r>
       <r>   -2.4450    1.0000 </r>
       <r>   -2.0783    1.0000 </r>
       <r>   -2.0767    1.0000 </r>
       <r>   -1.1737    1.0000 </r>
       <r>   -0.9012    1.0000 </r>
       <r>   -0.5479    1.0000 </r>
       <r>   -0.4179    1.0000 </r>
       <r>    1.9528   -0.0000 </r>
       <r>    2.1794   -0.0000 </r>
       <r>    2.3909   -0.0000 </r>
       <r>    2.4221   -0.0000 </r>
       <r>    2.4565   -0.0000 </r>
       <r>    2.6257   -0.0000 </r>
       <r>    3.5347    0.0000 </r>
       <r>    3.5501    0.0000 </r>
       <r>    6.0909    0.0000 </r>
       <r>    6.2028    0.0000 </r>
       <r>    7.7971    0.0000 </r>
       <r>    8.2656    0.0000 </r>
      </set>
      <set comment="kpoint 19">
       <r>  -34.9796    1.0000 </r>
       <r>  -34.9794    1.0000 </r>
       <r>  -34.8608    1.0000 </r>
       <r>  -34.8607    1.0000 </r>
       <r>  -34.8156    1.0000 </r>
       <r>  -34.8154    1.0000 </r>
       <r>  -13.7207    1.0000 </r>
       <r>  -13.6663    1.0000 </r>
       <r>  -12.6016    1.0000 </r>
       <r>  -12.5158    1.0000 </r>
       <r>   -5.4047    1.0000 </r>
       <r>   -5.1211    1.0000 </r>
       <r>   -3.1234    1.0000 </r>
       <r>   -3.1185    1.0000 </r>
       <r>   -2.7986    1.0000 </r>
       <r>   -2.4880    1.0000 </r>
       <r>   -2.3634    1.0000 </r>
       <r>   -2.3602    1.0000 </r>
       <r>   -1.9786    1.0000 </r>
       <r>   -1.9765    1.0000 </r>
       <r>   -1.2052    1.0000 </r>
       <r>   -0.8871    1.0000 </r>
       <r>   -0.3197    1.0000 </r>
       <r>   -0.0361    1.0002 </r>
       <r>    2.2827   -0.0000 </r>
       <r>    2.4161   -0.0000 </r>
       <r>    2.4521   -0.0000 </r>
       <r>    2.5452   -0.0000 </r>
       <r>    2.6290   -0.0000 </r>
       <r>    2.6335   -0.0000 </r>
       <r>    3.1260    0.0000 </r>
       <r>    3.1384    0.0000 </r>
       <r>    5.6586    0.0000 </r>
       <r>    5.7729    0.0000 </r>
       <r>    7.2717    0.0000 </r>
       <r>    7.5883    0.0000 </r>
      </set>
      <set comment="kpoint 20">
       <r>  -34.9873    1.0000 </r>
       <r>  -34.9872    1.0000 </r>
       <r>  -34.8219    1.0000 </r>
       <r>  -34.8217    1.0000 </r>
       <r>  -34.8055    1.0000 </r>
       <r>  -34.8054    1.0000 </r>
       <r>  -13.8885    1.0000 </r>
       <r>  -13.8335    1.0000 </r>
       <r>  -12.6726    1.0000 </r>
       <r>  -12.5822    1.0000 </r>
       <r>   -5.5865    1.0000 </r>
       <r>   -5.3000    1.0000 </r>
       <r>   -2.8096    1.0000 </r>
       <r>   -2.8056    1.0000 </r>
       <r>   -2.5327    1.0000 </r>
       <r>   -2.5273    1.0000 </r>
       <r>   -2.4603    1.0000 </r>
       <r>   -2.0738    1.0000 </r>
       <r>   -1.6693    1.0000 </r>
       <r>   -1.6595    1.0000 </r>
       <r>   -1.3672    1.0000 </r>
       <r>   -1.0671    1.0000 </r>
       <r>   -0.2447    1.0000 </r>
       <r>    0.1407    1.0318 </r>
       <r>    2.5690   -0.0000 </r>
       <r>    2.6060   -0.0000 </r>
       <r>    2.6323   -0.0000 </r>
       <r>    2.7253   -0.0000 </r>
       <r>    2.7636   -0.0000 </r>
       <r>    2.8103   -0.0000 </r>
       <r>    2.8401   -0.0000 </r>
       <r>    2.8748   -0.0000 </r>
       <r>    5.4128    0.0000 </r>
       <r>    5.5319    0.0000 </r>
       <r>    6.7474    0.0000 </r>
       <r>    6.9236    0.0000 </r>
      </set>
      <set comment="kpoint 21">
       <r>  -34.9760    1.0000 </r>
       <r>  -34.9758    1.0000 </r>
       <r>  -34.8804    1.0000 </r>
       <r>  -34.8802    1.0000 </r>
       <r>  -34.8189    1.0000 </r>
       <r>  -34.8188    1.0000 </r>
       <r>  -13.6395    1.0000 </r>
       <r>  -13.5861    1.0000 </r>
       <r>  -12.5670    1.0000 </r>
       <r>  -12.4845    1.0000 </r>
       <r>   -5.3253    1.0000 </r>
       <r>   -5.0468    1.0000 </r>
       <r>   -3.2598    1.0000 </r>
       <r>   -3.2532    1.0000 </r>
       <r>   -2.9616    1.0000 </r>
       <r>   -2.6898    1.0000 </r>
       <r>   -2.2749    1.0000 </r>
       <r>   -2.2737    1.0000 </r>
       <r>   -2.0005    1.0000 </r>
       <r>   -1.9986    1.0000 </r>
       <r>   -1.2592    1.0000 </r>
       <r>   -0.9549    1.0000 </r>
       <r>   -0.3704    1.0000 </r>
       <r>   -0.1541    1.0000 </r>
       <r>    2.1860   -0.0000 </r>
       <r>    2.3555   -0.0000 </r>
       <r>    2.4969   -0.0000 </r>
       <r>    2.5597   -0.0000 </r>
       <r>    2.5687   -0.0000 </r>
       <r>    2.6101   -0.0000 </r>
       <r>    3.1979    0.0000 </r>
       <r>    3.2036    0.0000 </r>
       <r>    5.7696    0.0000 </r>
       <r>    5.8803    0.0000 </r>
       <r>    7.4156    0.0000 </r>
       <r>    7.8291    0.0000 </r>
      </set>
      <set comment="kpoint 22">
       <r>  -34.9659    1.0000 </r>
       <r>  -34.9657    1.0000 </r>
       <r>  -34.9285    1.0000 </r>
       <r>  -34.9283    1.0000 </r>
       <r>  -34.8340    1.0000 </r>
       <r>  -34.8339    1.0000 </r>
       <r>  -13.4073    1.0000 </r>
       <r>  -13.3560    1.0000 </r>
       <r>  -12.4683    1.0000 </r>
       <r>  -12.3939    1.0000 </r>
       <r>   -5.1240    1.0000 </r>
       <r>   -4.8637    1.0000 </r>
       <r>   -3.5634    1.0000 </r>
       <r>   -3.5515    1.0000 </r>
       <r>   -3.2356    1.0000 </r>
       <r>   -3.0077    1.0000 </r>
       <r>   -2.4650    1.0000 </r>
       <r>   -2.4483    1.0000 </r>
       <r>   -2.0791    1.0000 </r>
       <r>   -2.0758    1.0000 </r>
       <r>   -1.1539    1.0000 </r>
       <r>   -0.9172    1.0000 </r>
       <r>   -0.5409    1.0000 </r>
       <r>   -0.4396    1.0000 </r>
       <r>    1.9620   -0.0000 </r>
       <r>    2.1815   -0.0000 </r>
       <r>    2.3906   -0.0000 </r>
       <r>    2.4130   -0.0000 </r>
       <r>    2.4712   -0.0000 </r>
       <r>    2.6175   -0.0000 </r>
       <r>    3.5279    0.0000 </r>
       <r>    3.5589    0.0000 </r>
       <r>    6.0913    0.0000 </r>
       <r>    6.2023    0.0000 </r>
       <r>    7.7940    0.0000 </r>
       <r>    8.2537    0.0000 </r>
      </set>
      <set comment="kpoint 23">
       <r>  -34.9906    1.0000 </r>
       <r>  -34.9904    1.0000 </r>
       <r>  -34.9516    1.0000 </r>
       <r>  -34.9514    1.0000 </r>
       <r>  -34.8604    1.0000 </r>
       <r>  -34.8602    1.0000 </r>
       <r>  -13.0576    1.0000 </r>
       <r>  -13.0106    1.0000 </r>
       <r>  -12.3195    1.0000 </r>
       <r>  -12.2573    1.0000 </r>
       <r>   -4.9532    1.0000 </r>
       <r>   -4.7564    1.0000 </r>
       <r>   -3.8006    1.0000 </r>
       <r>   -3.7551    1.0000 </r>
       <r>   -3.5238    1.0000 </r>
       <r>   -3.4018    1.0000 </r>
       <r>   -3.0916    1.0000 </r>
       <r>   -3.0058    1.0000 </r>
       <r>   -1.9526    1.0000 </r>
       <r>   -1.9390    1.0000 </r>
       <r>   -1.1151    1.0000 </r>
       <r>   -0.9683    1.0000 </r>
       <r>   -0.7803    1.0000 </r>
       <r>   -0.7563    1.0000 </r>
       <r>    1.7606   -0.0000 </r>
       <r>    1.9820   -0.0000 </r>
       <r>    2.3210   -0.0000 </r>
       <r>    2.3935   -0.0000 </r>
       <r>    2.5223   -0.0000 </r>
       <r>    2.7029   -0.0000 </r>
       <r>    3.9285    0.0000 </r>
       <r>    3.9731    0.0000 </r>
       <r>    6.6092    0.0000 </r>
       <r>    6.7086    0.0000 </r>
       <r>    8.3175    0.0000 </r>
       <r>    8.6282    0.0000 </r>
      </set>
      <set comment="kpoint 24">
       <r>  -35.0534    1.0000 </r>
       <r>  -35.0533    1.0000 </r>
       <r>  -34.9364    1.0000 </r>
       <r>  -34.9363    1.0000 </r>
       <r>  -34.8907    1.0000 </r>
       <r>  -34.8905    1.0000 </r>
       <r>  -12.6495    1.0000 </r>
       <r>  -12.6103    1.0000 </r>
       <r>  -12.1460    1.0000 </r>
       <r>  -12.0994    1.0000 </r>
       <r>   -5.0303    1.0000 </r>
       <r>   -4.9256    1.0000 </r>
       <r>   -4.1016    1.0000 </r>
       <r>   -4.0672    1.0000 </r>
       <r>   -3.7543    1.0000 </r>
       <r>   -3.6783    1.0000 </r>
       <r>   -3.3145    1.0000 </r>
       <r>   -3.1747    1.0000 </r>
       <r>   -2.0818    1.0000 </r>
       <r>   -2.0570    1.0000 </r>
       <r>   -1.3221    1.0000 </r>
       <r>   -1.2398    1.0000 </r>
       <r>   -0.8472    1.0000 </r>
       <r>   -0.8176    1.0000 </r>
       <r>    1.7821   -0.0000 </r>
       <r>    2.0372   -0.0000 </r>
       <r>    2.3910   -0.0000 </r>
       <r>    2.4373   -0.0000 </r>
       <r>    2.7863   -0.0000 </r>
       <r>    2.9531   -0.0000 </r>
       <r>    4.1966    0.0000 </r>
       <r>    4.2415    0.0000 </r>
       <r>    7.2503    0.0000 </r>
       <r>    7.3352    0.0000 </r>
       <r>    8.1574    0.0000 </r>
       <r>    8.5543    0.0000 </r>
      </set>
      <set comment="kpoint 25">
       <r>  -35.1040    1.0000 </r>
       <r>  -35.1039    1.0000 </r>
       <r>  -34.9238    1.0000 </r>
       <r>  -34.9237    1.0000 </r>
       <r>  -34.9167    1.0000 </r>
       <r>  -34.9165    1.0000 </r>
       <r>  -12.2716    1.0000 </r>
       <r>  -12.2447    1.0000 </r>
       <r>  -11.9859    1.0000 </r>
       <r>  -11.9571    1.0000 </r>
       <r>   -5.2256    1.0000 </r>
       <r>   -5.1700    1.0000 </r>
       <r>   -4.6362    1.0000 </r>
       <r>   -4.6214    1.0000 </r>
       <r>   -3.7707    1.0000 </r>
       <r>   -3.7121    1.0000 </r>
       <r>   -3.2850    1.0000 </r>
       <r>   -3.1736    1.0000 </r>
       <r>   -2.2117    1.0000 </r>
       <r>   -2.1816    1.0000 </r>
       <r>   -1.6612    1.0000 </r>
       <r>   -1.5788    1.0000 </r>
       <r>   -0.6656    1.0000 </r>
       <r>   -0.6480    1.0000 </r>
       <r>    2.0006   -0.0000 </r>
       <r>    2.2118   -0.0000 </r>
       <r>    2.5123   -0.0000 </r>
       <r>    2.5411   -0.0000 </r>
       <r>    3.1486    0.0000 </r>
       <r>    3.2545    0.0000 </r>
       <r>    4.2788    0.0000 </r>
       <r>    4.3335    0.0000 </r>
       <r>    7.1869    0.0000 </r>
       <r>    7.3867    0.0000 </r>
       <r>    8.0878    0.0000 </r>
       <r>    8.3165    0.0000 </r>
      </set>
      <set comment="kpoint 26">
       <r>  -35.1321    1.0000 </r>
       <r>  -35.1320    1.0000 </r>
       <r>  -34.9316    1.0000 </r>
       <r>  -34.9314    1.0000 </r>
       <r>  -34.9167    1.0000 </r>
       <r>  -34.9165    1.0000 </r>
       <r>  -12.0354    1.0000 </r>
       <r>  -12.0222    1.0000 </r>
       <r>  -11.8862    1.0000 </r>
       <r>  -11.8727    1.0000 </r>
       <r>   -5.3463    1.0000 </r>
       <r>   -5.3237    1.0000 </r>
       <r>   -4.9431    1.0000 </r>
       <r>   -4.9303    1.0000 </r>
       <r>   -3.9105    1.0000 </r>
       <r>   -3.8610    1.0000 </r>
       <r>   -3.1842    1.0000 </r>
       <r>   -3.1312    1.0000 </r>
       <r>   -2.2238    1.0000 </r>
       <r>   -2.1615    1.0000 </r>
       <r>   -1.9190    1.0000 </r>
       <r>   -1.8207    1.0000 </r>
       <r>   -0.4325    1.0000 </r>
       <r>   -0.4141    1.0000 </r>
       <r>    2.0571   -0.0000 </r>
       <r>    2.1041   -0.0000 </r>
       <r>    2.7698   -0.0000 </r>
       <r>    2.8340   -0.0000 </r>
       <r>    3.4170    0.0000 </r>
       <r>    3.4635    0.0000 </r>
       <r>    4.2420    0.0000 </r>
       <r>    4.3071    0.0000 </r>
       <r>    6.5283    0.0000 </r>
       <r>    6.7172    0.0000 </r>
       <r>    8.7395    0.0000 </r>
       <r>    8.9082    0.0000 </r>
      </set>
      <set comment="kpoint 27">
       <r>  -35.1321    1.0000 </r>
       <r>  -35.1320    1.0000 </r>
       <r>  -34.9316    1.0000 </r>
       <r>  -34.9314    1.0000 </r>
       <r>  -34.9167    1.0000 </r>
       <r>  -34.9165    1.0000 </r>
       <r>  -12.0387    1.0000 </r>
       <r>  -12.0196    1.0000 </r>
       <r>  -11.8889    1.0000 </r>
       <r>  -11.8694    1.0000 </r>
       <r>   -5.3468    1.0000 </r>
       <r>   -5.3227    1.0000 </r>
       <r>   -4.9449    1.0000 </r>
       <r>   -4.9286    1.0000 </r>
       <r>   -3.9109    1.0000 </r>
       <r>   -3.8607    1.0000 </r>
       <r>   -3.1822    1.0000 </r>
       <r>   -3.1344    1.0000 </r>
       <r>   -2.2417    1.0000 </r>
       <r>   -2.1520    1.0000 </r>
       <r>   -1.9127    1.0000 </r>
       <r>   -1.8153    1.0000 </r>
       <r>   -0.4325    1.0000 </r>
       <r>   -0.4148    1.0000 </r>
       <r>    2.0610   -0.0000 </r>
       <r>    2.1003   -0.0000 </r>
       <r>    2.7709   -0.0000 </r>
       <r>    2.8323   -0.0000 </r>
       <r>    3.3687    0.0000 </r>
       <r>    3.5150    0.0000 </r>
       <r>    4.2437    0.0000 </r>
       <r>    4.3054    0.0000 </r>
       <r>    6.5289    0.0000 </r>
       <r>    6.7141    0.0000 </r>
       <r>    8.7265    0.0000 </r>
       <r>    8.7723    0.0000 </r>
      </set>
      <set comment="kpoint 28">
       <r>  -35.1039    1.0000 </r>
       <r>  -35.1039    1.0000 </r>
       <r>  -34.9238    1.0000 </r>
       <r>  -34.9237    1.0000 </r>
       <r>  -34.9167    1.0000 </r>
       <r>  -34.9165    1.0000 </r>
       <r>  -12.2756    1.0000 </r>
       <r>  -12.2416    1.0000 </r>
       <r>  -11.9896    1.0000 </r>
       <r>  -11.9526    1.0000 </r>
       <r>   -5.2256    1.0000 </r>
       <r>   -5.1690    1.0000 </r>
       <r>   -4.6408    1.0000 </r>
       <r>   -4.6167    1.0000 </r>
       <r>   -3.7795    1.0000 </r>
       <r>   -3.7047    1.0000 </r>
       <r>   -3.2875    1.0000 </r>
       <r>   -3.1741    1.0000 </r>
       <r>   -2.2357    1.0000 </r>
       <r>   -2.1637    1.0000 </r>
       <r>   -1.6660    1.0000 </r>
       <r>   -1.5581    1.0000 </r>
       <r>   -0.6644    1.0000 </r>
       <r>   -0.6512    1.0000 </r>
       <r>    2.0055   -0.0000 </r>
       <r>    2.2035   -0.0000 </r>
       <r>    2.5075   -0.0000 </r>
       <r>    2.5484   -0.0000 </r>
       <r>    3.1028    0.0000 </r>
       <r>    3.3062    0.0000 </r>
       <r>    4.2735    0.0000 </r>
       <r>    4.3365    0.0000 </r>
       <r>    7.2019    0.0000 </r>
       <r>    7.3714    0.0000 </r>
       <r>    8.0918    0.0000 </r>
       <r>    8.3197    0.0000 </r>
      </set>
      <set comment="kpoint 29">
       <r>  -35.0533    1.0000 </r>
       <r>  -35.0532    1.0000 </r>
       <r>  -34.9364    1.0000 </r>
       <r>  -34.9363    1.0000 </r>
       <r>  -34.8908    1.0000 </r>
       <r>  -34.8906    1.0000 </r>
       <r>  -12.6525    1.0000 </r>
       <r>  -12.6079    1.0000 </r>
       <r>  -12.1493    1.0000 </r>
       <r>  -12.0955    1.0000 </r>
       <r>   -5.0292    1.0000 </r>
       <r>   -4.9260    1.0000 </r>
       <r>   -4.1052    1.0000 </r>
       <r>   -4.0604    1.0000 </r>
       <r>   -3.7791    1.0000 </r>
       <r>   -3.6595    1.0000 </r>
       <r>   -3.3193    1.0000 </r>
       <r>   -3.1712    1.0000 </r>
       <r>   -2.0783    1.0000 </r>
       <r>   -2.0622    1.0000 </r>
       <r>   -1.3524    1.0000 </r>
       <r>   -1.1981    1.0000 </r>
       <r>   -0.8386    1.0000 </r>
       <r>   -0.8253    1.0000 </r>
       <r>    1.7796   -0.0000 </r>
       <r>    2.0371   -0.0000 </r>
       <r>    2.3877   -0.0000 </r>
       <r>    2.4444   -0.0000 </r>
       <r>    2.7619   -0.0000 </r>
       <r>    2.9760   -0.0000 </r>
       <r>    4.1832    0.0000 </r>
       <r>    4.2519    0.0000 </r>
       <r>    7.2507    0.0000 </r>
       <r>    7.3353    0.0000 </r>
       <r>    8.2717    0.0000 </r>
       <r>    8.4347    0.0000 </r>
      </set>
      <set comment="kpoint 30">
       <r>  -34.9905    1.0000 </r>
       <r>  -34.9904    1.0000 </r>
       <r>  -34.9516    1.0000 </r>
       <r>  -34.9514    1.0000 </r>
       <r>  -34.8605    1.0000 </r>
       <r>  -34.8603    1.0000 </r>
       <r>  -13.0596    1.0000 </r>
       <r>  -13.0090    1.0000 </r>
       <r>  -12.3221    1.0000 </r>
       <r>  -12.2544    1.0000 </r>
       <r>   -4.9529    1.0000 </r>
       <r>   -4.7574    1.0000 </r>
       <r>   -3.8192    1.0000 </r>
       <r>   -3.7336    1.0000 </r>
       <r>   -3.5261    1.0000 </r>
       <r>   -3.4027    1.0000 </r>
       <r>   -3.1001    1.0000 </r>
       <r>   -2.9985    1.0000 </r>
       <r>   -1.9486    1.0000 </r>
       <r>   -1.9434    1.0000 </r>
       <r>   -1.1591    1.0000 </r>
       <r>   -0.9321    1.0000 </r>
       <r>   -0.7867    1.0000 </r>
       <r>   -0.7260    1.0000 </r>
       <r>    1.7532   -0.0000 </r>
       <r>    1.9833   -0.0000 </r>
       <r>    2.3173   -0.0000 </r>
       <r>    2.3983   -0.0000 </r>
       <r>    2.5105   -0.0000 </r>
       <r>    2.7087   -0.0000 </r>
       <r>    3.9268    0.0000 </r>
       <r>    3.9735    0.0000 </r>
       <r>    6.6082    0.0000 </r>
       <r>    6.7107    0.0000 </r>
       <r>    8.3118    0.0000 </r>
       <r>    8.5997    0.0000 </r>
      </set>
      <set comment="kpoint 31">
       <r>  -34.9659    1.0000 </r>
       <r>  -34.9657    1.0000 </r>
       <r>  -34.9284    1.0000 </r>
       <r>  -34.9283    1.0000 </r>
       <r>  -34.8341    1.0000 </r>
       <r>  -34.8339    1.0000 </r>
       <r>  -13.4085    1.0000 </r>
       <r>  -13.3550    1.0000 </r>
       <r>  -12.4701    1.0000 </r>
       <r>  -12.3920    1.0000 </r>
       <r>   -5.1258    1.0000 </r>
       <r>   -4.8625    1.0000 </r>
       <r>   -3.5736    1.0000 </r>
       <r>   -3.5413    1.0000 </r>
       <r>   -3.2342    1.0000 </r>
       <r>   -3.0077    1.0000 </r>
       <r>   -2.4682    1.0000 </r>
       <r>   -2.4471    1.0000 </r>
       <r>   -2.0808    1.0000 </r>
       <r>   -2.0740    1.0000 </r>
       <r>   -1.1963    1.0000 </r>
       <r>   -0.8846    1.0000 </r>
       <r>   -0.5539    1.0000 </r>
       <r>   -0.3955    1.0000 </r>
       <r>    1.9404   -0.0000 </r>
       <r>    2.1791   -0.0000 </r>
       <r>    2.3952   -0.0000 </r>
       <r>    2.4049   -0.0000 </r>
       <r>    2.4648   -0.0000 </r>
       <r>    2.6301   -0.0000 </r>
       <r>    3.5411    0.0000 </r>
       <r>    3.5456    0.0000 </r>
       <r>    6.0900    0.0000 </r>
       <r>    6.2044    0.0000 </r>
       <r>    7.7940    0.0000 </r>
       <r>    8.2556    0.0000 </r>
      </set>
      <set comment="kpoint 32">
       <r>  -34.9760    1.0000 </r>
       <r>  -34.9758    1.0000 </r>
       <r>  -34.8804    1.0000 </r>
       <r>  -34.8802    1.0000 </r>
       <r>  -34.8189    1.0000 </r>
       <r>  -34.8188    1.0000 </r>
       <r>  -13.6401    1.0000 </r>
       <r>  -13.5856    1.0000 </r>
       <r>  -12.5679    1.0000 </r>
       <r>  -12.4836    1.0000 </r>
       <r>   -5.3267    1.0000 </r>
       <r>   -5.0457    1.0000 </r>
       <r>   -3.2645    1.0000 </r>
       <r>   -3.2488    1.0000 </r>
       <r>   -2.9603    1.0000 </r>
       <r>   -2.6892    1.0000 </r>
       <r>   -2.2780    1.0000 </r>
       <r>   -2.2707    1.0000 </r>
       <r>   -2.0048    1.0000 </r>
       <r>   -1.9940    1.0000 </r>
       <r>   -1.2917    1.0000 </r>
       <r>   -0.9296    1.0000 </r>
       <r>   -0.3783    1.0000 </r>
       <r>   -0.1234    1.0000 </r>
       <r>    2.1519   -0.0000 </r>
       <r>    2.3595   -0.0000 </r>
       <r>    2.4872   -0.0000 </r>
       <r>    2.5410   -0.0000 </r>
       <r>    2.5864   -0.0000 </r>
       <r>    2.6312   -0.0000 </r>
       <r>    3.1805    0.0000 </r>
       <r>    3.2219    0.0000 </r>
       <r>    5.7675    0.0000 </r>
       <r>    5.8814    0.0000 </r>
       <r>    7.4145    0.0000 </r>
       <r>    7.8273    0.0000 </r>
      </set>
      <set comment="kpoint 33">
       <r>  -34.9796    1.0000 </r>
       <r>  -34.9794    1.0000 </r>
       <r>  -34.8609    1.0000 </r>
       <r>  -34.8607    1.0000 </r>
       <r>  -34.8155    1.0000 </r>
       <r>  -34.8155    1.0000 </r>
       <r>  -13.7207    1.0000 </r>
       <r>  -13.6663    1.0000 </r>
       <r>  -12.6016    1.0000 </r>
       <r>  -12.5158    1.0000 </r>
       <r>   -5.4047    1.0000 </r>
       <r>   -5.1211    1.0000 </r>
       <r>   -3.1234    1.0000 </r>
       <r>   -3.1185    1.0000 </r>
       <r>   -2.7986    1.0000 </r>
       <r>   -2.4880    1.0000 </r>
       <r>   -2.3634    1.0000 </r>
       <r>   -2.3602    1.0000 </r>
       <r>   -1.9786    1.0000 </r>
       <r>   -1.9765    1.0000 </r>
       <r>   -1.2052    1.0000 </r>
       <r>   -0.8871    1.0000 </r>
       <r>   -0.3197    1.0000 </r>
       <r>   -0.0361    1.0002 </r>
       <r>    2.2827   -0.0000 </r>
       <r>    2.4161   -0.0000 </r>
       <r>    2.4521   -0.0000 </r>
       <r>    2.5452   -0.0000 </r>
       <r>    2.6290   -0.0000 </r>
       <r>    2.6335   -0.0000 </r>
       <r>    3.1260    0.0000 </r>
       <r>    3.1384    0.0000 </r>
       <r>    5.6575    0.0000 </r>
       <r>    5.7728    0.0000 </r>
       <r>    7.2618    0.0000 </r>
       <r>    7.5865    0.0000 </r>
      </set>
      <set comment="kpoint 34">
       <r>  -34.9619    1.0000 </r>
       <r>  -34.9618    1.0000 </r>
       <r>  -34.9599    1.0000 </r>
       <r>  -34.9596    1.0000 </r>
       <r>  -34.8377    1.0000 </r>
       <r>  -34.8376    1.0000 </r>
       <r>  -13.2636    1.0000 </r>
       <r>  -13.2133    1.0000 </r>
       <r>  -12.4086    1.0000 </r>
       <r>  -12.3381    1.0000 </r>
       <r>   -5.0617    1.0000 </r>
       <r>   -4.8299    1.0000 </r>
       <r>   -3.7178    1.0000 </r>
       <r>   -3.6877    1.0000 </r>
       <r>   -3.4904    1.0000 </r>
       <r>   -3.3108    1.0000 </r>
       <r>   -2.3958    1.0000 </r>
       <r>   -2.3933    1.0000 </r>
       <r>   -1.9060    1.0000 </r>
       <r>   -1.9039    1.0000 </r>
       <r>   -1.4177    1.0000 </r>
       <r>   -1.1565    1.0000 </r>
       <r>   -0.6833    1.0000 </r>
       <r>   -0.6101    1.0000 </r>
       <r>    1.9512   -0.0000 </r>
       <r>    2.2324   -0.0000 </r>
       <r>    2.3103   -0.0000 </r>
       <r>    2.3190   -0.0000 </r>
       <r>    2.6954   -0.0000 </r>
[...]
       <r>    -2.1757     1.7905    18.5026 </r>
       <r>    -2.0135     3.4966    19.0697 </r>
       <r>    -1.8514     3.7168    19.6725 </r>
       <r>    -1.6892     3.2877    20.2057 </r>
       <r>    -1.5270     2.8967    20.6754 </r>
       <r>    -1.3648     3.1472    21.1858 </r>
       <r>    -1.2027     1.6072    21.4465 </r>
       <r>    -1.0405     1.9969    21.7703 </r>
       <r>    -0.8783     2.3468    22.1509 </r>
       <r>    -0.7161     3.3765    22.6985 </r>
       <r>    -0.5540     2.8319    23.1577 </r>
       <r>    -0.3918     2.3763    23.5431 </r>
       <r>    -0.2296     1.4405    23.7767 </r>
       <r>    -0.0675     0.9662    23.9334 </r>
       <r>     0.0947     0.2031    23.9664 </r>
       <r>     0.2569     0.2095    24.0003 </r>
       <r>     0.4191    -0.0018    24.0000 </r>
       <r>     0.5812    -0.0003    24.0000 </r>
       <r>     0.7434    -0.0000    24.0000 </r>
       <r>     0.9056    -0.0000    24.0000 </r>
       <r>     1.0678    -0.0000    24.0000 </r>
       <r>     1.2299    -0.0000    24.0000 </r>
       <r>     1.3921    -0.0001    24.0000 </r>
       <r>     1.5543    -0.0182    23.9970 </r>
       <r>     1.7165     0.3887    24.0601 </r>
       <r>     1.8786     1.4509    24.2954 </r>
       <r>     2.0408     3.5262    24.8672 </r>
       <r>     2.2030     5.1635    25.7046 </r>
       <r>     2.3652     3.5956    26.2877 </r>
       <r>     2.5273     5.1591    27.1244 </r>
       <r>     2.6895     4.5302    27.8591 </r>
       <r>     2.8517     3.1825    28.3752 </r>
       <r>     3.0139     2.7547    28.8220 </r>
       <r>     3.1760     2.8705    29.2875 </r>
       <r>     3.3382     2.0986    29.6278 </r>
       <r>     3.5004     1.6463    29.8948 </r>
       <r>     3.6626     1.9416    30.2097 </r>
       <r>     3.8247     0.9197    30.3588 </r>
       <r>     3.9869     2.1676    30.7104 </r>
       <r>     4.1491     2.4797    31.1125 </r>
       <r>     4.3112     2.6046    31.5349 </r>
       <r>     4.4734     1.3266    31.7501 </r>
       <r>     4.6356     1.0590    31.9218 </r>
       <r>     4.7978     0.4657    31.9973 </r>
       <r>     4.9599     0.0177    32.0002 </r>
       <r>     5.1221    -0.0023    31.9998 </r>
       <r>     5.2843     0.0145    32.0022 </r>
       <r>     5.4465     0.2221    32.0382 </r>
       <r>     5.6086     0.2921    32.0856 </r>
       <r>     5.7708     0.4188    32.1535 </r>
       <r>     5.9330     0.4923    32.2333 </r>
       <r>     6.0952     0.3121    32.2840 </r>
       <r>     6.2573     1.0433    32.4532 </r>
       <r>     6.4195     0.8903    32.5975 </r>
       <r>     6.5817     0.7006    32.7112 </r>
       <r>     6.7439     1.5808    32.9675 </r>
       <r>     6.9060     1.5266    33.2151 </r>
       <r>     7.0682     1.3389    33.4322 </r>
       <r>     7.2304     1.0837    33.6080 </r>
       <r>     7.3926     2.2595    33.9744 </r>
       <r>     7.5547     1.0804    34.1496 </r>
       <r>     7.7169     0.8376    34.2854 </r>
       <r>     7.8791     1.2301    34.4849 </r>
       <r>     8.0413     1.5628    34.7384 </r>
       <r>     8.2034     2.1202    35.0822 </r>
       <r>     8.3656     2.4859    35.4854 </r>
       <r>     8.5278     1.1051    35.6646 </r>
       <r>     8.6899     1.1742    35.8550 </r>
       <r>     8.8521     0.6265    35.9566 </r>
       <r>     9.0143     0.2526    35.9976 </r>
       <r>     9.1765     0.0157    36.0001 </r>
       <r>     9.3386    -0.0009    36.0000 </r>
       <r>     9.5008    -0.0000    36.0000 </r>
       <r>     9.6630    -0.0000    36.0000 </r>
       <r>     9.8252     0.0000    36.0000 </r>
       <r>     9.9873     0.0000    36.0000 </r>
       <r>    10.1495     0.0000    36.0000 </r>
       <r>    10.3117     0.0000    36.0000 </r>
       <r>    10.4739     0.0000    36.0000 </r>
       <r>    10.6360     0.0000    36.0000 </r>
       <r>    10.7982     0.0000    36.0000 </r>
       <r>    10.9604     0.0000    36.0000 </r>
       <r>    11.1226     0.0000    36.0000 </r>
       <r>    11.2847     0.0000    36.0000 </r>
      </set>
      <set comment="spin 2">
       <r>   -37.3675     0.0000     0.0000 </r>
       <r>   -37.2053     0.0000     0.0000 </r>
       <r>   -37.0431     0.0000     0.0000 </r>
       <r>   -36.8810     0.0000     0.0000 </r>
       <r>   -36.7188     0.0000     0.0000 </r>
       <r>   -36.5566     0.0000     0.0000 </r>
       <r>   -36.3944     0.0000     0.0000 </r>
       <r>   -36.2323     0.0000     0.0000 </r>
       <r>   -36.0701    -0.0000    -0.0000 </r>
       <r>   -35.9079    -0.0000    -0.0000 </r>
       <r>   -35.7457    -0.0000    -0.0000 </r>
       <r>   -35.5836    -0.0000    -0.0000 </r>
       <r>   -35.4214    -0.0009    -0.0002 </r>
       <r>   -35.2592    -0.1946    -0.0317 </r>
       <r>   -35.0971     4.3364     0.6715 </r>
       <r>   -34.9349    15.6083     3.2028 </r>
       <r>   -34.7727    17.3285     6.0131 </r>
       <r>   -34.6105    -0.0574     6.0037 </r>
       <r>   -34.4484    -0.0230     6.0000 </r>
       <r>   -34.2862    -0.0000     6.0000 </r>
       <r>   -34.1240    -0.0000     6.0000 </r>
       <r>   -33.9618     0.0000     6.0000 </r>
       <r>   -33.7997     0.0000     6.0000 </r>
       <r>   -33.6375     0.0000     6.0000 </r>
       <r>   -33.4753     0.0000     6.0000 </r>
       <r>   -33.3131     0.0000     6.0000 </r>
       <r>   -33.1510     0.0000     6.0000 </r>
       <r>   -32.9888     0.0000     6.0000 </r>
       <r>   -32.8266     0.0000     6.0000 </r>
       <r>   -32.6644     0.0000     6.0000 </r>
       <r>   -32.5023     0.0000     6.0000 </r>
       <r>   -32.3401     0.0000     6.0000 </r>
       <r>   -32.1779     0.0000     6.0000 </r>
       <r>   -32.0157     0.0000     6.0000 </r>
       <r>   -31.8536     0.0000     6.0000 </r>
       <r>   -31.6914     0.0000     6.0000 </r>
       <r>   -31.5292     0.0000     6.0000 </r>
       <r>   -31.3670     0.0000     6.0000 </r>
       <r>   -31.2049     0.0000     6.0000 </r>
       <r>   -31.0427     0.0000     6.0000 </r>
       <r>   -30.8805     0.0000     6.0000 </r>
       <r>   -30.7184     0.0000     6.0000 </r>
       <r>   -30.5562     0.0000     6.0000 </r>
       <r>   -30.3940     0.0000     6.0000 </r>
       <r>   -30.2318     0.0000     6.0000 </r>
       <r>   -30.0697     0.0000     6.0000 </r>
       <r>   -29.9075     0.0000     6.0000 </r>
       <r>   -29.7453     0.0000     6.0000 </r>
       <r>   -29.5831     0.0000     6.0000 </r>
       <r>   -29.4210     0.0000     6.0000 </r>
       <r>   -29.2588     0.0000     6.0000 </r>
       <r>   -29.0966     0.0000     6.0000 </r>
       <r>   -28.9344     0.0000     6.0000 </r>
       <r>   -28.7723     0.0000     6.0000 </r>
       <r>   -28.6101     0.0000     6.0000 </r>
       <r>   -28.4479     0.0000     6.0000 </r>
       <r>   -28.2857     0.0000     6.0000 </r>
       <r>   -28.1236     0.0000     6.0000 </r>
       <r>   -27.9614     0.0000     6.0000 </r>
       <r>   -27.7992     0.0000     6.0000 </r>
       <r>   -27.6370     0.0000     6.0000 </r>
       <r>   -27.4749     0.0000     6.0000 </r>
       <r>   -27.3127     0.0000     6.0000 </r>
       <r>   -27.1505     0.0000     6.0000 </r>
       <r>   -26.9883     0.0000     6.0000 </r>
       <r>   -26.8262     0.0000     6.0000 </r>
       <r>   -26.6640     0.0000     6.0000 </r>
       <r>   -26.5018     0.0000     6.0000 </r>
       <r>   -26.3397     0.0000     6.0000 </r>
       <r>   -26.1775     0.0000     6.0000 </r>
       <r>   -26.0153     0.0000     6.0000 </r>
       <r>   -25.8531     0.0000     6.0000 </r>
       <r>   -25.6910     0.0000     6.0000 </r>
       <r>   -25.5288     0.0000     6.0000 </r>
       <r>   -25.3666     0.0000     6.0000 </r>
       <r>   -25.2044     0.0000     6.0000 </r>
       <r>   -25.0423     0.0000     6.0000 </r>
       <r>   -24.8801     0.0000     6.0000 </r>
       <r>   -24.7179     0.0000     6.0000 </r>
       <r>   -24.5557     0.0000     6.0000 </r>
       <r>   -24.3936     0.0000     6.0000 </r>
       <r>   -24.2314     0.0000     6.0000 </r>
       <r>   -24.0692     0.0000     6.0000 </r>
       <r>   -23.9070     0.0000     6.0000 </r>
       <r>   -23.7449     0.0000     6.0000 </r>
       <r>   -23.5827     0.0000     6.0000 </r>
       <r>   -23.4205     0.0000     6.0000 </r>
       <r>   -23.2583     0.0000     6.0000 </r>
       <r>   -23.0962     0.0000     6.0000 </r>
       <r>   -22.9340     0.0000     6.0000 </r>
       <r>   -22.7718     0.0000     6.0000 </r>
       <r>   -22.6096     0.0000     6.0000 </r>
       <r>   -22.4475     0.0000     6.0000 </r>
       <r>   -22.2853     0.0000     6.0000 </r>
       <r>   -22.1231     0.0000     6.0000 </r>
       <r>   -21.9610     0.0000     6.0000 </r>
       <r>   -21.7988     0.0000     6.0000 </r>
       <r>   -21.6366     0.0000     6.0000 </r>
       <r>   -21.4744     0.0000     6.0000 </r>
       <r>   -21.3123     0.0000     6.0000 </r>
       <r>   -21.1501     0.0000     6.0000 </r>
       <r>   -20.9879     0.0000     6.0000 </r>
       <r>   -20.8257     0.0000     6.0000 </r>
       <r>   -20.6636     0.0000     6.0000 </r>
       <r>   -20.5014     0.0000     6.0000 </r>
       <r>   -20.3392     0.0000     6.0000 </r>
       <r>   -20.1770     0.0000     6.0000 </r>
       <r>   -20.0149     0.0000     6.0000 </r>
       <r>   -19.8527     0.0000     6.0000 </r>
       <r>   -19.6905     0.0000     6.0000 </r>
       <r>   -19.5283     0.0000     6.0000 </r>
       <r>   -19.3662     0.0000     6.0000 </r>
       <r>   -19.2040     0.0000     6.0000 </r>
       <r>   -19.0418     0.0000     6.0000 </r>
       <r>   -18.8796     0.0000     6.0000 </r>
       <r>   -18.7175     0.0000     6.0000 </r>
       <r>   -18.5553     0.0000     6.0000 </r>
       <r>   -18.3931     0.0000     6.0000 </r>
       <r>   -18.2309     0.0000     6.0000 </r>
       <r>   -18.0688     0.0000     6.0000 </r>
       <r>   -17.9066     0.0000     6.0000 </r>
       <r>   -17.7444     0.0000     6.0000 </r>
       <r>   -17.5823     0.0000     6.0000 </r>
       <r>   -17.4201     0.0000     6.0000 </r>
       <r>   -17.2579     0.0000     6.0000 </r>
       <r>   -17.0957     0.0000     6.0000 </r>
       <r>   -16.9336     0.0000     6.0000 </r>
       <r>   -16.7714     0.0000     6.0000 </r>
       <r>   -16.6092     0.0000     6.0000 </r>
       <r>   -16.4470     0.0000     6.0000 </r>
       <r>   -16.2849     0.0000     6.0000 </r>
       <r>   -16.1227     0.0000     6.0000 </r>
       <r>   -15.9605     0.0000     6.0000 </r>
       <r>   -15.7983     0.0000     6.0000 </r>
       <r>   -15.6362     0.0000     6.0000 </r>
       <r>   -15.4740     0.0000     6.0000 </r>
       <r>   -15.3118     0.0000     6.0000 </r>
       <r>   -15.1496     0.0000     6.0000 </r>
       <r>   -14.9875     0.0000     6.0000 </r>
       <r>   -14.8253    -0.0000     6.0000 </r>
       <r>   -14.6631    -0.0000     6.0000 </r>
       <r>   -14.5009    -0.0000     6.0000 </r>
       <r>   -14.3388    -0.0000     6.0000 </r>
       <r>   -14.1766    -0.0003     5.9999 </r>
       <r>   -14.0144    -0.0041     5.9993 </r>
       <r>   -13.8522     0.3129     6.0500 </r>
       <r>   -13.6901     0.4629     6.1251 </r>
       <r>   -13.5279     0.5890     6.2206 </r>
       <r>   -13.3657     0.5578     6.3111 </r>
       <r>   -13.2036     0.6756     6.4206 </r>
       <r>   -13.0414     0.3710     6.4808 </r>
       <r>   -12.8792     1.0690     6.6542 </r>
       <r>   -12.7170     0.4301     6.7239 </r>
       <r>   -12.5549     1.9915     7.0469 </r>
       <r>   -12.3927     2.1299     7.3923 </r>
       <r>   -12.2305     3.1156     7.8976 </r>
       <r>   -12.0683     3.9490     8.5380 </r>
       <r>   -11.9062     5.7558     9.4714 </r>
       <r>   -11.7440     3.2545     9.9992 </r>
       <r>   -11.5818     0.0100    10.0008 </r>
       <r>   -11.4196    -0.0052    10.0000 </r>
       <r>   -11.2575    -0.0000    10.0000 </r>
       <r>   -11.0953    -0.0000    10.0000 </r>
       <r>   -10.9331     0.0000    10.0000 </r>
       <r>   -10.7709     0.0000    10.0000 </r>
       <r>   -10.6088     0.0000    10.0000 </r>
       <r>   -10.4466     0.0000    10.0000 </r>
       <r>   -10.2844     0.0000    10.0000 </r>
       <r>   -10.1222     0.0000    10.0000 </r>
       <r>    -9.9601     0.0000    10.0000 </r>
       <r>    -9.7979     0.0000    10.0000 </r>
       <r>    -9.6357     0.0000    10.0000 </r>
       <r>    -9.4735     0.0000    10.0000 </r>
       <r>    -9.3114     0.0000    10.0000 </r>
       <r>    -9.1492     0.0000    10.0000 </r>
       <r>    -8.9870     0.0000    10.0000 </r>
       <r>    -8.8249     0.0000    10.0000 </r>
       <r>    -8.6627     0.0000    10.0000 </r>
       <r>    -8.5005     0.0000    10.0000 </r>
       <r>    -8.3383     0.0000    10.0000 </r>
       <r>    -8.1762     0.0000    10.0000 </r>
       <r>    -8.0140     0.0000    10.0000 </r>
       <r>    -7.8518     0.0000    10.0000 </r>
       <r>    -7.6896     0.0000    10.0000 </r>
       <r>    -7.5275     0.0000    10.0000 </r>
       <r>    -7.3653     0.0000    10.0000 </r>
       <r>    -7.2031     0.0000    10.0000 </r>
       <r>    -7.0409     0.0000    10.0000 </r>
       <r>    -6.8788     0.0000    10.0000 </r>
       <r>    -6.7166     0.0000    10.0000 </r>
       <r>    -6.5544    -0.0000    10.0000 </r>
       <r>    -6.3922    -0.0000    10.0000 </r>
       <r>    -6.2301    -0.0000    10.0000 </r>
       <r>    -6.0679    -0.0000    10.0000 </r>
       <r>    -5.9057    -0.0007     9.9999 </r>
       <r>    -5.7435    -0.0163     9.9972 </r>
       <r>    -5.5814     0.8321    10.1322 </r>
       <r>    -5.4192     1.3441    10.3502 </r>
       <r>    -5.2570     2.3144    10.7255 </r>
       <r>    -5.0948     3.0840    11.2256 </r>
       <r>    -4.9327     4.8480    12.0119 </r>
       <r>    -4.7705     2.2578    12.3780 </r>
       <r>    -4.6083     2.6628    12.8099 </r>
       <r>    -4.4462     0.9027    12.9563 </r>
       <r>    -4.2840     0.5032    13.0379 </r>
       <r>    -4.1218     0.8122    13.1696 </r>
       <r>    -3.9596     1.9960    13.4933 </r>
       <r>    -3.7975     4.5640    14.2334 </r>
       <r>    -3.6353     4.4999    14.9632 </r>
       <r>    -3.4731     2.3876    15.3504 </r>
       <r>    -3.3109     1.1779    15.5414 </r>
       <r>    -3.1488     4.3064    16.2398 </r>
       <r>    -2.9866     4.9692    17.0457 </r>
       <r>    -2.8244     2.7206    17.4869 </r>
       <r>    -2.6622     1.4220    17.7175 </r>
       <r>    -2.5001     1.1702    17.9073 </r>
       <r>    -2.3379     1.8805    18.2123 </r>
       <r>    -2.1757     1.7909    18.5027 </r>
       <r>    -2.0135     3.4969    19.0698 </r>
       <r>    -1.8514     3.7169    19.6726 </r>
       <r>    -1.6892     3.2878    20.2058 </r>
       <r>    -1.5270     2.8966    20.6755 </r>
       <r>    -1.3648     3.1470    21.1859 </r>
       <r>    -1.2027     1.6073    21.4466 </r>
       <r>    -1.0405     1.9966    21.7704 </r>
       <r>    -0.8783     2.3473    22.1510 </r>
       <r>    -0.7161     3.3760    22.6985 </r>
       <r>    -0.5540     2.8319    23.1578 </r>
       <r>    -0.3918     2.3763    23.5432 </r>
       <r>    -0.2296     1.4404    23.7768 </r>
       <r>    -0.0675     0.9661    23.9334 </r>
       <r>     0.0947     0.2031    23.9664 </r>
       <r>     0.2569     0.2094    24.0003 </r>
       <r>     0.4191    -0.0018    24.0000 </r>
       <r>     0.5812    -0.0003    24.0000 </r>
       <r>     0.7434    -0.0000    24.0000 </r>
       <r>     0.9056    -0.0000    24.0000 </r>
       <r>     1.0678    -0.0000    24.0000 </r>
       <r>     1.2299    -0.0000    24.0000 </r>
       <r>     1.3921    -0.0001    24.0000 </r>
       <r>     1.5543    -0.0182    23.9970 </r>
       <r>     1.7165     0.3888    24.0601 </r>
       <r>     1.8786     1.4510    24.2954 </r>
       <r>     2.0408     3.5268    24.8674 </r>
       <r>     2.2030     5.1632    25.7047 </r>
       <r>     2.3652     3.5958    26.2879 </r>
       <r>     2.5273     5.1591    27.1245 </r>
       <r>     2.6895     4.5299    27.8592 </r>
       <r>     2.8517     3.1825    28.3753 </r>
       <r>     3.0139     2.7547    28.8220 </r>
       <r>     3.1760     2.8706    29.2876 </r>
       <r>     3.3382     2.0983    29.6279 </r>
       <r>     3.5004     1.6463    29.8949 </r>
       <r>     3.6626     1.9414    30.2097 </r>
       <r>     3.8247     0.9198    30.3589 </r>
       <r>     3.9869     2.1676    30.7104 </r>
       <r>     4.1491     2.4801    31.1126 </r>
       <r>     4.3112     2.6043    31.5350 </r>
       <r>     4.4734     1.3265    31.7501 </r>
       <r>     4.6356     1.0590    31.9218 </r>
       <r>     4.7978     0.4655    31.9973 </r>
       <r>     4.9599     0.0177    32.0002 </r>
       <r>     5.1221    -0.0019    31.9999 </r>
       <r>     5.2843     0.0082    32.0012 </r>
       <r>     5.4465     0.1871    32.0316 </r>
       <r>     5.6086     0.3081    32.0815 </r>
       <r>     5.7708     0.3786    32.1429 </r>
       <r>     5.9330     0.5441    32.2312 </r>
       <r>     6.0952     0.2441    32.2707 </r>
       <r>     6.2573     1.0606    32.4428 </r>
       <r>     6.4195     0.9377    32.5948 </r>
       <r>     6.5817     0.6593    32.7017 </r>
       <r>     6.7439     1.4578    32.9382 </r>
       <r>     6.9060     1.5610    33.1913 </r>
       <r>     7.0682     1.2254    33.3900 </r>
       <r>     7.2304     1.1380    33.5746 </r>
       <r>     7.3926     2.4208    33.9672 </r>
       <r>     7.5547     1.1145    34.1479 </r>
       <r>     7.7169     0.8273    34.2821 </r>
       <r>     7.8791     1.2872    34.4909 </r>
       <r>     8.0413     1.3867    34.7157 </r>
       <r>     8.2034     1.9222    35.0275 </r>
       <r>     8.3656     2.7752    35.4775 </r>
       <r>     8.5278     0.6621    35.5849 </r>
       <r>     8.6899     1.1392    35.7697 </r>
       <r>     8.8521     0.7003    35.8832 </r>
       <r>     9.0143     0.5307    35.9693 </r>
       <r>     9.1765     0.1973    36.0013 </r>
       <r>     9.3386    -0.0079    36.0000 </r>
       <r>     9.5008    -0.0001    36.0000 </r>
       <r>     9.6630    -0.0000    36.0000 </r>
       <r>     9.8252    -0.0000    36.0000 </r>
       <r>     9.9873     0.0000    36.0000 </r>
       <r>    10.1495     0.0000    36.0000 </r>
       <r>    10.3117     0.0000    36.0000 </r>
       <r>    10.4739     0.0000    36.0000 </r>
       <r>    10.6360     0.0000    36.0000 </r>
       <r>    10.7982     0.0000    36.0000 </r>
       <r>    10.9604     0.0000    36.0000 </r>
       <r>    11.1226     0.0000    36.0000 </r>
       <r>    11.2847     0.0000    36.0000 </r>
      </set>
     </set>
    </array>
   </total>
  </dos>
 </calculation>
 <structure name="finalpos" >
  <crystal>
   <varray name="basis" >
    <v>       3.19031700       0.00000000       0.00000000 </v>
    <v>      -1.59515800       2.76289700       0.00000000 </v>
    <v>       0.00000000       0.00000000      23.14049200 </v>
   </varray>
   <i name="volume">    203.97226633 </i>
   <varray name="rec_basis" >
    <v>       0.31344848       0.18096941       0.00000000 </v>
    <v>       0.00000000       0.36193894       0.00000000 </v>
    <v>       0.00000000       0.00000000       0.04321429 </v>
   </varray>
  </crystal>
  <varray name="positions" >
   <v>       0.66666700       0.33333300       0.06785900 </v>
   <v>       0.33333300       0.66666700       0.00000000 </v>
   <v>       0.33333300       0.66666700       0.13571500 </v>
   <v>       0.09523843       0.76190443       0.35482300 </v>
   <v>       0.76190443       0.09523843       0.28696500 </v>
   <v>       0.76190443       0.09523843       0.42267900 </v>
  </varray>
 </structure>
</modeling>
