   24   24    1    1
  0.4176334E+02  0.3540400E-09  0.1044544E-08  0.2750143E-08  0.5000000E-15
  1.000000000000000E-004
  CAR 
 unknown system                          
    108     54     68
 
  0.0000000E+00  0.0000000E+00  0.0000000E+00  0.9615385E-02
    1      -14.609749
    2      -13.539621
    3      -12.999600
    4      -12.802245
    5      -12.486521
    6      -12.362643
    7      -12.208618
    8      -12.075292
    9      -11.433274
   10      -11.415633
   11      -11.017431
   12      -10.975960
   13       -8.361591
   14       -8.028943
   15       -7.826920
   16       -7.179350
   17       -6.931829
   18       -6.777930
   19       -6.531234
   20       -6.487972
   21       -5.831152
   22       -5.675825
   23       -4.753551
   24       -4.612462
   25       -4.059393
   26       -3.718063
   27       -3.684259
   28       -3.557520
   29       -3.297628
   30       -3.223705
   31       -3.052672
   32       -2.885255
   33       -2.846190
   34       -2.741674
   35       -2.517867
   36       -2.457361
   37       -2.387793
   38       -2.281397
   39       -2.230970
   40       -2.046461
   41       -1.848004
   42       -1.769808
   43       -1.731256
   44       -1.639345
   45       -1.585483
   46       -1.573887
   47       -1.485385
   48       -1.432155
   49       -1.202529
   50       -1.162077
   51       -0.999493
   52       -0.876039
   53       -0.175361
   54        0.121169
   55        0.359693
   56        0.886377
   57        1.155825
   58        1.230676
   59        1.319518
   60        1.552380
   61        1.728236
   62        1.795010
   63        1.987073
   64        2.158653
   65        2.419686
   66        2.447678
   67        2.652078
   68        2.787130
 
  0.7692308E-01 -0.1387779E-16  0.0000000E+00  0.1923077E-01
    1      -14.575578
    2      -13.478272
    3      -12.946730
    4      -12.750090
    5      -12.430979
    6      -12.307571
    7      -12.151955
    8      -12.013538
    9      -11.384562
   10      -11.368824
   11      -10.966699
   12      -10.926649
   13       -8.348534
   14       -8.066438
   15       -7.789488
   16       -7.177059
   17       -6.892356
   18       -6.746978
   19       -6.513659
   20       -6.480810
   21       -5.797386
   22       -5.652187
   23       -4.754215
   24       -4.583689
   25       -4.055394
   26       -3.784362
   27       -3.720831
   28       -3.669645
   29       -3.594668
   30       -3.474310
   31       -3.291084
   32       -3.221530
   33       -3.048086
   34       -2.935390
   35       -2.734218
   36       -2.620109
   37       -2.530884
   38       -2.474601
   39       -2.295164
   40       -2.197168
   41       -2.108746
   42       -2.033508
   43       -1.967632
   44       -1.921440
   45       -1.835644
   46       -1.742134
   47       -1.655552
   48       -1.509630
   49       -1.330947
   50       -1.139754
   51       -0.937481
   52       -0.805593
   53       -0.052527
   54        0.183685
   55        0.440397
   56        1.149290
   57        1.425447
   58        1.567394
   59        1.695428
   60        1.778042
   61        2.132567
   62        2.206025
   63        2.224648
   64        2.307895
   65        2.605526
   66        2.647082
   67        2.769386
   68        2.908820
 
  0.1538462E+00 -0.2775558E-16  0.0000000E+00  0.1923077E-01
    1      -14.477726
    2      -13.295291
    3      -12.788887
    4      -12.594347
    5      -12.266321
    6      -12.144801
    7      -11.985626
    8      -11.832217
    9      -11.243495
   10      -11.232486
   11      -10.820220
   12      -10.782963
   13       -8.326034
   14       -8.163649
   15       -7.747354
   16       -7.181845
   17       -6.804216
   18       -6.683844
   19       -6.502201
   20       -6.469228
   21       -5.722654
   22       -5.620618
   23       -4.867490
   24       -4.698578
   25       -4.449562
   26       -4.232585
   27       -4.139221
   28       -4.073746
   29       -3.983896
   30       -3.890523
   31       -3.688608
   32       -3.577734
   33       -3.472441
   34       -3.258808
   35       -3.125403
   36       -3.066974
   37       -2.983905
   38       -2.963727
   39       -2.774629
   40       -2.727758
   41       -2.438421
   42       -2.353506
   43       -2.283396
   44       -2.147140
   45       -2.106457
   46       -1.933835
   47       -1.752494
   48       -1.649855
   49       -1.291208
   50       -1.186055
   51       -0.952307
   52       -0.757297
   53        0.039063
   54        0.216958
   55        0.521537
   56        1.217603
   57        1.529920
   58        1.931791
   59        1.991672
   60        2.257382
   61        2.415045
   62        2.500467
   63        2.623559
   64        2.673750
   65        2.758475
   66        2.932871
   67        3.042808
   68        3.073281
 
  0.2307692E+00 -0.4163336E-16  0.0000000E+00  0.1923077E-01
    1      -14.331915
    2      -12.994253
    3      -12.529092
    4      -12.338107
    5      -11.999603
    6      -11.883098
    7      -11.721378
    8      -11.545553
    9      -11.030023
   10      -11.021861
   11      -10.606463
   12      -10.556014
   13       -8.364368
   14       -8.339930
   15       -7.821695
   16       -7.264940
   17       -6.787774
   18       -6.693324
   19       -6.632193
   20       -6.468084
   21       -5.774838
   22       -5.734841
   23       -5.419451
   24       -5.336409
   25       -4.895762
   26       -4.811637
   27       -4.606669
   28       -4.511483
   29       -4.310815
   30       -4.225297
   31       -4.142729
   32       -4.016306
   33       -3.809490
   34       -3.772412
   35       -3.573130
   36       -3.467861
   37       -3.250013
   38       -3.088698
   39       -2.987810
   40       -2.926936
   41       -2.656770
   42       -2.500136
   43       -2.438318
   44       -2.355045
   45       -2.196304
   46       -1.903899
   47       -1.821726
   48       -1.722090
   49       -1.464171
   50       -1.185860
   51       -1.091114
   52       -0.764507
   53       -0.048012
   54        0.167204
   55        0.475519
   56        1.024476
   57        1.217452
   58        1.518862
   59        1.872415
   60        2.028544
   61        2.043397
   62        2.262146
   63        2.375535
   64        2.552803
   65        2.684968
   66        2.877711
   67        2.945944
   68        2.994191
 
  0.3076923E+00 -0.5551115E-16  0.0000000E+00  0.1923077E-01
    1      -14.165551
    2      -12.582454
    3      -12.175010
    4      -11.989860
    5      -11.647365
    6      -11.543504
    7      -11.382966
    8      -11.188035
    9      -10.795199
   10      -10.780472
   11      -10.415500
   12      -10.269338
   13       -8.653225
   14       -8.489251
   15       -8.082666
   16       -7.548718
   17       -7.062106
   18       -6.991527
   19       -6.902041
   20       -6.584143
   21       -6.256866
   22       -6.163896
   23       -5.973115
   24       -5.941689
   25       -5.210160
   26       -5.158992
   27       -4.807586
   28       -4.742003
   29       -4.699388
   30       -4.523941
   31       -4.325044
   32       -4.263823
   33       -4.212238
   34       -3.928488
   35       -3.608577
   36       -3.391305
   37       -3.125584
   38       -3.098576
   39       -3.041501
   40       -2.926608
   41       -2.840315
   42       -2.721818
   43       -2.615993
   44       -2.389228
   45       -2.300785
   46       -2.059367
   47       -1.885728
   48       -1.866007
   49       -1.714484
   50       -1.308425
   51       -1.091769
   52       -0.801828
   53       -0.272425
   54        0.015535
   55        0.219615
   56        0.654284
   57        0.908542
   58        1.173136
   59        1.601727
   60        1.699649
   61        1.811957
   62        1.995796
   63        2.209272
   64        2.229462
   65        2.368285
   66        2.656445
   67        2.738326
   68        2.827762
 
  0.3846154E+00 -0.8326673E-16  0.0000000E+00  0.1923077E-01
    1      -14.016880
    2      -12.074064
    3      -11.745306
    4      -11.570862
    5      -11.247885
    6      -11.179719
    7      -11.019387
    8      -10.845748
    9      -10.657288
   10      -10.627017
   11      -10.454546
   12       -9.990679
   13       -8.830016
   14       -8.730270
   15       -8.375036
   16       -7.895590
   17       -7.534459
   18       -7.457812
   19       -7.410064
   20       -6.975618
   21       -6.815447
   22       -6.761830
   23       -6.657091
   24       -6.133879
   25       -5.368436
   26       -5.212695
   27       -5.099237
   28       -4.665390
   29       -4.537270
   30       -4.510826
   31       -4.251659
   32       -4.197199
   33       -4.064618
   34       -3.694885
   35       -3.656474
   36       -3.436003
   37       -3.268452
   38       -3.237443
   39       -3.156471
   40       -2.962253
   41       -2.921569
   42       -2.792896
   43       -2.685314
   44       -2.524074
   45       -2.385108
   46       -2.271470
   47       -2.068876
   48       -2.023574
   49       -1.841141
   50       -1.429796
   51       -1.087542
   52       -0.849356
   53       -0.391230
   54       -0.191867
   55       -0.102645
   56        0.373762
   57        0.621015
   58        0.852312
   59        1.405995
   60        1.556784
   61        1.716308
   62        1.746228
   63        2.049152
   64        2.104698
   65        2.266005
   66        2.297687
   67        2.402982
   68        2.728418
 
  0.4615385E+00 -0.8326673E-16  0.0000000E+00  0.1923077E-01
    1      -13.927965
    2      -11.500372
    3      -11.290370
    4      -11.148818
    5      -10.971363
    6      -10.940614
    7      -10.844634
    8      -10.788229
    9      -10.730862
   10      -10.680883
   11      -10.631703
   12       -9.824866
   13       -8.919417
   14       -8.687970
   15       -8.437957
   16       -8.078452
   17       -8.008069
   18       -7.825651
   19       -7.567040
   20       -7.431776
   21       -7.288277
   22       -7.276551
   23       -7.180703
   24       -6.057556
   25       -5.623033
   26       -5.205280
   27       -4.914849
   28       -4.501697
   29       -4.315237
   30       -4.184919
   31       -4.072208
   32       -3.988273
   33       -3.918993
   34       -3.831860
   35       -3.678131
   36       -3.580438
   37       -3.433098
   38       -3.319810
   39       -3.256429
   40       -3.119279
   41       -2.999893
   42       -2.876875
   43       -2.777322
   44       -2.684449
   45       -2.436753
   46       -2.353393
   47       -2.185560
   48       -2.094705
   49       -1.720377
   50       -1.534730
   51       -1.189675
   52       -0.846561
   53       -0.428681
   54       -0.318134
   55       -0.218170
   56        0.241848
   57        0.335029
   58        0.673775
   59        1.368640
   60        1.519848
   61        1.616672
   62        1.678546
   63        1.823648
   64        1.913297
   65        2.082707
   66        2.369044
   67        2.472071
   68        2.506742
 
  0.0000000E+00  0.2500000E+00  0.0000000E+00  0.1923077E-01
    1      -14.605672
    2      -13.484005
    3      -13.051159
    4      -12.975658
    5      -12.485166
    6      -12.329843
    7      -12.147088
    8      -11.869574
    9      -11.477492
   10      -11.447900
   11      -11.017970
   12      -10.981725
   13       -8.518003
   14       -8.332418
   15       -7.540803
   16       -7.378104
   17       -6.787359
   18       -6.669105
   19       -6.589964
   20       -6.267137
   21       -5.752059
   22       -5.579437
   23       -4.647951
   24       -4.439525
   25       -4.158458
   26       -4.015820
   27       -3.709822
   28       -3.639544
   29       -3.352083
   30       -3.315941
   31       -3.125632
   32       -2.944461
   33       -2.710439
   34       -2.678871
   35       -2.632398
   36       -2.389265
   37       -2.365060
   38       -2.320857
   39       -2.224818
   40       -2.130408
   41       -1.975372
   42       -1.895632
   43       -1.874861
   44       -1.625566
   45       -1.548680
   46       -1.520020
   47       -1.416468
   48       -1.363983
   49       -1.164869
   50       -1.141782
   51       -1.080130
   52       -0.937711
   53       -0.027177
   54        0.386254
   55        0.476773
   56        0.906840
   57        1.203675
   58        1.237182
   59        1.390477
   60        1.563453
   61        1.738129
   62        1.746231
   63        1.885425
   64        2.259118
   65        2.512437
   66        2.567779
   67        2.646764
   68        2.682812
 
  0.7692308E-01  0.2500000E+00  0.0000000E+00  0.1923077E-01
    1      -14.570922
    2      -13.407052
    3      -13.006156
    4      -12.956480
    5      -12.428102
    6      -12.269462
    7      -12.081835
    8      -11.770216
    9      -11.435939
   10      -11.404162
   11      -10.970689
   12      -10.935749
   13       -8.575540
   14       -8.305566
   15       -7.583997
   16       -7.329901
   17       -6.743954
   18       -6.674773
   19       -6.523434
   20       -6.205319
   21       -5.703178
   22       -5.541953
   23       -4.691593
   24       -4.425470
   25       -4.204256
   26       -4.085034
   27       -3.821172
   28       -3.672118
   29       -3.569953
   30       -3.525895
   31       -3.385673
   32       -3.095377
   33       -3.029150
   34       -2.920975
   35       -2.739361
   36       -2.680366
   37       -2.565162
   38       -2.480380
   39       -2.360617
   40       -2.296087
   41       -2.207383
   42       -2.140700
   43       -2.004908
   44       -1.899017
   45       -1.835050
   46       -1.748506
   47       -1.585561
   48       -1.457493
   49       -1.342661
   50       -1.089388
   51       -0.980279
   52       -0.878726
   53        0.065165
   54        0.439176
   55        0.583732
   56        1.208884
   57        1.458273
   58        1.572420
   59        1.719827
   60        1.833346
   61        1.953753
   62        2.119804
   63        2.229525
   64        2.514221
   65        2.647407
   66        2.735614
   67        2.887222
   68        2.964047
 
  0.1538462E+00  0.2500000E+00  0.0000000E+00  0.1923077E-01
    1      -14.473390
    2      -13.210380
    3      -12.848437
    4      -12.819796
    5      -12.261762
    6      -12.103914
    7      -11.919449
    8      -11.572561
    9      -11.296286
   10      -11.262977
   11      -10.826495
   12      -10.793666
   13       -8.640436
   14       -8.266049
   15       -7.587769
   16       -7.300205
   17       -6.668383
   18       -6.636961
   19       -6.489418
   20       -6.182056
   21       -5.656259
   22       -5.570999
   23       -4.842323
   24       -4.745529
   25       -4.401186
   26       -4.376922
   27       -4.292229
   28       -4.156704
   29       -3.969764
   30       -3.782693
   31       -3.649863
   32       -3.621116
   33       -3.446471
   34       -3.273705
   35       -3.107717
   36       -3.088317
   37       -2.962321
   38       -2.837329
   39       -2.740552
   40       -2.651827
   41       -2.596221
   42       -2.555723
   43       -2.324136
   44       -2.253887
   45       -2.112437
   46       -1.925344
   47       -1.878183
   48       -1.491000
   49       -1.374560
   50       -1.140799
   51       -0.946152
   52       -0.850083
   53        0.087860
   54        0.360305
   55        0.647520
   56        1.205696
   57        1.573652
   58        1.729833
   59        2.049100
   60        2.110791
   61        2.323728
   62        2.440988
   63        2.623401
   64        2.743426
   65        2.866063
   66        2.982156
   67        3.057787
   68        3.111955
 
  0.2307692E+00  0.2500000E+00  0.0000000E+00  0.1923077E-01
    1      -14.328656
    2      -12.898845
    3      -12.581408
    4      -12.567853
    5      -11.993971
    6      -11.843074
    7      -11.670562
    8      -11.296095
    9      -11.074323
   10      -11.041981
   11      -10.603865
   12      -10.571259
   13       -8.771089
   14       -8.270340
   15       -7.607895
   16       -7.389994
   17       -6.694547
   18       -6.655985
   19       -6.550719
   20       -6.347526
   21       -5.901117
   22       -5.820297
   23       -5.443678
   24       -5.204055
   25       -5.030472
   26       -4.671738
   27       -4.662512
   28       -4.548893
   29       -4.376186
   30       -4.344513
   31       -4.046384
   32       -3.966339
   33       -3.741559
   34       -3.692638
   35       -3.435146
   36       -3.245829
   37       -3.203051
   38       -3.156991
   39       -3.091626
   40       -2.855117
   41       -2.669874
   42       -2.602679
   43       -2.528699
   44       -2.303929
   45       -2.276055
   46       -1.983224
   47       -1.878196
   48       -1.770776
   49       -1.390623
   50       -1.265951
   51       -1.050515
   52       -0.853475
   53       -0.022689
   54        0.121005
   55        0.520809
   56        0.908094
   57        1.239085
   58        1.469599
   59        1.564441
   60        1.628832
   61        1.912107
   62        2.221541
   63        2.491065
   64        2.580401
   65        2.701576
   66        2.841548
   67        3.041394
   68        3.237735
 
  0.3076923E+00  0.2500000E+00  0.0000000E+00  0.1923077E-01
    1      -14.163624
    2      -12.481979
    3      -12.214681
    4      -12.207428
    5      -11.642320
    6      -11.511386
    7      -11.351823
    8      -10.982499
    9      -10.810569
   10      -10.796197
   11      -10.391879
   12      -10.294279
   13       -8.969958
   14       -8.402595
   15       -7.755437
   16       -7.704453
   17       -7.113022
   18       -6.958711
   19       -6.845218
   20       -6.591479
   21       -6.445264
   22       -6.188374
   23       -5.993365
   24       -5.912748
   25       -5.381035
   26       -5.051830
   27       -4.935594
   28       -4.756685
   29       -4.610868
   30       -4.416510
   31       -4.339843
   32       -4.237625
   33       -4.011769
   34       -3.782278
   35       -3.481259
   36       -3.337776
   37       -3.212288
   38       -3.052240
   39       -2.985280
   40       -2.866909
   41       -2.799838
   42       -2.731839
   43       -2.554148
   44       -2.437370
   45       -2.329856
   46       -2.218494
   47       -1.953788
   48       -1.877552
   49       -1.747929
   50       -1.315921
   51       -1.124023
   52       -0.904518
   53       -0.278103
   54       -0.135318
   55        0.198420
   56        0.570464
   57        0.779710
   58        1.089765
   59        1.239335
   60        1.301255
   61        1.627515
   62        2.151058
   63        2.264046
   64        2.319066
   65        2.450908
   66        2.616261
   67        2.747106
   68        2.941068
 
  0.3846154E+00  0.2500000E+00  0.0000000E+00  0.1923077E-01
    1      -14.016113
    2      -11.978342
    3      -11.765635
    4      -11.759308
    5      -11.246416
    6      -11.165987
    7      -11.000355
    8      -10.724733
    9      -10.662930
   10      -10.599049
   11      -10.467481
   12      -10.003307
   13       -8.960150
   14       -8.678677
   15       -8.109570
   16       -7.943952
   17       -7.779256
   18       -7.460213
   19       -7.351757
   20       -7.045313
   21       -6.855026
   22       -6.693155
   23       -6.660751
   24       -6.208239
   25       -5.348549
   26       -5.339643
   27       -5.054664
   28       -4.786356
   29       -4.642790
   30       -4.423545
   31       -4.155227
   32       -4.069532
   33       -3.860095
   34       -3.627136
   35       -3.448929
   36       -3.352889
   37       -3.284999
   38       -3.220652
   39       -3.128159
   40       -2.946017
   41       -2.915228
   42       -2.879927
   43       -2.710764
   44       -2.558833
   45       -2.369965
   46       -2.285623
   47       -2.087765
   48       -2.065612
   49       -1.856834
   50       -1.487429
   51       -1.165254
   52       -0.929449
   53       -0.424222
   54       -0.316562
   55       -0.116577
   56        0.339776
   57        0.425097
   58        0.788039
   59        1.201336
   60        1.315472
   61        1.500937
   62        1.819487
   63        2.015051
   64        2.087253
   65        2.205603
   66        2.593728
   67        2.638381
   68        2.689972
 
  0.4615385E+00  0.2500000E+00  0.0000000E+00  0.1923077E-01
    1      -13.927787
    2      -11.428819
    3      -11.293486
    4      -11.265748
    5      -10.968314
    6      -10.953725
    7      -10.864778
    8      -10.792958
    9      -10.702434
   10      -10.679405
   11      -10.577751
   12       -9.821145
   13       -8.905439
   14       -8.554356
   15       -8.399402
   16       -8.326070
   17       -7.987656
   18       -7.796561
   19       -7.542270
   20       -7.509684
   21       -7.312065
   22       -7.248878
   23       -7.142710
   24       -6.100059
   25       -5.580925
   26       -5.203745
   27       -5.017658
   28       -4.474635
   29       -4.321762
   30       -4.160178
   31       -4.133670
   32       -3.934476
   33       -3.886251
   34       -3.703066
   35       -3.660807
   36       -3.534275
   37       -3.490628
   38       -3.316683
   39       -3.258940
   40       -3.026650
   41       -2.986137
   42       -2.863834
   43       -2.685790
   44       -2.633738
   45       -2.599224
   46       -2.430715
   47       -2.147323
   48       -2.117113
   49       -1.712779
   50       -1.563016
   51       -1.213080
   52       -0.941072
   53       -0.469130
   54       -0.314800
   55       -0.212464
   56        0.204600
   57        0.280418
   58        0.645155
   59        1.417352
   60        1.453106
   61        1.518341
   62        1.599406
   63        1.779741
   64        1.953717
   65        2.169790
   66        2.430200
   67        2.473718
   68        2.492858
 
 -0.4615385E+00  0.2500000E+00  0.0000000E+00  0.1923077E-01
    1      -13.928090
    2      -11.534210
    3      -11.285305
    4      -11.072660
    5      -10.977606
    6      -10.927469
    7      -10.808419
    8      -10.788782
    9      -10.755388
   10      -10.705407
   11      -10.674348
   12       -9.830148
   13       -8.911082
   14       -8.756389
   15       -8.431872
   16       -8.051177
   17       -7.943102
   18       -7.816944
   19       -7.600370
   20       -7.412770
   21       -7.281266
   22       -7.271402
   23       -7.215725
   24       -6.029942
   25       -5.610326
   26       -5.217368
   27       -4.734256
   28       -4.576986
   29       -4.372362
   30       -4.209327
   31       -4.085313
   32       -3.996325
   33       -3.956409
   34       -3.885032
   35       -3.690511
   36       -3.643122
   37       -3.525984
   38       -3.352173
   39       -3.287428
   40       -3.007436
   41       -2.873844
   42       -2.822078
   43       -2.781729
   44       -2.684268
   45       -2.502521
   46       -2.377962
   47       -2.167901
   48       -2.109539
   49       -1.706113
   50       -1.509772
   51       -1.105454
   52       -0.910551
   53       -0.480377
   54       -0.263776
   55       -0.176054
   56        0.210232
   57        0.428885
   58        0.659572
   59        1.365370
   60        1.588414
   61        1.663780
   62        1.763519
   63        1.794539
   64        1.923691
   65        2.230490
   66        2.363667
   67        2.436932
   68        2.608541
 
 -0.3846154E+00  0.2500000E+00  0.0000000E+00  0.1923077E-01
    1      -14.017212
    2      -12.100725
    3      -11.735289
    4      -11.486539
    5      -11.245408
    6      -11.188920
    7      -11.036082
    8      -10.922794
    9      -10.645285
   10      -10.630211
   11      -10.449972
   12       -9.980158
   13       -8.782646
   14       -8.740502
   15       -8.488986
   16       -7.819432
   17       -7.557932
   18       -7.435580
   19       -7.328470
   20       -7.054051
   21       -6.812392
   22       -6.737162
   23       -6.658985
   24       -6.090966
   25       -5.380920
   26       -5.111599
   27       -5.048090
   28       -4.847048
   29       -4.544187
   30       -4.398167
   31       -4.291795
   32       -4.234469
   33       -4.082002
   34       -3.723269
   35       -3.681695
   36       -3.537361
   37       -3.401651
   38       -3.195076
   39       -3.176420
   40       -3.000795
   41       -2.863947
   42       -2.755626
   43       -2.652558
   44       -2.550596
   45       -2.442133
   46       -2.239668
   47       -2.057863
   48       -1.944667
   49       -1.820723
   50       -1.411377
   51       -1.047966
   52       -0.825835
   53       -0.406127
   54       -0.216810
   55        0.052784
   56        0.305250
   57        0.695202
   58        0.870385
   59        1.393889
   60        1.657000
   61        1.800181
   62        1.902384
   63        2.057491
   64        2.136261
   65        2.270849
   66        2.390286
   67        2.430492
   68        2.608798
 
 -0.3076923E+00  0.2500000E+00  0.0000000E+00  0.1923077E-01
    1      -14.165838
    2      -12.594798
    3      -12.167784
    4      -11.948393
    5      -11.646819
    6      -11.549746
    7      -11.393544
    8      -11.232864
    9      -10.788896
   10      -10.772252
   11      -10.421630
   12      -10.262112
   13       -8.555085
   14       -8.533589
   15       -8.185448
   16       -7.425505
   17       -7.136814
   18       -6.996660
   19       -6.873018
   20       -6.587673
   21       -6.260274
   22       -6.158011
   23       -5.974973
   24       -5.923458
   25       -5.206800
   26       -5.147391
   27       -4.888395
   28       -4.702157
   29       -4.646874
   30       -4.535378
   31       -4.319840
   32       -4.267339
   33       -4.233532
   34       -3.892023
   35       -3.719438
   36       -3.455182
   37       -3.138701
   38       -3.088865
   39       -3.054355
   40       -2.912982
   41       -2.809599
   42       -2.711514
   43       -2.628122
   44       -2.368439
   45       -2.317262
   46       -2.022216
   47       -1.868258
   48       -1.865216
   49       -1.706743
   50       -1.311517
   51       -1.092647
   52       -0.780623
   53       -0.285933
   54       -0.004077
   55        0.333199
   56        0.591766
   57        0.944446
   58        1.159307
   59        1.641806
   60        1.781202
   61        1.945436
   62        1.990451
   63        2.246887
   64        2.284258
   65        2.394851
   66        2.597806
   67        2.674969
   68        2.763431
 
 -0.2307692E+00  0.2500000E+00  0.0000000E+00  0.1923077E-01
    1      -14.331674
    2      -12.990001
    3      -12.532898
    4      -12.352688
    5      -11.999583
    6      -11.879734
    7      -11.719483
    8      -11.528917
    9      -11.031458
   10      -11.023422
   11      -10.605000
   12      -10.554779
   13       -8.401062
   14       -8.361180
   15       -7.780396
   16       -7.251823
   17       -6.802089
   18       -6.686015
   19       -6.635168
   20       -6.423106
   21       -5.813862
   22       -5.739168
   23       -5.429564
   24       -5.331631
   25       -4.894915
   26       -4.832252
   27       -4.599317
   28       -4.514682
   29       -4.268794
   30       -4.224462
   31       -4.135704
   32       -4.010454
   33       -3.835522
   34       -3.774819
   35       -3.572409
   36       -3.448495
   37       -3.248774
   38       -3.130971
   39       -2.985170
   40       -2.868801
   41       -2.678535
   42       -2.529972
   43       -2.449630
   44       -2.337294
   45       -2.194121
   46       -1.894498
   47       -1.823209
   48       -1.732846
   49       -1.457928
   50       -1.170503
   51       -1.088469
   52       -0.789154
   53       -0.078769
   54        0.150257
   55        0.522109
   56        1.087664
   57        1.179225
   58        1.518719
   59        1.827467
   60        2.002132
   61        2.069861
   62        2.240638
   63        2.379713
   64        2.519668
   65        2.717393
   66        2.862429
   67        2.917445
   68        2.976590
 
 -0.1538462E+00  0.2500000E+00  0.0000000E+00  0.1923077E-01
    1      -14.476357
    2      -13.273719
    3      -12.809001
    4      -12.667766
    5      -12.266298
    6      -12.129938
    7      -11.964340
    8      -11.746253
    9      -11.261664
   10      -11.243667
   11      -10.817945
   12      -10.782269
   13       -8.383403
   14       -8.318302
   15       -7.535414
   16       -7.319562
   17       -6.747318
   18       -6.628634
   19       -6.547748
   20       -6.371004
   21       -5.697624
   22       -5.606888
   23       -4.842375
   24       -4.737989
   25       -4.402355
   26       -4.295462
   27       -4.186285
   28       -4.131549
   29       -3.941601
   30       -3.822598
   31       -3.698186
   32       -3.607828
   33       -3.486883
   34       -3.282376
   35       -3.155473
   36       -3.042141
   37       -2.976587
   38       -2.901243
   39       -2.755171
   40       -2.702215
   41       -2.519382
   42       -2.458835
   43       -2.251442
   44       -2.175547
   45       -2.114944
   46       -1.915260
   47       -1.767268
   48       -1.605448
   49       -1.270639
   50       -1.176497
   51       -0.951606
   52       -0.843586
   53        0.035885
   54        0.276246
   55        0.582129
   56        1.287029
   57        1.509538
   58        1.817665
   59        1.992545
   60        2.203373
   61        2.409596
   62        2.479523
   63        2.687924
   64        2.775737
   65        2.823489
   66        2.937777
   67        2.963467
   68        3.144370
 
 -0.7692308E-01  0.2500000E+00  0.0000000E+00  0.1923077E-01
    1      -14.572748
    2      -13.439402
    3      -12.984158
    4      -12.878136
    5      -12.430573