 running on    8 total cores
 distrk:  each k-point on    8 cores,    1 groups
 distr:  one band on    2 cores,    4 groups
 using from now: INCAR     
 vasp.5.3.5 31Mar14 (build Oct 29 2014 16:16:03) complex                        
  
 POSCAR found type information on POSCAR  P  Si
 POSCAR found :  2 types and      24 ions
 scaLAPACK will be used

 ----------------------------------------------------------------------------- 
|                                                                             |
|  ADVICE TO THIS USER RUNNING 'VASP/VAMP'   (HEAR YOUR MASTER'S VOICE ...):  |
|                                                                             |
|      You have switched on vdW-DFT.                                          |
|      This routine was written and supplied by Jiri Klimes.                  |
|      We recommed that you carefully read and cite the following             |
|      publication                                                            |
|      J. Klimes, D.R. Bowler, A. Michelides                                  |
|        J. Phys.: Cond Matt. 22 022201 (2010)                                |
|      J. Klimes, D.R. Bowler, A. Michelides                                  |
|        Phys. Rev. B. 83, 195131 (2011)                                      |
|      and references therein.                                                |
|                                                                             |
 ----------------------------------------------------------------------------- 


 ----------------------------------------------------------------------------- 
|                                                                             |
|  ADVICE TO THIS USER RUNNING 'VASP/VAMP'   (HEAR YOUR MASTER'S VOICE ...):  |
|                                                                             |
|      You enforced a specific xc-type in the INCAR file,                     |
|      a different type was found on the POTCAR file                          |
|          I HOPE YOU KNOW, WHAT YOU ARE  DOING                               |
|                                                                             |
 ----------------------------------------------------------------------------- 

 LDA part: xc-table for Pade appr. of Perdew


 VERY BAD NEWS! internal error in subroutine IBZKPT:
 Reciprocal lattice and k-lattice belong to different class of lattices. Often results are still useful...      96


 VERY BAD NEWS! internal error in subroutine IBZKPT:
 Reciprocal lattice and k-lattice belong to different class of lattices. Often results are still useful...      96


 VERY BAD NEWS! internal error in subroutine IBZKPT:
 Reciprocal lattice and k-lattice belong to different class of lattices. Often results are still useful...      96


 VERY BAD NEWS! internal error in subroutine IBZKPT:
 Reciprocal lattice and k-lattice belong to different class of lattices. Often results are still useful...      96


 VERY BAD NEWS! internal error in subroutine IBZKPT:
 Reciprocal lattice and k-lattice belong to different class of lattices. Often results are still useful...      96


 VERY BAD NEWS! internal error in subroutine IBZKPT:
 Reciprocal lattice and k-lattice belong to different class of lattices. Often results are still useful...      96


 VERY BAD NEWS! internal error in subroutine IBZKPT:
 Reciprocal lattice and k-lattice belong to different class of lattices. Often results are still useful...      96


 VERY BAD NEWS! internal error in subroutine IBZKPT:
 Reciprocal lattice and k-lattice belong to different class of lattices. Often results are still useful...      96
 POSCAR, INCAR and KPOINTS ok, starting setup
 WARNING: small aliasing (wrap around) errors must be expected
 FFT: planning ...
 WAVECAR not read
 entering main loop
       N       E                     dE             d eps       ncg     rms          rms(c)
Total vdW correction in eV:     15.9556780
DAV:   1     0.500739637223E+03    0.50074E+03   -0.28710E+04  7360   0.790E+02
DAV:   2    -0.605859104372E+02   -0.56133E+03   -0.54638E+03  9724   0.190E+02
DAV:   3    -0.118600075245E+03   -0.58014E+02   -0.57077E+02  8856   0.627E+01
DAV:   4    -0.121371342396E+03   -0.27713E+01   -0.27511E+01 10712   0.146E+01
DAV:   5    -0.121443932746E+03   -0.72590E-01   -0.72494E-01 10064   0.238E+00    0.126E+01
Total vdW correction in eV:     16.3954348
DAV:   6    -0.116651729569E+03    0.47922E+01   -0.13686E+01  8644   0.991E+00    0.597E+00
Total vdW correction in eV:     16.7665845
DAV:   7    -0.116514428314E+03    0.13730E+00   -0.80695E+00  8432   0.701E+00    0.261E+00
Total vdW correction in eV:     16.9359332
DAV:   8    -0.116531082189E+03   -0.16654E-01   -0.83282E-01  8968   0.259E+00    0.136E+00
Total vdW correction in eV:     17.0737715
DAV:   9    -0.116531955861E+03   -0.87367E-03   -0.15586E-01  9008   0.119E+00    0.409E-01
Total vdW correction in eV:     17.1192966
DAV:  10    -0.116527972434E+03    0.39834E-02   -0.42757E-02  8856   0.600E-01    0.168E-01
Total vdW correction in eV:     17.1301404
DAV:  11    -0.116521538247E+03    0.64342E-02   -0.63604E-03  9128   0.234E-01    0.981E-02
Total vdW correction in eV:     17.1396619
DAV:  12    -0.116513839264E+03    0.76990E-02   -0.20104E-03  8976   0.137E-01    0.432E-02
Total vdW correction in eV:     17.1445149
DAV:  13    -0.116510168544E+03    0.36707E-02   -0.52301E-04  8896   0.720E-02    0.188E-02
Total vdW correction in eV:     17.1480366
DAV:  14    -0.116509045563E+03    0.11230E-02   -0.12283E-04  9264   0.296E-02    0.125E-02
Total vdW correction in eV:     17.1520100
DAV:  15    -0.116508210997E+03    0.83457E-03   -0.68289E-05  8568   0.225E-02    0.735E-03
Total vdW correction in eV:     17.1539580
DAV:  16    -0.116508298064E+03   -0.87067E-04   -0.41493E-05  8072   0.167E-02    0.468E-03
Total vdW correction in eV:     17.1550940
DAV:  17    -0.116508848320E+03   -0.55026E-03   -0.13436E-04  8288   0.213E-02    0.249E-03
Total vdW correction in eV:     17.1551534
DAV:  18    -0.116509011947E+03   -0.16363E-03   -0.76411E-05  7608   0.136E-02    0.149E-03
Total vdW correction in eV:     17.1548638
DAV:  19    -0.116509060940E+03   -0.48993E-04   -0.22090E-05  6832   0.990E-03    0.101E-03
Total vdW correction in eV:     17.1546686
DAV:  20    -0.116509090841E+03   -0.29901E-04   -0.68636E-06  6288   0.598E-03    0.630E-04
Total vdW correction in eV:     17.1545491
DAV:  21    -0.116509058601E+03    0.32240E-04   -0.21243E-05  7008   0.792E-03    0.440E-04
Total vdW correction in eV:     17.1544720
DAV:  22    -0.116509028326E+03    0.30275E-04   -0.12376E-05  6096   0.926E-03    0.226E-04
Total vdW correction in eV:     17.1544734
DAV:  23    -0.116508977031E+03    0.51295E-04   -0.57314E-06  6384   0.658E-03    0.130E-04
Total vdW correction in eV:     17.1544702
DAV:  24    -0.116508965690E+03    0.11341E-04   -0.60167E-06  6224   0.735E-03    0.778E-05
Total vdW correction in eV:     17.1544688
DAV:  25    -0.116508953375E+03    0.12314E-04   -0.37737E-06  6496   0.636E-03    0.358E-05
Total vdW correction in eV:     17.1544688
DAV:  26    -0.116508953783E+03   -0.40824E-06   -0.24715E-06  5840   0.527E-03
Total vdW correction in eV:     17.1544667
Total vdW correction in eV:     17.1544678
   1 F= -.11650895E+03 E0= -.11649226E+03  d E =-.333798E-01
