 running on    8 total cores
 distrk:  each k-point on    8 cores,    1 groups
 distr:  one band on    2 cores,    4 groups
 using from now: INCAR     
 vasp.5.3.5 31Mar14 (build Oct 29 2014 16:16:03) complex                        
  
 POSCAR found type information on POSCAR  P  Si
 POSCAR found :  2 types and      24 ions
 scaLAPACK will be used

 ----------------------------------------------------------------------------- 
|                                                                             |
|  ADVICE TO THIS USER RUNNING 'VASP/VAMP'   (HEAR YOUR MASTER'S VOICE ...):  |
|                                                                             |
|      You have switched on vdW-DFT.                                          |
|      This routine was written and supplied by Jiri Klimes.                  |
|      We recommed that you carefully read and cite the following             |
|      publication                                                            |
|      J. Klimes, D.R. Bowler, A. Michelides                                  |
|        J. Phys.: Cond Matt. 22 022201 (2010)                                |
|      J. Klimes, D.R. Bowler, A. Michelides                                  |
|        Phys. Rev. B. 83, 195131 (2011)                                      |
|      and references therein.                                                |
|                                                                             |
 ----------------------------------------------------------------------------- 


 ----------------------------------------------------------------------------- 
|                                                                             |
|  ADVICE TO THIS USER RUNNING 'VASP/VAMP'   (HEAR YOUR MASTER'S VOICE ...):  |
|                                                                             |
|      You enforced a specific xc-type in the INCAR file,                     |
|      a different type was found on the POTCAR file                          |
|          I HOPE YOU KNOW, WHAT YOU ARE  DOING                               |
|                                                                             |
 ----------------------------------------------------------------------------- 

 LDA part: xc-table for Pade appr. of Perdew

 ----------------------------------------------------------------------------- 
|                                                                             |
|           W    W    AA    RRRRR   N    N  II  N    N   GGGG   !!!           |
|           W    W   A  A   R    R  NN   N  II  NN   N  G    G  !!!           |
|           W    W  A    A  R    R  N N  N  II  N N  N  G       !!!           |
|           W WW W  AAAAAA  RRRRR   N  N N  II  N  N N  G  GGG   !            |
|           WW  WW  A    A  R   R   N   NN  II  N   NN  G    G                |
|           W    W  A    A  R    R  N    N  II  N    N   GGGG   !!!           |
|                                                                             |
|      The distance between some ions is very small                           |
|      please check the nearest neigbor list in the OUTCAR file               |
|          I HOPE YOU KNOW, WHAT YOU ARE  DOING                               |
|                                                                             |
 ----------------------------------------------------------------------------- 



 VERY BAD NEWS! internal error in subroutine IBZKPT:
 Reciprocal lattice and k-lattice belong to different class of lattices. Often results are still useful...      96


 VERY BAD NEWS! internal error in subroutine IBZKPT:
 Reciprocal lattice and k-lattice belong to different class of lattices. Often results are still useful...      96


 VERY BAD NEWS! internal error in subroutine IBZKPT:
 Reciprocal lattice and k-lattice belong to different class of lattices. Often results are still useful...      96


 VERY BAD NEWS! internal error in subroutine IBZKPT:
 Reciprocal lattice and k-lattice belong to different class of lattices. Often results are still useful...      96


 VERY BAD NEWS! internal error in subroutine IBZKPT:
 Reciprocal lattice and k-lattice belong to different class of lattices. Often results are still useful...      96


 VERY BAD NEWS! internal error in subroutine IBZKPT:
 Reciprocal lattice and k-lattice belong to different class of lattices. Often results are still useful...      96


 VERY BAD NEWS! internal error in subroutine IBZKPT:
 Reciprocal lattice and k-lattice belong to different class of lattices. Often results are still useful...      96


 VERY BAD NEWS! internal error in subroutine IBZKPT:
 Reciprocal lattice and k-lattice belong to different class of lattices. Often results are still useful...      96
 POSCAR, INCAR and KPOINTS ok, starting setup
 WARNING: small aliasing (wrap around) errors must be expected
 FFT: planning ...
 WAVECAR not read
 entering main loop
       N       E                     dE             d eps       ncg     rms          rms(c)
Total vdW correction in eV:     15.9773661
DAV:   1     0.513824407932E+03    0.51382E+03   -0.28698E+04  7352   0.790E+02
DAV:   2    -0.506987811877E+02   -0.56452E+03   -0.55034E+03  9820   0.190E+02
DAV:   3    -0.108531167888E+03   -0.57832E+02   -0.57044E+02  8972   0.629E+01
DAV:   4    -0.111310566018E+03   -0.27794E+01   -0.27588E+01 11624   0.147E+01
DAV:   5    -0.111357472313E+03   -0.46906E-01   -0.46838E-01  9992   0.193E+00    0.127E+01
Total vdW correction in eV:     16.3986147
DAV:   6    -0.106513108493E+03    0.48444E+01   -0.11594E+01  8932   0.106E+01    0.631E+00
Total vdW correction in eV:     16.8412997
DAV:   7    -0.106779864817E+03   -0.26676E+00   -0.10907E+01  8800   0.738E+00    0.287E+00
Total vdW correction in eV:     16.9515711
DAV:   8    -0.106677013424E+03    0.10285E+00   -0.95263E-01  8884   0.309E+00    0.167E+00
Total vdW correction in eV:     17.1125639
DAV:   9    -0.106701045470E+03   -0.24032E-01   -0.42013E-01  9040   0.182E+00    0.560E-01
Total vdW correction in eV:     17.1691635
DAV:  10    -0.106702776379E+03   -0.17309E-02   -0.81523E-02  9032   0.931E-01    0.231E-01
Total vdW correction in eV:     17.1838535
DAV:  11    -0.106691131737E+03    0.11645E-01   -0.19511E-02  9248   0.380E-01    0.112E-01
Total vdW correction in eV:     17.1929572
DAV:  12    -0.106681933453E+03    0.91983E-02   -0.29778E-03  9008   0.175E-01    0.416E-02
Total vdW correction in eV:     17.1984285
DAV:  13    -0.106678074303E+03    0.38591E-02   -0.68144E-04  9272   0.710E-02    0.248E-02
Total vdW correction in eV:     17.2038952
DAV:  14    -0.106675138433E+03    0.29359E-02   -0.16825E-04  9160   0.384E-02    0.117E-02
Total vdW correction in eV:     17.2071134
DAV:  15    -0.106675019541E+03    0.11889E-03   -0.79280E-05  8664   0.236E-02    0.849E-03
Total vdW correction in eV:     17.2099076
DAV:  16    -0.106675364573E+03   -0.34503E-03   -0.13716E-04  8160   0.273E-02    0.413E-03
Total vdW correction in eV:     17.2103785
DAV:  17    -0.106675726608E+03   -0.36203E-03   -0.12187E-04  8512   0.207E-02    0.304E-03
Total vdW correction in eV:     17.2102085
DAV:  18    -0.106675958206E+03   -0.23160E-03   -0.58910E-05  7752   0.148E-02    0.147E-03
Total vdW correction in eV:     17.2100104
DAV:  19    -0.106675991190E+03   -0.32984E-04   -0.13403E-05  6816   0.819E-03    0.116E-03
Total vdW correction in eV:     17.2097196
DAV:  20    -0.106675970142E+03    0.21049E-04   -0.36134E-05  7264   0.115E-02    0.730E-04
Total vdW correction in eV:     17.2096156
DAV:  21    -0.106675957951E+03    0.12190E-04   -0.11374E-05  6352   0.105E-02    0.558E-04
Total vdW correction in eV:     17.2095508
DAV:  22    -0.106675879394E+03    0.78558E-04   -0.19149E-05  6940   0.110E-02    0.190E-04
Total vdW correction in eV:     17.2095502
DAV:  23    -0.106675860153E+03    0.19240E-04   -0.42921E-06  6184   0.717E-03    0.125E-04
Total vdW correction in eV:     17.2095561
DAV:  24    -0.106675847019E+03    0.13134E-04   -0.60629E-06  6488   0.805E-03    0.612E-05
Total vdW correction in eV:     17.2095578
DAV:  25    -0.106675843488E+03    0.35315E-05   -0.35077E-06  6496   0.656E-03    0.379E-05
Total vdW correction in eV:     17.2095588
DAV:  26    -0.106675844246E+03   -0.75863E-06   -0.30784E-06  6208   0.635E-03
Total vdW correction in eV:     17.2095570
Total vdW correction in eV:     17.2095581
   1 F= -.10667584E+03 E0= -.10665946E+03  d E =-.327684E-01
