 vasp.5.3.5 31Mar14 (build Oct 29 2014 16:16:03) complex                        
  
 executed on          Linux-UFHPC date 2016.02.09  17:30:14
 running on    8 total cores
 distrk:  each k-point on    8 cores,    1 groups
 distr:  one band on NCORES_PER_BAND=   2 cores,    4 groups


--------------------------------------------------------------------------------------------------------


 INCAR:
 POTCAR:    PAW_PBE P 17Jan2003                   
 POTCAR:   PAW_PBE Si 05Jan2001                   

 ----------------------------------------------------------------------------- 
|                                                                             |
|  ADVICE TO THIS USER RUNNING 'VASP/VAMP'   (HEAR YOUR MASTER'S VOICE ...):  |
|                                                                             |
|      You have switched on vdW-DFT.                                          |
|      This routine was written and supplied by Jiri Klimes.                  |
|      We recommed that you carefully read and cite the following             |
|      publication                                                            |
|      J. Klimes, D.R. Bowler, A. Michelides                                  |
|        J. Phys.: Cond Matt. 22 022201 (2010)                                |
|      J. Klimes, D.R. Bowler, A. Michelides                                  |
|        Phys. Rev. B. 83, 195131 (2011)                                      |
|      and references therein.                                                |
|                                                                             |
 ----------------------------------------------------------------------------- 

 POTCAR:    PAW_PBE P 17Jan2003                   
   VRHFIN =P : s2p3                                                             
   LEXCH  = PE                                                                  
   EATOM  =   176.0430 eV,   12.9388 Ry                                         
                                                                                
   TITEL  = PAW_PBE P 17Jan2003                                                 
   LULTRA =        F    use ultrasoft PP ?                                      
   IUNSCR =        1    unscreen: 0-lin 1-nonlin 2-no                           
   RPACOR =    1.500    partial core radius                                     
   POMASS =   30.974; ZVAL   =    5.000    mass and valenz                      
   RCORE  =    1.900    outmost cutoff radius                                   
   RWIGS  =    2.330; RWIGS  =    1.233    wigner-seitz radius (au A)           
   ENMAX  =  270.000; ENMIN  =  191.280 eV                                      
   ICORE  =        2    local potential                                         
   LCOR   =        T    correct aug charges                                     
   LPAW   =        T    paw PP                                                  
   EAUG   =  342.924                                                            
   DEXC   =    -.002                                                            
   RMAX   =    2.887    core radius for proj-oper                               
   RAUG   =    1.300    factor for augmentation sphere                          
   RDEP   =    1.931    radius for radial grids                                 
   QCUT   =   -4.330; QGAM   =    8.659    optimization parameters              
                                                                                
   Description                                                                  
     l     E      TYP  RCUT    TYP  RCUT                                        
     0   .000     23  1.900                                                     
     0   .000     23  1.900                                                     
     1   .000     23  1.900                                                     
     1   .000     23  1.900                                                     
     2   .000     23  1.900                                                     
  local pseudopotential read in
  partial core-charges read in
  atomic valenz-charges read in
  non local Contribution for L=           0  read in
    real space projection operators read in
  non local Contribution for L=           0  read in
    real space projection operators read in
  non local Contribution for L=           1  read in
    real space projection operators read in
  non local Contribution for L=           1  read in
    real space projection operators read in
    PAW grid and wavefunctions read in
 
   number of l-projection  operators is LMAX  =           4
   number of lm-projection operators is LMMAX =           8
 
 POTCAR:   PAW_PBE Si 05Jan2001                   
   VRHFIN =Si: s2p2                                                             
   LEXCH  = PE                                                                  
   EATOM  =   103.0669 eV,    7.5752 Ry                                         
                                                                                
   TITEL  = PAW_PBE Si 05Jan2001                                                
   LULTRA =        F    use ultrasoft PP ?                                      
   IUNSCR =        1    unscreen: 0-lin 1-nonlin 2-no                           
   RPACOR =    1.500    partial core radius                                     
   POMASS =   28.085; ZVAL   =    4.000    mass and valenz                      
   RCORE  =    1.900    outmost cutoff radius                                   
   RWIGS  =    2.480; RWIGS  =    1.312    wigner-seitz radius (au A)           
   ENMAX  =  245.345; ENMIN  =  184.009 eV                                      
   ICORE  =        2    local potential                                         
   LCOR   =        T    correct aug charges                                     
   LPAW   =        T    paw PP                                                  
   EAUG   =  322.069                                                            
   DEXC   =    -.007                                                            
   RMAX   =    2.944    core radius for proj-oper                               
   RAUG   =    1.300    factor for augmentation sphere                          
   RDEP   =    1.993    radius for radial grids                                 
   QCUT   =   -4.246; QGAM   =    8.493    optimization parameters              
                                                                                
   Description                                                                  
     l     E      TYP  RCUT    TYP  RCUT                                        
     0   .000     23  1.900                                                     
     0   .000     23  1.900                                                     
     1   .000     23  1.900                                                     
     1   .000     23  1.900                                                     
     2   .000      7  1.900                                                     
  local pseudopotential read in
  partial core-charges read in
  atomic valenz-charges read in
  non local Contribution for L=           0  read in
    real space projection operators read in
  non local Contribution for L=           0  read in
    real space projection operators read in
  non local Contribution for L=           1  read in
    real space projection operators read in
  non local Contribution for L=           1  read in
    real space projection operators read in
    PAW grid and wavefunctions read in
 
   number of l-projection  operators is LMAX  =           4
   number of lm-projection operators is LMMAX =           8
 
 Optimization of the real space projectors (new method)

 maximal supplied QI-value         = 19.84
 optimisation between [QCUT,QGAM] = [  8.73, 17.66] = [ 21.34, 87.33] Ry 
 Optimized for a Real-space Cutoff    1.50 Angstroem

   l    n(q)    QCUT    max X(q) W(low)/X(q) W(high)/X(q)  e(spline) 
   0      8     8.731     6.651    0.16E-04    0.15E-04    0.77E-08
   0      8     8.731    90.285    0.16E-03    0.90E-04    0.16E-06
   1      7     8.731     4.328    0.47E-04    0.36E-04    0.45E-07
   1      7     8.731    54.583    0.13E-03    0.39E-03    0.20E-06
 Optimization of the real space projectors (new method)

 maximal supplied QI-value         = 19.84
 optimisation between [QCUT,QGAM] = [  8.73, 17.66] = [ 21.34, 87.33] Ry 
 Optimized for a Real-space Cutoff    1.46 Angstroem

   l    n(q)    QCUT    max X(q) W(low)/X(q) W(high)/X(q)  e(spline) 
   0      8     8.731     8.708    0.16E-04    0.11E-04    0.68E-08
   0      8     8.731   106.241    0.24E-03    0.77E-04    0.13E-06
   1      7     8.731     5.901    0.34E-04    0.38E-04    0.36E-07
   1      7     8.731    73.241    0.12E-03    0.39E-03    0.15E-06

 ----------------------------------------------------------------------------- 
|                                                                             |
|  ADVICE TO THIS USER RUNNING 'VASP/VAMP'   (HEAR YOUR MASTER'S VOICE ...):  |
|                                                                             |
|      You enforced a specific xc-type in the INCAR file,                     |
|      a different type was found on the POTCAR file                          |
|          I HOPE YOU KNOW, WHAT YOU ARE  DOING                               |
|                                                                             |
 ----------------------------------------------------------------------------- 

  PAW_PBE P 17Jan2003                   :
 energy of atom  1       EATOM= -176.0430
 kinetic energy error for atom=    0.0040 (will be added to EATOM!!)
 PAW_PBE Si 05Jan2001                   :
 energy of atom  2       EATOM= -103.0669
 kinetic energy error for atom=    0.0021 (will be added to EATOM!!)
 
 
 POSCAR: Si12                                    
  positions in direct lattice
  No initial velocities read in
 exchange correlation table for  LEXCH =       42
   RHO(1)=    0.500       N(1)  =     2000
   RHO(2)=  100.500       N(2)  =     4000
 


--------------------------------------------------------------------------------------------------------


 ion  position               nearest neighbor table
   1  0.114  0.228  0.233-  15 2.28  21 2.29  21 2.29
   2  0.314  0.028  0.515-  16 2.28  22 2.29  22 2.29
   3  0.458  0.916  0.209-  21 2.28  13 2.30  13 2.30
   4  0.658  0.716  0.491-  22 2.28  14 2.30  14 2.30
   5  0.311  0.622  0.084-  17 2.28  23 2.30  23 2.30
   6  0.311  0.622  0.366-  14 2.23  18 2.28  24 2.31
   7  0.999  0.998  0.086-  19 2.29  19 2.29  13 2.32
   8  0.999  0.998  0.368-  20 2.29  20 2.29
   9  0.655  0.310  0.060-  19 2.28  17 2.29  17 2.29
  10  0.655  0.310  0.342-  20 2.28  18 2.29  18 2.29  24 2.79
  11  0.770  0.539  0.207-  15 2.29  15 2.29  23 2.32
  12  0.970  0.339  0.489-  16 2.29  16 2.29  24 2.32
  13  0.940  0.879  0.158-   3 2.30   3 2.30   7 2.32  23 2.35
  14  0.140  0.679  0.440-   6 2.23   4 2.30   4 2.30  24 2.35
  15  0.205  0.410  0.186-   1 2.28  11 2.29  11 2.29  17 2.37
  16  0.405  0.210  0.468-   2 2.28  12 2.29  12 2.29  20 2.41
  17  0.202  0.404  0.100-   5 2.28   9 2.29   9 2.29  15 2.37
  18  0.202  0.404  0.382-  24 1.34   6 2.28  10 2.29  10 2.29  24 3.05
  19  0.564  0.128  0.108-   9 2.28   7 2.29   7 2.29  21 2.37
  20  0.564  0.128  0.390-  10 2.28   8 2.29   8 2.29  16 2.41
  21  0.567  0.134  0.194-   3 2.28   1 2.29   1 2.29  19 2.37
  22  0.767  0.934  0.476-   4 2.28   2 2.29   2 2.29
  23  0.829  0.658  0.136-   5 2.30   5 2.30  11 2.32  13 2.35
  24  0.029  0.458  0.418-  18 1.34   6 2.31  12 2.32  14 2.35  10 2.79  18 3.05
 

 ----------------------------------------------------------------------------- 
|                                                                             |
|           W    W    AA    RRRRR   N    N  II  N    N   GGGG   !!!           |
|           W    W   A  A   R    R  NN   N  II  NN   N  G    G  !!!           |
|           W    W  A    A  R    R  N N  N  II  N N  N  G       !!!           |
|           W WW W  AAAAAA  RRRRR   N  N N  II  N  N N  G  GGG   !            |
|           WW  WW  A    A  R   R   N   NN  II  N   NN  G    G                |
|           W    W  A    A  R    R  N    N  II  N    N   GGGG   !!!           |
|                                                                             |
|      The distance between some ions is very small                           |
|      please check the nearest neigbor list in the OUTCAR file               |
|          I HOPE YOU KNOW, WHAT YOU ARE  DOING                               |
|                                                                             |
 ----------------------------------------------------------------------------- 

  LATTYP: Found a base centered orthorhombic cell.
 ALAT       =     3.5404000000
 B/A-ratio  =     5.8153587165
 C/A-ratio  =     7.7678875268
  
  Lattice vectors:
  
 A1 = (   1.7702000000,  10.2943480000,   0.0000000000)
 A2 = (   1.7702000000, -10.2943480000,   0.0000000000)
 A3 = (   0.0000000000,   0.0000000000, -27.5014290000)


Analysis of symmetry for initial positions (statically):
=====================================================================
 Subroutine PRICEL returns:
 Original cell was already a primitive cell.
 

 Routine SETGRP: Setting up the symmetry group for a 
 base centered orthorhombic supercell.


 Subroutine GETGRP returns: Found  1 space group operations
 (whereof  1 operations were pure point group operations)
 out of a pool of  8 trial point group operations.


The static configuration has the point symmetry C_1 .


Analysis of symmetry for dynamics (positions and initial velocities):
=====================================================================
 Subroutine PRICEL returns:
 Original cell was already a primitive cell.
 

 Routine SETGRP: Setting up the symmetry group for a 
 base centered orthorhombic supercell.


 Subroutine GETGRP returns: Found  1 space group operations
 (whereof  1 operations were pure point group operations)
 out of a pool of  8 trial point group operations.


The dynamic configuration has the point symmetry C_1 .
 
 
 KPOINTS: pymatgen generated KPOINTS with grid den

Automatic generation of k-mesh.
Space group operators:
 irot       det(A)        alpha          n_x          n_y          n_z        tau_x        tau_y        tau_z
    1     1.000000     0.000000     1.000000     0.000000     0.000000     0.000000     0.000000     0.000000
 
 Subroutine IBZKPT returns following result:
 ===========================================
 
 Found     54 irreducible k-points:
 
 Following reciprocal coordinates:
            Coordinates               Weight
  0.000000  0.000000  0.000000      1.000000
  0.076923 -0.000000  0.000000      2.000000
  0.153846 -0.000000  0.000000      2.000000
  0.230769 -0.000000  0.000000      2.000000
  0.307692 -0.000000  0.000000      2.000000
  0.384615 -0.000000  0.000000      2.000000
  0.461538 -0.000000  0.000000      2.000000
  0.000000  0.250000  0.000000      2.000000
  0.076923  0.250000  0.000000      2.000000
  0.153846  0.250000  0.000000      2.000000
  0.230769  0.250000  0.000000      2.000000
  0.307692  0.250000  0.000000      2.000000
  0.384615  0.250000  0.000000      2.000000
  0.461538  0.250000  0.000000      2.000000
 -0.461538  0.250000  0.000000      2.000000
 -0.384615  0.250000  0.000000      2.000000
 -0.307692  0.250000  0.000000      2.000000
 -0.230769  0.250000  0.000000      2.000000
 -0.153846  0.250000  0.000000      2.000000
 -0.076923  0.250000  0.000000      2.000000
  0.000000  0.500000  0.000000      1.000000
  0.076923  0.500000  0.000000      2.000000
  0.153846  0.500000  0.000000      2.000000
  0.230769  0.500000  0.000000      2.000000
  0.307692  0.500000  0.000000      2.000000
  0.384615  0.500000  0.000000      2.000000
  0.461538  0.500000  0.000000      2.000000
  0.000000  0.000000  0.500000      1.000000
  0.076923 -0.000000  0.500000      2.000000
  0.153846 -0.000000  0.500000      2.000000
  0.230769 -0.000000  0.500000      2.000000
  0.307692 -0.000000  0.500000      2.000000
  0.384615 -0.000000  0.500000      2.000000
  0.461538 -0.000000  0.500000      2.000000
  0.000000  0.250000  0.500000      2.000000
  0.076923  0.250000  0.500000      2.000000
  0.153846  0.250000  0.500000      2.000000
  0.230769  0.250000  0.500000      2.000000
  0.307692  0.250000  0.500000      2.000000
  0.384615  0.250000  0.500000      2.000000
  0.461538  0.250000  0.500000      2.000000
 -0.461538  0.250000  0.500000      2.000000
 -0.384615  0.250000  0.500000      2.000000
 -0.307692  0.250000  0.500000      2.000000
 -0.230769  0.250000  0.500000      2.000000
 -0.153846  0.250000  0.500000      2.000000
 -0.076923  0.250000  0.500000      2.000000
  0.000000  0.500000  0.500000      1.000000
  0.076923  0.500000  0.500000      2.000000
  0.153846  0.500000  0.500000      2.000000
  0.230769  0.500000  0.500000      2.000000
  0.307692  0.500000  0.500000      2.000000
  0.384615  0.500000  0.500000      2.000000
  0.461538  0.500000  0.500000      2.000000
 
 Following cartesian coordinates:
            Coordinates               Weight
  0.000000  0.000000  0.000000      1.000000
  0.021727  0.003736  0.000000      2.000000
  0.043454  0.007472  0.000000      2.000000
  0.065182  0.011209  0.000000      2.000000
  0.086909  0.014945  0.000000      2.000000
  0.108636  0.018681  0.000000      2.000000
  0.130363  0.022417  0.000000      2.000000
  0.000000  0.024285  0.000000      2.000000
  0.021727  0.028021  0.000000      2.000000
  0.043454  0.031758  0.000000      2.000000
  0.065182  0.035494  0.000000      2.000000
  0.086909  0.039230  0.000000      2.000000
  0.108636  0.042966  0.000000      2.000000
  0.130363  0.046702  0.000000      2.000000
 -0.130363  0.001868  0.000000      2.000000
 -0.108636  0.005604  0.000000      2.000000
 -0.086909  0.009340  0.000000      2.000000
 -0.065182  0.013077  0.000000      2.000000
 -0.043454  0.016813  0.000000      2.000000
 -0.021727  0.020549  0.000000      2.000000
  0.000000  0.048570  0.000000      1.000000
  0.021727  0.052307  0.000000      2.000000
  0.043454  0.056043  0.000000      2.000000
  0.065182  0.059779  0.000000      2.000000
  0.086909  0.063515  0.000000      2.000000
  0.108636  0.067251  0.000000      2.000000
  0.130363  0.070987  0.000000      2.000000
  0.000000  0.000000  0.018181      1.000000
  0.021727  0.003736  0.018181      2.000000
  0.043454  0.007472  0.018181      2.000000
  0.065182  0.011209  0.018181      2.000000
  0.086909  0.014945  0.018181      2.000000
  0.108636  0.018681  0.018181      2.000000
  0.130363  0.022417  0.018181      2.000000
  0.000000  0.024285  0.018181      2.000000
  0.021727  0.028021  0.018181      2.000000
  0.043454  0.031758  0.018181      2.000000
  0.065182  0.035494  0.018181      2.000000
  0.086909  0.039230  0.018181      2.000000
  0.108636  0.042966  0.018181      2.000000
  0.130363  0.046702  0.018181      2.000000
 -0.130363  0.001868  0.018181      2.000000
 -0.108636  0.005604  0.018181      2.000000
 -0.086909  0.009340  0.018181      2.000000
 -0.065182  0.013077  0.018181      2.000000
 -0.043454  0.016813  0.018181      2.000000
 -0.021727  0.020549  0.018181      2.000000
  0.000000  0.048570  0.018181      1.000000
  0.021727  0.052307  0.018181      2.000000
  0.043454  0.056043  0.018181      2.000000
  0.065182  0.059779  0.018181      2.000000
  0.086909  0.063515  0.018181      2.000000
  0.108636  0.067251  0.018181      2.000000
  0.130363  0.070987  0.018181      2.000000
 


--------------------------------------------------------------------------------------------------------




 Dimension of arrays:
   k-points           NKPTS =     54   k-points in BZ     NKDIM =     54   number of bands    NBANDS=     68
   number of dos      NEDOS =    301   number of ions     NIONS =     24
   non local maximal  LDIM  =      4   non local SUM 2l+1 LMDIM =      8
   total plane-waves  NPLWV = 192000
   max r-space proj   IRMAX =   2772   max aug-charges    IRDMAX=   6603
   dimension x,y,z NGX =    20 NGY =   60 NGZ =  160
   dimension x,y,z NGXF=    40 NGYF=  120 NGZF=  320
   support grid    NGXF=    40 NGYF=  120 NGZF=  320
   ions per type =              12  12
 NGX,Y,Z   is equivalent  to a cutoff of   9.39,  9.55,  9.67 a.u.
 NGXF,Y,Z  is equivalent  to a cutoff of  18.78, 19.10, 19.34 a.u.


 I would recommend the setting:
   dimension x,y,z NGX =    20 NGY =   59 NGZ =  155
 SYSTEM =  unknown system                          
 POSCAR =  Si12                                    

 Startparameter for this run:
   NWRITE =      2    write-flag & timer
   PREC   = accura    normal or accurate (medium, high low for compatibility)
   ISTART =      0    job   : 0-new  1-cont  2-samecut
   ICHARG =      2    charge: 1-file 2-atom 10-const
   ISPIN  =      1    spin polarized calculation?
   LNONCOLLINEAR =      F non collinear calculations
   LSORBIT =      F    spin-orbit coupling
   INIWAV =      1    electr: 0-lowe 1-rand  2-diag
   LASPH  =      F    aspherical Exc in radial PAW
   METAGGA=      F    non-selfconsistent MetaGGA calc.

 Electronic Relaxation 1
   ENCUT  =  300.0 eV  22.05 Ry    4.70 a.u.   5.00 14.75 38.84*2*pi/ulx,y,z
   ENINI  =  300.0     initial cutoff
   ENAUG  =  342.9 eV  augmentation charge cutoff
   NELM   =     60;   NELMIN=  2; NELMDL= -5     # of ELM steps 
   EDIFF  = 0.1E-05   stopping-criterion for ELM
   LREAL  =      T    real-space projection
   NLSPLINE    = F    spline interpolate recip. space projectors
   LCOMPAT=      F    compatible to vasp.4.4
   GGA_COMPAT  = T    GGA compatible to vasp.4.4-vasp.4.6
   LMAXPAW     = -100 max onsite density
   LMAXMIX     =    2 max onsite mixed and CHGCAR
   VOSKOWN=      0    Vosko Wilk Nusair interpolation
   ROPT   =   -0.00025  -0.00025
 Ionic relaxation
   EDIFFG = 0.1E-04   stopping-criterion for IOM
   NSW    =      0    number of steps for IOM
   NBLOCK =      1;   KBLOCK =      1    inner block; outer block 
   IBRION =     -1    ionic relax: 0-MD 1-quasi-New 2-CG
   NFREE  =      1    steps in history (QN), initial steepest desc. (CG)
   ISIF   =      3    stress and relaxation
   IWAVPR =     10    prediction:  0-non 1-charg 2-wave 3-comb
   ISYM   =      2    0-nonsym 1-usesym 2-fastsym
   LCORR  =      T    Harris-Foulkes like correction to forces

   POTIM  = 0.5000    time-step for ionic-motion
   TEIN   =    0.0    initial temperature
   TEBEG  =    0.0;   TEEND  =   0.0 temperature during run
   SMASS  =  -3.00    Nose mass-parameter (am)
   estimated Nose-frequenzy (Omega)   =  0.10E-29 period in steps =****** mass=  -0.286E-27a.u.
   SCALEE = 1.0000    scale energy and forces
   NPACO  =    256;   APACO  = 16.0  distance and # of slots for P.C.
   PSTRESS=    0.0 pullay stress

  Mass of Ions in am
   POMASS =  30.97 28.09
  Ionic Valenz
   ZVAL   =   5.00  4.00
  Atomic Wigner-Seitz radii
   RWIGS  =  -1.00 -1.00
  virtual crystal weights 
   VCA    =   1.00  1.00
   NELECT =     108.0000    total number of electrons
   NUPDOWN=      -1.0000    fix difference up-down

 DOS related values:
   EMIN   =  10.00;   EMAX   =-10.00  energy-range for DOS
   EFERMI =   0.00
   ISMEAR =     0;   SIGMA  =   0.10  broadening in eV -4-tet -1-fermi 0-gaus

 Electronic relaxation 2 (details)
   IALGO  =     38    algorithm
   LDIAG  =      T    sub-space diagonalisation (order eigenvalues)
   LSUBROT=      F    optimize rotation matrix (better conditioning)
   TURBO    =      0    0=normal 1=particle mesh
   IRESTART =      0    0=no restart 2=restart with 2 vectors
   NREBOOT  =      0    no. of reboots
   NMIN     =      0    reboot dimension
   EREF     =   0.00    reference energy to select bands
   IMIX   =      4    mixing-type and parameters
     AMIX     =   0.40;   BMIX     =  1.00
     AMIX_MAG =   1.60;   BMIX_MAG =  1.00
     AMIN     =   0.10
     WC   =   100.;   INIMIX=   1;  MIXPRE=   1;  MAXMIX= -45

 Intra band minimization:
   WEIMIN = 0.0000     energy-eigenvalue tresh-hold
   EBREAK =  0.37E-08  absolut break condition
   DEPER  =   0.30     relativ break condition  

   TIME   =   0.40     timestep for ELM

  volume/ion in A,a.u.               =      41.76       281.83
  Fermi-wavevector in a.u.,A,eV,Ry     =   0.779018  1.472130  8.256946  0.606868
  Thomas-Fermi vector in A             =   1.882034
 
 Write flags
   LWAVE  =      F    write WAVECAR
   LCHARG =      F    write CHGCAR
   LVTOT  =      F    write LOCPOT, total local potential
   LVHAR  =      F    write LOCPOT, Hartree potential only
   LELF   =      F    write electronic localiz. function (ELF)
   LORBIT =      0    0 simple, 1 ext, 2 COOP (PROOUT)


 Dipole corrections
   LMONO  =      F    monopole corrections only (constant potential shift)
   LDIPOL =      F    correct potential (dipole corrections)
   IDIPOL =      0    1-x, 2-y, 3-z, 4-all directions 
   EPSILON=  1.0000000 bulk dielectric constant

 Exchange correlation treatment:
   GGA     =    BO    GGA type
   LEXCH   =    42    internal setting for exchange type
   VOSKOWN=      0    Vosko Wilk Nusair interpolation
   LHFCALC =     F    Hartree Fock is set to
   LHFONE  =     F    Hartree Fock one center treatment
   AEXX    =    0.0000 exact exchange contribution

 vdW DFT:
   LUSE_VDW   =     T    switch on vdW DFT
   Zab_VDW    =-.8491    correlation parameter
   PARAM1     =0.1833
   PARAM2     =0.2200
   PARAM3     =0.0000

 Linear response parameters
   LEPSILON=     F    determine dielectric tensor
   LRPA    =     F    only Hartree local field effects (RPA)
   LNABLA  =     F    use nabla operator in PAW spheres
   LVEL    =     F    velocity operator in full k-point grid
   LINTERFAST=   F  fast interpolation
   KINTER  =     0    interpolate to denser k-point grid
   CSHIFT  =0.1000    complex shift for real part using Kramers Kronig
   OMEGAMAX=  -1.0    maximum frequency
   DEG_THRESHOLD= 0.2000000E-02 threshold for treating states as degnerate
   RTIME   =    0.100 relaxation time in fs

 Orbital magnetization related:
   ORBITALMAG=     F  switch on orbital magnetization
   LCHIMAG   =     F  perturbation theory with respect to B field
   DQ        =  0.001000  dq finite difference perturbation B field



--------------------------------------------------------------------------------------------------------


 Static calculation
 charge density and potential will be updated during run
 non-spin polarized calculation
 Variant of blocked Davidson
 Davidson routine will perform the subspace rotation
 perform sub-space diagonalisation
    after iterative eigenvector-optimisation
 modified Broyden-mixing scheme, WC =      100.0
 initial mixing is a Kerker type mixing with AMIX =  0.4000 and BMIX =      1.0000
 Hartree-type preconditioning will be used
 using additional bands           14
 real space projection scheme for non local part
 use partial core corrections
 calculate Harris-corrections to forces 
   (improved forces if not selfconsistent)
 use gradient corrections 
 use of overlap-Matrix (Vanderbilt PP)
 Gauss-broadening in eV      SIGMA  =   0.10


--------------------------------------------------------------------------------------------------------


  energy-cutoff  :      300.00
  volume of cell :     1002.32
      direct lattice vectors                 reciprocal lattice vectors
     3.540400000  0.000000000  0.000000000     0.282453960  0.048570342  0.000000000
    -1.770200000 10.294348000  0.000000000     0.000000000  0.097140683  0.000000000
     0.000000000  0.000000000 27.501429000     0.000000000  0.000000000  0.036361747

  length of vectors
     3.540400000 10.445439617 27.501429000     0.286599577  0.097140683  0.036361747


 
 k-points in units of 2pi/SCALE and weight: pymatgen generated KPOINTS with grid den
   0.00000000  0.00000000  0.00000000       0.010
   0.02172723  0.00373618  0.00000000       0.019
   0.04345446  0.00747236  0.00000000       0.019
   0.06518168  0.01120854  0.00000000       0.019
   0.08690891  0.01494472  0.00000000       0.019
   0.10863614  0.01868090  0.00000000       0.019
   0.13036337  0.02241708  0.00000000       0.019
   0.00000000  0.02428517  0.00000000       0.019
   0.02172723  0.02802135  0.00000000       0.019
   0.04345446  0.03175753  0.00000000       0.019
   0.06518168  0.03549371  0.00000000       0.019
   0.08690891  0.03922989  0.00000000       0.019
   0.10863614  0.04296607  0.00000000       0.019
   0.13036337  0.04670225  0.00000000       0.019
  -0.13036337  0.00186809  0.00000000       0.019
  -0.10863614  0.00560427  0.00000000       0.019
  -0.08690891  0.00934045  0.00000000       0.019
  -0.06518168  0.01307663  0.00000000       0.019
  -0.04345446  0.01681281  0.00000000       0.019
  -0.02172723  0.02054899  0.00000000       0.019
   0.00000000  0.04857034  0.00000000       0.010
   0.02172723  0.05230652  0.00000000       0.019
   0.04345446  0.05604270  0.00000000       0.019
   0.06518168  0.05977888  0.00000000       0.019
   0.08690891  0.06351506  0.00000000       0.019
   0.10863614  0.06725124  0.00000000       0.019
   0.13036337  0.07098742  0.00000000       0.019
   0.00000000  0.00000000  0.01818087       0.010
   0.02172723  0.00373618  0.01818087       0.019
   0.04345446  0.00747236  0.01818087       0.019
   0.06518168  0.01120854  0.01818087       0.019
   0.08690891  0.01494472  0.01818087       0.019
   0.10863614  0.01868090  0.01818087       0.019
   0.13036337  0.02241708  0.01818087       0.019
   0.00000000  0.02428517  0.01818087       0.019
   0.02172723  0.02802135  0.01818087       0.019
   0.04345446  0.03175753  0.01818087       0.019
   0.06518168  0.03549371  0.01818087       0.019
   0.08690891  0.03922989  0.01818087       0.019
   0.10863614  0.04296607  0.01818087       0.019
   0.13036337  0.04670225  0.01818087       0.019
  -0.13036337  0.00186809  0.01818087       0.019
  -0.10863614  0.00560427  0.01818087       0.019
  -0.08690891  0.00934045  0.01818087       0.019
  -0.06518168  0.01307663  0.01818087       0.019
  -0.04345446  0.01681281  0.01818087       0.019
  -0.02172723  0.02054899  0.01818087       0.019
   0.00000000  0.04857034  0.01818087       0.010
   0.02172723  0.05230652  0.01818087       0.019
   0.04345446  0.05604270  0.01818087       0.019
   0.06518168  0.05977888  0.01818087       0.019
   0.08690891  0.06351506  0.01818087       0.019
   0.10863614  0.06725124  0.01818087       0.019
   0.13036337  0.07098742  0.01818087       0.019
 
 k-points in reciprocal lattice and weights: pymatgen generated KPOINTS with grid den
   0.00000000  0.00000000  0.00000000       0.010
   0.07692308 -0.00000000  0.00000000       0.019
   0.15384615 -0.00000000  0.00000000       0.019
   0.23076923 -0.00000000  0.00000000       0.019
   0.30769231 -0.00000000  0.00000000       0.019
   0.38461538 -0.00000000  0.00000000       0.019
   0.46153846 -0.00000000  0.00000000       0.019
   0.00000000  0.25000000  0.00000000       0.019
   0.07692308  0.25000000  0.00000000       0.019
   0.15384615  0.25000000  0.00000000       0.019
   0.23076923  0.25000000  0.00000000       0.019
   0.30769231  0.25000000  0.00000000       0.019
   0.38461538  0.25000000  0.00000000       0.019
   0.46153846  0.25000000  0.00000000       0.019
  -0.46153846  0.25000000  0.00000000       0.019
  -0.38461538  0.25000000  0.00000000       0.019
  -0.30769231  0.25000000  0.00000000       0.019
  -0.23076923  0.25000000  0.00000000       0.019
  -0.15384615  0.25000000  0.00000000       0.019
  -0.07692308  0.25000000  0.00000000       0.019
   0.00000000  0.50000000  0.00000000       0.010
   0.07692308  0.50000000  0.00000000       0.019
   0.15384615  0.50000000  0.00000000       0.019
   0.23076923  0.50000000  0.00000000       0.019
   0.30769231  0.50000000  0.00000000       0.019
   0.38461538  0.50000000  0.00000000       0.019
   0.46153846  0.50000000  0.00000000       0.019
   0.00000000  0.00000000  0.50000000       0.010
   0.07692308 -0.00000000  0.50000000       0.019
   0.15384615 -0.00000000  0.50000000       0.019
   0.23076923 -0.00000000  0.50000000       0.019
   0.30769231 -0.00000000  0.50000000       0.019
   0.38461538 -0.00000000  0.50000000       0.019
   0.46153846 -0.00000000  0.50000000       0.019
   0.00000000  0.25000000  0.50000000       0.019
   0.07692308  0.25000000  0.50000000       0.019
   0.15384615  0.25000000  0.50000000       0.019
   0.23076923  0.25000000  0.50000000       0.019
   0.30769231  0.25000000  0.50000000       0.019
   0.38461538  0.25000000  0.50000000       0.019
   0.46153846  0.25000000  0.50000000       0.019
  -0.46153846  0.25000000  0.50000000       0.019
  -0.38461538  0.25000000  0.50000000       0.019
  -0.30769231  0.25000000  0.50000000       0.019
  -0.23076923  0.25000000  0.50000000       0.019
  -0.15384615  0.25000000  0.50000000       0.019
  -0.07692308  0.25000000  0.50000000       0.019
   0.00000000  0.50000000  0.50000000       0.010
   0.07692308  0.50000000  0.50000000       0.019
   0.15384615  0.50000000  0.50000000       0.019
   0.23076923  0.50000000  0.50000000       0.019
   0.30769231  0.50000000  0.50000000       0.019
   0.38461538  0.50000000  0.50000000       0.019
   0.46153846  0.50000000  0.50000000       0.019
 
 position of ions in fractional coordinates (direct lattice) 
   0.11402300  0.22804500  0.23316207
   0.31402300  0.02804500  0.51499159
   0.45808900  0.91617900  0.20939482
   0.65808900  0.71617900  0.49122434
   0.31085400  0.62170900  0.08414979
   0.31085400  0.62170900  0.36597930
   0.99923000  0.99846000  0.08631254
   0.99923000  0.99846000  0.36814206
   0.65492700  0.30985400  0.06041748
   0.65492700  0.30985400  0.34224700
   0.76973800  0.53947500  0.20725292
   0.96973800  0.33947500  0.48908244
   0.93971600  0.87943300  0.15783749
   0.13971600  0.67943300  0.43966701
   0.20515200  0.41030300  0.18578822
   0.40515200  0.21030300  0.46761774
   0.20184900  0.40369900  0.09969156
   0.20184900  0.40369900  0.38152107
   0.56380500  0.12761000  0.10779021
   0.56380500  0.12761000  0.38961973
   0.56710600  0.13421200  0.19387616
   0.76710600  0.93421200  0.47570568
   0.82923400  0.65846800  0.13571444
   0.02923400  0.45846800  0.41754396
 
 position of ions in cartesian coordinates  (Angst):
   0.00000177  2.34757459  6.41229012
   1.06212177  0.28870499 14.16300462
  -0.00000177  9.43146546  5.75865686
   1.06211823  7.37259586 13.50937136
  -0.00000177  6.40008880  2.31423934
  -0.00000177  6.40008880 10.06495384
   1.77020000 10.27849470  2.37371832
   1.77020000 10.27849470 10.12443282
   1.77020000  3.18974491  1.66156717
   1.77020000  3.18974491  9.41228167
   1.77020177  5.55354339  5.69975143
   2.83232177  3.49467379 13.45046593
   1.77019823  9.05318934  4.34075665
  -0.70808177  6.99431974 12.09147115
   0.00000177  4.22380187  5.10944151
   1.06212177  2.16493227 12.86015601
  -0.00000177  4.15581799  2.74166024
  -0.00000177  4.15581799 10.49237474
   1.77020000  1.31366175  2.96438477
   1.77020000  1.31366175 10.71509927
   1.77020000  1.38162503  5.33187152
   1.06212000  9.61710343 13.08258602
   1.77020000  6.77849874  3.73234107
  -0.70808000  4.71962914 11.48305557
 


--------------------------------------------------------------------------------------------------------


 k-point  1 :   0.0000 0.0000 0.0000  plane waves:   11717
 k-point  2 :   0.0769-0.0000 0.0000  plane waves:   11762
 k-point  3 :   0.1538-0.0000 0.0000  plane waves:   11805
 k-point  4 :   0.2308-0.0000 0.0000  plane waves:   11824
 k-point  5 :   0.3077-0.0000 0.0000  plane waves:   11875
 k-point  6 :   0.3846-0.0000 0.0000  plane waves:   11864
 k-point  7 :   0.4615-0.0000 0.0000  plane waves:   11883
 k-point  8 :   0.0000 0.2500 0.0000  plane waves:   11683
 k-point  9 :   0.0769 0.2500 0.0000  plane waves:   11756
 k-point 10 :   0.1538 0.2500 0.0000  plane waves:   11807
 k-point 11 :   0.2308 0.2500 0.0000  plane waves:   11853
 k-point 12 :   0.3077 0.2500 0.0000  plane waves:   11866
 k-point 13 :   0.3846 0.2500 0.0000  plane waves:   11889
 k-point 14 :   0.4615 0.2500 0.0000  plane waves:   11885
 k-point 15 :  -0.4615 0.2500 0.0000  plane waves:   11886
 k-point 16 :  -0.3846 0.2500 0.0000  plane waves:   11867
 k-point 17 :  -0.3077 0.2500 0.0000  plane waves:   11849
 k-point 18 :  -0.2308 0.2500 0.0000  plane waves:   11827
 k-point 19 :  -0.1538 0.2500 0.0000  plane waves:   11801
 k-point 20 :  -0.0769 0.2500 0.0000  plane waves:   11757
 k-point 21 :   0.0000 0.5000 0.0000  plane waves:   11710
 k-point 22 :   0.0769 0.5000 0.0000  plane waves:   11762
 k-point 23 :   0.1538 0.5000 0.0000  plane waves:   11782
 k-point 24 :   0.2308 0.5000 0.0000  plane waves:   11841
 k-point 25 :   0.3077 0.5000 0.0000  plane waves:   11876
 k-point 26 :   0.3846 0.5000 0.0000  plane waves:   11889
 k-point 27 :   0.4615 0.5000 0.0000  plane waves:   11881
 k-point 28 :   0.0000 0.0000 0.5000  plane waves:   11698
 k-point 29 :   0.0769-0.0000 0.5000  plane waves:   11752
 k-point 30 :   0.1538-0.0000 0.5000  plane waves:   11800
 k-point 31 :   0.2308-0.0000 0.5000  plane waves:   11834
 k-point 32 :   0.3077-0.0000 0.5000  plane waves:   11850
 k-point 33 :   0.3846-0.0000 0.5000  plane waves:   11888
 k-point 34 :   0.4615-0.0000 0.5000  plane waves:   11896
 k-point 35 :   0.0000 0.2500 0.5000  plane waves:   11714
 k-point 36 :   0.0769 0.2500 0.5000  plane waves:   11754
 k-point 37 :   0.1538 0.2500 0.5000  plane waves:   11802
 k-point 38 :   0.2308 0.2500 0.5000  plane waves:   11840
 k-point 39 :   0.3077 0.2500 0.5000  plane waves:   11858
 k-point 40 :   0.3846 0.2500 0.5000  plane waves:   11896
 k-point 41 :   0.4615 0.2500 0.5000  plane waves:   11886
 k-point 42 :  -0.4615 0.2500 0.5000  plane waves:   11852
 k-point 43 :  -0.3846 0.2500 0.5000  plane waves:   11838
 k-point 44 :  -0.3077 0.2500 0.5000  plane waves:   11842
 k-point 45 :  -0.2308 0.2500 0.5000  plane waves:   11840
 k-point 46 :  -0.1538 0.2500 0.5000  plane waves:   11804
 k-point 47 :  -0.0769 0.2500 0.5000  plane waves:   11748
 k-point 48 :   0.0000 0.5000 0.5000  plane waves:   11724
 k-point 49 :   0.0769 0.5000 0.5000  plane waves:   11748
 k-point 50 :   0.1538 0.5000 0.5000  plane waves:   11814
 k-point 51 :   0.2308 0.5000 0.5000  plane waves:   11832
 k-point 52 :   0.3077 0.5000 0.5000  plane waves:   11868
 k-point 53 :   0.3846 0.5000 0.5000  plane waves:   11892
 k-point 54 :   0.4615 0.5000 0.5000  plane waves:   11878

 maximum and minimum number of plane-waves per node :      5964     5832

 maximum number of plane-waves:     11896
 maximum index in each direction: 
   IXMAX=    5   IYMAX=   14   IZMAX=   38
   IXMIN=   -5   IYMIN=  -15   IZMIN=  -39

 WARNING: aliasing errors must be expected set NGX to  22 to avoid them
 NGY is ok and might be reduce to  60
 NGZ is ok and might be reduce to 156
 aliasing errors are usually negligible using standard VASP settings
 and one can safely disregard these warnings

 real space projection operators:
  total allocation   :       3793.25 KBytes
  max/ min on nodes  :       1899.38       1893.88


 parallel 3D FFT for wavefunctions:
    minimum data exchange during FFTs selected (reduces bandwidth)
 parallel 3D FFT for charge:
    minimum data exchange during FFTs selected (reduces bandwidth)


 total amount of memory used by VASP on root node   146493. kBytes
========================================================================

   base      :      30000. kBytes
   nonlr-proj:       3452. kBytes
   fftplans  :       9347. kBytes
   grid      :      14649. kBytes
   one-center:         36. kBytes
   wavefun   :      89009. kBytes
 
     INWAV:  cpu time    0.00: real time    0.00
 Broyden mixing: mesh for mixing (old mesh)
   NGX =  9   NGY = 29   NGZ = 77
  (NGX  = 40   NGY  =120   NGZ  =320)
  gives a total of  20097 points

 initial charge density was supplied:
 charge density of overlapping atoms calculated
 number of electron     108.0000000 magnetization 
 keeping initial charge density in first step


--------------------------------------------------------------------------------------------------------


 Maximum index for non-local projection operator         1333
 Maximum index for augmentation-charges          822 (set IRDMAX)


--------------------------------------------------------------------------------------------------------


 First call to EWALD:  gamma=   0.177
 Maximum number of real-space cells 7x 3x 1
 Maximum number of reciprocal cells 1x 3x 7

 FEWALD executed in parallel
    FEWALD:  cpu time    0.00: real time    0.00


----------------------------------------- Iteration    1(   1)  ---------------------------------------


vdW kernel read from vdw_kernel.bindat
  0.0000  0.2424  0.5071  0.7962  1.1119  1.4567  1.8333  2.2446  2.6937  3.1842
  3.7199  4.3049  4.9438  5.6415  6.4036  7.2358  8.1446  9.1372 10.2212 11.4050
 12.6979 14.1099 15.6519 17.3360 19.1751 21.1837 23.3773 25.7729 28.3892 31.2465
 34.3669 37.7748 41.4965 45.5611 50.0000
 
    POTLOK:  cpu time   16.61: real time   16.64
    SETDIJ:  cpu time    0.01: real time    0.01
     EDDAV:  cpu time   85.69: real time   85.78
       DOS:  cpu time    0.01: real time    0.01
    --------------------------------------------
      LOOP:  cpu time  102.32: real time  102.45

 eigenvalue-minimisations  :  7352
 total energy-change (2. order) : 0.5138244E+03  (-0.2869812E+04)
 number of electron     108.0000000 magnetization 
 augmentation part      108.0000000 magnetization 

 Free energy of the ion-electron system (eV)
  ---------------------------------------------------
  alpha Z        PSCENC =        36.80884744
  Ewald energy   TEWEN  =     11981.43916959
  -Hartree energ DENC   =    -15002.49101396
  -exchange      EXHF   =         0.00000000
  -V(xc)+E(xc)   XCENC  =       -87.66209849
  PAW double counting   =      1056.43050070     -732.41190547
  entropy T*S    EENTRO =        -0.04237260
  eigenvalues    EBANDS =       -92.28797974
  atomic energy  EATOM  =      3354.04126044
  ---------------------------------------------------
  free energy    TOTEN  =       513.82440793 eV

  energy without entropy =      513.86678053  energy(sigma->0) =      513.84559423


--------------------------------------------------------------------------------------------------------




----------------------------------------- Iteration    1(   2)  ---------------------------------------


     EDDAV:  cpu time  101.01: real time  101.11
       DOS:  cpu time    0.01: real time    0.01
    --------------------------------------------
      LOOP:  cpu time  101.02: real time  101.13

 eigenvalue-minimisations  :  9820
 total energy-change (2. order) :-0.5645232E+03  (-0.5503437E+03)
 number of electron     108.0000000 magnetization 
 augmentation part      108.0000000 magnetization 

 Free energy of the ion-electron system (eV)
  ---------------------------------------------------
  alpha Z        PSCENC =        36.80884744
  Ewald energy   TEWEN  =     11981.43916959
  -Hartree energ DENC   =    -15002.49101396
  -exchange      EXHF   =         0.00000000
  -V(xc)+E(xc)   XCENC  =       -87.66209849
  PAW double counting   =      1056.43050070     -732.41190547
  entropy T*S    EENTRO =        -0.01989288
  eigenvalues    EBANDS =      -656.83364857
  atomic energy  EATOM  =      3354.04126044
  ---------------------------------------------------
  free energy    TOTEN  =       -50.69878119 eV

  energy without entropy =      -50.67888830  energy(sigma->0) =      -50.68883475


--------------------------------------------------------------------------------------------------------




----------------------------------------- Iteration    1(   3)  ---------------------------------------


     EDDAV:  cpu time  102.68: real time  102.77
       DOS:  cpu time    0.01: real time    0.01
    --------------------------------------------
      LOOP:  cpu time  102.69: real time  102.78

 eigenvalue-minimisations  :  8972
 total energy-change (2. order) :-0.5783239E+02  (-0.5704440E+02)
 number of electron     108.0000000 magnetization 
 augmentation part      108.0000000 magnetization 

 Free energy of the ion-electron system (eV)
  ---------------------------------------------------
  alpha Z        PSCENC =        36.80884744
  Ewald energy   TEWEN  =     11981.43916959
  -Hartree energ DENC   =    -15002.49101396
  -exchange      EXHF   =         0.00000000
  -V(xc)+E(xc)   XCENC  =       -87.66209849
  PAW double counting   =      1056.43050070     -732.41190547
  entropy T*S    EENTRO =        -0.02794364
  eigenvalues    EBANDS =      -714.65798451
  atomic energy  EATOM  =      3354.04126044
  ---------------------------------------------------
  free energy    TOTEN  =      -108.53116789 eV

  energy without entropy =     -108.50322425  energy(sigma->0) =     -108.51719607


--------------------------------------------------------------------------------------------------------




----------------------------------------- Iteration    1(   4)  ---------------------------------------


     EDDAV:  cpu time  126.26: real time  126.41
       DOS:  cpu time    0.01: real time    0.01
    --------------------------------------------
      LOOP:  cpu time  126.27: real time  126.43

 eigenvalue-minimisations  : 11624
 total energy-change (2. order) :-0.2779398E+01  (-0.2758834E+01)
 number of electron     108.0000000 magnetization 
 augmentation part      108.0000000 magnetization 

 Free energy of the ion-electron system (eV)
  ---------------------------------------------------
  alpha Z        PSCENC =        36.80884744
  Ewald energy   TEWEN  =     11981.43916959
  -Hartree energ DENC   =    -15002.49101396
  -exchange      EXHF   =         0.00000000
  -V(xc)+E(xc)   XCENC  =       -87.66209849
  PAW double counting   =      1056.43050070     -732.41190547
  entropy T*S    EENTRO =        -0.03336315
  eigenvalues    EBANDS =      -717.43196313
  atomic energy  EATOM  =      3354.04126044
  ---------------------------------------------------
  free energy    TOTEN  =      -111.31056602 eV

  energy without entropy =     -111.27720286  energy(sigma->0) =     -111.29388444


--------------------------------------------------------------------------------------------------------




----------------------------------------- Iteration    1(   5)  ---------------------------------------


     EDDAV:  cpu time  108.13: real time  108.28
       DOS:  cpu time    0.01: real time    0.01
    CHARGE:  cpu time    5.16: real time    5.16
    MIXING:  cpu time    0.01: real time    0.01
    --------------------------------------------
      LOOP:  cpu time  113.31: real time  113.47

 eigenvalue-minimisations  :  9992
 total energy-change (2. order) :-0.4690630E-01  (-0.4683753E-01)
 number of electron     107.9999995 magnetization 
 augmentation part       -9.7449442 magnetization 

 Broyden mixing:
  rms(total) = 0.12731E+01    rms(broyden)= 0.12727E+01
  rms(prec ) = 0.13722E+01
  weight for this iteration     100.00

 Free energy of the ion-electron system (eV)
  ---------------------------------------------------
  alpha Z        PSCENC =        36.80884744
  Ewald energy   TEWEN  =     11981.43916959
  -Hartree energ DENC   =    -15002.49101396
  -exchange      EXHF   =         0.00000000
  -V(xc)+E(xc)   XCENC  =       -87.66209849
  PAW double counting   =      1056.43050070     -732.41190547
  entropy T*S    EENTRO =        -0.03343774
  eigenvalues    EBANDS =      -717.47879484
  atomic energy  EATOM  =      3354.04126044
  ---------------------------------------------------
  free energy    TOTEN  =      -111.35747231 eV

  energy without entropy =     -111.32403457  energy(sigma->0) =     -111.34075344


--------------------------------------------------------------------------------------------------------




----------------------------------------- Iteration    1(   6)  ---------------------------------------


    POTLOK:  cpu time   15.13: real time   15.14
    SETDIJ:  cpu time    0.01: real time    0.01
     EDDAV:  cpu time   95.33: real time   95.40
       DOS:  cpu time    0.01: real time    0.01
    CHARGE:  cpu time    5.43: real time    5.44
    MIXING:  cpu time    0.01: real time    0.01
    --------------------------------------------
      LOOP:  cpu time  115.93: real time  116.03

 eigenvalue-minimisations  :  8932
 total energy-change (2. order) : 0.4844364E+01  (-0.1159416E+01)
 number of electron     107.9999995 magnetization 
 augmentation part       -9.5611790 magnetization 

 Broyden mixing:
  rms(total) = 0.63084E+00    rms(broyden)= 0.63080E+00
  rms(prec ) = 0.66427E+00
  weight for this iteration     100.00

 eigenvalues of (default mixing * dielectric matrix)
  average eigenvalue GAMMA=   1.5963
  1.5963

 Free energy of the ion-electron system (eV)
  ---------------------------------------------------
  alpha Z        PSCENC =        36.80884744
  Ewald energy   TEWEN  =     11981.43916959
  -Hartree energ DENC   =    -15049.79488017
  -exchange      EXHF   =         0.00000000
  -V(xc)+E(xc)   XCENC  =       -84.36975864
  PAW double counting   =      1128.78532304     -806.99717104
  entropy T*S    EENTRO =        -0.02547401
  eigenvalues    EBANDS =      -666.40042514
  atomic energy  EATOM  =      3354.04126044
  ---------------------------------------------------
  free energy    TOTEN  =      -106.51310849 eV

  energy without entropy =     -106.48763448  energy(sigma->0) =     -106.50037149


--------------------------------------------------------------------------------------------------------




----------------------------------------- Iteration    1(   7)  ---------------------------------------


    POTLOK:  cpu time   15.21: real time   15.22
    SETDIJ:  cpu time    0.01: real time    0.01
     EDDAV:  cpu time  104.79: real time  104.97
       DOS:  cpu time    0.01: real time    0.01
    CHARGE:  cpu time    5.28: real time    5.29
    MIXING:  cpu time    0.01: real time    0.01
    --------------------------------------------
      LOOP:  cpu time  125.32: real time  125.51

 eigenvalue-minimisations  :  8800
 total energy-change (2. order) :-0.2667563E+00  (-0.1090702E+01)
 number of electron     107.9999995 magnetization 
 augmentation part       -9.4442450 magnetization 

 Broyden mixing:
  rms(total) = 0.28678E+00    rms(broyden)= 0.28668E+00
  rms(prec ) = 0.30569E+00
  weight for this iteration     100.00

 eigenvalues of (default mixing * dielectric matrix)
  average eigenvalue GAMMA=   1.2553
  1.1064  1.4042

 Free energy of the ion-electron system (eV)
  ---------------------------------------------------
  alpha Z        PSCENC =        36.80884744
  Ewald energy   TEWEN  =     11981.43916959
  -Hartree energ DENC   =    -15075.98327470
  -exchange      EXHF   =         0.00000000
  -V(xc)+E(xc)   XCENC  =       -81.45086060
  PAW double counting   =      1180.24622429     -859.98261118
  entropy T*S    EENTRO =        -0.03360537
  eigenvalues    EBANDS =      -641.86501474
  atomic energy  EATOM  =      3354.04126044
  ---------------------------------------------------
  free energy    TOTEN  =      -106.77986482 eV

  energy without entropy =     -106.74625944  energy(sigma->0) =     -106.76306213


--------------------------------------------------------------------------------------------------------




----------------------------------------- Iteration    1(   8)  ---------------------------------------


    POTLOK:  cpu time   15.23: real time   15.24
    SETDIJ:  cpu time    0.01: real time    0.01
     EDDAV:  cpu time   96.69: real time   96.76
       DOS:  cpu time    0.01: real time    0.01
    CHARGE:  cpu time    4.92: real time    4.92
    MIXING:  cpu time    0.01: real time    0.01
    --------------------------------------------
      LOOP:  cpu time  116.87: real time  116.96

 eigenvalue-minimisations  :  8884
 total energy-change (2. order) : 0.1028514E+00  (-0.9526291E-01)
 number of electron     107.9999995 magnetization 
 augmentation part       -9.4480960 magnetization 

 Broyden mixing:
  rms(total) = 0.16718E+00    rms(broyden)= 0.16718E+00
  rms(prec ) = 0.17624E+00
  weight for this iteration     100.00

 eigenvalues of (default mixing * dielectric matrix)
  average eigenvalue GAMMA=   1.4783
  2.2308  1.1020  1.1020

 Free energy of the ion-electron system (eV)
  ---------------------------------------------------
  alpha Z        PSCENC =        36.80884744
  Ewald energy   TEWEN  =     11981.43916959
  -Hartree energ DENC   =    -15084.70833423
  -exchange      EXHF   =         0.00000000
  -V(xc)+E(xc)   XCENC  =       -80.79948872
  PAW double counting   =      1184.74487216     -864.60088918
  entropy T*S    EENTRO =        -0.03018684
  eigenvalues    EBANDS =      -633.57226410
  atomic energy  EATOM  =      3354.04126044
  ---------------------------------------------------
  free energy    TOTEN  =      -106.67701342 eV

  energy without entropy =     -106.64682659  energy(sigma->0) =     -106.66192001


--------------------------------------------------------------------------------------------------------




----------------------------------------- Iteration    1(   9)  ---------------------------------------


    POTLOK:  cpu time   14.97: real time   14.98
    SETDIJ:  cpu time    0.01: real time    0.01
     EDDAV:  cpu time  101.86: real time  102.01
       DOS:  cpu time    0.01: real time    0.01
    CHARGE:  cpu time    4.93: real time    4.93
    MIXING:  cpu time    0.01: real time    0.01
    --------------------------------------------
      LOOP:  cpu time  121.80: real time  121.96

 eigenvalue-minimisations  :  9040
 total energy-change (2. order) :-0.2403205E-01  (-0.4201281E-01)
 number of electron     107.9999995 magnetization 
 augmentation part       -9.4429896 magnetization 

 Broyden mixing:
  rms(total) = 0.55997E-01    rms(broyden)= 0.55990E-01
  rms(prec ) = 0.64748E-01
  weight for this iteration     100.00

 eigenvalues of (default mixing * dielectric matrix)
  average eigenvalue GAMMA=   1.3849
  2.5078  1.1353  1.1353  0.7612

 Free energy of the ion-electron system (eV)
  ---------------------------------------------------
  alpha Z        PSCENC =        36.80884744
  Ewald energy   TEWEN  =     11981.43916959
  -Hartree energ DENC   =    -15091.45120709
  -exchange      EXHF   =         0.00000000
  -V(xc)+E(xc)   XCENC  =       -79.88347498
  PAW double counting   =      1192.55582595     -872.64927974
  entropy T*S    EENTRO =        -0.03402295
  eigenvalues    EBANDS =      -627.52816413
  atomic energy  EATOM  =      3354.04126044
  ---------------------------------------------------
  free energy    TOTEN  =      -106.70104547 eV

  energy without entropy =     -106.66702252  energy(sigma->0) =     -106.68403400


--------------------------------------------------------------------------------------------------------




----------------------------------------- Iteration    1(  10)  ---------------------------------------


    POTLOK:  cpu time   15.04: real time   15.06
    SETDIJ:  cpu time    0.01: real time    0.01
     EDDAV:  cpu time   96.97: real time   97.18
       DOS:  cpu time    0.01: real time    0.01
    CHARGE:  cpu time    4.78: real time    4.79
    MIXING:  cpu time    0.01: real time    0.01
    --------------------------------------------
      LOOP:  cpu time  116.84: real time  117.06

 eigenvalue-minimisations  :  9032
 total energy-change (2. order) :-0.1730909E-02  (-0.8152344E-02)
 number of electron     107.9999995 magnetization 
 augmentation part       -9.4372030 magnetization 

 Broyden mixing:
  rms(total) = 0.23110E-01    rms(broyden)= 0.23107E-01
  rms(prec ) = 0.25246E-01
  weight for this iteration     100.00

 eigenvalues of (default mixing * dielectric matrix)
  average eigenvalue GAMMA=   1.4057
  2.5436  1.4073  1.1804  1.1804  0.7167

 Free energy of the ion-electron system (eV)
  ---------------------------------------------------
  alpha Z        PSCENC =        36.80884744
  Ewald energy   TEWEN  =     11981.43916959
  -Hartree energ DENC   =    -15097.23000660
  -exchange      EXHF   =         0.00000000
  -V(xc)+E(xc)   XCENC  =       -79.58973747
  PAW double counting   =      1194.53697692     -874.70120690
  entropy T*S    EENTRO =        -0.03254968
  eigenvalues    EBANDS =      -621.97553012
  atomic energy  EATOM  =      3354.04126044
  ---------------------------------------------------
  free energy    TOTEN  =      -106.70277638 eV

  energy without entropy =     -106.67022670  energy(sigma->0) =     -106.68650154


--------------------------------------------------------------------------------------------------------




----------------------------------------- Iteration    1(  11)  ---------------------------------------


    POTLOK:  cpu time   15.44: real time   15.45
    SETDIJ:  cpu time    0.01: real time    0.01
     EDDAV:  cpu time  108.97: real time  109.11
       DOS:  cpu time    0.01: real time    0.01
    CHARGE:  cpu time    5.28: real time    5.28
    MIXING:  cpu time    0.01: real time    0.01
    --------------------------------------------
      LOOP:  cpu time  129.73: real time  129.88

 eigenvalue-minimisations  :  9248
 total energy-change (2. order) : 0.1164464E-01  (-0.1951107E-02)
 number of electron     107.9999995 magnetization 
 augmentation part       -9.4382194 magnetization 

 Broyden mixing:
  rms(total) = 0.11197E-01    rms(broyden)= 0.11195E-01
  rms(prec ) = 0.12761E-01
  weight for this iteration     100.00

 eigenvalues of (default mixing * dielectric matrix)
  average eigenvalue GAMMA=   1.4014
  2.6329  1.8709  1.1460  1.1460  0.9023  0.7100

 Free energy of the ion-electron system (eV)
  ---------------------------------------------------
  alpha Z        PSCENC =        36.80884744
  Ewald energy   TEWEN  =     11981.43916959
  -Hartree energ DENC   =    -15098.40034601
  -exchange      EXHF   =         0.00000000
  -V(xc)+E(xc)   XCENC  =       -79.56257227
  PAW double counting   =      1192.29333954     -872.40208512
  entropy T*S    EENTRO =        -0.03269223
  eigenvalues    EBANDS =      -620.87605313
  atomic energy  EATOM  =      3354.04126044
  ---------------------------------------------------
  free energy    TOTEN  =      -106.69113174 eV

  energy without entropy =     -106.65843950  energy(sigma->0) =     -106.67478562


--------------------------------------------------------------------------------------------------------




----------------------------------------- Iteration    1(  12)  ---------------------------------------


    POTLOK:  cpu time   15.16: real time   15.17
    SETDIJ:  cpu time    0.01: real time    0.01
     EDDAV:  cpu time   93.71: real time   93.88
       DOS:  cpu time    0.01: real time    0.01
    CHARGE:  cpu time    6.59: real time    6.67
    MIXING:  cpu time    0.02: real time    0.02
    --------------------------------------------
      LOOP:  cpu time  115.52: real time  115.78

 eigenvalue-minimisations  :  9008
 total energy-change (2. order) : 0.9198284E-02  (-0.2977830E-03)
 number of electron     107.9999995 magnetization 
 augmentation part       -9.4405852 magnetization 

 Broyden mixing:
  rms(total) = 0.41633E-02    rms(broyden)= 0.41627E-02
  rms(prec ) = 0.56684E-02
  weight for this iteration     100.00

 eigenvalues of (default mixing * dielectric matrix)
  average eigenvalue GAMMA=   1.3986
  2.6760  2.0063  1.1458  1.1458  1.1752  0.7189  0.9222

 Free energy of the ion-electron system (eV)
  ---------------------------------------------------
  alpha Z        PSCENC =        36.80884744
  Ewald energy   TEWEN  =     11981.43916959
  -Hartree energ DENC   =    -15099.27768273
  -exchange      EXHF   =         0.00000000
  -V(xc)+E(xc)   XCENC  =       -79.54837812
  PAW double counting   =      1190.92459331     -870.99511522
  entropy T*S    EENTRO =        -0.03276491
  eigenvalues    EBANDS =      -620.04186326
  atomic energy  EATOM  =      3354.04126044
  ---------------------------------------------------
  free energy    TOTEN  =      -106.68193345 eV

  energy without entropy =     -106.64916854  energy(sigma->0) =     -106.66555100


--------------------------------------------------------------------------------------------------------




----------------------------------------- Iteration    1(  13)  ---------------------------------------


    POTLOK:  cpu time   16.17: real time   16.20
    SETDIJ:  cpu time    0.01: real time    0.01
     EDDAV:  cpu time   97.28: real time   97.67
       DOS:  cpu time    0.01: real time    0.01
    CHARGE:  cpu time    5.22: real time    5.23
    MIXING:  cpu time    0.02: real time    0.02
    --------------------------------------------
      LOOP:  cpu time  118.71: real time  119.15

 eigenvalue-minimisations  :  9272
 total energy-change (2. order) : 0.3859150E-02  (-0.6814422E-04)
 number of electron     107.9999995 magnetization 
 augmentation part       -9.4403326 magnetization 

 Broyden mixing:
  rms(total) = 0.24799E-02    rms(broyden)= 0.24797E-02
  rms(prec ) = 0.37381E-02
  weight for this iteration     100.00

 eigenvalues of (default mixing * dielectric matrix)
  average eigenvalue GAMMA=   1.4576
  2.7762  2.4203  1.5501  1.1099  1.1099  0.7228  0.9858  0.9858

 Free energy of the ion-electron system (eV)
  ---------------------------------------------------
  alpha Z        PSCENC =        36.80884744
  Ewald energy   TEWEN  =     11981.43916959
  -Hartree energ DENC   =    -15100.34376584
  -exchange      EXHF   =         0.00000000
  -V(xc)+E(xc)   XCENC  =       -79.54134835
  PAW double counting   =      1190.41842143     -870.47582986
  entropy T*S    EENTRO =        -0.03271235
  eigenvalues    EBANDS =      -618.99211681
  atomic energy  EATOM  =      3354.04126044
  ---------------------------------------------------
  free energy    TOTEN  =      -106.67807430 eV

  energy without entropy =     -106.64536195  energy(sigma->0) =     -106.66171813


--------------------------------------------------------------------------------------------------------




----------------------------------------- Iteration    1(  14)  ---------------------------------------


    POTLOK:  cpu time   15.48: real time   15.49
    SETDIJ:  cpu time    0.01: real time    0.01
     EDDAV:  cpu time   93.48: real time   93.61
       DOS:  cpu time    0.01: real time    0.01
    CHARGE:  cpu time    4.75: real time    4.76
    MIXING:  cpu time    0.01: real time    0.01
    --------------------------------------------
      LOOP:  cpu time  113.76: real time  113.89

 eigenvalue-minimisations  :  9160
 total energy-change (2. order) : 0.2935871E-02  (-0.1682512E-04)
 number of electron     107.9999995 magnetization 
 augmentation part       -9.4400222 magnetization 

 Broyden mixing:
  rms(total) = 0.11699E-02    rms(broyden)= 0.11698E-02
  rms(prec ) = 0.21313E-02
  weight for this iteration     100.00

 eigenvalues of (default mixing * dielectric matrix)
  average eigenvalue GAMMA=   1.4909
  2.9210  2.5168  1.7836  1.1245  1.1245  1.2443  0.7251  0.9893  0.9893

 Free energy of the ion-electron system (eV)
  ---------------------------------------------------
  alpha Z        PSCENC =        36.80884744
  Ewald energy   TEWEN  =     11981.43916959
  -Hartree energ DENC   =    -15101.50546813
  -exchange      EXHF   =         0.00000000
  -V(xc)+E(xc)   XCENC  =       -79.53612009
  PAW double counting   =      1190.00715768     -870.05466893
  entropy T*S    EENTRO =        -0.03276460
  eigenvalues    EBANDS =      -617.84255185
  atomic energy  EATOM  =      3354.04126044
  ---------------------------------------------------
  free energy    TOTEN  =      -106.67513843 eV

  energy without entropy =     -106.64237383  energy(sigma->0) =     -106.65875613


--------------------------------------------------------------------------------------------------------




----------------------------------------- Iteration    1(  15)  ---------------------------------------


    POTLOK:  cpu time   15.01: real time   15.03
    SETDIJ:  cpu time    0.01: real time    0.01
     EDDAV:  cpu time   91.95: real time   92.16
       DOS:  cpu time    0.01: real time    0.01
    CHARGE:  cpu time    5.84: real time    5.85
    MIXING:  cpu time    0.02: real time    0.02
    --------------------------------------------
      LOOP:  cpu time  112.84: real time  113.07

 eigenvalue-minimisations  :  8664
 total energy-change (2. order) : 0.1188919E-03  (-0.7927998E-05)
 number of electron     107.9999995 magnetization 
 augmentation part       -9.4397510 magnetization 

 Broyden mixing:
  rms(total) = 0.84926E-03    rms(broyden)= 0.84920E-03
  rms(prec ) = 0.14220E-02
  weight for this iteration     100.00

 eigenvalues of (default mixing * dielectric matrix)
  average eigenvalue GAMMA=   1.6072
  3.6782  2.6580  2.0640  1.7178  1.1298  1.1298  0.7258  1.0013  0.9835  0.9835

 Free energy of the ion-electron system (eV)
  ---------------------------------------------------
  alpha Z        PSCENC =        36.80884744
  Ewald energy   TEWEN  =     11981.43916959
  -Hartree energ DENC   =    -15102.36382026
  -exchange      EXHF   =         0.00000000
  -V(xc)+E(xc)   XCENC  =       -79.53060378
  PAW double counting   =      1189.98277034     -870.03018439
  entropy T*S    EENTRO =        -0.03276192
  eigenvalues    EBANDS =      -616.98969702
  atomic energy  EATOM  =      3354.04126044
  ---------------------------------------------------
  free energy    TOTEN  =      -106.67501954 eV

  energy without entropy =     -106.64225762  energy(sigma->0) =     -106.65863858


--------------------------------------------------------------------------------------------------------




----------------------------------------- Iteration    1(  16)  ---------------------------------------


    POTLOK:  cpu time   15.42: real time   15.47
    SETDIJ:  cpu time    0.01: real time    0.01
     EDDAV:  cpu time   86.34: real time   86.42
       DOS:  cpu time    0.01: real time    0.01
    CHARGE:  cpu time    4.88: real time    4.88
    MIXING:  cpu time    0.02: real time    0.02
    --------------------------------------------
      LOOP:  cpu time  106.68: real time  106.82

 eigenvalue-minimisations  :  8160
 total energy-change (2. order) :-0.3450327E-03  (-0.1371626E-04)
 number of electron     107.9999995 magnetization 
 augmentation part       -9.4397348 magnetization 

 Broyden mixing:
  rms(total) = 0.41306E-03    rms(broyden)= 0.41304E-03
  rms(prec ) = 0.69033E-03
  weight for this iteration     100.00

 eigenvalues of (default mixing * dielectric matrix)
  average eigenvalue GAMMA=   1.6792
  4.5655  2.7400  2.2682  1.7988  1.1266  1.1266  1.1952  0.7253  1.0819  0.9216
  0.9216

 Free energy of the ion-electron system (eV)
  ---------------------------------------------------
  alpha Z        PSCENC =        36.80884744
  Ewald energy   TEWEN  =     11981.43916959
  -Hartree energ DENC   =    -15103.24169216
  -exchange      EXHF   =         0.00000000
  -V(xc)+E(xc)   XCENC  =       -79.52609757
  PAW double counting   =      1189.96876722     -870.01575391
  entropy T*S    EENTRO =        -0.03276454
  eigenvalues    EBANDS =      -616.11710110
  atomic energy  EATOM  =      3354.04126044
  ---------------------------------------------------
  free energy    TOTEN  =      -106.67536457 eV

  energy without entropy =     -106.64260003  energy(sigma->0) =     -106.65898230


--------------------------------------------------------------------------------------------------------




----------------------------------------- Iteration    1(  17)  ---------------------------------------


    POTLOK:  cpu time   15.04: real time   15.05
    SETDIJ:  cpu time    0.01: real time    0.01
     EDDAV:  cpu time   86.73: real time   87.01
       DOS:  cpu time    0.01: real time    0.01
    CHARGE:  cpu time    4.82: real time    4.83
    MIXING:  cpu time    0.02: real time    0.02
    --------------------------------------------
      LOOP:  cpu time  106.64: real time  106.93

 eigenvalue-minimisations  :  8512
 total energy-change (2. order) :-0.3620349E-03  (-0.1218737E-04)
 number of electron     107.9999995 magnetization 
 augmentation part       -9.4396849 magnetization 

 Broyden mixing:
  rms(total) = 0.30446E-03    rms(broyden)= 0.30444E-03
  rms(prec ) = 0.47107E-03
  weight for this iteration     100.00

 eigenvalues of (default mixing * dielectric matrix)
  average eigenvalue GAMMA=   1.7841
  5.6606  2.7719  2.4791  1.8414  1.7278  1.1279  1.1279  0.7251  1.0598  1.0598
  0.9143  0.9143

 Free energy of the ion-electron system (eV)
  ---------------------------------------------------
  alpha Z        PSCENC =        36.80884744
  Ewald energy   TEWEN  =     11981.43916959
  -Hartree energ DENC   =    -15103.60254603
  -exchange      EXHF   =         0.00000000
  -V(xc)+E(xc)   XCENC  =       -79.52434407
  PAW double counting   =      1189.99714570     -870.04478748
  entropy T*S    EENTRO =        -0.03276949
  eigenvalues    EBANDS =      -615.75770272
  atomic energy  EATOM  =      3354.04126044
  ---------------------------------------------------
  free energy    TOTEN  =      -106.67572661 eV

  energy without entropy =     -106.64295712  energy(sigma->0) =     -106.65934187


--------------------------------------------------------------------------------------------------------




----------------------------------------- Iteration    1(  18)  ---------------------------------------


    POTLOK:  cpu time   14.98: real time   15.00
    SETDIJ:  cpu time    0.01: real time    0.01
     EDDAV:  cpu time   81.10: real time   81.19
       DOS:  cpu time    0.01: real time    0.01
    CHARGE:  cpu time    4.99: real time    4.99
    MIXING:  cpu time    0.02: real time    0.02
    --------------------------------------------
      LOOP:  cpu time  101.10: real time  101.22

 eigenvalue-minimisations  :  7752
 total energy-change (2. order) :-0.2315981E-03  (-0.5891029E-05)
 number of electron     107.9999995 magnetization 
 augmentation part       -9.4396422 magnetization 

 Broyden mixing:
  rms(total) = 0.14703E-03    rms(broyden)= 0.14702E-03
  rms(prec ) = 0.26599E-03
  weight for this iteration     100.00

 eigenvalues of (default mixing * dielectric matrix)
  average eigenvalue GAMMA=   1.8011
  6.2171  2.9269  2.5395  1.9235  1.6653  1.1266  1.1266  1.2236  0.7249  1.0664
  1.0664  0.9040  0.9040

 Free energy of the ion-electron system (eV)
  ---------------------------------------------------
  alpha Z        PSCENC =        36.80884744
  Ewald energy   TEWEN  =     11981.43916959
  -Hartree energ DENC   =    -15103.85037269
  -exchange      EXHF   =         0.00000000
  -V(xc)+E(xc)   XCENC  =       -79.52303747
  PAW double counting   =      1190.02362497     -870.07186213
  entropy T*S    EENTRO =        -0.03276623
  eigenvalues    EBANDS =      -615.51082214
  atomic energy  EATOM  =      3354.04126044
  ---------------------------------------------------
  free energy    TOTEN  =      -106.67595821 eV

  energy without entropy =     -106.64319197  energy(sigma->0) =     -106.65957509


--------------------------------------------------------------------------------------------------------




----------------------------------------- Iteration    1(  19)  ---------------------------------------


    POTLOK:  cpu time   14.99: real time   15.06
    SETDIJ:  cpu time    0.01: real time    0.01
     EDDAV:  cpu time   74.52: real time   74.69
       DOS:  cpu time    0.01: real time    0.01
    CHARGE:  cpu time    5.08: real time    5.08
    MIXING:  cpu time    0.02: real time    0.02
    --------------------------------------------
      LOOP:  cpu time   94.63: real time   94.88

 eigenvalue-minimisations  :  6816
 total energy-change (2. order) :-0.3298386E-04  (-0.1340308E-05)
 number of electron     107.9999995 magnetization 
 augmentation part       -9.4396481 magnetization 

 Broyden mixing:
  rms(total) = 0.11592E-03    rms(broyden)= 0.11591E-03
  rms(prec ) = 0.20271E-03
  weight for this iteration     100.00

 eigenvalues of (default mixing * dielectric matrix)
  average eigenvalue GAMMA=   1.8611
  6.6568  3.1333  2.7020  2.2110  1.6600  1.6600  1.1276  1.1276  0.7250  1.0723
  1.0723  1.0872  0.9102  0.9102

 Free energy of the ion-electron system (eV)
  ---------------------------------------------------
  alpha Z        PSCENC =        36.80884744
  Ewald energy   TEWEN  =     11981.43916959
  -Hartree energ DENC   =    -15103.92586218
  -exchange      EXHF   =         0.00000000
  -V(xc)+E(xc)   XCENC  =       -79.52294438
  PAW double counting   =      1190.02291730     -870.07108148
  entropy T*S    EENTRO =        -0.03276689
  eigenvalues    EBANDS =      -615.43553104
  atomic energy  EATOM  =      3354.04126044
  ---------------------------------------------------
  free energy    TOTEN  =      -106.67599119 eV

  energy without entropy =     -106.64322430  energy(sigma->0) =     -106.65960775


--------------------------------------------------------------------------------------------------------




----------------------------------------- Iteration    1(  20)  ---------------------------------------


    POTLOK:  cpu time   15.09: real time   15.11
    SETDIJ:  cpu time    0.01: real time    0.01
     EDDAV:  cpu time   78.89: real time   79.02
       DOS:  cpu time    0.01: real time    0.01
    CHARGE:  cpu time    4.94: real time    4.94
    MIXING:  cpu time    0.02: real time    0.02
    --------------------------------------------
      LOOP:  cpu time   98.97: real time   99.11

 eigenvalue-minimisations  :  7264
 total energy-change (2. order) : 0.2104866E-04  (-0.3613381E-05)
 number of electron     107.9999995 magnetization 
 augmentation part       -9.4396541 magnetization 

 Broyden mixing:
  rms(total) = 0.73044E-04    rms(broyden)= 0.73041E-04
  rms(prec ) = 0.11004E-03
  weight for this iteration     100.00

 eigenvalues of (default mixing * dielectric matrix)
  average eigenvalue GAMMA=   1.8748
  6.8236  3.5827  2.7486  2.4349  1.6845  1.6845  1.1272  1.1272  0.7250  1.1841
  1.1841  0.9078  0.9078  1.0001  1.0001

 Free energy of the ion-electron system (eV)
  ---------------------------------------------------
  alpha Z        PSCENC =        36.80884744
  Ewald energy   TEWEN  =     11981.43916959
  -Hartree energ DENC   =    -15104.01086577
  -exchange      EXHF   =         0.00000000
  -V(xc)+E(xc)   XCENC  =       -79.52288905
  PAW double counting   =      1190.01504688     -870.06296863
  entropy T*S    EENTRO =        -0.03276807
  eigenvalues    EBANDS =      -615.35080298
  atomic energy  EATOM  =      3354.04126044
  ---------------------------------------------------
  free energy    TOTEN  =      -106.67597014 eV

  energy without entropy =     -106.64320207  energy(sigma->0) =     -106.65958611


--------------------------------------------------------------------------------------------------------




----------------------------------------- Iteration    1(  21)  ---------------------------------------


    POTLOK:  cpu time   15.06: real time   15.07
    SETDIJ:  cpu time    0.01: real time    0.01
     EDDAV:  cpu time   69.52: real time   69.62
       DOS:  cpu time    0.01: real time    0.01
    CHARGE:  cpu time    4.83: real time    4.84
    MIXING:  cpu time    0.02: real time    0.02
    --------------------------------------------
      LOOP:  cpu time   89.45: real time   89.58

 eigenvalue-minimisations  :  6352
 total energy-change (2. order) : 0.1219027E-04  (-0.1137415E-05)
 number of electron     107.9999995 magnetization 
 augmentation part       -9.4396539 magnetization 

 Broyden mixing:
  rms(total) = 0.55774E-04    rms(broyden)= 0.55772E-04
  rms(prec ) = 0.75963E-04
  weight for this iteration     100.00

 eigenvalues of (default mixing * dielectric matrix)
  average eigenvalue GAMMA=   2.0389
  7.4254  5.1691  2.8927  2.6020  2.0815  1.7967  1.1284  1.1284  1.3735  1.3735
  0.7250  1.0751  1.0751  0.9099  0.9099  0.9569

 Free energy of the ion-electron system (eV)
  ---------------------------------------------------
  alpha Z        PSCENC =        36.80884744
  Ewald energy   TEWEN  =     11981.43916959
  -Hartree energ DENC   =    -15104.02242545
  -exchange      EXHF   =         0.00000000
  -V(xc)+E(xc)   XCENC  =       -79.52304451
  PAW double counting   =      1190.01250998     -870.06038625
  entropy T*S    EENTRO =        -0.03276851
  eigenvalues    EBANDS =      -615.33912069
  atomic energy  EATOM  =      3354.04126044
  ---------------------------------------------------
  free energy    TOTEN  =      -106.67595795 eV

  energy without entropy =     -106.64318944  energy(sigma->0) =     -106.65957370


--------------------------------------------------------------------------------------------------------




----------------------------------------- Iteration    1(  22)  ---------------------------------------


    POTLOK:  cpu time   15.02: real time   15.03
    SETDIJ:  cpu time    0.01: real time    0.01
     EDDAV:  cpu time   73.99: real time   74.06
       DOS:  cpu time    0.01: real time    0.01
    CHARGE:  cpu time    4.75: real time    4.75
    MIXING:  cpu time    0.02: real time    0.02
    --------------------------------------------
      LOOP:  cpu time   93.79: real time   93.88

 eigenvalue-minimisations  :  6940
 total energy-change (2. order) : 0.7855757E-04  (-0.1914893E-05)
 number of electron     107.9999995 magnetization 
 augmentation part       -9.4396548 magnetization 

 Broyden mixing:
  rms(total) = 0.19046E-04    rms(broyden)= 0.19043E-04
  rms(prec ) = 0.24229E-04
  weight for this iteration     100.00

 eigenvalues of (default mixing * dielectric matrix)
  average eigenvalue GAMMA=   2.0866
  7.8964  6.2357  2.9529  2.6354  2.2549  1.1282  1.1282  1.5089  1.5089  1.3141
  1.3141  0.7250  1.0359  1.0359  0.9049  0.9049  0.9875

 Free energy of the ion-electron system (eV)
  ---------------------------------------------------
  alpha Z        PSCENC =        36.80884744
  Ewald energy   TEWEN  =     11981.43916959
  -Hartree energ DENC   =    -15104.04069304
  -exchange      EXHF   =         0.00000000
  -V(xc)+E(xc)   XCENC  =       -79.52312598
  PAW double counting   =      1190.01053419     -870.05840001
  entropy T*S    EENTRO =        -0.03276875
  eigenvalues    EBANDS =      -615.32070329
  atomic energy  EATOM  =      3354.04126044
  ---------------------------------------------------
  free energy    TOTEN  =      -106.67587939 eV

  energy without entropy =     -106.64311064  energy(sigma->0) =     -106.65949502


--------------------------------------------------------------------------------------------------------




----------------------------------------- Iteration    1(  23)  ---------------------------------------


    POTLOK:  cpu time   15.11: real time   15.13
    SETDIJ:  cpu time    0.01: real time    0.01
     EDDAV:  cpu time   70.78: real time   70.84
       DOS:  cpu time    0.01: real time    0.01
    CHARGE:  cpu time    4.77: real time    4.77
    MIXING:  cpu time    0.02: real time    0.02
    --------------------------------------------
      LOOP:  cpu time   90.70: real time   90.78

 eigenvalue-minimisations  :  6184
 total energy-change (2. order) : 0.1924047E-04  (-0.4292106E-06)
 number of electron     107.9999995 magnetization 
 augmentation part       -9.4396533 magnetization 

 Broyden mixing:
[...]
     31      -3.9960      2.00000
     32      -3.8751      2.00000
     33      -3.8096      2.00000
     34      -3.6299      2.00000
     35      -3.3870      2.00000
     36      -3.3132      2.00000
     37      -3.1571      2.00000
     38      -3.1423      2.00000
     39      -2.8478      2.00000
     40      -2.7327      2.00000
     41      -2.6839      2.00000
     42      -2.6290      2.00000
     43      -2.5297      2.00000
     44      -2.1155      2.00000
     45      -2.0842      2.00000
     46      -1.9642      2.00000
     47      -1.8626      2.00000
     48      -1.6942      2.00000
     49      -1.5439      2.00000
     50      -1.4779      2.00000
     51      -1.1613      2.00000
     52      -1.0578      2.00000
     53      -0.5081      2.00000
     54       0.0143      1.97942
     55       0.5433      0.00000
     56       1.1156      0.00000
     57       1.3705      0.00000
     58       1.4733      0.00000
     59       1.6153      0.00000
     60       1.9341      0.00000
     61       2.0896      0.00000
     62       2.3286      0.00000
     63       2.5117      0.00000
     64       2.6409      0.00000
     65       2.7200      0.00000
     66       2.9492      0.00000
     67       3.0290      0.00000
     68       3.2491      0.00000

 k-point    52 :       0.3077    0.5000    0.5000
  band No.  band energies     occupation 
      1     -13.4555      2.00000
      2     -12.6023      2.00000
      3     -12.2549      2.00000
      4     -12.0544      2.00000
      5     -11.7401      2.00000
      6     -11.5077      2.00000
      7     -11.1301      2.00000
      8     -11.1009      2.00000
      9     -10.9004      2.00000
     10     -10.6109      2.00000
     11     -10.4860      2.00000
     12     -10.2112      2.00000
     13      -9.0146      2.00000
     14      -8.6504      2.00000
     15      -7.8693      2.00000
     16      -7.6227      2.00000
     17      -7.1753      2.00000
     18      -7.1391      2.00000
     19      -7.0600      2.00000
     20      -6.4782      2.00000
     21      -6.3406      2.00000
     22      -6.2724      2.00000
     23      -6.0324      2.00000
     24      -5.9963      2.00000
     25      -5.4497      2.00000
     26      -5.0437      2.00000
     27      -4.9876      2.00000
     28      -4.8078      2.00000
     29      -4.5667      2.00000
     30      -4.4210      2.00000
     31      -4.2720      2.00000
     32      -4.1731      2.00000
     33      -4.1137      2.00000
     34      -3.8983      2.00000
     35      -3.4084      2.00000
     36      -3.3480      2.00000
     37      -3.1849      2.00000
     38      -3.1008      2.00000
     39      -2.9869      2.00000
     40      -2.8981      2.00000
     41      -2.7832      2.00000
     42      -2.6104      2.00000
     43      -2.5179      2.00000
     44      -2.3532      2.00000
     45      -2.0741      2.00000
     46      -2.0132      2.00000
     47      -1.9227      2.00000
     48      -1.8256      2.00000
     49      -1.7974      2.00000
     50      -1.6696      2.00000
     51      -1.4046      2.00000
     52      -1.2426      2.00000
     53      -0.9195      2.00000
     54      -0.1146      1.99996
     55       0.3349      0.02650
     56       0.8873      0.00000
     57       1.1776      0.00000
     58       1.2659      0.00000
     59       1.3167      0.00000
     60       1.5858      0.00000
     61       2.0560      0.00000
     62       2.1334      0.00000
     63       2.2820      0.00000
     64       2.3944      0.00000
     65       2.4667      0.00000
     66       2.6328      0.00000
     67       2.8600      0.00000
     68       3.0307      0.00000

 k-point    53 :       0.3846    0.5000    0.5000
  band No.  band energies     occupation 
      1     -13.1517      2.00000
      2     -12.1261      2.00000
      3     -11.7583      2.00000
      4     -11.6378      2.00000
      5     -11.3487      2.00000
      6     -11.2793      2.00000
      7     -10.8676      2.00000
      8     -10.8276      2.00000
      9     -10.7089      2.00000
     10     -10.5529      2.00000
     11     -10.3927      2.00000
     12      -9.9545      2.00000
     13      -8.9995      2.00000
     14      -8.9410      2.00000
     15      -8.3426      2.00000
     16      -7.8138      2.00000
     17      -7.7064      2.00000
     18      -7.6041      2.00000
     19      -7.4775      2.00000
     20      -6.9925      2.00000
     21      -6.8862      2.00000
     22      -6.8103      2.00000
     23      -6.7507      2.00000
     24      -6.2190      2.00000
     25      -5.3923      2.00000
     26      -5.0673      2.00000
     27      -4.8979      2.00000
     28      -4.7652      2.00000
     29      -4.6301      2.00000
     30      -4.4680      2.00000
     31      -4.2291      2.00000
     32      -4.1348      2.00000
     33      -4.1031      2.00000
     34      -3.7587      2.00000
     35      -3.6215      2.00000
     36      -3.5046      2.00000
     37      -3.2870      2.00000
     38      -3.2343      2.00000
     39      -3.2074      2.00000
     40      -2.9771      2.00000
     41      -2.8779      2.00000
     42      -2.6697      2.00000
     43      -2.5567      2.00000
     44      -2.4075      2.00000
     45      -2.2675      2.00000
     46      -2.1981      2.00000
     47      -2.1538      2.00000
     48      -1.9630      2.00000
     49      -1.7461      2.00000
     50      -1.6622      2.00000
     51      -1.5725      2.00000
     52      -1.3850      2.00000
     53      -1.1009      2.00000
     54      -0.1670      2.00000
     55       0.1984      0.77276
     56       0.6526      0.00000
     57       0.9949      0.00000
     58       1.1915      0.00000
     59       1.3347      0.00000
     60       1.4609      0.00000
     61       1.7418      0.00000
     62       1.9877      0.00000
     63       2.0324      0.00000
     64       2.2013      0.00000
     65       2.2964      0.00000
     66       2.5370      0.00000
     67       2.6246      0.00000
     68       2.7517      0.00000

 k-point    54 :       0.4615    0.5000    0.5000
  band No.  band energies     occupation 
      1     -12.9387      2.00000
      2     -11.5838      2.00000
      3     -11.3918      2.00000
      4     -11.2591      2.00000
      5     -11.0463      2.00000
      6     -10.9852      2.00000
      7     -10.9390      2.00000
      8     -10.8135      2.00000
      9     -10.7132      2.00000
     10     -10.6964      2.00000
     11     -10.4098      2.00000
     12      -9.7400      2.00000
     13      -9.0557      2.00000
     14      -8.7560      2.00000
     15      -8.5335      2.00000
     16      -8.2113      2.00000
     17      -8.1420      2.00000
     18      -7.7017      2.00000
     19      -7.6541      2.00000
     20      -7.4308      2.00000
     21      -7.3795      2.00000
     22      -7.3333      2.00000
     23      -7.2596      2.00000
     24      -6.1645      2.00000
     25      -5.3759      2.00000
     26      -5.0348      2.00000
     27      -4.6742      2.00000
     28      -4.5685      2.00000
     29      -4.4198      2.00000
     30      -4.2945      2.00000
     31      -4.1693      2.00000
     32      -4.1153      2.00000
     33      -4.0344      2.00000
     34      -3.8583      2.00000
     35      -3.7053      2.00000
     36      -3.6518      2.00000
     37      -3.6078      2.00000
     38      -3.3512      2.00000
     39      -3.2292      2.00000
     40      -3.1245      2.00000
     41      -3.0166      2.00000
     42      -2.8360      2.00000
     43      -2.7688      2.00000
     44      -2.4683      2.00000
     45      -2.3164      2.00000
     46      -2.2641      2.00000
     47      -2.1964      2.00000
     48      -1.8950      2.00000
     49      -1.7977      2.00000
     50      -1.6620      2.00000
     51      -1.5838      2.00000
     52      -1.3894      2.00000
     53      -1.1214      2.00000
     54      -0.1975      2.00000
     55       0.1265      1.53407
     56       0.5098      0.00000
     57       0.9012      0.00000
     58       1.2078      0.00000
     59       1.2618      0.00000
     60       1.5078      0.00000
     61       1.5718      0.00000
     62       1.8032      0.00000
     63       1.9600      0.00000
     64       2.1319      0.00000
     65       2.2738      0.00000
     66       2.3977      0.00000
     67       2.5058      0.00000
     68       2.6977      0.00000


--------------------------------------------------------------------------------------------------------


 soft charge-density along one line, spin component           1
         0         1         2         3         4         5         6         7         8         9
 total charge-density along one line
 
 pseudopotential strength for first ion, spin component:           1
 29.802   0.008  -0.001  -0.023   0.000  -0.000  -0.001   0.000
  0.008   0.009   0.000  -0.000   0.000  -0.000   0.000  -0.000
 -0.001   0.000   6.553  -0.001  -0.000  -0.003   0.000   0.000
 -0.023  -0.000  -0.001   6.548  -0.000   0.000  -0.003   0.000
  0.000   0.000  -0.000  -0.000   6.553   0.000   0.000  -0.003
 -0.000  -0.000  -0.003   0.000   0.000   0.015  -0.000  -0.000
 -0.001   0.000   0.000  -0.003   0.000  -0.000   0.015  -0.000
  0.000  -0.000   0.000   0.000  -0.003  -0.000  -0.000   0.015
 total augmentation occupancy for first ion, spin component:           1
  1.812  -0.359   0.006   0.249  -0.001   0.003   0.115  -0.000
 -0.359   1.278   0.022   0.847  -0.003   0.004  -0.432  -0.000
  0.006   0.022   1.145   0.012   0.000  -0.502   0.014  -0.000
  0.249   0.847   0.012   1.287  -0.001   0.013  -0.419  -0.000
 -0.001  -0.003   0.000  -0.001   1.147  -0.000  -0.000  -0.526
  0.003   0.004  -0.502   0.013  -0.000   0.291  -0.015   0.000
  0.115  -0.432   0.014  -0.419  -0.000  -0.015   0.227   0.000
 -0.000  -0.000  -0.000  -0.000  -0.526   0.000   0.000   0.325


------------------------ aborting loop because EDIFF is reached ----------------------------------------


    CHARGE:  cpu time    4.74: real time    4.74
    FORLOC:  cpu time    0.05: real time    0.05
    FORNL :  cpu time   20.53: real time   20.55
    STRESS:  cpu time   62.62: real time   62.66
    FORCOR:  cpu time   15.08: real time   15.11
    FORHAR:  cpu time    0.16: real time    0.16
    MIXING:  cpu time    0.02: real time    0.02
    OFIELD:  cpu time    0.00: real time    0.00

  FORCE on cell =-STRESS in cart. coord.  units (eV):
  Direction    XX          YY          ZZ          XY          YZ          ZX
  --------------------------------------------------------------------------------------
  Alpha Z    36.80885    36.80885    36.80885
  Ewald   14405.70561 13952.47263-16376.74634   -20.61545    65.64236   -82.35903
  Hartree 14930.64941 14592.72609-14419.33084     3.74097    12.76835    -5.79811
  E(xc)    -359.34314  -358.93939  -357.90557     0.37832    -0.52817     0.27182
  Local  -30894.77046-30113.88650 29219.67897     3.49621   -60.90958    59.11154
  n-local  1176.51520  1173.91327  1175.92250    -9.68150    14.69412   -15.49265
  augment  -203.97140  -205.02734  -205.84932    -0.69008     0.73225    -1.43297
  Kinetic   934.75103   942.76453   982.86796     3.47234    -2.74988     9.53823
  Fock        0.00000     0.00000     0.00000     0.00000     0.00000     0.00000
  -------------------------------------------------------------------------------------
  Total      26.34509    20.83214    55.44621   -19.89918    29.64945   -36.16116
  in kB      42.11181    33.29952    88.62904   -31.80822    47.39372   -57.80248
  external pressure =       54.68 kB  Pullay stress =        0.00 kB


 VOLUME and BASIS-vectors are now :
 -----------------------------------------------------------------------------
  energy-cutoff  :      300.00
  volume of cell :     1002.32
      direct lattice vectors                 reciprocal lattice vectors
     3.540400000  0.000000000  0.000000000     0.282453960  0.048570342  0.000000000
    -1.770200000 10.294348000  0.000000000     0.000000000  0.097140683  0.000000000
     0.000000000  0.000000000 27.501429000     0.000000000  0.000000000  0.036361747

  length of vectors
     3.540400000 10.445439617 27.501429000     0.286599577  0.097140683  0.036361747


 FORCES acting on ions
    electron-ion (+dipol)            ewald-force                    non-local-force                 convergence-correction
 -----------------------------------------------------------------------------------------------
   -.337E-01 0.117E+02 0.292E+02   0.953E-02 -.115E+02 -.247E+02   0.584E-01 -.210E+00 -.436E+01   -.715E-08 0.283E-05 -.422E-05
   0.281E+00 0.132E+02 -.565E+03   -.219E+00 -.129E+02 0.568E+03   -.809E-01 -.442E+00 -.350E+01   0.652E-06 -.651E-05 0.257E-04
   -.540E-02 0.631E+02 0.464E+02   0.105E-02 -.646E+02 -.421E+02   0.328E-02 0.156E+01 -.418E+01   0.187E-08 -.417E-06 -.342E-05
   -.601E+00 0.285E+02 -.516E+03   0.589E+00 -.295E+02 0.520E+03   0.109E+00 0.121E+01 -.421E+01   -.112E-06 0.285E-05 0.241E-04
   -.446E-03 -.575E+02 0.526E+03   0.103E-03 0.591E+02 -.531E+03   -.196E-03 -.154E+01 0.429E+01   -.779E-07 -.101E-04 -.108E-04
   -.131E+02 -.107E+03 -.375E+02   0.147E+02 0.109E+03 0.332E+02   -.171E+01 -.172E+01 0.286E+01   -.114E-05 -.883E-05 0.201E-04
   -.153E-02 0.540E+02 0.526E+03   0.159E-04 -.559E+02 -.530E+03   -.167E-02 0.192E+01 0.417E+01   0.290E-07 0.430E-05 -.222E-05
   -.116E+01 0.943E+02 -.845E+02   0.464E+00 -.974E+02 0.814E+02   0.109E-02 0.288E+01 0.435E+01   -.606E-06 0.132E-05 0.165E-04
   0.247E-03 0.190E+01 0.572E+03   -.894E-04 -.211E+01 -.577E+03   0.114E-02 0.207E+00 0.478E+01   -.107E-07 0.683E-05 -.277E-04
   0.446E+01 0.788E+01 -.289E+01   -.307E+01 -.792E+01 0.147E+00   -.175E+01 -.426E+00 0.180E+01   0.363E-05 0.293E-05 0.173E-04
   0.931E-02 -.657E+02 0.609E+02   -.821E-02 0.677E+02 -.567E+02   -.164E-02 -.193E+01 -.406E+01   0.579E-07 0.151E-06 -.547E-05
   0.619E+00 -.425E+02 -.550E+03   -.726E+00 0.453E+02 0.552E+03   -.286E+00 -.349E+01 -.680E+00   0.129E-05 0.152E-05 -.529E-05
   0.356E-02 0.307E+02 0.208E+03   -.141E-03 -.328E+02 -.208E+03   -.233E-05 0.211E+01 0.337E+00   0.114E-07 0.201E-05 0.146E-05
   0.100E+02 -.409E+02 -.258E+03   -.867E+01 0.387E+02 0.258E+03   -.137E+01 0.205E+01 0.587E+00   0.460E-06 -.471E-05 0.154E-04
   -.141E-04 -.121E+02 0.140E+03   0.212E-02 0.124E+02 -.143E+03   -.405E-02 -.275E+00 0.255E+01   -.267E-07 0.229E-05 -.341E-05
   0.437E+01 0.520E+01 -.339E+03   -.340E+01 -.565E+01 0.338E+03   -.344E+00 0.502E+00 0.144E+01   0.250E-06 0.357E-05 0.490E-05
   -.120E-02 -.516E+01 0.346E+03   0.993E-04 0.562E+01 -.344E+03   -.513E-03 -.468E+00 -.251E+01   -.231E-07 -.157E-05 -.952E-05
   -.445E+02 0.166E+02 -.677E+02   0.542E+02 -.234E+02 0.611E+02   0.299E+02 -.237E+02 -.492E+02   -.315E-05 -.922E-06 0.207E-04
   -.602E-02 0.101E+02 0.335E+03   -.147E-04 -.104E+02 -.332E+03   0.350E-02 0.236E+00 -.252E+01   -.192E-07 0.518E-05 -.353E-05
   -.425E+01 0.454E+02 -.143E+03   0.299E+01 -.455E+02 0.144E+03   0.691E+00 -.195E+00 -.108E+01   0.106E-05 0.864E-05 0.148E-04
   0.632E-03 0.126E+02 0.126E+03   -.394E-03 -.130E+02 -.129E+03   -.664E-02 0.378E+00 0.255E+01   -.329E-07 0.206E-05 -.291E-05
   0.341E+00 0.201E+02 -.307E+03   -.291E+00 -.207E+02 0.309E+03   0.359E+00 0.623E+00 -.276E+01   -.223E-06 -.420E-05 0.169E-04
   -.583E-03 -.319E+02 0.254E+03   -.228E-03 0.340E+02 -.254E+03   0.183E-02 -.213E+01 -.360E+00   0.342E-07 -.702E-05 0.182E-05
   0.504E+02 -.539E+02 -.290E+03   -.566E+02 0.612E+02 0.305E+03   -.324E+02 0.241E+02 0.405E+02   0.212E-05 -.623E-05 0.995E-05
 -----------------------------------------------------------------------------------------------
   0.686E+01 -.124E+01 0.921E+01   -.213E-13 0.711E-13 -.114E-12   -.686E+01 0.124E+01 -.921E+01   0.417E-05 -.400E-05 0.111E-03
 
 
 POSITION                                       TOTAL-FORCE (eV/Angst)
 -----------------------------------------------------------------------------------
      0.00000      2.34757      6.41229         0.033997     -0.021975      0.077612
      1.06212      0.28870     14.16300        -0.019124     -0.101724     -0.205174
     -0.00000      9.43147      5.75866        -0.001306     -0.013499      0.085799
      1.06212      7.37260     13.50937         0.096601      0.203466     -0.679936
     -0.00000      6.40009      2.31424        -0.000776     -0.008825      0.012377
     -0.00000      6.40009     10.06495        -0.105532      0.791568     -1.403094
      1.77020     10.27849      2.37372        -0.003416      0.001471     -0.004099
      1.77020     10.27849     10.12443        -0.692909     -0.148348      1.230563
      1.77020      3.18974      1.66157         0.001064      0.000104      0.011837
      1.77020      3.18974      9.41228        -0.351841     -0.467762     -0.948072
      1.77020      5.55354      5.69975        -0.000780      0.006200      0.095805
      2.83232      3.49467     13.45047        -0.392910     -0.650742      0.847917
      1.77020      9.05319      4.34076         0.003183      0.005714      0.008223
     -0.70808      6.99432     12.09147         0.003847     -0.176280      0.871853
      0.00000      4.22380      5.10944        -0.002178      0.027720      0.047425
      1.06212      2.16493     12.86016         0.619276      0.049298      0.490467
     -0.00000      4.15582      2.74166        -0.001846     -0.007092     -0.027877
     -0.00000      4.15582     10.49237        39.574608    -30.478823    -55.818955
      1.77020      1.31366      2.96438        -0.002778     -0.013529     -0.026516
      1.77020      1.31366     10.71510        -0.568992     -0.337606     -0.425399
      1.77020      1.38163      5.33187        -0.006642     -0.042013      0.010507
      1.06212      9.61710     13.08259         0.407926     -0.016292     -0.453818
      1.77020      6.77850      3.73234         0.000779      0.011814     -0.000822
     -0.70808      4.71963     11.48306       -38.590251     31.387154     56.203377
 -----------------------------------------------------------------------------------
    total drift:                                0.005666     -0.000385      0.003294


--------------------------------------------------------------------------------------------------------



  FREE ENERGIE OF THE ION-ELECTRON SYSTEM (eV)
  ---------------------------------------------------
  free  energy   TOTEN  =      -106.67584425 eV

  energy  without entropy=     -106.64307584  energy(sigma->0) =     -106.65946004
 


--------------------------------------------------------------------------------------------------------


    POTLOK:  cpu time   15.03: real time   15.04


--------------------------------------------------------------------------------------------------------


     LOOP+:  cpu time 2900.97: real time 2905.19
    4ORBIT:  cpu time    0.00: real time    0.00

 total amount of memory used by VASP on root node   146493. kBytes
========================================================================

   base      :      30000. kBytes
   nonlr-proj:       3452. kBytes
   fftplans  :       9347. kBytes
   grid      :      14649. kBytes
   one-center:         36. kBytes
   wavefun   :      89009. kBytes
 
  
  
 General timing and accounting informations for this job:
 ========================================================
  
                  Total CPU time used (sec):     2918.293
                            User time (sec):     2877.958
                          System time (sec):       40.335
                         Elapsed time (sec):     2923.488
  
                   Maximum memory used (kb):      335320.
                   Average memory used (kb):           0.
  
                          Minor page faults:      7772004
                          Major page faults:           12
                 Voluntary context switches:         1525
