<?xml version="1.0" encoding="ISO-8859-1"?>
<modeling>
 <generator>
  <i name="program" type="string">vasp </i>
  <i name="version" type="string">5.3.5  </i>
  <i name="subversion" type="string">31Mar14 (build Oct 29 2014 16:16:03) complex                          parallel </i>
  <i name="platform" type="string">Linux-UFHPC </i>
  <i name="date" type="string">2016 02 09 </i>
  <i name="time" type="string">17:26:45 </i>
 </generator>
 <incar>
  <i type="string" name="PREC">accurate</i>
  <i type="int" name="IBRION">     2</i>
  <i name="EDIFF">      0.00000100</i>
  <i type="int" name="NSW">     0</i>
  <i type="int" name="ISIF">     3</i>
  <i name="ENCUT">    300.00000000</i>
  <i type="string" name="LREAL"> Auto</i>
  <i type="int" name="ISMEAR">     0</i>
  <i name="SIGMA">      0.10000000</i>
  <i type="logical" name="LWAVE"> F  </i>
  <i type="logical" name="LCHARG"> F  </i>
  <i type="logical" name="LAECHG"> F  </i>
  <i type="string" name="GGA"> Bo</i>
  <i name="PARAM1">      0.18333333</i>
  <i name="PARAM2">      0.22000000</i>
  <i type="logical" name="LUSE_VDW"> T  </i>
  <i name="AGGAC">      0.00000000</i>
 </incar>
 <kpoints>
  <generation param="Gamma">
   <v type="int" name="divisions">      13        4        2 </v>
   <v name="usershift">      0.00000000       0.00000000       0.00000000 </v>
   <v name="genvec1">      0.07692308      -0.00000000       0.00000000 </v>
   <v name="genvec2">      0.00000000       0.25000000       0.00000000 </v>
   <v name="genvec3">      0.00000000       0.00000000       0.50000000 </v>
   <v name="shift">      0.00000000       0.00000000       0.00000000 </v>
  </generation>
  <varray name="kpointlist" >
   <v>       0.00000000       0.00000000       0.00000000 </v>
   <v>       0.07692308      -0.00000000       0.00000000 </v>
   <v>       0.15384615      -0.00000000       0.00000000 </v>
   <v>       0.23076923      -0.00000000       0.00000000 </v>
   <v>       0.30769231      -0.00000000       0.00000000 </v>
   <v>       0.38461538      -0.00000000       0.00000000 </v>
   <v>       0.46153846      -0.00000000       0.00000000 </v>
   <v>       0.00000000       0.25000000       0.00000000 </v>
   <v>       0.07692308       0.25000000       0.00000000 </v>
   <v>       0.15384615       0.25000000       0.00000000 </v>
   <v>       0.23076923       0.25000000       0.00000000 </v>
   <v>       0.30769231       0.25000000       0.00000000 </v>
   <v>       0.38461538       0.25000000       0.00000000 </v>
   <v>       0.46153846       0.25000000       0.00000000 </v>
   <v>      -0.46153846       0.25000000       0.00000000 </v>
   <v>      -0.38461538       0.25000000       0.00000000 </v>
   <v>      -0.30769231       0.25000000       0.00000000 </v>
   <v>      -0.23076923       0.25000000       0.00000000 </v>
   <v>      -0.15384615       0.25000000       0.00000000 </v>
   <v>      -0.07692308       0.25000000       0.00000000 </v>
   <v>       0.00000000       0.50000000       0.00000000 </v>
   <v>       0.07692308       0.50000000       0.00000000 </v>
   <v>       0.15384615       0.50000000       0.00000000 </v>
   <v>       0.23076923       0.50000000       0.00000000 </v>
   <v>       0.30769231       0.50000000       0.00000000 </v>
   <v>       0.38461538       0.50000000       0.00000000 </v>
   <v>       0.46153846       0.50000000       0.00000000 </v>
   <v>       0.00000000       0.00000000       0.50000000 </v>
   <v>       0.07692308      -0.00000000       0.50000000 </v>
   <v>       0.15384615      -0.00000000       0.50000000 </v>
   <v>       0.23076923      -0.00000000       0.50000000 </v>
   <v>       0.30769231      -0.00000000       0.50000000 </v>
   <v>       0.38461538      -0.00000000       0.50000000 </v>
   <v>       0.46153846      -0.00000000       0.50000000 </v>
   <v>       0.00000000       0.25000000       0.50000000 </v>
   <v>       0.07692308       0.25000000       0.50000000 </v>
   <v>       0.15384615       0.25000000       0.50000000 </v>
   <v>       0.23076923       0.25000000       0.50000000 </v>
   <v>       0.30769231       0.25000000       0.50000000 </v>
   <v>       0.38461538       0.25000000       0.50000000 </v>
   <v>       0.46153846       0.25000000       0.50000000 </v>
   <v>      -0.46153846       0.25000000       0.50000000 </v>
   <v>      -0.38461538       0.25000000       0.50000000 </v>
   <v>      -0.30769231       0.25000000       0.50000000 </v>
   <v>      -0.23076923       0.25000000       0.50000000 </v>
   <v>      -0.15384615       0.25000000       0.50000000 </v>
   <v>      -0.07692308       0.25000000       0.50000000 </v>
   <v>       0.00000000       0.50000000       0.50000000 </v>
   <v>       0.07692308       0.50000000       0.50000000 </v>
   <v>       0.15384615       0.50000000       0.50000000 </v>
   <v>       0.23076923       0.50000000       0.50000000 </v>
   <v>       0.30769231       0.50000000       0.50000000 </v>
   <v>       0.38461538       0.50000000       0.50000000 </v>
   <v>       0.46153846       0.50000000       0.50000000 </v>
  </varray>
  <varray name="weights" >
   <v>       0.00961538 </v>
   <v>       0.01923077 </v>
   <v>       0.01923077 </v>
   <v>       0.01923077 </v>
   <v>       0.01923077 </v>
   <v>       0.01923077 </v>
   <v>       0.01923077 </v>
   <v>       0.01923077 </v>
   <v>       0.01923077 </v>
   <v>       0.01923077 </v>
   <v>       0.01923077 </v>
   <v>       0.01923077 </v>
   <v>       0.01923077 </v>
   <v>       0.01923077 </v>
   <v>       0.01923077 </v>
   <v>       0.01923077 </v>
   <v>       0.01923077 </v>
   <v>       0.01923077 </v>
   <v>       0.01923077 </v>
   <v>       0.01923077 </v>
   <v>       0.00961538 </v>
   <v>       0.01923077 </v>
   <v>       0.01923077 </v>
   <v>       0.01923077 </v>
   <v>       0.01923077 </v>
   <v>       0.01923077 </v>
   <v>       0.01923077 </v>
   <v>       0.00961538 </v>
   <v>       0.01923077 </v>
   <v>       0.01923077 </v>
   <v>       0.01923077 </v>
   <v>       0.01923077 </v>
   <v>       0.01923077 </v>
   <v>       0.01923077 </v>
   <v>       0.01923077 </v>
   <v>       0.01923077 </v>
   <v>       0.01923077 </v>
   <v>       0.01923077 </v>
   <v>       0.01923077 </v>
   <v>       0.01923077 </v>
   <v>       0.01923077 </v>
   <v>       0.01923077 </v>
   <v>       0.01923077 </v>
   <v>       0.01923077 </v>
   <v>       0.01923077 </v>
   <v>       0.01923077 </v>
   <v>       0.01923077 </v>
   <v>       0.00961538 </v>
   <v>       0.01923077 </v>
   <v>       0.01923077 </v>
   <v>       0.01923077 </v>
   <v>       0.01923077 </v>
   <v>       0.01923077 </v>
   <v>       0.01923077 </v>
  </varray>
 </kpoints>
 <parameters>
  <separator name="general" >
   <i type="string" name="SYSTEM">unknown system</i>
   <i type="logical" name="LCOMPAT"> F  </i>
  </separator>
  <separator name="electronic" >
   <i type="string" name="PREC">accura</i>
   <i name="ENMAX">    300.00000000</i>
   <i name="ENAUG">    342.92400000</i>
   <i name="EDIFF">      0.00000100</i>
   <i type="int" name="IALGO">    38</i>
   <i type="int" name="IWAVPR">    10</i>
   <i type="int" name="NBANDS">    68</i>
   <i name="NELECT">    108.00000000</i>
   <i type="int" name="TURBO">     0</i>
   <i type="int" name="IRESTART">     0</i>
   <i type="int" name="NREBOOT">     0</i>
   <i type="int" name="NMIN">     0</i>
   <i name="EREF">      0.00000000</i>
   <separator name="electronic smearing" >
    <i type="int" name="ISMEAR">     0</i>
    <i name="SIGMA">      0.10000000</i>
    <i name="KSPACING">      0.50000000</i>
    <i type="logical" name="KGAMMA"> T  </i>
   </separator>
   <separator name="electronic projectors" >
    <i type="logical" name="LREAL"> T  </i>
    <v name="ROPT">     -0.00025000     -0.00025000</v>
    <i type="int" name="LMAXPAW">  -100</i>
    <i type="int" name="LMAXMIX">     2</i>
    <i type="logical" name="NLSPLINE"> F  </i>
   </separator>
   <separator name="electronic startup" >
    <i type="int" name="ISTART">     0</i>
    <i type="int" name="ICHARG">     2</i>
    <i type="int" name="INIWAV">     1</i>
   </separator>
   <separator name="electronic spin" >
    <i type="int" name="ISPIN">     1</i>
    <i type="logical" name="LNONCOLLINEAR"> F  </i>
    <v name="MAGMOM">      1.00000000      1.00000000      1.00000000      1.00000000      1.00000000      1.00000000      1.00000000      1.00000000      1.00000000      1.00000000      1.00000000      1.00000000      1.00000000      1.00000000      1.00000000      1.00000000      1.00000000      1.00000000      1.00000000      1.00000000
      1.00000000      1.00000000      1.00000000      1.00000000</v>
    <i name="NUPDOWN">     -1.00000000</i>
    <i type="logical" name="LSORBIT"> F  </i>
    <v name="SAXIS">      0.00000000      0.00000000      1.00000000</v>
    <i type="logical" name="LSPIRAL"> F  </i>
    <v name="QSPIRAL">      0.00000000      0.00000000      0.00000000</v>
    <i type="logical" name="LZEROZ"> F  </i>
   </separator>
   <separator name="electronic exchange-correlation" >
    <i type="logical" name="LASPH"> F  </i>
    <i type="logical" name="LMETAGGA"> F  </i>
   </separator>
   <separator name="electronic convergence" >
    <i type="int" name="NELM">    60</i>
    <i type="int" name="NELMDL">    -5</i>
    <i type="int" name="NELMIN">     2</i>
    <i name="ENINI">    300.00000000</i>
    <separator name="electronic convergence detail" >
     <i type="logical" name="LDIAG"> T  </i>
     <i type="logical" name="LSUBROT"> F  </i>
     <i name="WEIMIN">      0.00000000</i>
     <i name="EBREAK">      0.00000000</i>
     <i name="DEPER">      0.30000000</i>
     <i type="int" name="NRMM">     4</i>
     <i name="TIME">      0.40000000</i>
    </separator>
   </separator>
   <separator name="electronic mixer" >
    <i name="AMIX">      0.40000000</i>
    <i name="BMIX">      1.00000000</i>
    <i name="AMIN">      0.10000000</i>
    <i name="AMIX_MAG">      1.60000000</i>
    <i name="BMIX_MAG">      1.00000000</i>
    <separator name="electronic mixer details" >
     <i type="int" name="IMIX">     4</i>
     <i type="int" name="MAXMIX">   -45</i>
     <i name="WC">    100.00000000</i>
     <i type="int" name="INIMIX">     1</i>
     <i type="int" name="MIXPRE">     1</i>
     <i type="int" name="MREMOVE">     5</i>
    </separator>
   </separator>
   <separator name="electronic dipolcorrection" >
    <i type="logical" name="LDIPOL"> F  </i>
    <i type="logical" name="LMONO"> F  </i>
    <i type="int" name="IDIPOL">     0</i>
    <i name="EPSILON">      1.00000000</i>
    <v name="DIPOL">   -100.00000000   -100.00000000   -100.00000000</v>
    <i name="EFIELD">      0.00000000</i>
   </separator>
  </separator>
  <separator name="grids" >
   <i type="int" name="NGX">    20</i>
   <i type="int" name="NGY">    60</i>
   <i type="int" name="NGZ">   160</i>
   <i type="int" name="NGXF">    40</i>
   <i type="int" name="NGYF">   120</i>
   <i type="int" name="NGZF">   320</i>
   <i type="logical" name="ADDGRID"> F  </i>
  </separator>
  <separator name="ionic" >
   <i type="int" name="NSW">     0</i>
   <i type="int" name="IBRION">    -1</i>
   <i type="int" name="ISIF">     3</i>
   <i name="PSTRESS">      0.00000000</i>
   <i name="EDIFFG">      0.00001000</i>
   <i type="int" name="NFREE">     1</i>
   <i name="POTIM">      0.50000000</i>
   <i name="SMASS">     -3.00000000</i>
   <i name="SCALEE">      1.00000000</i>
  </separator>
  <separator name="ionic md" >
   <i name="TEBEG">      0.00010000</i>
   <i name="TEEND">      0.00010000</i>
   <i type="int" name="NBLOCK">     1</i>
   <i type="int" name="KBLOCK">     1</i>
   <i type="int" name="NPACO">   256</i>
   <i name="APACO">     16.00000000</i>
  </separator>
  <separator name="symmetry" >
   <i type="int" name="ISYM">     2</i>
   <i name="SYMPREC">      0.00001000</i>
  </separator>
  <separator name="dos" >
   <i type="logical" name="LORBIT"> F  </i>
   <v name="RWIGS">     -1.00000000     -1.00000000</v>
   <i type="int" name="NEDOS">   301</i>
   <i name="EMIN">     10.00000000</i>
   <i name="EMAX">    -10.00000000</i>
   <i name="EFERMI">      0.00000000</i>
  </separator>
  <separator name="writing" >
   <i type="int" name="NWRITE">     2</i>
   <i type="logical" name="LWAVE"> F  </i>
   <i type="logical" name="LCHARG"> F  </i>
   <i type="logical" name="LPARD"> F  </i>
   <i type="logical" name="LVTOT"> F  </i>
   <i type="logical" name="LVHAR"> F  </i>
   <i type="logical" name="LELF"> F  </i>
   <i type="logical" name="LOPTICS"> F  </i>
   <v name="STM">      0.00000000      0.00000000      0.00000000      0.00000000      0.00000000      0.00000000      0.00000000</v>
  </separator>
  <separator name="performance" >
   <i type="int" name="NPAR">     4</i>
   <i type="int" name="NSIM">     4</i>
   <i type="int" name="NBLK">    -1</i>
   <i type="logical" name="LPLANE"> T  </i>
   <i type="logical" name="LSCALAPACK"> T  </i>
   <i type="logical" name="LSCAAWARE"> F  </i>
   <i type="logical" name="LSCALU"> F  </i>
   <i type="logical" name="LASYNC"> F  </i>
   <i type="logical" name="LORBITALREAL"> F  </i>
  </separator>
  <separator name="miscellaneous" >
   <i type="int" name="IDIOT">     3</i>
   <i type="logical" name="LMUSIC"> F  </i>
   <v name="POMASS">     30.97400000     28.08500000</v>
   <v name="DARWINR">      0.00000000      0.00000000</v>
   <v name="DARWINV">      1.00000000      1.00000000</v>
   <i type="logical" name="LCORR"> T  </i>
  </separator>
  <i type="logical" name="GGA_COMPAT"> T  </i>
  <i type="logical" name="LBERRY"> F  </i>
  <i type="int" name="ICORELEVEL">     0</i>
  <i type="logical" name="LDAU"> F  </i>
  <i type="int" name="I_CONSTRAINED_M">     0</i>
  <separator name="electronic exchange-correlation" >
   <i type="string" name="GGA">BO</i>
   <i type="int" name="VOSKOWN">     0</i>
   <i type="logical" name="LHFCALC"> F  </i>
   <i type="string" name="PRECFOCK"></i>
   <i type="logical" name="LSYMGRAD"> F  </i>
   <i type="logical" name="LHFONE"> F  </i>
   <i type="logical" name="LRHFCALC"> F  </i>
   <i type="logical" name="LTHOMAS"> F  </i>
   <i type="logical" name="LMODELHF"> F  </i>
   <i name="ENCUT4O">     -1.00000000</i>
   <i type="int" name="EXXOEP">     0</i>
   <i type="int" name="FOURORBIT">     0</i>
   <i name="AEXX">      0.00000000</i>
   <i name="HFALPHA">      0.00000000</i>
   <i name="MCALPHA">      0.00000000</i>
   <i name="ALDAX">      1.00000000</i>
   <i name="AGGAX">      1.00000000</i>
   <i name="ALDAC">      1.00000000</i>
   <i name="AGGAC">      0.00000000</i>
   <i type="int" name="NKREDX">     1</i>
   <i type="int" name="NKREDY">     1</i>
   <i type="int" name="NKREDZ">     1</i>
   <i type="logical" name="SHIFTRED"> F  </i>
   <i type="logical" name="ODDONLY"> F  </i>
   <i type="logical" name="EVENONLY"> F  </i>
   <i type="int" name="LMAXFOCK">     0</i>
   <i type="int" name="NMAXFOCKAE">     0</i>
   <i type="logical" name="LFOCKAEDFT"> F  </i>
   <i name="HFSCREEN">      0.00000000</i>
   <i name="HFSCREENC">      0.00000000</i>
   <i type="int" name="NBANDSGWLOW">     0</i>
  </separator>
  <separator name="vdW DFT" >
   <i type="logical" name="LUSE_VDW"> T  </i>
   <i name="Zab_VDW">     -0.84910000</i>
   <i name="PARAM1">      0.18333333</i>
   <i name="PARAM2">      0.22000000</i>
   <i name="PARAM3">      0.00000000</i>
  </separator>
  <separator name="model GW" >
   <i type="int" name="MODEL_GW">     0</i>
   <i name="MODEL_EPS0">     25.05800243</i>
   <i name="MODEL_ALPHA">      1.00000000</i>
  </separator>
  <separator name="linear response parameters" >
   <i type="logical" name="LEPSILON"> F  </i>
   <i type="logical" name="LRPA"> F  </i>
   <i type="logical" name="LNABLA"> F  </i>
   <i type="logical" name="LVEL"> F  </i>
   <i type="int" name="KINTER">     0</i>
   <i name="CSHIFT">      0.10000000</i>
   <i name="OMEGAMAX">     -1.00000000</i>
   <i name="DEG_THRESHOLD">      0.00200000</i>
  </separator>
  <separator name="orbital magnetization" >
   <i type="logical" name="NUCIND"> F  </i>
   <v name="MAGPOS">      0.00000000      0.00000000      0.00000000</v>
   <i type="logical" name="LNICSALL"> T  </i>
   <i type="logical" name="ORBITALMAG"> F  </i>
   <i type="logical" name="LMAGBLOCH"> F  </i>
   <i type="logical" name="LCHIMAG"> F  </i>
   <i type="logical" name="LGAUGE"> T  </i>
   <i type="int" name="MAGATOM">     0</i>
   <v name="MAGDIPOL">      0.00000000      0.00000000      0.00000000</v>
   <v name="AVECCONST">      0.00000000      0.00000000      0.00000000</v>
  </separator>
  <separator name="response functions" >
   <i type="logical" name="LADDER"> F  </i>
   <i type="logical" name="LFXC"> F  </i>
   <i type="logical" name="LHARTREE"> T  </i>
   <i type="int" name="IBSE">     0</i>
   <i type="logical" name="LTCTE"> F  </i>
   <i type="logical" name="LTETE"> F  </i>
   <i type="logical" name="LTRIPLET"> F  </i>
   <i type="logical" name="LFXCEPS"> F  </i>
   <i type="logical" name="LFXHEG"> F  </i>
   <i type="logical" name="L2ORDER"> F  </i>
   <i type="logical" name="LUSEW"> F  </i>
   <i name="ENCUTGW">     -2.00000000</i>
   <i name="ENCUTGWSOFT">     -2.00000000</i>
   <i name="ENCUTLF">     -1.00000000</i>
   <i type="int" name="LMAXMP2">    -1</i>
   <i name="SCISSOR">      0.00000000</i>
   <i type="int" name="NOMEGA">     0</i>
   <i type="int" name="NOMEGAR">     0</i>
   <i type="int" name="NBANDSGW">    -1</i>
   <i type="int" name="NBANDSO">    -1</i>
   <i type="int" name="NBANDSV">    -1</i>
   <i type="int" name="NELM">     1</i>
   <i type="int" name="DIM">     3</i>
   <i type="int" name="ANTIRES">     0</i>
   <i name="OMEGAMAX">    -30.00000000</i>
   <i name="OMEGAMIN">    -30.00000000</i>
   <i name="OMEGATL">   -200.00000000</i>
   <i type="int" name="OMEGAGRID">     0</i>
   <i name="CSHIFT">     -0.10000000</i>
   <i type="logical" name="SELFENERGY"> F  </i>
   <i type="logical" name="LSPECTRAL"> F  </i>
   <i type="logical" name="ODDONLYGW"> F  </i>
   <i type="logical" name="EVENONLYGW"> F  </i>
   <i type="int" name="NKREDLFX">     1</i>
   <i type="int" name="NKREDLFY">     1</i>
   <i type="int" name="NKREDLFZ">     1</i>
   <i type="int" name="MAXMEM">  1800</i>
   <i type="int" name="TELESCOPE">     0</i>
   <i type="int" name="TAUPAR">     1</i>
  </separator>
  <separator name="External order field" >
   <i name="OFIELD_KAPPA">      0.00000000</i>
   <v name="OFIELD_K">      0.00000000      0.00000000      0.00000000</v>
   <i name="OFIELD_Q6_NEAR">      0.00000000</i>
   <i name="OFIELD_Q6_FAR">      0.00000000</i>
   <i name="OFIELD_A">      0.00000000</i>
  </separator>
 </parameters>
 <atominfo>
  <atoms>      24 </atoms>
  <types>       2 </types>
  <array name="atoms" >
   <dimension dim="1">ion</dimension>
   <field type="string">element</field>
   <field type="int">atomtype</field>
   <set>
    <rc><c>P </c><c>   1</c></rc>
    <rc><c>P </c><c>   1</c></rc>
    <rc><c>P </c><c>   1</c></rc>
    <rc><c>P </c><c>   1</c></rc>
    <rc><c>P </c><c>   1</c></rc>
    <rc><c>P </c><c>   1</c></rc>
    <rc><c>P </c><c>   1</c></rc>
    <rc><c>P </c><c>   1</c></rc>
    <rc><c>P </c><c>   1</c></rc>
    <rc><c>P </c><c>   1</c></rc>
    <rc><c>P </c><c>   1</c></rc>
    <rc><c>P </c><c>   1</c></rc>
    <rc><c>Si</c><c>   2</c></rc>
    <rc><c>Si</c><c>   2</c></rc>
    <rc><c>Si</c><c>   2</c></rc>
    <rc><c>Si</c><c>   2</c></rc>
    <rc><c>Si</c><c>   2</c></rc>
    <rc><c>Si</c><c>   2</c></rc>
    <rc><c>Si</c><c>   2</c></rc>
    <rc><c>Si</c><c>   2</c></rc>
    <rc><c>Si</c><c>   2</c></rc>
    <rc><c>Si</c><c>   2</c></rc>
    <rc><c>Si</c><c>   2</c></rc>
    <rc><c>Si</c><c>   2</c></rc>
   </set>
  </array>
  <array name="atomtypes" >
   <dimension dim="1">type</dimension>
   <field type="int">atomspertype</field>
   <field type="string">element</field>
   <field>mass</field>
   <field>valence</field>
   <field type="string">pseudopotential</field>
   <set>
    <rc><c>  12</c><c>P </c><c>     30.97400000</c><c>      5.00000000</c><c>  PAW_PBE P 17Jan2003                   </c></rc>
    <rc><c>  12</c><c>Si</c><c>     28.08500000</c><c>      4.00000000</c><c> PAW_PBE Si 05Jan2001                   </c></rc>
   </set>
  </array>
 </atominfo>
 <structure name="initialpos" >
  <crystal>
   <varray name="basis" >
    <v>       3.54040000       0.00000000       0.00000000 </v>
    <v>      -1.77020000      10.29434800       0.00000000 </v>
    <v>       0.00000000       0.00000000      27.50142900 </v>
   </varray>
   <i name="volume">   1002.32009712 </i>
   <varray name="rec_basis" >
    <v>       0.28245396       0.04857034       0.00000000 </v>
    <v>       0.00000000       0.09714068       0.00000000 </v>
    <v>       0.00000000       0.00000000       0.03636175 </v>
   </varray>
  </crystal>
  <varray name="positions" >
   <v>       0.11402300       0.22804500       0.23316207 </v>
   <v>       0.21402300       0.12804500       0.51499159 </v>
   <v>       0.45808900       0.91617900       0.20939482 </v>
   <v>       0.55808900       0.81617900       0.49122434 </v>
   <v>       0.31085400       0.62170900       0.08414979 </v>
   <v>       0.31085400       0.62170900       0.36597930 </v>
   <v>       0.99923000       0.99846000       0.08631254 </v>
   <v>       0.99923000       0.99846000       0.36814206 </v>
   <v>       0.65492700       0.30985400       0.06041748 </v>
   <v>       0.65492700       0.30985400       0.34224700 </v>
   <v>       0.76973800       0.53947500       0.20725292 </v>
   <v>       0.86973800       0.43947500       0.48908244 </v>
   <v>       0.93971600       0.87943300       0.15783749 </v>
   <v>       0.03971600       0.77943300       0.43966701 </v>
   <v>       0.20515200       0.41030300       0.18578822 </v>
   <v>       0.30515200       0.31030300       0.46761774 </v>
   <v>       0.20184900       0.40369900       0.09969156 </v>
   <v>       0.20184900       0.40369900       0.38152107 </v>
   <v>       0.56380500       0.12761000       0.10779021 </v>
   <v>       0.56380500       0.12761000       0.38961973 </v>
   <v>       0.56710600       0.13421200       0.19387616 </v>
   <v>       0.66710600       0.03421200       0.47570568 </v>
   <v>       0.82923400       0.65846800       0.13571444 </v>
   <v>       0.92923400       0.55846800       0.41754396 </v>
  </varray>
 </structure>
 <calculation>
  <scstep>
   <time name="dav">   62.68   62.71</time>
   <time name="total">   78.90   78.93</time>
   <energy>
    <i name="alphaZ">     36.80884744 </i>
    <i name="ewald">  11905.58860914 </i>
    <i name="hartreedc"> -14961.68381508 </i>
    <i name="XCdc">    -88.18582286 </i>
    <i name="pawpsdc">   1056.43050070 </i>
    <i name="pawaedc">   -732.41190547 </i>
    <i name="eentropy">     -0.04939687 </i>
    <i name="bandstr">    -84.89210679 </i>
    <i name="atom">   3354.04126044 </i>
    <i name="e_fr_energy">    485.64617066 </i>
    <i name="e_wo_entrp">    485.69556753 </i>
    <i name="e_0_energy">    485.67086910 </i>
   </energy>
  </scstep>
  <scstep>
   <time name="dav">   78.49   78.51</time>
   <time name="total">   78.50   78.53</time>
   <energy>
    <i name="e_fr_energy">    -70.16184193 </i>
    <i name="e_wo_entrp">    -70.13808385 </i>
    <i name="e_0_energy">    -70.14996289 </i>
   </energy>
  </scstep>
  <scstep>
   <time name="dav">   72.86   72.94</time>
   <time name="total">   72.87   72.95</time>
   <energy>
    <i name="e_fr_energy">   -125.74155262 </i>
    <i name="e_wo_entrp">   -125.71361831 </i>
    <i name="e_0_energy">   -125.72758546 </i>
   </energy>
  </scstep>
  <scstep>
   <time name="dav">   85.09   85.12</time>
   <time name="total">   85.10   85.14</time>
   <energy>
    <i name="e_fr_energy">   -128.16739931 </i>
    <i name="e_wo_entrp">   -128.13633921 </i>
    <i name="e_0_energy">   -128.15186926 </i>
   </energy>
  </scstep>
  <scstep>
   <time name="dav">   80.66   80.69</time>
   <time name="total">   85.09   85.11</time>
   <energy>
    <i name="e_fr_energy">   -128.22862476 </i>
    <i name="e_wo_entrp">   -128.19748683 </i>
    <i name="e_0_energy">   -128.21305580 </i>
   </energy>
  </scstep>
  <scstep>
   <time name="dav">   71.34   71.36</time>
   <time name="total">   90.35   90.38</time>
   <energy>
    <i name="e_fr_energy">   -126.37822792 </i>
    <i name="e_wo_entrp">   -126.35157867 </i>
    <i name="e_0_energy">   -126.36490330 </i>
   </energy>
  </scstep>
  <scstep>
   <time name="dav">   72.59   72.61</time>
   <time name="total">   91.59   91.62</time>
   <energy>
    <i name="e_fr_energy">   -126.11783866 </i>
    <i name="e_wo_entrp">   -126.08539065 </i>
    <i name="e_0_energy">   -126.10161466 </i>
   </energy>
  </scstep>
  <scstep>
   <time name="dav">   73.39   73.41</time>
   <time name="total">   92.49   92.52</time>
   <energy>
    <i name="e_fr_energy">   -126.11027884 </i>
    <i name="e_wo_entrp">   -126.08125627 </i>
    <i name="e_0_energy">   -126.09576755 </i>
   </energy>
  </scstep>
  <scstep>
   <time name="dav">   75.78   75.95</time>
   <time name="total">   95.02   95.20</time>
   <energy>
    <i name="e_fr_energy">   -126.08756503 </i>
    <i name="e_wo_entrp">   -126.05748428 </i>
    <i name="e_0_energy">   -126.07252465 </i>
   </energy>
  </scstep>
  <scstep>
   <time name="dav">   74.65   74.91</time>
   <time name="total">   93.91   94.35</time>
   <energy>
    <i name="e_fr_energy">   -126.07721266 </i>
    <i name="e_wo_entrp">   -126.04730487 </i>
    <i name="e_0_energy">   -126.06225877 </i>
   </energy>
  </scstep>
  <scstep>
   <time name="dav">   76.50   76.79</time>
   <time name="total">   96.06   96.36</time>
   <energy>
    <i name="e_fr_energy">   -126.07157220 </i>
    <i name="e_wo_entrp">   -126.04161918 </i>
    <i name="e_0_energy">   -126.05659569 </i>
   </energy>
  </scstep>
  <scstep>
   <time name="dav">   77.11   77.14</time>
   <time name="total">   96.43   96.48</time>
   <energy>
    <i name="e_fr_energy">   -126.06778135 </i>
    <i name="e_wo_entrp">   -126.03799715 </i>
    <i name="e_0_energy">   -126.05288925 </i>
   </energy>
  </scstep>
  <scstep>
   <time name="dav">   78.22   78.48</time>
   <time name="total">   97.68   97.99</time>
   <energy>
    <i name="e_fr_energy">   -126.06570244 </i>
    <i name="e_wo_entrp">   -126.03582081 </i>
    <i name="e_0_energy">   -126.05076163 </i>
   </energy>
  </scstep>
  <scstep>
   <time name="dav">   73.91   74.05</time>
   <time name="total">   93.26   93.41</time>
   <energy>
    <i name="e_fr_energy">   -126.06464929 </i>
    <i name="e_wo_entrp">   -126.03482095 </i>
    <i name="e_0_energy">   -126.04973512 </i>
   </energy>
  </scstep>
  <scstep>
   <time name="dav">   68.61   68.71</time>
   <time name="total">   88.00   88.12</time>
   <energy>
    <i name="e_fr_energy">   -126.06466673 </i>
    <i name="e_wo_entrp">   -126.03484084 </i>
    <i name="e_0_energy">   -126.04975379 </i>
   </energy>
  </scstep>
  <scstep>
   <time name="dav">   68.88   69.00</time>
   <time name="total">   88.32   88.53</time>
   <energy>
    <i name="e_fr_energy">   -126.06521555 </i>
    <i name="e_wo_entrp">   -126.03538886 </i>
    <i name="e_0_energy">   -126.05030220 </i>
   </energy>
  </scstep>
  <scstep>
   <time name="dav">   65.29   65.46</time>
   <time name="total">   84.72   85.00</time>
   <energy>
    <i name="e_fr_energy">   -126.06545930 </i>
    <i name="e_wo_entrp">   -126.03564141 </i>
    <i name="e_0_energy">   -126.05055035 </i>
   </energy>
  </scstep>
  <scstep>
   <time name="dav">   62.69   62.83</time>
   <time name="total">   82.34   82.67</time>
   <energy>
    <i name="e_fr_energy">   -126.06554828 </i>
    <i name="e_wo_entrp">   -126.03572939 </i>
    <i name="e_0_energy">   -126.05063883 </i>
   </energy>
  </scstep>
  <scstep>
   <time name="dav">   60.70   60.97</time>
   <time name="total">   80.43   80.73</time>
   <energy>
    <i name="e_fr_energy">   -126.06558820 </i>
    <i name="e_wo_entrp">   -126.03576801 </i>
    <i name="e_0_energy">   -126.05067810 </i>
   </energy>
  </scstep>
  <scstep>
   <time name="dav">   65.29   65.43</time>
   <time name="total">   84.98   85.14</time>
   <energy>
    <i name="e_fr_energy">   -126.06552038 </i>
    <i name="e_wo_entrp">   -126.03570169 </i>
    <i name="e_0_energy">   -126.05061104 </i>
   </energy>
  </scstep>
  <scstep>
   <time name="dav">   60.15   60.24</time>
   <time name="total">   79.70   79.81</time>
   <energy>
    <i name="e_fr_energy">   -126.06551114 </i>
    <i name="e_wo_entrp">   -126.03569252 </i>
    <i name="e_0_energy">   -126.05060183 </i>
   </energy>
  </scstep>
  <scstep>
   <time name="dav">   61.70   61.81</time>
   <time name="total">   82.00   82.14</time>
   <energy>
    <i name="e_fr_energy">   -126.06544529 </i>
    <i name="e_wo_entrp">   -126.03562667 </i>
    <i name="e_0_energy">   -126.05053598 </i>
   </energy>
  </scstep>
  <scstep>
   <time name="dav">   74.64   74.84</time>
   <time name="total">   94.36   94.60</time>
   <energy>
    <i name="e_fr_energy">   -126.06542799 </i>
    <i name="e_wo_entrp">   -126.03560925 </i>
    <i name="e_0_energy">   -126.05051862 </i>
   </energy>
  </scstep>
  <scstep>
   <time name="dav">   58.79   58.93</time>
   <time name="total">   78.38   78.54</time>
   <energy>
    <i name="e_fr_energy">   -126.06541468 </i>
    <i name="e_wo_entrp">   -126.03559594 </i>
    <i name="e_0_energy">   -126.05050531 </i>
   </energy>
  </scstep>
  <scstep>
   <time name="dav">   55.32   55.35</time>
   <time name="total">   74.93   75.08</time>
   <energy>
    <i name="e_fr_energy">   -126.06541673 </i>
    <i name="e_wo_entrp">   -126.03559793 </i>
    <i name="e_0_energy">   -126.05050733 </i>
   </energy>
  </scstep>
  <scstep>
   <time name="dav">   57.64   57.91</time>
   <time name="total">   72.97   73.30</time>
   <energy>
    <i name="alphaZ">     36.80884744 </i>
    <i name="ewald">  11905.58860914 </i>
    <i name="hartreedc"> -15052.37071343 </i>
    <i name="XCdc">    -80.70382991 </i>
    <i name="pawpsdc">   1154.24564738 </i>
    <i name="pawaedc">   -832.92274422 </i>
    <i name="eentropy">     -0.02981869 </i>
    <i name="bandstr">   -610.72267429 </i>
    <i name="atom">   3354.04126044 </i>
    <i name="e_fr_energy">   -126.06541614 </i>
    <i name="e_wo_entrp">   -126.03559745 </i>
    <i name="e_0_energy">   -126.05050680 </i>
   </energy>
  </scstep>
  <structure>
   <crystal>
    <varray name="basis" >
     <v>       3.54040000       0.00000000       0.00000000 </v>
     <v>      -1.77020000      10.29434800       0.00000000 </v>
     <v>       0.00000000       0.00000000      27.50142900 </v>
    </varray>
    <i name="volume">   1002.32009712 </i>
    <varray name="rec_basis" >
     <v>       0.28245396       0.04857034       0.00000000 </v>
     <v>       0.00000000       0.09714068       0.00000000 </v>
     <v>       0.00000000       0.00000000       0.03636175 </v>
    </varray>
   </crystal>
   <varray name="positions" >
    <v>       0.11402300       0.22804500       0.23316207 </v>
    <v>       0.21402300       0.12804500       0.51499159 </v>
    <v>       0.45808900       0.91617900       0.20939482 </v>
    <v>       0.55808900       0.81617900       0.49122434 </v>
    <v>       0.31085400       0.62170900       0.08414979 </v>
    <v>       0.31085400       0.62170900       0.36597930 </v>
    <v>       0.99923000       0.99846000       0.08631254 </v>
    <v>       0.99923000       0.99846000       0.36814206 </v>
    <v>       0.65492700       0.30985400       0.06041748 </v>
    <v>       0.65492700       0.30985400       0.34224700 </v>
    <v>       0.76973800       0.53947500       0.20725292 </v>
    <v>       0.86973800       0.43947500       0.48908244 </v>
    <v>       0.93971600       0.87943300       0.15783749 </v>
    <v>       0.03971600       0.77943300       0.43966701 </v>
    <v>       0.20515200       0.41030300       0.18578822 </v>
    <v>       0.30515200       0.31030300       0.46761774 </v>
    <v>       0.20184900       0.40369900       0.09969156 </v>
    <v>       0.20184900       0.40369900       0.38152107 </v>
    <v>       0.56380500       0.12761000       0.10779021 </v>
    <v>       0.56380500       0.12761000       0.38961973 </v>
    <v>       0.56710600       0.13421200       0.19387616 </v>
    <v>       0.66710600       0.03421200       0.47570568 </v>
    <v>       0.82923400       0.65846800       0.13571444 </v>
    <v>       0.92923400       0.55846800       0.41754396 </v>
   </varray>
  </structure>
  <varray name="forces" >
   <v>       0.02388070      -0.05282194       0.00745167 </v>
   <v>      -0.38896582       0.01612802       0.45884967 </v>
   <v>       0.00105575      -0.01802367       0.08500290 </v>
   <v>      -0.29235676       0.54014318      -0.20198528 </v>
   <v>      -0.00163625      -0.00918373       0.01243341 </v>
   <v>       3.82024285       0.13073927      -2.86016477 </v>
   <v>       0.00317971       0.00278636      -0.00569844 </v>
   <v>       0.71198282      -0.51449890      -0.12906314 </v>
   <v>       0.00138598       0.00232570       0.01678102 </v>
   <v>       0.53645781      -0.01480157      -0.19072706 </v>
   <v>       0.00020836       0.00977993       0.08759623 </v>
   <v>      -0.45233625       0.28330759       0.49727969 </v>
   <v>       0.00266553       0.00734482       0.00634982 </v>
   <v>      -0.62873284       1.03166450       0.34230094 </v>
   <v>      -0.00178746      -0.00045442       0.05907178 </v>
   <v>      -0.24258894       0.19460666      -0.70516714 </v>
   <v>       0.00006202       0.00307631      -0.03036374 </v>
   <v>       1.53500570      -2.31622467      -1.40899912 </v>
   <v>       0.00119793      -0.02092233      -0.01340870 </v>
   <v>       0.05980636      -1.13901513       0.47382861 </v>
   <v>      -0.00505026      -0.02799484       0.01332045 </v>
   <v>      -0.16396425       0.59338210      -0.24659552 </v>
   <v>       0.00230251       0.02651179      -0.00514068 </v>
   <v>      -4.52201520       1.27214497       3.73704740 </v>
  </varray>
  <varray name="stress" >
   <v>      10.48382785      -0.02505068     -20.34567895 </v>
   <v>      -0.02505057      -2.69351879      12.27353269 </v>
   <v>     -20.34567880      12.27353280       6.34556852 </v>
  </varray>
  <energy>
   <i name="e_fr_energy">   -126.06541614 </i>
   <i name="e_wo_entrp">   -126.05050680 </i>
   <i name="e_0_energy">     -0.02981869 </i>
  </energy>
  <time name="totalsc"> 2364.67 2369.01</time>
  <eigenvalues>
   <array>
    <dimension dim="1">band</dimension>
    <dimension dim="2">kpoint</dimension>
    <dimension dim="3">spin</dimension>
    <field>eigene</field>
    <field>occ</field>
    <set>
     <set comment="spin 1">
      <set comment="kpoint 1">
       <r>  -13.9583    1.0000 </r>
       <r>  -13.5672    1.0000 </r>
       <r>  -12.8270    1.0000 </r>
       <r>  -12.7166    1.0000 </r>
       <r>  -12.5159    1.0000 </r>
       <r>  -12.2266    1.0000 </r>
       <r>  -12.1422    1.0000 </r>
       <r>  -12.0824    1.0000 </r>
       <r>  -11.4617    1.0000 </r>
       <r>  -11.2220    1.0000 </r>
       <r>  -11.0189    1.0000 </r>
       <r>  -10.8676    1.0000 </r>
       <r>   -8.0657    1.0000 </r>
       <r>   -7.8607    1.0000 </r>
       <r>   -7.7770    1.0000 </r>
       <r>   -7.1679    1.0000 </r>
       <r>   -6.9166    1.0000 </r>
       <r>   -6.7673    1.0000 </r>
       <r>   -6.5219    1.0000 </r>
       <r>   -6.4656    1.0000 </r>
       <r>   -5.8565    1.0000 </r>
       <r>   -5.6820    1.0000 </r>
       <r>   -4.7733    1.0000 </r>
       <r>   -4.4958    1.0000 </r>
       <r>   -4.0791    1.0000 </r>
       <r>   -3.7403    1.0000 </r>
       <r>   -3.7205    1.0000 </r>
       <r>   -3.4817    1.0000 </r>
       <r>   -3.1331    1.0000 </r>
       <r>   -3.0842    1.0000 </r>
       <r>   -2.8710    1.0000 </r>
       <r>   -2.8650    1.0000 </r>
       <r>   -2.8217    1.0000 </r>
       <r>   -2.5322    1.0000 </r>
       <r>   -2.4819    1.0000 </r>
       <r>   -2.4196    1.0000 </r>
       <r>   -2.3955    1.0000 </r>
       <r>   -2.2320    1.0000 </r>
       <r>   -2.1589    1.0000 </r>
       <r>   -2.0523    1.0000 </r>
       <r>   -1.8681    1.0000 </r>
       <r>   -1.7540    1.0000 </r>
       <r>   -1.7028    1.0000 </r>
       <r>   -1.6703    1.0000 </r>
       <r>   -1.6040    1.0000 </r>
       <r>   -1.5188    1.0000 </r>
       <r>   -1.4593    1.0000 </r>
       <r>   -1.4364    1.0000 </r>
       <r>   -1.2422    1.0000 </r>
       <r>   -1.0355    1.0000 </r>
       <r>   -0.9368    1.0000 </r>
       <r>   -0.4617    1.0000 </r>
       <r>   -0.3636    1.0000 </r>
       <r>    0.1130    0.8839 </r>
       <r>    0.2971    0.0793 </r>
       <r>    0.4929    0.0000 </r>
       <r>    0.6533    0.0000 </r>
       <r>    1.1693    0.0000 </r>
       <r>    1.2863    0.0000 </r>
       <r>    1.5946    0.0000 </r>
       <r>    1.6808    0.0000 </r>
       <r>    1.8990    0.0000 </r>
       <r>    1.9651    0.0000 </r>
       <r>    2.0751    0.0000 </r>
       <r>    2.1765    0.0000 </r>
       <r>    2.4046    0.0000 </r>
       <r>    2.6252    0.0000 </r>
       <r>    2.7334    0.0000 </r>
      </set>
      <set comment="kpoint 2">
       <r>  -13.9040    1.0000 </r>
       <r>  -13.5058    1.0000 </r>
       <r>  -12.7749    1.0000 </r>
       <r>  -12.6635    1.0000 </r>
       <r>  -12.4603    1.0000 </r>
       <r>  -12.1726    1.0000 </r>
       <r>  -12.0808    1.0000 </r>
       <r>  -12.0218    1.0000 </r>
       <r>  -11.4128    1.0000 </r>
       <r>  -11.1764    1.0000 </r>
       <r>  -10.9704    1.0000 </r>
       <r>  -10.8153    1.0000 </r>
       <r>   -8.1003    1.0000 </r>
       <r>   -7.8282    1.0000 </r>
       <r>   -7.7474    1.0000 </r>
       <r>   -7.1839    1.0000 </r>
       <r>   -6.8806    1.0000 </r>
       <r>   -6.7436    1.0000 </r>
       <r>   -6.5175    1.0000 </r>
       <r>   -6.4693    1.0000 </r>
       <r>   -5.8228    1.0000 </r>
       <r>   -5.6539    1.0000 </r>
       <r>   -4.7761    1.0000 </r>
       <r>   -4.4635    1.0000 </r>
       <r>   -4.1091    1.0000 </r>
       <r>   -3.8296    1.0000 </r>
       <r>   -3.7416    1.0000 </r>
       <r>   -3.6036    1.0000 </r>
       <r>   -3.4455    1.0000 </r>
       <r>   -3.3237    1.0000 </r>
       <r>   -3.2684    1.0000 </r>
       <r>   -3.1683    1.0000 </r>
       <r>   -2.9817    1.0000 </r>
       <r>   -2.8498    1.0000 </r>
       <r>   -2.7594    1.0000 </r>
       <r>   -2.6144    1.0000 </r>
       <r>   -2.5032    1.0000 </r>
       <r>   -2.3582    1.0000 </r>
       <r>   -2.2224    1.0000 </r>
       <r>   -2.1448    1.0000 </r>
       <r>   -2.0437    1.0000 </r>
       <r>   -1.9920    1.0000 </r>
       <r>   -1.9208    1.0000 </r>
       <r>   -1.8652    1.0000 </r>
       <r>   -1.8328    1.0000 </r>
       <r>   -1.7360    1.0000 </r>
       <r>   -1.6478    1.0000 </r>
       <r>   -1.5280    1.0000 </r>
       <r>   -1.2470    1.0000 </r>
       <r>   -1.1410    1.0000 </r>
       <r>   -0.9401    1.0000 </r>
       <r>   -0.4539    1.0000 </r>
       <r>   -0.1762    1.0000 </r>
       <r>    0.1477    0.7593 </r>
       <r>    0.4400    0.0003 </r>
       <r>    0.5725    0.0000 </r>
       <r>    0.9609    0.0000 </r>
       <r>    1.5466    0.0000 </r>
       <r>    1.6741    0.0000 </r>
       <r>    1.7612    0.0000 </r>
       <r>    2.1004    0.0000 </r>
       <r>    2.1790    0.0000 </r>
       <r>    2.2437    0.0000 </r>
       <r>    2.3253    0.0000 </r>
       <r>    2.5055    0.0000 </r>
       <r>    2.5812    0.0000 </r>
       <r>    2.7400    0.0000 </r>
       <r>    2.9245    0.0000 </r>
      </set>
      <set comment="kpoint 3">
       <r>  -13.7439    1.0000 </r>
       <r>  -13.3229    1.0000 </r>
       <r>  -12.6192    1.0000 </r>
       <r>  -12.5054    1.0000 </r>
       <r>  -12.2956    1.0000 </r>
       <r>  -12.0128    1.0000 </r>
       <r>  -11.9019    1.0000 </r>
       <r>  -11.8436    1.0000 </r>
       <r>  -11.2709    1.0000 </r>
       <r>  -11.0445    1.0000 </r>
       <r>  -10.8312    1.0000 </r>
       <r>  -10.6624    1.0000 </r>
       <r>   -8.1946    1.0000 </r>
       <r>   -7.7855    1.0000 </r>
       <r>   -7.6959    1.0000 </r>
       <r>   -7.2470    1.0000 </r>
       <r>   -6.8203    1.0000 </r>
       <r>   -6.7231    1.0000 </r>
       <r>   -6.5329    1.0000 </r>
       <r>   -6.4853    1.0000 </r>
       <r>   -5.7478    1.0000 </r>
       <r>   -5.5992    1.0000 </r>
       <r>   -4.8928    1.0000 </r>
       <r>   -4.5923    1.0000 </r>
       <r>   -4.4107    1.0000 </r>
       <r>   -4.2529    1.0000 </r>
       <r>   -4.1225    1.0000 </r>
       <r>   -4.0640    1.0000 </r>
       <r>   -3.9724    1.0000 </r>
       <r>   -3.7681    1.0000 </r>
       <r>   -3.7006    1.0000 </r>
       <r>   -3.5703    1.0000 </r>
       <r>   -3.4161    1.0000 </r>
       <r>   -3.2913    1.0000 </r>
       <r>   -3.1788    1.0000 </r>
       <r>   -3.0061    1.0000 </r>
       <r>   -2.9944    1.0000 </r>
       <r>   -2.9072    1.0000 </r>
       <r>   -2.7446    1.0000 </r>
       <r>   -2.5191    1.0000 </r>
       <r>   -2.4019    1.0000 </r>
       <r>   -2.2424    1.0000 </r>
       <r>   -2.1782    1.0000 </r>
       <r>   -2.0810    1.0000 </r>
       <r>   -1.9951    1.0000 </r>
       <r>   -1.9023    1.0000 </r>
       <r>   -1.7531    1.0000 </r>
       <r>   -1.6644    1.0000 </r>
       <r>   -1.3157    1.0000 </r>
       <r>   -1.2266    1.0000 </r>
       <r>   -0.9393    1.0000 </r>
       <r>   -0.5336    1.0000 </r>
       <r>   -0.2069    1.0000 </r>
       <r>    0.0873    0.9404 </r>
       <r>    0.5645    0.0000 </r>
       <r>    0.7315    0.0000 </r>
       <r>    1.4331    0.0000 </r>
       <r>    1.7786    0.0000 </r>
       <r>    1.9548    0.0000 </r>
       <r>    2.2402    0.0000 </r>
       <r>    2.3911    0.0000 </r>
       <r>    2.5677    0.0000 </r>
       <r>    2.6250    0.0000 </r>
       <r>    2.7525    0.0000 </r>
       <r>    2.9148    0.0000 </r>
       <r>    2.9503    0.0000 </r>
       <r>    3.0401    0.0000 </r>
       <r>    3.0787    0.0000 </r>
      </set>
      <set comment="kpoint 4">
       <r>  -13.4883    1.0000 </r>
       <r>  -13.0219    1.0000 </r>
       <r>  -12.3630    1.0000 </r>
       <r>  -12.2474    1.0000 </r>
       <r>  -12.0289    1.0000 </r>
       <r>  -11.7563    1.0000 </r>
       <r>  -11.6209    1.0000 </r>
       <r>  -11.5609    1.0000 </r>
       <r>  -11.0541    1.0000 </r>
       <r>  -10.8456    1.0000 </r>
       <r>  -10.6275    1.0000 </r>
       <r>  -10.4234    1.0000 </r>
       <r>   -8.3855    1.0000 </r>
       <r>   -7.8532    1.0000 </r>
       <r>   -7.7656    1.0000 </r>
       <r>   -7.3895    1.0000 </r>
       <r>   -6.9832    1.0000 </r>
       <r>   -6.7301    1.0000 </r>
       <r>   -6.6620    1.0000 </r>
       <r>   -6.5086    1.0000 </r>
       <r>   -5.7659    1.0000 </r>
       <r>   -5.6549    1.0000 </r>
       <r>   -5.3653    1.0000 </r>
       <r>   -5.2649    1.0000 </r>
       <r>   -4.8437    1.0000 </r>
       <r>   -4.7018    1.0000 </r>
       <r>   -4.6330    1.0000 </r>
       <r>   -4.5393    1.0000 </r>
       <r>   -4.4590    1.0000 </r>
       <r>   -4.2180    1.0000 </r>
       <r>   -4.1497    1.0000 </r>
       <r>   -3.9284    1.0000 </r>
       <r>   -3.8093    1.0000 </r>
       <r>   -3.7037    1.0000 </r>
       <r>   -3.4988    1.0000 </r>
       <r>   -3.4898    1.0000 </r>
       <r>   -3.2322    1.0000 </r>
       <r>   -3.0672    1.0000 </r>
       <r>   -2.9851    1.0000 </r>
       <r>   -2.7546    1.0000 </r>
       <r>   -2.6114    1.0000 </r>
       <r>   -2.4702    1.0000 </r>
       <r>   -2.3293    1.0000 </r>
       <r>   -2.1977    1.0000 </r>
       <r>   -1.9482    1.0000 </r>
       <r>   -1.8990    1.0000 </r>
       <r>   -1.8078    1.0000 </r>
       <r>   -1.7359    1.0000 </r>
       <r>   -1.4984    1.0000 </r>
       <r>   -1.3293    1.0000 </r>
       <r>   -1.0858    1.0000 </r>
       <r>   -0.7717    1.0000 </r>
       <r>   -0.5633    1.0000 </r>
       <r>   -0.1730    1.0000 </r>
       <r>    0.5948    0.0000 </r>
       <r>    0.7545    0.0000 </r>
       <r>    1.2727    0.0000 </r>
       <r>    1.8280    0.0000 </r>
       <r>    1.8861    0.0000 </r>
       <r>    2.0066    0.0000 </r>
       <r>    2.2574    0.0000 </r>
       <r>    2.3572    0.0000 </r>
       <r>    2.6190    0.0000 </r>
       <r>    2.6894    0.0000 </r>
       <r>    2.8471    0.0000 </r>
       <r>    2.8711    0.0000 </r>
       <r>    2.9891    0.0000 </r>
       <r>    3.1423    0.0000 </r>
      </set>
      <set comment="kpoint 5">
       <r>  -13.1606    1.0000 </r>
       <r>  -12.6101    1.0000 </r>
       <r>  -12.0147    1.0000 </r>
       <r>  -11.9019    1.0000 </r>
       <r>  -11.6769    1.0000 </r>
       <r>  -11.4256    1.0000 </r>
       <r>  -11.2695    1.0000 </r>
       <r>  -11.2071    1.0000 </r>
       <r>  -10.8099    1.0000 </r>
       <r>  -10.6308    1.0000 </r>
       <r>  -10.4412    1.0000 </r>
       <r>  -10.1297    1.0000 </r>
       <r>   -8.6804    1.0000 </r>
       <r>   -8.1326    1.0000 </r>
       <r>   -8.1099    1.0000 </r>
       <r>   -7.7269    1.0000 </r>
       <r>   -7.2038    1.0000 </r>
       <r>   -7.0223    1.0000 </r>
       <r>   -6.9294    1.0000 </r>
       <r>   -6.6870    1.0000 </r>
       <r>   -6.1887    1.0000 </r>
       <r>   -6.1257    1.0000 </r>
       <r>   -5.9902    1.0000 </r>
       <r>   -5.7899    1.0000 </r>
       <r>   -5.2378    1.0000 </r>
       <r>   -5.0208    1.0000 </r>
       <r>   -4.8801    1.0000 </r>
       <r>   -4.8053    1.0000 </r>
       <r>   -4.7240    1.0000 </r>
       <r>   -4.3846    1.0000 </r>
       <r>   -4.3168    1.0000 </r>
       <r>   -4.2340    1.0000 </r>
       <r>   -4.1652    1.0000 </r>
       <r>   -3.8888    1.0000 </r>
       <r>   -3.4424    1.0000 </r>
       <r>   -3.3955    1.0000 </r>
       <r>   -3.1520    1.0000 </r>
       <r>   -3.1088    1.0000 </r>
       <r>   -3.0179    1.0000 </r>
       <r>   -2.9045    1.0000 </r>
       <r>   -2.8012    1.0000 </r>
       <r>   -2.6285    1.0000 </r>
       <r>   -2.4513    1.0000 </r>
       <r>   -2.2748    1.0000 </r>
       <r>   -2.0907    1.0000 </r>
       <r>   -1.9574    1.0000 </r>
       <r>   -1.9101    1.0000 </r>
       <r>   -1.8541    1.0000 </r>
       <r>   -1.7393    1.0000 </r>
       <r>   -1.3930    1.0000 </r>
       <r>   -1.2911    1.0000 </r>
       <r>   -1.1268    1.0000 </r>
       <r>   -0.9426    1.0000 </r>
       <r>   -0.5963    1.0000 </r>
       <r>    0.6246    0.0000 </r>
       <r>    0.7465    0.0000 </r>
       <r>    1.0657    0.0000 </r>
       <r>    1.5692    0.0000 </r>
       <r>    1.7164    0.0000 </r>
       <r>    1.8183    0.0000 </r>
       <r>    1.9881    0.0000 </r>
       <r>    2.1885    0.0000 </r>
       <r>    2.2871    0.0000 </r>
       <r>    2.3356    0.0000 </r>
       <r>    2.6367    0.0000 </r>
       <r>    2.6595    0.0000 </r>
       <r>    2.8008    0.0000 </r>
       <r>    2.9551    0.0000 </r>
      </set>
      <set comment="kpoint 6">
       <r>  -12.8135    1.0000 </r>
       <r>  -12.1018    1.0000 </r>
       <r>  -11.5956    1.0000 </r>
       <r>  -11.5010    1.0000 </r>
       <r>  -11.2778    1.0000 </r>
       <r>  -11.0748    1.0000 </r>
       <r>  -10.9121    1.0000 </r>
       <r>  -10.8677    1.0000 </r>
       <r>  -10.6556    1.0000 </r>
       <r>  -10.5135    1.0000 </r>
       <r>  -10.4815    1.0000 </r>
       <r>   -9.8428    1.0000 </r>
       <r>   -8.8571    1.0000 </r>
       <r>   -8.5909    1.0000 </r>
       <r>   -8.4030    1.0000 </r>
       <r>   -8.1368    1.0000 </r>
       <r>   -7.4884    1.0000 </r>
       <r>   -7.4593    1.0000 </r>
       <r>   -7.4354    1.0000 </r>
       <r>   -7.0792    1.0000 </r>
       <r>   -6.7861    1.0000 </r>
       <r>   -6.6886    1.0000 </r>
       <r>   -6.6708    1.0000 </r>
       <r>   -6.3516    1.0000 </r>
       <r>   -5.2529    1.0000 </r>
       <r>   -5.2297    1.0000 </r>
       <r>   -4.8309    1.0000 </r>
       <r>   -4.6582    1.0000 </r>
       <r>   -4.5547    1.0000 </r>
       <r>   -4.3139    1.0000 </r>
       <r>   -4.2238    1.0000 </r>
       <r>   -4.1144    1.0000 </r>
       <r>   -4.0154    1.0000 </r>
       <r>   -3.6883    1.0000 </r>
       <r>   -3.6794    1.0000 </r>
       <r>   -3.4398    1.0000 </r>
       <r>   -3.2947    1.0000 </r>
       <r>   -3.2233    1.0000 </r>
       <r>   -3.1649    1.0000 </r>
       <r>   -2.9270    1.0000 </r>
       <r>   -2.8176    1.0000 </r>
       <r>   -2.6280    1.0000 </r>
       <r>   -2.6078    1.0000 </r>
       <r>   -2.4840    1.0000 </r>
       <r>   -2.3258    1.0000 </r>
       <r>   -2.1869    1.0000 </r>
       <r>   -2.0570    1.0000 </r>
       <r>   -1.9807    1.0000 </r>
       <r>   -1.8280    1.0000 </r>
       <r>   -1.6186    1.0000 </r>
       <r>   -1.4119    1.0000 </r>
       <r>   -1.3006    1.0000 </r>
       <r>   -1.1449    1.0000 </r>
       <r>   -0.9501    1.0000 </r>
       <r>    0.5413    0.0000 </r>
       <r>    0.7374    0.0000 </r>
       <r>    0.9984    0.0000 </r>
       <r>    1.3801    0.0000 </r>
       <r>    1.5913    0.0000 </r>
       <r>    1.6636    0.0000 </r>
       <r>    1.7543    0.0000 </r>
       <r>    2.0194    0.0000 </r>
       <r>    2.0438    0.0000 </r>
       <r>    2.2086    0.0000 </r>
       <r>    2.2672    0.0000 </r>
       <r>    2.4538    0.0000 </r>
       <r>    2.6632    0.0000 </r>
       <r>    2.7760    0.0000 </r>
      </set>
      <set comment="kpoint 7">
       <r>  -12.5614    1.0000 </r>
       <r>  -11.5280    1.0000 </r>
       <r>  -11.1725    1.0000 </r>
       <r>  -11.1390    1.0000 </r>
       <r>  -10.9718    1.0000 </r>
       <r>  -10.8739    1.0000 </r>
       <r>  -10.8248    1.0000 </r>
       <r>  -10.7526    1.0000 </r>
       <r>  -10.6801    1.0000 </r>
       <r>  -10.6637    1.0000 </r>
       <r>  -10.5717    1.0000 </r>
       <r>   -9.6600    1.0000 </r>
       <r>   -8.9163    1.0000 </r>
       <r>   -8.7145    1.0000 </r>
       <r>   -8.4665    1.0000 </r>
       <r>   -8.2595    1.0000 </r>
       <r>   -8.1051    1.0000 </r>
       <r>   -7.8071    1.0000 </r>
       <r>   -7.5985    1.0000 </r>
       <r>   -7.3144    1.0000 </r>
       <r>   -7.2691    1.0000 </r>
       <r>   -7.2027    1.0000 </r>
       <r>   -7.0465    1.0000 </r>
       <r>   -6.8441    1.0000 </r>
       <r>   -5.1889    1.0000 </r>
       <r>   -4.9421    1.0000 </r>
       <r>   -4.6611    1.0000 </r>
       <r>   -4.5255    1.0000 </r>
       <r>   -4.3019    1.0000 </r>
       <r>   -4.1058    1.0000 </r>
       <r>   -4.0261    1.0000 </r>
       <r>   -3.9713    1.0000 </r>
       <r>   -3.8637    1.0000 </r>
       <r>   -3.8148    1.0000 </r>
       <r>   -3.6954    1.0000 </r>
       <r>   -3.6061    1.0000 </r>
       <r>   -3.4069    1.0000 </r>
       <r>   -3.3360    1.0000 </r>
       <r>   -3.2791    1.0000 </r>
       <r>   -3.0460    1.0000 </r>
       <r>   -2.9825    1.0000 </r>
       <r>   -2.8501    1.0000 </r>
       <r>   -2.7164    1.0000 </r>
       <r>   -2.6467    1.0000 </r>
       <r>   -2.3875    1.0000 </r>
       <r>   -2.2416    1.0000 </r>
       <r>   -2.1522    1.0000 </r>
       <r>   -2.0307    1.0000 </r>
       <r>   -1.8293    1.0000 </r>
       <r>   -1.6848    1.0000 </r>
       <r>   -1.5423    1.0000 </r>
       <r>   -1.4849    1.0000 </r>
       <r>   -1.1915    1.0000 </r>
       <r>   -1.0238    1.0000 </r>
       <r>    0.4576    0.0001 </r>
       <r>    0.6457    0.0000 </r>
       <r>    0.9915    0.0000 </r>
       <r>    1.3405    0.0000 </r>
       <r>    1.5141    0.0000 </r>
       <r>    1.5803    0.0000 </r>
       <r>    1.6767    0.0000 </r>
       <r>    1.8338    0.0000 </r>
       <r>    1.9723    0.0000 </r>
       <r>    2.0216    0.0000 </r>
       <r>    2.2633    0.0000 </r>
       <r>    2.4179    0.0000 </r>
       <r>    2.4617    0.0000 </r>
       <r>    2.5982    0.0000 </r>
      </set>
      <set comment="kpoint 8">
       <r>  -13.9464    1.0000 </r>
       <r>  -13.5119    1.0000 </r>
       <r>  -13.0009    1.0000 </r>
       <r>  -12.8141    1.0000 </r>
       <r>  -12.5139    1.0000 </r>
       <r>  -12.2161    1.0000 </r>
       <r>  -11.9865    1.0000 </r>
       <r>  -11.8903    1.0000 </r>
       <r>  -11.5066    1.0000 </r>
       <r>  -11.2758    1.0000 </r>
       <r>  -11.0275    1.0000 </r>
       <r>  -10.8555    1.0000 </r>
       <r>   -8.5428    1.0000 </r>
       <r>   -7.8682    1.0000 </r>
       <r>   -7.4475    1.0000 </r>
       <r>   -7.3627    1.0000 </r>
       <r>   -6.7372    1.0000 </r>
       <r>   -6.6963    1.0000 </r>
       <r>   -6.6065    1.0000 </r>
       <r>   -6.2494    1.0000 </r>
       <r>   -5.7773    1.0000 </r>
       <r>   -5.5835    1.0000 </r>
       <r>   -4.6713    1.0000 </r>
       <r>   -4.3133    1.0000 </r>
       <r>   -4.1326    1.0000 </r>
       <r>   -4.0377    1.0000 </r>
       <r>   -3.6896    1.0000 </r>
       <r>   -3.6562    1.0000 </r>
       <r>   -3.3644    1.0000 </r>
       <r>   -3.1553    1.0000 </r>
       <r>   -2.9084    1.0000 </r>
       <r>   -2.8598    1.0000 </r>
       <r>   -2.7349    1.0000 </r>
       <r>   -2.5456    1.0000 </r>
       <r>   -2.4266    1.0000 </r>
       <r>   -2.4012    1.0000 </r>
       <r>   -2.3545    1.0000 </r>
       <r>   -2.2349    1.0000 </r>
       <r>   -2.1849    1.0000 </r>
       <r>   -2.1106    1.0000 </r>
       <r>   -1.9886    1.0000 </r>
       <r>   -1.9077    1.0000 </r>
       <r>   -1.7132    1.0000 </r>
       <r>   -1.6570    1.0000 </r>
       <r>   -1.5319    1.0000 </r>
       <r>   -1.4619    1.0000 </r>
       <r>   -1.4189    1.0000 </r>
       <r>   -1.3891    1.0000 </r>
       <r>   -1.1747    1.0000 </r>
       <r>   -1.0194    1.0000 </r>
       <r>   -0.9386    1.0000 </r>
       <r>   -0.6998    1.0000 </r>
       <r>   -0.3733    1.0000 </r>
       <r>    0.1353    0.8103 </r>
       <r>    0.3830    0.0043 </r>
       <r>    0.5232    0.0000 </r>
       <r>    1.0220    0.0000 </r>
       <r>    1.1881    0.0000 </r>
       <r>    1.3641    0.0000 </r>
       <r>    1.6255    0.0000 </r>
       <r>    1.6983    0.0000 </r>
       <r>    1.8352    0.0000 </r>
       <r>    1.9554    0.0000 </r>
       <r>    2.1227    0.0000 </r>
       <r>    2.2330    0.0000 </r>
       <r>    2.5286    0.0000 </r>
       <r>    2.6267    0.0000 </r>
       <r>    2.7796    0.0000 </r>
      </set>
      <set comment="kpoint 9">
       <r>  -13.8899    1.0000 </r>
       <r>  -13.4351    1.0000 </r>
       <r>  -12.9818    1.0000 </r>
       <r>  -12.7752    1.0000 </r>
       <r>  -12.4568    1.0000 </r>
       <r>  -12.1603    1.0000 </r>
       <r>  -11.9038    1.0000 </r>
       <r>  -11.7915    1.0000 </r>
       <r>  -11.4652    1.0000 </r>
       <r>  -11.2368    1.0000 </r>
       <r>  -10.9831    1.0000 </r>
       <r>  -10.8051    1.0000 </r>
       <r>   -8.6011    1.0000 </r>
       <r>   -7.8473    1.0000 </r>
       <r>   -7.4597    1.0000 </r>
       <r>   -7.3404    1.0000 </r>
       <r>   -6.7144    1.0000 </r>
       <r>   -6.6807    1.0000 </r>
       <r>   -6.5445    1.0000 </r>
       <r>   -6.2245    1.0000 </r>
       <r>   -5.7287    1.0000 </r>
       <r>   -5.5446    1.0000 </r>
       <r>   -4.7163    1.0000 </r>
       <r>   -4.3292    1.0000 </r>
       <r>   -4.1407    1.0000 </r>
       <r>   -4.1121    1.0000 </r>
       <r>   -3.8721    1.0000 </r>
       <r>   -3.6804    1.0000 </r>
       <r>   -3.5630    1.0000 </r>
       <r>   -3.4188    1.0000 </r>
       <r>   -3.2202    1.0000 </r>
       <r>   -3.0545    1.0000 </r>
       <r>   -2.9584    1.0000 </r>
       <r>   -2.8310    1.0000 </r>
       <r>   -2.7079    1.0000 </r>
       <r>   -2.6207    1.0000 </r>
       <r>   -2.5102    1.0000 </r>
       <r>   -2.4257    1.0000 </r>
       <r>   -2.3196    1.0000 </r>
       <r>   -2.1905    1.0000 </r>
       <r>   -2.1375    1.0000 </r>
       <r>   -2.0782    1.0000 </r>
       <r>   -2.0228    1.0000 </r>
       <r>   -1.8620    1.0000 </r>
       <r>   -1.7744    1.0000 </r>
       <r>   -1.7253    1.0000 </r>
       <r>   -1.6113    1.0000 </r>
       <r>   -1.3897    1.0000 </r>
       <r>   -1.2569    1.0000 </r>
       <r>   -1.1099    1.0000 </r>
       <r>   -0.9269    1.0000 </r>
       <r>   -0.6291    1.0000 </r>
       <r>   -0.1999    1.0000 </r>
       <r>    0.1775    0.6110 </r>
       <r>    0.4574    0.0001 </r>
       <r>    0.7194    0.0000 </r>
       <r>    1.2270    0.0000 </r>
       <r>    1.5808    0.0000 </r>
       <r>    1.7071    0.0000 </r>
       <r>    1.8345    0.0000 </r>
       <r>    1.9344    0.0000 </r>
       <r>    2.1911    0.0000 </r>
       <r>    2.3669    0.0000 </r>
       <r>    2.4641    0.0000 </r>
       <r>    2.5022    0.0000 </r>
       <r>    2.6305    0.0000 </r>
       <r>    2.8893    0.0000 </r>
       <r>    2.9936    0.0000 </r>
      </set>
      <set comment="kpoint 10">
       <r>  -13.7292    1.0000 </r>
       <r>  -13.2385    1.0000 </r>
       <r>  -12.8453    1.0000 </r>
       <r>  -12.6203    1.0000 </r>
       <r>  -12.2905    1.0000 </r>
       <r>  -11.9971    1.0000 </r>
       <r>  -11.7277    1.0000 </r>
       <r>  -11.5942    1.0000 </r>
       <r>  -11.3258    1.0000 </r>
       <r>  -11.0987    1.0000 </r>
       <r>  -10.8417    1.0000 </r>
       <r>  -10.6566    1.0000 </r>
       <r>   -8.6667    1.0000 </r>
       <r>   -7.8437    1.0000 </r>
       <r>   -7.4376    1.0000 </r>
       <r>   -7.3164    1.0000 </r>
       <r>   -6.6876    1.0000 </r>
       <r>   -6.6281    1.0000 </r>
       <r>   -6.5145    1.0000 </r>
       <r>   -6.3048    1.0000 </r>
       <r>   -5.6814    1.0000 </r>
       <r>   -5.5394    1.0000 </r>
       <r>   -4.8707    1.0000 </r>
       <r>   -4.6884    1.0000 </r>
       <r>   -4.4157    1.0000 </r>
       <r>   -4.3453    1.0000 </r>
       <r>   -4.3189    1.0000 </r>
       <r>   -4.1163    1.0000 </r>
       <r>   -3.9974    1.0000 </r>
       <r>   -3.7436    1.0000 </r>
       <r>   -3.6431    1.0000 </r>
       <r>   -3.4844    1.0000 </r>
       <r>   -3.3678    1.0000 </r>
       <r>   -3.2148    1.0000 </r>
       <r>   -3.1057    1.0000 </r>
       <r>   -2.9932    1.0000 </r>
       <r>   -2.9435    1.0000 </r>
       <r>   -2.8542    1.0000 </r>
       <r>   -2.7298    1.0000 </r>
       <r>   -2.6259    1.0000 </r>
       <r>   -2.4819    1.0000 </r>
       <r>   -2.3824    1.0000 </r>
       <r>   -2.3066    1.0000 </r>
       <r>   -2.1416    1.0000 </r>
       <r>   -1.9987    1.0000 </r>
       <r>   -1.9399    1.0000 </r>
       <r>   -1.8461    1.0000 </r>
       <r>   -1.5151    1.0000 </r>
       <r>   -1.3508    1.0000 </r>
       <r>   -1.1694    1.0000 </r>
       <r>   -0.9162    1.0000 </r>
       <r>   -0.5891    1.0000 </r>
       <r>   -0.2399    1.0000 </r>
       <r>    0.1002    0.9155 </r>
       <r>    0.3891    0.0034 </r>
       <r>    1.0432    0.0000 </r>
       <r>    1.4622    0.0000 </r>
       <r>    1.6439    0.0000 </r>
       <r>    1.9183    0.0000 </r>
       <r>    2.0994    0.0000 </r>
       <r>    2.3221    0.0000 </r>
       <r>    2.6436    0.0000 </r>
       <r>    2.7552    0.0000 </r>
       <r>    2.8354    0.0000 </r>
       <r>    2.9541    0.0000 </r>
       <r>    3.0361    0.0000 </r>
       <r>    3.1039    0.0000 </r>
       <r>    3.2311    0.0000 </r>
      </set>
      <set comment="kpoint 11">
       <r>  -13.4747    1.0000 </r>
       <r>  -12.9272    1.0000 </r>
       <r>  -12.5938    1.0000 </r>
       <r>  -12.3536    1.0000 </r>
       <r>  -12.0227    1.0000 </r>
       <r>  -11.7357    1.0000 </r>
       <r>  -11.4772    1.0000 </r>
       <r>  -11.3179    1.0000 </r>
       <r>  -11.1041    1.0000 </r>
       <r>  -10.8773    1.0000 </r>
       <r>  -10.6241    1.0000 </r>
       <r>  -10.4228    1.0000 </r>
       <r>   -8.7979    1.0000 </r>
       <r>   -7.9903    1.0000 </r>
       <r>   -7.4269    1.0000 </r>
       <r>   -7.3506    1.0000 </r>
       <r>   -6.7514    1.0000 </r>
       <r>   -6.7231    1.0000 </r>
       <r>   -6.6755    1.0000 </r>
       <r>   -6.5221    1.0000 </r>
       <r>   -5.8510    1.0000 </r>
       <r>   -5.7682    1.0000 </r>
       <r>   -5.2414    1.0000 </r>
       <r>   -5.2127    1.0000 </r>
       <r>   -5.0583    1.0000 </r>
       <r>   -4.7905    1.0000 </r>
       <r>   -4.6931    1.0000 </r>
       <r>   -4.5815    1.0000 </r>
       <r>   -4.4279    1.0000 </r>
       <r>   -4.2373    1.0000 </r>
       <r>   -4.0479    1.0000 </r>
       <r>   -3.8178    1.0000 </r>
       <r>   -3.7536    1.0000 </r>
       <r>   -3.5358    1.0000 </r>
       <r>   -3.4068    1.0000 </r>
       <r>   -3.2452    1.0000 </r>
       <r>   -3.1864    1.0000 </r>
       <r>   -3.1177    1.0000 </r>
       <r>   -2.9557    1.0000 </r>
       <r>   -2.8170    1.0000 </r>
       <r>   -2.6707    1.0000 </r>
       <r>   -2.5532    1.0000 </r>
       <r>   -2.3974    1.0000 </r>
       <r>   -2.2637    1.0000 </r>
       <r>   -2.0234    1.0000 </r>
       <r>   -1.9539    1.0000 </r>
       <r>   -1.8685    1.0000 </r>
       <r>   -1.7810    1.0000 </r>
       <r>   -1.4230    1.0000 </r>
       <r>   -1.3727    1.0000 </r>
       <r>   -1.0582    1.0000 </r>
       <r>   -0.7571    1.0000 </r>
       <r>   -0.5838    1.0000 </r>
       <r>   -0.1745    1.0000 </r>
       <r>    0.2650    0.1697 </r>
       <r>    0.9057    0.0000 </r>
       <r>    1.2496    0.0000 </r>
       <r>    1.4443    0.0000 </r>
       <r>    1.5991    0.0000 </r>
       <r>    1.8805    0.0000 </r>
       <r>    2.2206    0.0000 </r>
       <r>    2.5217    0.0000 </r>
       <r>    2.6360    0.0000 </r>
       <r>    2.6818    0.0000 </r>
       <r>    2.8493    0.0000 </r>
       <r>    3.0030    0.0000 </r>
       <r>    3.1083    0.0000 </r>
       <r>    3.2231    0.0000 </r>
      </set>
      <set comment="kpoint 12">
       <r>  -13.1501    1.0000 </r>
       <r>  -12.5106    1.0000 </r>
       <r>  -12.2347    1.0000 </r>
       <r>  -11.9865    1.0000 </r>
       <r>  -11.6712    1.0000 </r>
       <r>  -11.3973    1.0000 </r>
       <r>  -11.1893    1.0000 </r>
       <r>  -11.0046    1.0000 </r>
       <r>  -10.8408    1.0000 </r>
       <r>  -10.6232    1.0000 </r>
       <r>  -10.4181    1.0000 </r>
       <r>  -10.1305    1.0000 </r>
       <r>   -8.9972    1.0000 </r>
       <r>   -8.3311    1.0000 </r>
       <r>   -7.7341    1.0000 </r>
       <r>   -7.4554    1.0000 </r>
       <r>   -7.2274    1.0000 </r>
       <r>   -7.1391    1.0000 </r>
       <r>   -6.9882    1.0000 </r>
       <r>   -6.7655    1.0000 </r>
       <r>   -6.2663    1.0000 </r>
       <r>   -6.1982    1.0000 </r>
       <r>   -5.9452    1.0000 </r>
       <r>   -5.6810    1.0000 </r>
       <r>   -5.4074    1.0000 </r>
       <r>   -5.1853    1.0000 </r>
       <r>   -4.9698    1.0000 </r>
       <r>   -4.8571    1.0000 </r>
       <r>   -4.4952    1.0000 </r>
       <r>   -4.4129    1.0000 </r>
       <r>   -4.3377    1.0000 </r>
       <r>   -4.0613    1.0000 </r>
       <r>   -4.0256    1.0000 </r>
       <r>   -3.5913    1.0000 </r>
       <r>   -3.4203    1.0000 </r>
       <r>   -3.3526    1.0000 </r>
       <r>   -3.0583    1.0000 </r>
       <r>   -3.0203    1.0000 </r>
       <r>   -2.9580    1.0000 </r>
       <r>   -2.8797    1.0000 </r>
       <r>   -2.7820    1.0000 </r>
       <r>   -2.5871    1.0000 </r>
       <r>   -2.5423    1.0000 </r>
       <r>   -2.3832    1.0000 </r>
       <r>   -2.2204    1.0000 </r>
       <r>   -2.0121    1.0000 </r>
       <r>   -1.9422    1.0000 </r>
       <r>   -1.8961    1.0000 </r>
       <r>   -1.7719    1.0000 </r>
       <r>   -1.4851    1.0000 </r>
       <r>   -1.2934    1.0000 </r>
       <r>   -1.1616    1.0000 </r>
       <r>   -0.9366    1.0000 </r>
       <r>   -0.5979    1.0000 </r>
       <r>    0.2820    0.1158 </r>
       <r>    0.7173    0.0000 </r>
       <r>    0.9731    0.0000 </r>
       <r>    1.2123    0.0000 </r>
       <r>    1.2940    0.0000 </r>
       <r>    1.6602    0.0000 </r>
       <r>    2.1291    0.0000 </r>
       <r>    2.2289    0.0000 </r>
       <r>    2.3926    0.0000 </r>
       <r>    2.4559    0.0000 </r>
       <r>    2.5898    0.0000 </r>
       <r>    2.7177    0.0000 </r>
       <r>    2.8776    0.0000 </r>
       <r>    3.0051    0.0000 </r>
      </set>
      <set comment="kpoint 13">
       <r>  -12.8077    1.0000 </r>
       <r>  -12.0071    1.0000 </r>
       <r>  -11.7846    1.0000 </r>
       <r>  -11.5476    1.0000 </r>
       <r>  -11.2753    1.0000 </r>
       <r>  -11.0402    1.0000 </r>
       <r>  -10.9263    1.0000 </r>
       <r>  -10.7473    1.0000 </r>
       <r>  -10.6312    1.0000 </r>
       <r>  -10.4940    1.0000 </r>
       <r>  -10.4671    1.0000 </r>
       <r>   -9.8379    1.0000 </r>
       <r>   -8.9876    1.0000 </r>
       <r>   -8.6595    1.0000 </r>
       <r>   -8.1379    1.0000 </r>
       <r>   -7.9570    1.0000 </r>
       <r>   -7.8059    1.0000 </r>
       <r>   -7.6380    1.0000 </r>
       <r>   -7.3854    1.0000 </r>
       <r>   -7.0929    1.0000 </r>
       <r>   -6.7239    1.0000 </r>
       <r>   -6.6896    1.0000 </r>
       <r>   -6.6456    1.0000 </r>
       <r>   -6.3281    1.0000 </r>
       <r>   -5.3703    1.0000 </r>
       <r>   -5.2382    1.0000 </r>
       <r>   -4.9774    1.0000 </r>
       <r>   -4.8140    1.0000 </r>
       <r>   -4.5231    1.0000 </r>
       <r>   -4.2872    1.0000 </r>
       <r>   -4.1534    1.0000 </r>
       <r>   -3.9319    1.0000 </r>
       <r>   -3.8868    1.0000 </r>
       <r>   -3.5269    1.0000 </r>
       <r>   -3.3833    1.0000 </r>
       <r>   -3.3670    1.0000 </r>
       <r>   -3.2975    1.0000 </r>
       <r>   -3.2025    1.0000 </r>
       <r>   -3.1453    1.0000 </r>
       <r>   -2.9446    1.0000 </r>
       <r>   -2.7573    1.0000 </r>
       <r>   -2.6807    1.0000 </r>
       <r>   -2.5821    1.0000 </r>
       <r>   -2.5332    1.0000 </r>
       <r>   -2.3522    1.0000 </r>
       <r>   -2.2227    1.0000 </r>
       <r>   -2.1079    1.0000 </r>
       <r>   -2.0187    1.0000 </r>
       <r>   -1.8936    1.0000 </r>
       <r>   -1.6950    1.0000 </r>
       <r>   -1.4755    1.0000 </r>
       <r>   -1.4313    1.0000 </r>
       <r>   -1.1970    1.0000 </r>
       <r>   -0.8959    1.0000 </r>
       <r>    0.3299    0.0305 </r>
       <r>    0.6315    0.0000 </r>
       <r>    0.8648    0.0000 </r>
       <r>    1.1779    0.0000 </r>
       <r>    1.2982    0.0000 </r>
       <r>    1.5028    0.0000 </r>
       <r>    1.7958    0.0000 </r>
       <r>    1.9973    0.0000 </r>
       <r>    2.0803    0.0000 </r>
       <r>    2.2909    0.0000 </r>
       <r>    2.5448    0.0000 </r>
       <r>    2.5780    0.0000 </r>
       <r>    2.6487    0.0000 </r>
       <r>    2.7202    0.0000 </r>
      </set>
      <set comment="kpoint 14">
       <r>  -12.5600    1.0000 </r>
       <r>  -11.4573    1.0000 </r>
       <r>  -11.2890    1.0000 </r>
       <r>  -11.1315    1.0000 </r>
       <r>  -10.9847    1.0000 </r>
       <r>  -10.8937    1.0000 </r>
       <r>  -10.8515    1.0000 </r>
       <r>  -10.7238    1.0000 </r>
       <r>  -10.7000    1.0000 </r>
       <r>  -10.6098    1.0000 </r>
       <r>  -10.5414    1.0000 </r>
       <r>   -9.6703    1.0000 </r>
       <r>   -8.7969    1.0000 </r>
       <r>   -8.5816    1.0000 </r>
       <r>   -8.4265    1.0000 </r>
       <r>   -8.3539    1.0000 </r>
       <r>   -8.2440    1.0000 </r>
       <r>   -8.0148    1.0000 </r>
       <r>   -7.5446    1.0000 </r>
       <r>   -7.3443    1.0000 </r>
       <r>   -7.2467    1.0000 </r>
       <r>   -7.1642    1.0000 </r>
       <r>   -7.0455    1.0000 </r>
       <r>   -6.7693    1.0000 </r>
       <r>   -5.1387    1.0000 </r>
       <r>   -5.0437    1.0000 </r>
       <r>   -4.7686    1.0000 </r>
       <r>   -4.5005    1.0000 </r>
       <r>   -4.2565    1.0000 </r>
       <r>   -4.1731    1.0000 </r>
       <r>   -4.0824    1.0000 </r>
       <r>   -3.9645    1.0000 </r>
       <r>   -3.8516    1.0000 </r>
       <r>   -3.6854    1.0000 </r>
       <r>   -3.6574    1.0000 </r>
       <r>   -3.5292    1.0000 </r>
       <r>   -3.4301    1.0000 </r>
       <r>   -3.2918    1.0000 </r>
       <r>   -3.2205    1.0000 </r>
       <r>   -3.0197    1.0000 </r>
       <r>   -2.9530    1.0000 </r>
       <r>   -2.7013    1.0000 </r>
       <r>   -2.6308    1.0000 </r>
       <r>   -2.6161    1.0000 </r>
       <r>   -2.5303    1.0000 </r>
       <r>   -2.2378    1.0000 </r>
       <r>   -2.1608    1.0000 </r>
       <r>   -2.1140    1.0000 </r>
       <r>   -1.8396    1.0000 </r>
       <r>   -1.7082    1.0000 </r>
       <r>   -1.6331    1.0000 </r>
       <r>   -1.5590    1.0000 </r>
       <r>   -1.3547    1.0000 </r>
       <r>   -0.8967    1.0000 </r>
       <r>    0.3291    0.0314 </r>
       <r>    0.6067    0.0000 </r>
       <r>    0.9556    0.0000 </r>
       <r>    1.3762    0.0000 </r>
       <r>    1.4517    0.0000 </r>
       <r>    1.5098    0.0000 </r>
       <r>    1.5433    0.0000 </r>
       <r>    1.7586    0.0000 </r>
       <r>    2.0445    0.0000 </r>
       <r>    2.1927    0.0000 </r>
       <r>    2.3714    0.0000 </r>
       <r>    2.4338    0.0000 </r>
       <r>    2.5417    0.0000 </r>
       <r>    2.5613    0.0000 </r>
      </set>
      <set comment="kpoint 15">
       <r>  -12.5625    1.0000 </r>
       <r>  -11.5616    1.0000 </r>
       <r>  -11.1207    1.0000 </r>
       <r>  -11.0952    1.0000 </r>
       <r>  -10.9575    1.0000 </r>
       <r>  -10.8379    1.0000 </r>
       <r>  -10.8280    1.0000 </r>
       <r>  -10.7807    1.0000 </r>
       <r>  -10.7328    1.0000 </r>
       <r>  -10.7130    1.0000 </r>
       <r>  -10.5552    1.0000 </r>
       <r>   -9.6679    1.0000 </r>
       <r>   -8.9033    1.0000 </r>
       <r>   -8.7831    1.0000 </r>
       <r>   -8.4605    1.0000 </r>
       <r>   -8.2110    1.0000 </r>
       <r>   -7.9704    1.0000 </r>
       <r>   -7.8533    1.0000 </r>
       <r>   -7.6316    1.0000 </r>
       <r>   -7.3799    1.0000 </r>
       <r>   -7.3049    1.0000 </r>
       <r>   -7.2448    1.0000 </r>
       <r>   -7.0654    1.0000 </r>
       <r>   -6.6969    1.0000 </r>
       <r>   -5.1547    1.0000 </r>
       <r>   -4.7594    1.0000 </r>
       <r>   -4.6104    1.0000 </r>
       <r>   -4.5815    1.0000 </r>
       <r>   -4.3885    1.0000 </r>
       <r>   -4.2232    1.0000 </r>
       <r>   -4.0427    1.0000 </r>
       <r>   -4.0289    1.0000 </r>
       <r>   -3.9116    1.0000 </r>
       <r>   -3.8706    1.0000 </r>
       <r>   -3.6812    1.0000 </r>
       <r>   -3.6387    1.0000 </r>
       <r>   -3.5451    1.0000 </r>
       <r>   -3.3784    1.0000 </r>
       <r>   -3.2795    1.0000 </r>
       <r>   -3.0019    1.0000 </r>
       <r>   -2.8326    1.0000 </r>
       <r>   -2.7203    1.0000 </r>
       <r>   -2.6569    1.0000 </r>
       <r>   -2.6122    1.0000 </r>
       <r>   -2.4126    1.0000 </r>
       <r>   -2.2040    1.0000 </r>
       <r>   -2.1965    1.0000 </r>
       <r>   -2.0461    1.0000 </r>
       <r>   -1.7943    1.0000 </r>
       <r>   -1.6996    1.0000 </r>
       <r>   -1.6044    1.0000 </r>
       <r>   -1.5023    1.0000 </r>
       <r>   -1.2982    1.0000 </r>
       <r>   -0.8765    1.0000 </r>
       <r>    0.3525    0.0142 </r>
       <r>    0.6352    0.0000 </r>
       <r>    1.0759    0.0000 </r>
       <r>    1.3365    0.0000 </r>
       <r>    1.5367    0.0000 </r>
       <r>    1.6615    0.0000 </r>
       <r>    1.7206    0.0000 </r>
       <r>    1.7734    0.0000 </r>
       <r>    2.1039    0.0000 </r>
       <r>    2.2151    0.0000 </r>
       <r>    2.3167    0.0000 </r>
       <r>    2.4099    0.0000 </r>
       <r>    2.5390    0.0000 </r>
       <r>    2.5908    0.0000 </r>
      </set>
      <set comment="kpoint 16">
       <r>  -12.8157    1.0000 </r>
       <r>  -12.1283    1.0000 </r>
       <r>  -11.5108    1.0000 </r>
       <r>  -11.4709    1.0000 </r>
       <r>  -11.2760    1.0000 </r>
       <r>  -11.0805    1.0000 </r>
       <r>  -10.9741    1.0000 </r>
       <r>  -10.9401    1.0000 </r>
       <r>  -10.6581    1.0000 </r>
       <r>  -10.4823    1.0000 </r>
       <r>  -10.4766    1.0000 </r>
       <r>   -9.8238    1.0000 </r>
       <r>   -8.7685    1.0000 </r>
       <r>   -8.7067    1.0000 </r>
       <r>   -8.5175    1.0000 </r>
       <r>   -8.0258    1.0000 </r>
       <r>   -7.4699    1.0000 </r>
       <r>   -7.3804    1.0000 </r>
       <r>   -7.3540    1.0000 </r>
       <r>   -7.1762    1.0000 </r>
       <r>   -6.8344    1.0000 </r>
       <r>   -6.7367    1.0000 </r>
       <r>   -6.6923    1.0000 </r>
       <r>   -6.2420    1.0000 </r>
       <r>   -5.2382    1.0000 </r>
       <r>   -5.0766    1.0000 </r>
       <r>   -4.8784    1.0000 </r>
       <r>   -4.7399    1.0000 </r>
       <r>   -4.4417    1.0000 </r>
       <r>   -4.3973    1.0000 </r>
       <r>   -4.2789    1.0000 </r>
       <r>   -4.1185    1.0000 </r>
       <r>   -4.0002    1.0000 </r>
       <r>   -3.7636    1.0000 </r>
       <r>   -3.7476    1.0000 </r>
       <r>   -3.5022    1.0000 </r>
       <r>   -3.4306    1.0000 </r>
       <r>   -3.2055    1.0000 </r>
       <r>   -3.1678    1.0000 </r>
       <r>   -3.0324    1.0000 </r>
       <r>   -2.7696    1.0000 </r>
       <r>   -2.5949    1.0000 </r>
       <r>   -2.5296    1.0000 </r>
       <r>   -2.4235    1.0000 </r>
       <r>   -2.2843    1.0000 </r>
       <r>   -2.1836    1.0000 </r>
       <r>   -1.9790    1.0000 </r>
       <r>   -1.9610    1.0000 </r>
       <r>   -1.8067    1.0000 </r>
       <r>   -1.6526    1.0000 </r>
       <r>   -1.4501    1.0000 </r>
       <r>   -1.3773    1.0000 </r>
       <r>   -1.0801    1.0000 </r>
       <r>   -0.8417    1.0000 </r>
       <r>    0.3992    0.0022 </r>
       <r>    0.7600    0.0000 </r>
       <r>    1.1255    0.0000 </r>
       <r>    1.3481    0.0000 </r>
       <r>    1.6349    0.0000 </r>
       <r>    1.7476    0.0000 </r>
       <r>    1.8702    0.0000 </r>
       <r>    2.0821    0.0000 </r>
       <r>    2.2175    0.0000 </r>
       <r>    2.2908    0.0000 </r>
       <r>    2.3746    0.0000 </r>
       <r>    2.4564    0.0000 </r>
       <r>    2.5682    0.0000 </r>
       <r>    2.6479    0.0000 </r>
      </set>
      <set comment="kpoint 17">
       <r>  -13.1620    1.0000 </r>
       <r>  -12.6224    1.0000 </r>
       <r>  -11.9731    1.0000 </r>
       <r>  -11.8870    1.0000 </r>
       <r>  -11.6762    1.0000 </r>
       <r>  -11.4073    1.0000 </r>
       <r>  -11.3229    1.0000 </r>
       <r>  -11.2530    1.0000 </r>
       <r>  -10.8017    1.0000 </r>
       <r>  -10.6119    1.0000 </r>
       <r>  -10.4472    1.0000 </r>
       <r>  -10.1135    1.0000 </r>
       <r>   -8.5813    1.0000 </r>
       <r>   -8.2859    1.0000 </r>
       <r>   -8.2133    1.0000 </r>
       <r>   -7.5682    1.0000 </r>
       <r>   -7.1460    1.0000 </r>
       <r>   -7.0258    1.0000 </r>
       <r>   -6.9009    1.0000 </r>
       <r>   -6.6929    1.0000 </r>
       <r>   -6.2224    1.0000 </r>
       <r>   -6.1809    1.0000 </r>
       <r>   -5.9996    1.0000 </r>
       <r>   -5.7589    1.0000 </r>
       <r>   -5.1783    1.0000 </r>
       <r>   -5.0741    1.0000 </r>
       <r>   -4.9163    1.0000 </r>
       <r>   -4.7696    1.0000 </r>
       <r>   -4.6671    1.0000 </r>
       <r>   -4.3993    1.0000 </r>
       <r>   -4.3188    1.0000 </r>
       <r>   -4.2654    1.0000 </r>
       <r>   -4.1489    1.0000 </r>
       <r>   -3.9224    1.0000 </r>
       <r>   -3.5037    1.0000 </r>
       <r>   -3.4627    1.0000 </r>
       <r>   -3.1626    1.0000 </r>
       <r>   -3.1130    1.0000 </r>
       <r>   -3.0734    1.0000 </r>
       <r>   -2.8780    1.0000 </r>
       <r>   -2.8015    1.0000 </r>
       <r>   -2.6307    1.0000 </r>
       <r>   -2.3697    1.0000 </r>
       <r>   -2.2097    1.0000 </r>
       <r>   -2.0479    1.0000 </r>
       <r>   -1.9472    1.0000 </r>
       <r>   -1.8898    1.0000 </r>
       <r>   -1.8451    1.0000 </r>
       <r>   -1.7295    1.0000 </r>
       <r>   -1.4932    1.0000 </r>
       <r>   -1.3182    1.0000 </r>
       <r>   -1.1855    1.0000 </r>
       <r>   -0.8067    1.0000 </r>
       <r>   -0.5800    1.0000 </r>
       <r>    0.3814    0.0046 </r>
       <r>    0.9409    0.0000 </r>
       <r>    1.2086    0.0000 </r>
       <r>    1.5612    0.0000 </r>
       <r>    1.6819    0.0000 </r>
       <r>    1.9072    0.0000 </r>
       <r>    1.9669    0.0000 </r>
       <r>    2.2212    0.0000 </r>
       <r>    2.2919    0.0000 </r>
       <r>    2.4166    0.0000 </r>
       <r>    2.6306    0.0000 </r>
       <r>    2.7196    0.0000 </r>
       <r>    2.7636    0.0000 </r>
       <r>    2.9156    0.0000 </r>
      </set>
      <set comment="kpoint 18">
       <r>  -13.4870    1.0000 </r>
       <r>  -13.0176    1.0000 </r>
       <r>  -12.3776    1.0000 </r>
       <r>  -12.2597    1.0000 </r>
       <r>  -12.0285    1.0000 </r>
       <r>  -11.7379    1.0000 </r>
       <r>  -11.6254    1.0000 </r>
       <r>  -11.5481    1.0000 </r>
       <r>  -11.0578    1.0000 </r>
       <r>  -10.8433    1.0000 </r>
       <r>  -10.6261    1.0000 </r>
       <r>  -10.4130    1.0000 </r>
       <r>   -8.4256    1.0000 </r>
       <r>   -7.9380    1.0000 </r>
       <r>   -7.8084    1.0000 </r>
       <r>   -7.2151    1.0000 </r>
       <r>   -6.9739    1.0000 </r>
       <r>   -6.7194    1.0000 </r>
       <r>   -6.6651    1.0000 </r>
       <r>   -6.4459    1.0000 </r>
       <r>   -5.7679    1.0000 </r>
       <r>   -5.7296    1.0000 </r>
       <r>   -5.3638    1.0000 </r>
       <r>   -5.3276    1.0000 </r>
       <r>   -4.8628    1.0000 </r>
       <r>   -4.7474    1.0000 </r>
       <r>   -4.6287    1.0000 </r>
       <r>   -4.5418    1.0000 </r>
       <r>   -4.3870    1.0000 </r>
       <r>   -4.2020    1.0000 </r>
       <r>   -4.0796    1.0000 </r>
       <r>   -3.9341    1.0000 </r>
       <r>   -3.8192    1.0000 </r>
       <r>   -3.7710    1.0000 </r>
       <r>   -3.4895    1.0000 </r>
       <r>   -3.4734    1.0000 </r>
       <r>   -3.2304    1.0000 </r>
       <r>   -3.0871    1.0000 </r>
       <r>   -2.9972    1.0000 </r>
       <r>   -2.7292    1.0000 </r>
       <r>   -2.5939    1.0000 </r>
       <r>   -2.4793    1.0000 </r>
       <r>   -2.4221    1.0000 </r>
       <r>   -2.0962    1.0000 </r>
       <r>   -1.9425    1.0000 </r>
       <r>   -1.8740    1.0000 </r>
       <r>   -1.8114    1.0000 </r>
       <r>   -1.7188    1.0000 </r>
       <r>   -1.4942    1.0000 </r>
       <r>   -1.3694    1.0000 </r>
       <r>   -1.0863    1.0000 </r>
       <r>   -0.8384    1.0000 </r>
       <r>   -0.4888    1.0000 </r>
       <r>   -0.1490    1.0000 </r>
       <r>    0.2881    0.0999 </r>
       <r>    1.0656    0.0000 </r>
       <r>    1.3702    0.0000 </r>
       <r>    1.7228    0.0000 </r>
       <r>    1.8282    0.0000 </r>
       <r>    1.9849    0.0000 </r>
       <r>    2.2232    0.0000 </r>
       <r>    2.3361    0.0000 </r>
       <r>    2.5941    0.0000 </r>
       <r>    2.7066    0.0000 </r>
       <r>    2.8574    0.0000 </r>
       <r>    2.9014    0.0000 </r>
       <r>    2.9510    0.0000 </r>
       <r>    3.0771    0.0000 </r>
      </set>
      <set comment="kpoint 19">
       <r>  -13.7390    1.0000 </r>
       <r>  -13.3014    1.0000 </r>
       <r>  -12.6929    1.0000 </r>
       <r>  -12.5494    1.0000 </r>
       <r>  -12.2951    1.0000 </r>
[...]
       <r>    2.7870    0.0000 </r>
      </set>
      <set comment="kpoint 54">
       <r>  -12.5612    1.0000 </r>
       <r>  -11.5166    1.0000 </r>
       <r>  -11.1944    1.0000 </r>
       <r>  -11.1106    1.0000 </r>
       <r>  -10.9746    1.0000 </r>
       <r>  -10.8803    1.0000 </r>
       <r>  -10.8587    1.0000 </r>
       <r>  -10.7467    1.0000 </r>
       <r>  -10.7223    1.0000 </r>
       <r>  -10.6505    1.0000 </r>
       <r>  -10.5328    1.0000 </r>
       <r>   -9.6777    1.0000 </r>
       <r>   -8.7789    1.0000 </r>
       <r>   -8.6918    1.0000 </r>
       <r>   -8.4671    1.0000 </r>
       <r>   -8.1783    1.0000 </r>
       <r>   -8.1449    1.0000 </r>
       <r>   -8.0759    1.0000 </r>
       <r>   -7.5883    1.0000 </r>
       <r>   -7.3838    1.0000 </r>
       <r>   -7.3139    1.0000 </r>
       <r>   -7.1954    1.0000 </r>
       <r>   -7.0213    1.0000 </r>
       <r>   -6.6489    1.0000 </r>
       <r>   -5.0840    1.0000 </r>
       <r>   -4.9701    1.0000 </r>
       <r>   -4.7606    1.0000 </r>
       <r>   -4.5064    1.0000 </r>
       <r>   -4.3302    1.0000 </r>
       <r>   -4.2156    1.0000 </r>
       <r>   -4.1007    1.0000 </r>
       <r>   -3.9821    1.0000 </r>
       <r>   -3.8652    1.0000 </r>
       <r>   -3.7942    1.0000 </r>
       <r>   -3.6732    1.0000 </r>
       <r>   -3.5873    1.0000 </r>
       <r>   -3.4849    1.0000 </r>
       <r>   -3.2825    1.0000 </r>
       <r>   -3.1822    1.0000 </r>
       <r>   -3.0407    1.0000 </r>
       <r>   -2.9583    1.0000 </r>
       <r>   -2.7279    1.0000 </r>
       <r>   -2.5793    1.0000 </r>
       <r>   -2.4694    1.0000 </r>
       <r>   -2.4073    1.0000 </r>
       <r>   -2.2421    1.0000 </r>
       <r>   -2.1889    1.0000 </r>
       <r>   -2.0491    1.0000 </r>
       <r>   -1.9202    1.0000 </r>
       <r>   -1.7493    1.0000 </r>
       <r>   -1.6525    1.0000 </r>
       <r>   -1.5443    1.0000 </r>
       <r>   -1.3739    1.0000 </r>
       <r>   -0.8407    1.0000 </r>
       <r>    0.1792    0.6017 </r>
       <r>    0.6336    0.0000 </r>
       <r>    1.0422    0.0000 </r>
       <r>    1.3193    0.0000 </r>
       <r>    1.4925    0.0000 </r>
       <r>    1.6011    0.0000 </r>
       <r>    1.6747    0.0000 </r>
       <r>    1.8520    0.0000 </r>
       <r>    2.0172    0.0000 </r>
       <r>    2.2174    0.0000 </r>
       <r>    2.3278    0.0000 </r>
       <r>    2.3752    0.0000 </r>
       <r>    2.4687    0.0000 </r>
       <r>    2.6562    0.0000 </r>
      </set>
     </set>
    </set>
   </array>
  </eigenvalues>
  <separator name="orbital magnetization" >
   <v name="MAGDIPOLOUT">      0.00000000      0.00000000      0.00000000</v>
  </separator>
  <dos>
   <i name="efermi">      0.19746135 </i>
   <total>
    <array>
     <dimension dim="1">gridpoints</dimension>
     <dimension dim="2">spin</dimension>
     <field>energy</field>
     <field>total</field>
     <field>integrated</field>
     <set>
      <set comment="spin 1">
       <r>   -14.9583     0.0000     0.0000 </r>
       <r>   -14.8943     0.0000     0.0000 </r>
       <r>   -14.8303     0.0000     0.0000 </r>
       <r>   -14.7664     0.0000     0.0000 </r>
       <r>   -14.7024     0.0000     0.0000 </r>
       <r>   -14.6384     0.0000     0.0000 </r>
       <r>   -14.5745     0.0000     0.0000 </r>
       <r>   -14.5105     0.0000     0.0000 </r>
       <r>   -14.4465     0.0000     0.0000 </r>
       <r>   -14.3826     0.0000     0.0000 </r>
       <r>   -14.3186     0.0000     0.0000 </r>
       <r>   -14.2547     0.0000     0.0000 </r>
       <r>   -14.1907     0.0008     0.0001 </r>
       <r>   -14.1267     0.0152     0.0010 </r>
       <r>   -14.0628     0.1471     0.0104 </r>
       <r>   -13.9988     0.7177     0.0563 </r>
       <r>   -13.9348     1.8151     0.1724 </r>
       <r>   -13.8709     2.4711     0.3305 </r>
       <r>   -13.8069     2.1716     0.4694 </r>
       <r>   -13.7429     1.9565     0.5946 </r>
       <r>   -13.6790     1.7362     0.7056 </r>
       <r>   -13.6150     1.2499     0.7856 </r>
       <r>   -13.5510     1.7391     0.8968 </r>
       <r>   -13.4871     3.1590     1.0989 </r>
       <r>   -13.4231     3.5934     1.3287 </r>
       <r>   -13.3592     2.7540     1.5049 </r>
       <r>   -13.2952     2.1558     1.6428 </r>
       <r>   -13.2312     2.3382     1.7923 </r>
       <r>   -13.1673     2.9746     1.9826 </r>
       <r>   -13.1033     3.0818     2.1797 </r>
       <r>   -13.0393     2.7378     2.3548 </r>
       <r>   -12.9754     3.0140     2.5476 </r>
       <r>   -12.9114     3.7937     2.7903 </r>
       <r>   -12.8474     4.7240     3.0925 </r>
       <r>   -12.7835     5.2104     3.4257 </r>
       <r>   -12.7195     4.7708     3.7309 </r>
       <r>   -12.6555     4.8615     4.0419 </r>
       <r>   -12.5916     6.1566     4.4357 </r>
       <r>   -12.5276     6.9183     4.8782 </r>
       <r>   -12.4636     6.0822     5.2673 </r>
       <r>   -12.3997     4.7049     5.5682 </r>
       <r>   -12.3357     4.2946     5.8429 </r>
       <r>   -12.2718     4.8545     6.1534 </r>
       <r>   -12.2078     5.4441     6.5016 </r>
       <r>   -12.1438     5.7246     6.8678 </r>
       <r>   -12.0799     6.4178     7.2783 </r>
       <r>   -12.0159     8.0069     7.7905 </r>
       <r>   -11.9519     8.5513     8.3375 </r>
       <r>   -11.8880     7.2599     8.8018 </r>
       <r>   -11.8240     6.1105     9.1927 </r>
       <r>   -11.7600     6.1007     9.5829 </r>
       <r>   -11.6961     6.7849    10.0169 </r>
       <r>   -11.6321     7.1216    10.4724 </r>
       <r>   -11.5681     7.6076    10.9591 </r>
       <r>   -11.5042     8.7437    11.5184 </r>
       <r>   -11.4402     8.7632    12.0789 </r>
       <r>   -11.3762     7.7499    12.5746 </r>
       <r>   -11.3123     8.2497    13.1023 </r>
       <r>   -11.2483     9.5963    13.7161 </r>
       <r>   -11.1844     9.4776    14.3223 </r>
       <r>   -11.1204     9.3947    14.9233 </r>
       <r>   -11.0564    10.5584    15.5986 </r>
       <r>   -10.9925    11.3400    16.3240 </r>
       <r>   -10.9285    11.6088    17.0665 </r>
       <r>   -10.8645    13.1142    17.9054 </r>
       <r>   -10.8006    14.1452    18.8102 </r>
       <r>   -10.7366    12.5969    19.6159 </r>
       <r>   -10.6726    11.5809    20.3567 </r>
       <r>   -10.6087    11.3349    21.0817 </r>
       <r>   -10.5447     9.5725    21.6940 </r>
       <r>   -10.4807     8.1067    22.2126 </r>
       <r>   -10.4168     7.1102    22.6674 </r>
       <r>   -10.3528     4.4885    22.9545 </r>
       <r>   -10.2889     1.6406    23.0594 </r>
       <r>   -10.2249     0.5993    23.0977 </r>
       <r>   -10.1609     1.0681    23.1661 </r>
       <r>   -10.0970     1.6600    23.2723 </r>
       <r>   -10.0330     1.2527    23.3524 </r>
       <r>    -9.9690     0.5525    23.3877 </r>
       <r>    -9.9051     0.6613    23.4300 </r>
       <r>    -9.8411     1.4482    23.5227 </r>
       <r>    -9.7771     1.8646    23.6419 </r>
       <r>    -9.7132     1.8298    23.7590 </r>
       <r>    -9.6492     1.8646    23.8782 </r>
       <r>    -9.5852     1.3297    23.9633 </r>
       <r>    -9.5213     0.4839    23.9942 </r>
       <r>    -9.4573     0.0832    23.9996 </r>
       <r>    -9.3933     0.0066    24.0000 </r>
       <r>    -9.3294     0.0002    24.0000 </r>
       <r>    -9.2654     0.0001    24.0000 </r>
       <r>    -9.2015     0.0040    24.0003 </r>
       <r>    -9.1375     0.0534    24.0037 </r>
       <r>    -9.0735     0.3489    24.0260 </r>
       <r>    -9.0096     1.1925    24.1023 </r>
       <r>    -8.9456     2.3365    24.2517 </r>
       <r>    -8.8816     3.2005    24.4565 </r>
       <r>    -8.8177     4.2273    24.7269 </r>
       <r>    -8.7537     5.4721    25.0769 </r>
       <r>    -8.6897     5.5817    25.4339 </r>
       <r>    -8.6258     4.6919    25.7340 </r>
       <r>    -8.5618     4.0792    25.9949 </r>
       <r>    -8.4978     4.2383    26.2660 </r>
       <r>    -8.4339     4.8572    26.5767 </r>
       <r>    -8.3699     4.8014    26.8839 </r>
       <r>    -8.3059     4.1110    27.1468 </r>
       <r>    -8.2420     4.0951    27.4088 </r>
       <r>    -8.1780     4.8434    27.7186 </r>
       <r>    -8.1141     5.4836    28.0693 </r>
       <r>    -8.0501     5.2222    28.4034 </r>
       <r>    -7.9861     4.6796    28.7027 </r>
       <r>    -7.9222     5.2473    29.0383 </r>
       <r>    -7.8582     6.9389    29.4822 </r>
       <r>    -7.7942     7.7884    29.9803 </r>
       <r>    -7.7303     6.4553    30.3933 </r>
       <r>    -7.6663     4.8527    30.7037 </r>
       <r>    -7.6023     4.7778    31.0093 </r>
       <r>    -7.5384     5.6178    31.3686 </r>
       <r>    -7.4744     7.1138    31.8236 </r>
       <r>    -7.4104     9.3518    32.4218 </r>
       <r>    -7.3465    10.6566    33.1035 </r>
       <r>    -7.2825    10.5305    33.7770 </r>
       <r>    -7.2186     9.8481    34.4070 </r>
       <r>    -7.1546     8.5166    34.9517 </r>
       <r>    -7.0906     7.0740    35.4042 </r>
       <r>    -7.0267     6.4224    35.8150 </r>
       <r>    -6.9627     5.7138    36.1805 </r>
       <r>    -6.8987     5.0541    36.5038 </r>
       <r>    -6.8348     6.4093    36.9138 </r>
       <r>    -6.7708    10.8994    37.6109 </r>
       <r>    -6.7068    16.0641    38.6385 </r>
       <r>    -6.6429    16.1960    39.6744 </r>
       <r>    -6.5789    11.1583    40.3882 </r>
       <r>    -6.5149     6.9962    40.8357 </r>
       <r>    -6.4510     5.2607    41.1722 </r>
       <r>    -6.3870     4.5878    41.4656 </r>
       <r>    -6.3230     5.0777    41.7904 </r>
       <r>    -6.2591     5.8507    42.1647 </r>
       <r>    -6.1951     5.5873    42.5220 </r>
       <r>    -6.1312     4.1119    42.7851 </r>
       <r>    -6.0672     2.7715    42.9623 </r>
       <r>    -6.0032     2.6466    43.1316 </r>
       <r>    -5.9393     3.0176    43.3246 </r>
       <r>    -5.8753     3.4059    43.5425 </r>
       <r>    -5.8113     4.6606    43.8406 </r>
       <r>    -5.7474     6.4517    44.2533 </r>
       <r>    -5.6834     7.0531    44.7044 </r>
       <r>    -5.6194     6.3077    45.1079 </r>
       <r>    -5.5555     5.0310    45.4297 </r>
       <r>    -5.4915     3.4720    45.6518 </r>
       <r>    -5.4275     2.7605    45.8284 </r>
       <r>    -5.3636     3.7550    46.0686 </r>
       <r>    -5.2996     5.4227    46.4154 </r>
       <r>    -5.2356     6.8145    46.8513 </r>
       <r>    -5.1717     7.1329    47.3076 </r>
       <r>    -5.1077     6.3452    47.7134 </r>
       <r>    -5.0438     5.9251    48.0924 </r>
       <r>    -4.9798     6.3255    48.4970 </r>
       <r>    -4.9158     7.2978    48.9638 </r>
       <r>    -4.8519     8.6646    49.5181 </r>
       <r>    -4.7879     9.9582    50.1550 </r>
       <r>    -4.7239    10.8614    50.8498 </r>
       <r>    -4.6600    10.6356    51.5301 </r>
       <r>    -4.5960     9.4326    52.1335 </r>
       <r>    -4.5320     8.8969    52.7025 </r>
       <r>    -4.4681     9.4937    53.3098 </r>
       <r>    -4.4041    10.8602    54.0045 </r>
       <r>    -4.3401    12.2757    54.7897 </r>
       <r>    -4.2762    12.7237    55.6035 </r>
       <r>    -4.2122    12.5083    56.4036 </r>
       <r>    -4.1483    13.4889    57.2664 </r>
       <r>    -4.0843    15.1862    58.2378 </r>
       <r>    -4.0203    15.1295    59.2056 </r>
       <r>    -3.9564    13.2592    60.0537 </r>
       <r>    -3.8924    11.6443    60.7985 </r>
       <r>    -3.8284    11.5343    61.5363 </r>
       <r>    -3.7645    12.6819    62.3475 </r>
       <r>    -3.7005    13.8323    63.2323 </r>
       <r>    -3.6365    13.3745    64.0877 </r>
       <r>    -3.5726    12.3489    64.8776 </r>
       <r>    -3.5086    12.9889    65.7085 </r>
       <r>    -3.4446    14.4504    66.6328 </r>
       <r>    -3.3807    14.8591    67.5832 </r>
       <r>    -3.3167    14.1156    68.4861 </r>
       <r>    -3.2527    13.9844    69.3806 </r>
       <r>    -3.1888    15.2122    70.3537 </r>
       <r>    -3.1248    16.3743    71.4011 </r>
       <r>    -3.0609    16.6792    72.4679 </r>
       <r>    -2.9969    16.9139    73.5498 </r>
       <r>    -2.9329    16.8597    74.6283 </r>
       <r>    -2.8690    16.1445    75.6609 </r>
       <r>    -2.8050    15.3162    76.6406 </r>
       <r>    -2.7410    14.8708    77.5918 </r>
       <r>    -2.6771    15.4783    78.5819 </r>
       <r>    -2.6131    16.9605    79.6668 </r>
       <r>    -2.5491    17.6026    80.7927 </r>
       <r>    -2.4852    17.0987    81.8864 </r>
       <r>    -2.4212    16.8412    82.9637 </r>
       <r>    -2.3572    15.8097    83.9749 </r>
       <r>    -2.2933    14.0154    84.8714 </r>
       <r>    -2.2293    14.6171    85.8064 </r>
       <r>    -2.1653    16.7595    86.8784 </r>
       <r>    -2.1014    17.4367    87.9937 </r>
       <r>    -2.0374    17.9604    89.1426 </r>
       <r>    -1.9735    19.0984    90.3642 </r>
       <r>    -1.9095    19.3002    91.5987 </r>
       <r>    -1.8455    18.6099    92.7891 </r>
       <r>    -1.7816    17.8603    93.9315 </r>
       <r>    -1.7176    16.4080    94.9810 </r>
       <r>    -1.6536    13.6032    95.8512 </r>
       <r>    -1.5897    11.2409    96.5702 </r>
       <r>    -1.5257    11.2475    97.2896 </r>
       <r>    -1.4617    12.6064    98.0960 </r>
       <r>    -1.3978    13.2970    98.9465 </r>
       <r>    -1.3338    12.7735    99.7636 </r>
       <r>    -1.2698    11.3080   100.4869 </r>
       <r>    -1.2059     9.9282   101.1219 </r>
       <r>    -1.1419     9.1142   101.7049 </r>
       <r>    -1.0780     8.0442   102.2195 </r>
       <r>    -1.0140     7.3181   102.6876 </r>
       <r>    -0.9500     8.4519   103.2282 </r>
       <r>    -0.8861     9.5506   103.8391 </r>
       <r>    -0.8221     7.7910   104.3374 </r>
       <r>    -0.7581     4.8173   104.6456 </r>
       <r>    -0.6942     3.4792   104.8681 </r>
       <r>    -0.6302     4.6347   105.1646 </r>
       <r>    -0.5662     6.0948   105.5544 </r>
       <r>    -0.5023     5.1983   105.8869 </r>
       <r>    -0.4383     3.1621   106.0892 </r>
       <r>    -0.3743     1.9444   106.2136 </r>
       <r>    -0.3104     1.7445   106.3252 </r>
       <r>    -0.2464     2.8809   106.5094 </r>
       <r>    -0.1824     4.5879   106.8029 </r>
       <r>    -0.1185     4.1960   107.0713 </r>
       <r>    -0.0545     2.0374   107.2016 </r>
       <r>     0.0094     0.9517   107.2625 </r>
       <r>     0.0734     1.9639   107.3881 </r>
       <r>     0.1374     4.2036   107.6570 </r>
       <r>     0.2013     5.7243   108.0231 </r>
       <r>     0.2653     5.9881   108.4062 </r>
       <r>     0.3293     6.1301   108.7983 </r>
       <r>     0.3932     6.1929   109.1944 </r>
       <r>     0.4572     5.5147   109.5472 </r>
       <r>     0.5212     4.6263   109.8431 </r>
       <r>     0.5851     4.7764   110.1486 </r>
       <r>     0.6491     5.5233   110.5019 </r>
       <r>     0.7131     5.6608   110.8640 </r>
       <r>     0.7770     4.9570   111.1811 </r>
       <r>     0.8410     3.8805   111.4293 </r>
       <r>     0.9050     3.7185   111.6671 </r>
       <r>     0.9689     4.9663   111.9848 </r>
       <r>     1.0329     6.3960   112.3939 </r>
       <r>     1.0968     6.3883   112.8025 </r>
       <r>     1.1608     5.6776   113.1657 </r>
       <r>     1.2248     6.1054   113.5562 </r>
       <r>     1.2887     7.1526   114.0137 </r>
       <r>     1.3527     7.7009   114.5063 </r>
       <r>     1.4167     7.8382   115.0077 </r>
       <r>     1.4806     8.4890   115.5507 </r>
       <r>     1.5446    10.2040   116.2034 </r>
       <r>     1.6086    12.0928   116.9769 </r>
       <r>     1.6725    13.0295   117.8103 </r>
       <r>     1.7365    12.9485   118.6386 </r>
       <r>     1.8005    12.3593   119.4291 </r>
       <r>     1.8644    11.2626   120.1495 </r>
       <r>     1.9284     9.9421   120.7855 </r>
       <r>     1.9923     9.6230   121.4010 </r>
       <r>     2.0563     9.9968   122.0404 </r>
       <r>     2.1203    10.5266   122.7138 </r>
       <r>     2.1842    12.2682   123.4985 </r>
       <r>     2.2482    14.4896   124.4253 </r>
       <r>     2.3122    14.5196   125.3541 </r>
       <r>     2.3761    13.4033   126.2114 </r>
       <r>     2.4401    13.1758   127.0542 </r>
       <r>     2.5041    13.5404   127.9203 </r>
       <r>     2.5680    14.5055   128.8481 </r>
       <r>     2.6320    15.7948   129.8584 </r>
       <r>     2.6960    15.7966   130.8689 </r>
       <r>     2.7599    14.2229   131.7786 </r>
       <r>     2.8239    12.4683   132.5762 </r>
       <r>     2.8879    11.5854   133.3172 </r>
       <r>     2.9518    11.0037   134.0211 </r>
       <r>     3.0158     9.6270   134.6369 </r>
       <r>     3.0797     7.6937   135.1290 </r>
       <r>     3.1437     5.7991   135.4999 </r>
       <r>     3.2077     4.0975   135.7620 </r>
       <r>     3.2716     2.4584   135.9193 </r>
       <r>     3.3356     1.0059   135.9836 </r>
       <r>     3.3996     0.2290   135.9982 </r>
       <r>     3.4635     0.0260   135.9999 </r>
       <r>     3.5275     0.0014   136.0000 </r>
       <r>     3.5915     0.0000   136.0000 </r>
       <r>     3.6554     0.0000   136.0000 </r>
       <r>     3.7194     0.0000   136.0000 </r>
       <r>     3.7834     0.0000   136.0000 </r>
       <r>     3.8473     0.0000   136.0000 </r>
       <r>     3.9113     0.0000   136.0000 </r>
       <r>     3.9753     0.0000   136.0000 </r>
       <r>     4.0392     0.0000   136.0000 </r>
       <r>     4.1032     0.0000   136.0000 </r>
       <r>     4.1671     0.0000   136.0000 </r>
       <r>     4.2311     0.0000   136.0000 </r>
      </set>
     </set>
    </array>
   </total>
  </dos>
 </calculation>
 <structure name="finalpos" >
  <crystal>
   <varray name="basis" >
    <v>       3.54040000       0.00000000       0.00000000 </v>
    <v>      -1.77020000      10.29434800       0.00000000 </v>
    <v>       0.00000000       0.00000000      27.50142900 </v>
   </varray>
   <i name="volume">   1002.32009712 </i>
   <varray name="rec_basis" >
    <v>       0.28245396       0.04857034       0.00000000 </v>
    <v>       0.00000000       0.09714068       0.00000000 </v>
    <v>       0.00000000       0.00000000       0.03636175 </v>
   </varray>
  </crystal>
  <varray name="positions" >
   <v>       0.11402300       0.22804500       0.23316207 </v>
   <v>       0.21402300       0.12804500       0.51499159 </v>
   <v>       0.45808900       0.91617900       0.20939482 </v>
   <v>       0.55808900       0.81617900       0.49122434 </v>
   <v>       0.31085400       0.62170900       0.08414979 </v>
   <v>       0.31085400       0.62170900       0.36597930 </v>
   <v>       0.99923000       0.99846000       0.08631254 </v>
   <v>       0.99923000       0.99846000       0.36814206 </v>
   <v>       0.65492700       0.30985400       0.06041748 </v>
   <v>       0.65492700       0.30985400       0.34224700 </v>
   <v>       0.76973800       0.53947500       0.20725292 </v>
   <v>       0.86973800       0.43947500       0.48908244 </v>
   <v>       0.93971600       0.87943300       0.15783749 </v>
   <v>       0.03971600       0.77943300       0.43966701 </v>
   <v>       0.20515200       0.41030300       0.18578822 </v>
   <v>       0.30515200       0.31030300       0.46761774 </v>
   <v>       0.20184900       0.40369900       0.09969156 </v>
   <v>       0.20184900       0.40369900       0.38152107 </v>
   <v>       0.56380500       0.12761000       0.10779021 </v>
   <v>       0.56380500       0.12761000       0.38961973 </v>
   <v>       0.56710600       0.13421200       0.19387616 </v>
   <v>       0.66710600       0.03421200       0.47570568 </v>
   <v>       0.82923400       0.65846800       0.13571444 </v>
   <v>       0.92923400       0.55846800       0.41754396 </v>
  </varray>
 </structure>
</modeling>
