<?xml version="1.0" encoding="ISO-8859-1"?>
<modeling>
 <generator>
  <i name="program" type="string">vasp </i>
  <i name="version" type="string">5.4.1  </i>
  <i name="subversion" type="string">24Jun15 (build May 10 2016 14:18:23) complex                          parallel </i>
  <i name="platform" type="string">IFC91_ompi </i>
  <i name="date" type="string">2016 12 12 </i>
  <i name="time" type="string">06:32:50 </i>
 </generator>
 <incar>
  <i type="string" name="PREC">accurate</i>
  <i type="string" name="ALGO"> Fast</i>
  <i type="int" name="ISPIN">     2</i>
  <i type="int" name="IBRION">     2</i>
  <i name="EDIFF">      0.00010000</i>
  <i type="int" name="NSW">     0</i>
  <i type="int" name="ISIF">     3</i>
  <i name="ENCUT">    500.00000000</i>
  <v name="MAGMOM">      6.00000000      0.50000000      0.50000000      6.00000000      0.50000000      0.50000000</v>
  <i type="string" name="LREAL"> Auto</i>
  <i type="int" name="ISMEAR">     1</i>
  <i name="SIGMA">      0.10000000</i>
  <i type="logical" name="LWAVE"> F  </i>
  <i type="logical" name="LCHARG"> F  </i>
  <i type="logical" name="LVTOT"> T  </i>
  <i type="logical" name="LVHAR"> T  </i>
  <i type="logical" name="LAECHG"> F  </i>
  <v type="int" name="KPOINT_BSE">    -1     0     0     0</v>
  <i type="string" name="GGA"> Bo</i>
  <i name="PARAM1">      0.18333333</i>
  <i name="PARAM2">      0.22000000</i>
  <i type="logical" name="LUSE_VDW"> T  </i>
  <i name="AGGAC">      0.00000000</i>
 </incar>
 <kpoints>
  <generation param="Gamma">
   <v type="int" name="divisions">      13       13        1 </v>
   <v name="usershift">      0.00000000       0.00000000       0.00000000 </v>
   <v name="genvec1">      0.07692308       0.00000000       0.00000000 </v>
   <v name="genvec2">      0.00000000       0.07692308       0.00000000 </v>
   <v name="genvec3">      0.00000000       0.00000000       1.00000000 </v>
   <v name="shift">      0.00000000       0.00000000       0.00000000 </v>
  </generation>
  <varray name="kpointlist" >
   <v>       0.00000000       0.00000000       0.00000000 </v>
   <v>       0.07692308      -0.00000000       0.00000000 </v>
   <v>       0.15384615       0.00000000       0.00000000 </v>
   <v>       0.23076923       0.00000000       0.00000000 </v>
   <v>       0.30769231      -0.00000000       0.00000000 </v>
   <v>       0.38461538       0.00000000       0.00000000 </v>
   <v>       0.46153846       0.00000000       0.00000000 </v>
   <v>       0.07692308       0.07692308       0.00000000 </v>
   <v>       0.15384615       0.07692308       0.00000000 </v>
   <v>       0.23076923       0.07692308       0.00000000 </v>
   <v>       0.30769231       0.07692308       0.00000000 </v>
   <v>       0.38461538       0.07692308       0.00000000 </v>
   <v>       0.46153846       0.07692308       0.00000000 </v>
   <v>      -0.46153846       0.07692308       0.00000000 </v>
   <v>      -0.38461538       0.07692308       0.00000000 </v>
   <v>      -0.30769231       0.07692308       0.00000000 </v>
   <v>      -0.23076923       0.07692308       0.00000000 </v>
   <v>      -0.15384615       0.07692308       0.00000000 </v>
   <v>      -0.07692308       0.07692308       0.00000000 </v>
   <v>       0.15384615       0.15384615       0.00000000 </v>
   <v>       0.23076923       0.15384615       0.00000000 </v>
   <v>       0.30769231       0.15384615       0.00000000 </v>
   <v>       0.38461538       0.15384615       0.00000000 </v>
   <v>       0.46153846       0.15384615       0.00000000 </v>
   <v>      -0.46153846       0.15384615       0.00000000 </v>
   <v>      -0.38461538       0.15384615       0.00000000 </v>
   <v>      -0.30769231       0.15384615       0.00000000 </v>
   <v>      -0.23076923       0.15384615       0.00000000 </v>
   <v>      -0.15384615       0.15384615       0.00000000 </v>
   <v>       0.23076923       0.23076923       0.00000000 </v>
   <v>       0.30769231       0.23076923       0.00000000 </v>
   <v>       0.38461538       0.23076923       0.00000000 </v>
   <v>       0.46153846       0.23076923       0.00000000 </v>
   <v>      -0.46153846       0.23076923       0.00000000 </v>
   <v>      -0.38461538       0.23076923       0.00000000 </v>
   <v>      -0.30769231       0.23076923       0.00000000 </v>
   <v>      -0.23076923       0.23076923       0.00000000 </v>
   <v>       0.30769231       0.30769231       0.00000000 </v>
   <v>       0.38461538       0.30769231       0.00000000 </v>
   <v>       0.46153846       0.30769231       0.00000000 </v>
   <v>      -0.46153846       0.30769231       0.00000000 </v>
   <v>      -0.38461538       0.30769231       0.00000000 </v>
   <v>      -0.30769231       0.30769231       0.00000000 </v>
   <v>       0.38461538       0.38461538       0.00000000 </v>
   <v>       0.46153846       0.38461538       0.00000000 </v>
   <v>      -0.46153846       0.38461538       0.00000000 </v>
   <v>      -0.38461538       0.38461538       0.00000000 </v>
   <v>       0.46153846       0.46153846       0.00000000 </v>
   <v>      -0.46153846       0.46153846       0.00000000 </v>
  </varray>
  <varray name="weights" >
   <v>       0.00591716 </v>
   <v>       0.02366864 </v>
   <v>       0.02366864 </v>
   <v>       0.02366864 </v>
   <v>       0.02366864 </v>
   <v>       0.02366864 </v>
   <v>       0.02366864 </v>
   <v>       0.01183432 </v>
   <v>       0.02366864 </v>
   <v>       0.02366864 </v>
   <v>       0.02366864 </v>
   <v>       0.02366864 </v>
   <v>       0.02366864 </v>
   <v>       0.02366864 </v>
   <v>       0.02366864 </v>
   <v>       0.02366864 </v>
   <v>       0.02366864 </v>
   <v>       0.02366864 </v>
   <v>       0.01183432 </v>
   <v>       0.01183432 </v>
   <v>       0.02366864 </v>
   <v>       0.02366864 </v>
   <v>       0.02366864 </v>
   <v>       0.02366864 </v>
   <v>       0.02366864 </v>
   <v>       0.02366864 </v>
   <v>       0.02366864 </v>
   <v>       0.02366864 </v>
   <v>       0.01183432 </v>
   <v>       0.01183432 </v>
   <v>       0.02366864 </v>
   <v>       0.02366864 </v>
   <v>       0.02366864 </v>
   <v>       0.02366864 </v>
   <v>       0.02366864 </v>
   <v>       0.02366864 </v>
   <v>       0.01183432 </v>
   <v>       0.01183432 </v>
   <v>       0.02366864 </v>
   <v>       0.02366864 </v>
   <v>       0.02366864 </v>
   <v>       0.02366864 </v>
   <v>       0.01183432 </v>
   <v>       0.01183432 </v>
   <v>       0.02366864 </v>
   <v>       0.02366864 </v>
   <v>       0.01183432 </v>
   <v>       0.01183432 </v>
   <v>       0.01183432 </v>
  </varray>
 </kpoints>
 <parameters>
  <separator name="general" >
   <i type="string" name="SYSTEM">unknown system</i>
   <i type="logical" name="LCOMPAT"> F  </i>
  </separator>
  <separator name="electronic" >
   <i type="string" name="PREC">accura</i>
   <i name="ENMAX">    500.00000000</i>
   <i name="ENAUG">    392.42700000</i>
   <i name="EDIFF">      0.00010000</i>
   <i type="int" name="IALGO">    68</i>
   <i type="int" name="IWAVPR">    10</i>
   <i type="int" name="NBANDS">    36</i>
   <i name="NELECT">     48.00000000</i>
   <i type="int" name="TURBO">     0</i>
   <i type="int" name="IRESTART">     0</i>
   <i type="int" name="NREBOOT">     0</i>
   <i type="int" name="NMIN">     0</i>
   <i name="EREF">      0.00000000</i>
   <separator name="electronic smearing" >
    <i type="int" name="ISMEAR">     1</i>
    <i name="SIGMA">      0.10000000</i>
    <i name="KSPACING">      0.50000000</i>
    <i type="logical" name="KGAMMA"> T  </i>
   </separator>
   <separator name="electronic projectors" >
    <i type="logical" name="LREAL"> T  </i>
    <v name="ROPT">     -0.00025000     -0.00025000     -0.00025000     -0.00025000</v>
    <i type="int" name="LMAXPAW">  -100</i>
    <i type="int" name="LMAXMIX">     2</i>
    <i type="logical" name="NLSPLINE"> F  </i>
   </separator>
   <separator name="electronic startup" >
    <i type="int" name="ISTART">     0</i>
    <i type="int" name="ICHARG">     2</i>
    <i type="int" name="INIWAV">     1</i>
   </separator>
   <separator name="electronic spin" >
    <i type="int" name="ISPIN">     2</i>
    <i type="logical" name="LNONCOLLINEAR"> F  </i>
    <v name="MAGMOM">      6.00000000      0.50000000      0.50000000      6.00000000      0.50000000      0.50000000</v>
    <i name="NUPDOWN">     -1.00000000</i>
    <i type="logical" name="LSORBIT"> F  </i>
    <v name="SAXIS">      0.00000000      0.00000000      1.00000000</v>
    <i type="logical" name="LSPIRAL"> F  </i>
    <v name="QSPIRAL">      0.00000000      0.00000000      0.00000000</v>
    <i type="logical" name="LZEROZ"> F  </i>
   </separator>
   <separator name="electronic exchange-correlation" >
    <i type="logical" name="LASPH"> F  </i>
    <i type="logical" name="LMETAGGA"> F  </i>
   </separator>
   <separator name="electronic convergence" >
    <i type="int" name="NELM">    60</i>
    <i type="int" name="NELMDL">     0</i>
    <i type="int" name="NELMIN">     2</i>
    <i name="ENINI">    500.00000000</i>
    <separator name="electronic convergence detail" >
     <i type="logical" name="LDIAG"> T  </i>
     <i type="logical" name="LSUBROT"> F  </i>
     <i name="WEIMIN">      0.00000000</i>
     <i name="EBREAK">      0.00000069</i>
     <i name="DEPER">      0.30000000</i>
     <i type="int" name="NRMM">     4</i>
     <i name="TIME">      0.40000000</i>
    </separator>
   </separator>
   <separator name="electronic mixer" >
    <i name="AMIX">      0.40000000</i>
    <i name="BMIX">      1.00000000</i>
    <i name="AMIN">      0.10000000</i>
    <i name="AMIX_MAG">      1.60000000</i>
    <i name="BMIX_MAG">      1.00000000</i>
    <separator name="electronic mixer details" >
     <i type="int" name="IMIX">     4</i>
     <i type="logical" name="MIXFIRST"> F  </i>
     <i type="int" name="MAXMIX">   -45</i>
     <i name="WC">    100.00000000</i>
     <i type="int" name="INIMIX">     1</i>
     <i type="int" name="MIXPRE">     1</i>
     <i type="int" name="MREMOVE">     5</i>
    </separator>
   </separator>
   <separator name="electronic dipolcorrection" >
    <i type="logical" name="LDIPOL"> F  </i>
    <i type="logical" name="LMONO"> F  </i>
    <i type="int" name="IDIPOL">     0</i>
    <i name="EPSILON">      1.00000000</i>
    <v name="DIPOL">   -100.00000000   -100.00000000   -100.00000000</v>
    <i name="EFIELD">      0.00000000</i>
   </separator>
  </separator>
  <separator name="grids" >
   <i type="int" name="NGX">    24</i>
   <i type="int" name="NGY">    24</i>
   <i type="int" name="NGZ">   180</i>
   <i type="int" name="NGXF">    48</i>
   <i type="int" name="NGYF">    48</i>
   <i type="int" name="NGZF">   360</i>
   <i type="logical" name="ADDGRID"> F  </i>
  </separator>
  <separator name="ionic" >
   <i type="int" name="NSW">     0</i>
   <i type="int" name="IBRION">    -1</i>
   <i type="int" name="ISIF">     3</i>
   <i name="PSTRESS">      0.00000000</i>
   <i name="EDIFFG">      0.00100000</i>
   <i type="int" name="NFREE">     1</i>
   <i name="POTIM">      0.50000000</i>
   <i name="SMASS">     -3.00000000</i>
   <i name="SCALEE">      1.00000000</i>
  </separator>
  <separator name="ionic md" >
   <i name="TEBEG">      0.00010000</i>
   <i name="TEEND">      0.00010000</i>
   <i type="int" name="NBLOCK">     1</i>
   <i type="int" name="KBLOCK">     1</i>
   <i type="int" name="NPACO">   256</i>
   <i name="APACO">     16.00000000</i>
  </separator>
  <separator name="symmetry" >
   <i type="int" name="ISYM">     2</i>
   <i name="SYMPREC">      0.00001000</i>
  </separator>
  <separator name="dos" >
   <i type="logical" name="LORBIT"> F  </i>
   <v name="RWIGS">     -1.00000000     -1.00000000     -1.00000000     -1.00000000</v>
   <i type="int" name="NEDOS">   301</i>
   <i name="EMIN">     10.00000000</i>
   <i name="EMAX">    -10.00000000</i>
   <i name="EFERMI">      0.00000000</i>
  </separator>
  <separator name="writing" >
   <i type="int" name="NWRITE">     2</i>
   <i type="logical" name="LWAVE"> F  </i>
   <i type="logical" name="LCHARG"> F  </i>
   <i type="logical" name="LPARD"> F  </i>
   <i type="logical" name="LVTOT"> F  </i>
   <i type="logical" name="LVHAR"> T  </i>
   <i type="logical" name="LELF"> F  </i>
   <i type="logical" name="LOPTICS"> F  </i>
   <v name="STM">      0.00000000      0.00000000      0.00000000      0.00000000      0.00000000      0.00000000      0.00000000</v>
  </separator>
  <separator name="performance" >
   <i type="int" name="NPAR">     4</i>
   <i type="int" name="NSIM">     4</i>
   <i type="int" name="NBLK">    -1</i>
   <i type="logical" name="LPLANE"> T  </i>
   <i type="logical" name="LSCALAPACK"> T  </i>
   <i type="logical" name="LSCAAWARE"> F  </i>
   <i type="logical" name="LSCALU"> F  </i>
   <i type="logical" name="LASYNC"> F  </i>
   <i type="logical" name="LORBITALREAL"> F  </i>
  </separator>
  <separator name="miscellaneous" >
   <i type="int" name="IDIOT">     3</i>
   <i type="logical" name="LMUSIC"> F  </i>
   <v name="POMASS">     95.94000000     32.06600000     95.94000000     32.06600000</v>
   <v name="DARWINR">      0.00000000      0.00000000      0.00000000      0.00000000</v>
   <v name="DARWINV">      1.00000000      1.00000000      1.00000000      1.00000000</v>
   <i type="logical" name="LCORR"> T  </i>
  </separator>
  <i type="logical" name="GGA_COMPAT"> T  </i>
  <i type="logical" name="LBERRY"> F  </i>
  <i type="int" name="ICORELEVEL">     0</i>
  <i type="logical" name="LDAU"> F  </i>
  <i type="int" name="I_CONSTRAINED_M">     0</i>
  <separator name="electronic exchange-correlation" >
   <i type="string" name="GGA">BO</i>
   <i type="int" name="VOSKOWN">     0</i>
   <i type="logical" name="LHFCALC"> F  </i>
   <i type="string" name="PRECFOCK"></i>
   <i type="logical" name="LSYMGRAD"> F  </i>
   <i type="logical" name="LHFONE"> F  </i>
   <i type="logical" name="LRHFCALC"> F  </i>
   <i type="logical" name="LTHOMAS"> F  </i>
   <i type="logical" name="LMODELHF"> F  </i>
   <i name="ENCUT4O">     -1.00000000</i>
   <i type="int" name="EXXOEP">     0</i>
   <i type="int" name="FOURORBIT">     0</i>
   <i name="AEXX">      0.00000000</i>
   <i name="HFALPHA">      0.00000000</i>
   <i name="MCALPHA">      0.00000000</i>
   <i name="ALDAX">      1.00000000</i>
   <i name="AGGAX">      1.00000000</i>
   <i name="ALDAC">      1.00000000</i>
   <i name="AGGAC">      0.00000000</i>
   <i type="int" name="NKREDX">     1</i>
   <i type="int" name="NKREDY">     1</i>
   <i type="int" name="NKREDZ">     1</i>
   <i type="logical" name="SHIFTRED"> F  </i>
   <i type="logical" name="ODDONLY"> F  </i>
   <i type="logical" name="EVENONLY"> F  </i>
   <i type="int" name="LMAXFOCK">     0</i>
   <i type="int" name="NMAXFOCKAE">     0</i>
   <i type="logical" name="LFOCKAEDFT"> F  </i>
   <i name="HFSCREEN">      0.00000000</i>
   <i name="HFSCREENC">      0.00000000</i>
   <i type="int" name="NBANDSGWLOW">     0</i>
  </separator>
  <separator name="vdW DFT" >
   <i type="logical" name="LUSE_VDW"> T  </i>
   <i name="Zab_VDW">     -0.84910000</i>
   <i name="PARAM1">      0.18333333</i>
   <i name="PARAM2">      0.22000000</i>
   <i name="PARAM3">      0.00000000</i>
  </separator>
  <separator name="model GW" >
   <i type="int" name="MODEL_GW">     0</i>
   <i name="MODEL_EPS0">     20.39722663</i>
   <i name="MODEL_ALPHA">      1.00000000</i>
  </separator>
  <separator name="linear response parameters" >
   <i type="logical" name="LEPSILON"> F  </i>
   <i type="logical" name="LRPA"> F  </i>
   <i type="logical" name="LNABLA"> F  </i>
   <i type="logical" name="LVEL"> F  </i>
   <i type="int" name="KINTER">     0</i>
   <i name="CSHIFT">      0.10000000</i>
   <i name="OMEGAMAX">     -1.00000000</i>
   <i name="DEG_THRESHOLD">      0.00200000</i>
  </separator>
  <separator name="orbital magnetization" >
   <i type="logical" name="NUCIND"> F  </i>
   <v name="MAGPOS">      0.00000000      0.00000000      0.00000000</v>
   <i type="logical" name="LNICSALL"> T  </i>
   <i type="logical" name="ORBITALMAG"> F  </i>
   <i type="logical" name="LMAGBLOCH"> F  </i>
   <i type="logical" name="LCHIMAG"> F  </i>
   <i type="logical" name="LGAUGE"> T  </i>
   <i type="int" name="MAGATOM">     0</i>
   <v name="MAGDIPOL">      0.00000000      0.00000000      0.00000000</v>
   <v name="AVECCONST">      0.00000000      0.00000000      0.00000000</v>
  </separator>
  <separator name="response functions" >
   <i type="logical" name="LADDER"> F  </i>
   <i type="logical" name="LFXC"> F  </i>
   <i type="logical" name="LHARTREE"> T  </i>
   <i type="int" name="IBSE">     0</i>
   <v type="int" name="KPOINT">    -1     0     0     0</v>
   <i type="logical" name="LTCTE"> F  </i>
   <i type="logical" name="LTETE"> F  </i>
   <i type="logical" name="LTRIPLET"> F  </i>
   <i type="logical" name="LFXCEPS"> F  </i>
   <i type="logical" name="LFXHEG"> F  </i>
   <i type="int" name="NATURALO">     0</i>
   <i type="logical" name="L2ORDER"> F  </i>
   <i type="logical" name="LUSEW"> F  </i>
   <i name="ENCUTGW">     -2.00000000</i>
   <i name="ENCUTGWSOFT">     -2.00000000</i>
   <i name="ENCUTLF">     -1.00000000</i>
   <i type="int" name="LMAXMP2">    -1</i>
   <i name="SCISSOR">      0.00000000</i>
   <i type="int" name="NOMEGA">     0</i>
   <i type="int" name="NOMEGAR">     0</i>
   <i type="int" name="NBANDSGW">    -1</i>
   <i type="int" name="NBANDSO">    -1</i>
   <i type="int" name="NBANDSV">    -1</i>
   <i type="int" name="NELM">     1</i>
   <i type="int" name="NELMHF">     1</i>
   <i type="int" name="DIM">     3</i>
   <i type="int" name="ANTIRES">     0</i>
   <i name="OMEGAMAX">    -30.00000000</i>
   <i name="OMEGAMIN">    -30.00000000</i>
   <i name="OMEGATL">   -200.00000000</i>
   <i type="int" name="OMEGAGRID">     0</i>
   <i name="CSHIFT">     -0.10000000</i>
   <i type="logical" name="SELFENERGY"> F  </i>
   <i type="logical" name="LSPECTRAL"> F  </i>
   <i type="logical" name="LSPECTRALGW"> F  </i>
   <i type="logical" name="LSINGLES"> F  </i>
   <i type="logical" name="LFERMIGW"> F  </i>
   <i type="logical" name="ODDONLYGW"> F  </i>
   <i type="logical" name="EVENONLYGW"> F  </i>
   <i type="int" name="NKREDLFX">     1</i>
   <i type="int" name="NKREDLFY">     1</i>
   <i type="int" name="NKREDLFZ">     1</i>
   <i type="int" name="MAXMEM">  1800</i>
   <i type="int" name="TELESCOPE">     0</i>
   <i type="int" name="TAUPAR">     1</i>
   <i type="int" name="OMEGAPAR">    -1</i>
   <i name="LAMBDA">      1.00000000</i>
  </separator>
  <separator name="External order field" >
   <i name="OFIELD_KAPPA">      0.00000000</i>
   <v name="OFIELD_K">      0.00000000      0.00000000      0.00000000</v>
   <i name="OFIELD_Q6_NEAR">      0.00000000</i>
   <i name="OFIELD_Q6_FAR">      0.00000000</i>
   <i name="OFIELD_A">      0.00000000</i>
  </separator>
 </parameters>
 <atominfo>
  <atoms>       6 </atoms>
  <types>       4 </types>
  <array name="atoms" >
   <dimension dim="1">ion</dimension>
   <field type="string">element</field>
   <field type="int">atomtype</field>
   <set>
    <rc><c>Mo</c><c>   1</c></rc>
    <rc><c>S </c><c>   2</c></rc>
    <rc><c>S </c><c>   2</c></rc>
    <rc><c>Mo</c><c>   3</c></rc>
    <rc><c>S </c><c>   4</c></rc>
    <rc><c>S </c><c>   4</c></rc>
   </set>
  </array>
  <array name="atomtypes" >
   <dimension dim="1">type</dimension>
   <field type="int">atomspertype</field>
   <field type="string">element</field>
   <field>mass</field>
   <field>valence</field>
   <field type="string">pseudopotential</field>
   <set>
    <rc><c>   1</c><c>Mo</c><c>     95.94000000</c><c>     12.00000000</c><c> PAW_PBE Mo_pv 08Apr2002                </c></rc>
    <rc><c>   2</c><c>S </c><c>     32.06600000</c><c>      6.00000000</c><c>  PAW_PBE S 17Jan2003                   </c></rc>
    <rc><c>   1</c><c>Mo</c><c>     95.94000000</c><c>     12.00000000</c><c> PAW_PBE Mo_pv 08Apr2002                </c></rc>
    <rc><c>   2</c><c>S </c><c>     32.06600000</c><c>      6.00000000</c><c>  PAW_PBE S 17Jan2003                   </c></rc>
   </set>
  </array>
 </atominfo>
 <structure name="initialpos" >
  <crystal>
   <varray name="basis" >
    <v>       3.19031700       0.00000000       0.00000000 </v>
    <v>      -1.59515800       2.76289700       0.00000000 </v>
    <v>       0.00000000       0.00000000      23.14049200 </v>
   </varray>
   <i name="volume">    203.97226633 </i>
   <varray name="rec_basis" >
    <v>       0.31344848       0.18096941       0.00000000 </v>
    <v>       0.00000000       0.36193894       0.00000000 </v>
    <v>       0.00000000       0.00000000       0.04321429 </v>
   </varray>
  </crystal>
  <varray name="positions" >
   <v>       0.66666700       0.33333300       0.06785900 </v>
   <v>       0.33333300       0.66666700       0.00000000 </v>
   <v>       0.33333300       0.66666700       0.13571500 </v>
   <v>       0.95238100       0.04761900       0.26839400 </v>
   <v>       0.61904700       0.38095300       0.20053600 </v>
   <v>       0.61904700       0.38095300       0.33625000 </v>
  </varray>
 </structure>
 <calculation>
  <scstep>
   <time name="dav">   63.37   63.42</time>
   <time name="total">   82.91   83.01</time>
   <energy>
    <i name="alphaZ">    104.15310261 </i>
    <i name="ewald">  13746.53400133 </i>
    <i name="hartreedc"> -17144.99378642 </i>
    <i name="XCdc">    130.37512454 </i>
    <i name="pawpsdc">   2252.92270536 </i>
    <i name="pawaedc">  -2205.68654582 </i>
    <i name="eentropy">     -0.00068790 </i>
    <i name="bandstr">   -159.87314144 </i>
    <i name="atom">   3688.31848598 </i>
    <i name="e_fr_energy">    411.74925824 </i>
    <i name="e_wo_entrp">    411.74994615 </i>
    <i name="e_0_energy">    411.74948754 </i>
   </energy>
  </scstep>
  <scstep>
   <time name="dav">   67.94   67.99</time>
   <time name="total">   67.94   68.00</time>
   <energy>
    <i name="e_fr_energy">      3.54240000 </i>
    <i name="e_wo_entrp">      3.54204915 </i>
    <i name="e_0_energy">      3.54228305 </i>
   </energy>
  </scstep>
  <scstep>
   <time name="dav">   70.26   70.42</time>
   <time name="total">   70.27   70.43</time>
   <energy>
    <i name="e_fr_energy">    -29.74430407 </i>
    <i name="e_wo_entrp">    -29.74434024 </i>
    <i name="e_0_energy">    -29.74431613 </i>
   </energy>
  </scstep>
  <scstep>
   <time name="dav">   70.34   70.48</time>
   <time name="total">   70.35   70.60</time>
   <energy>
    <i name="e_fr_energy">    -30.75014254 </i>
    <i name="e_wo_entrp">    -30.75053254 </i>
    <i name="e_0_energy">    -30.75027254 </i>
   </energy>
  </scstep>
  <scstep>
   <time name="dav">   69.80   69.91</time>
   <time name="total">   75.29   75.41</time>
   <energy>
    <i name="e_fr_energy">    -30.77952159 </i>
    <i name="e_wo_entrp">    -30.77993786 </i>
    <i name="e_0_energy">    -30.77966035 </i>
   </energy>
  </scstep>
  <scstep>
   <time name="diag">   12.94   12.95</time>
   <time name="diis">   47.12   47.19</time>
   <time name="orth">    0.42    0.42</time>
   <time name="total">   84.85   84.99</time>
   <energy>
    <i name="e_fr_energy">    -27.14311504 </i>
    <i name="e_wo_entrp">    -27.14100303 </i>
    <i name="e_0_energy">    -27.14241104 </i>
   </energy>
  </scstep>
  <scstep>
   <time name="diag">   13.01   13.04</time>
   <time name="diis">   48.84   48.94</time>
   <time name="orth">    0.42    0.42</time>
   <time name="total">   86.66   86.84</time>
   <energy>
    <i name="e_fr_energy">    -30.89142517 </i>
    <i name="e_wo_entrp">    -30.89048193 </i>
    <i name="e_0_energy">    -30.89111075 </i>
   </energy>
  </scstep>
  <scstep>
   <time name="diag">   13.03   13.05</time>
   <time name="diis">   52.84   52.97</time>
   <time name="orth">    0.42    0.42</time>
   <time name="total">   90.48   90.68</time>
   <energy>
    <i name="e_fr_energy">    -31.62176582 </i>
    <i name="e_wo_entrp">    -31.62275782 </i>
    <i name="e_0_energy">    -31.62209649 </i>
   </energy>
  </scstep>
  <scstep>
   <time name="diag">   13.02   13.06</time>
   <time name="diis">   50.22   50.36</time>
   <time name="orth">    0.42    0.42</time>
   <time name="total">   88.03   88.26</time>
   <energy>
    <i name="e_fr_energy">    -32.53423817 </i>
    <i name="e_wo_entrp">    -32.53237049 </i>
    <i name="e_0_energy">    -32.53361561 </i>
   </energy>
  </scstep>
  <scstep>
   <time name="diag">   12.96   12.98</time>
   <time name="diis">   46.83   46.90</time>
   <time name="orth">    0.42    0.42</time>
   <time name="total">   84.90   85.05</time>
   <energy>
    <i name="e_fr_energy">    -34.15874635 </i>
    <i name="e_wo_entrp">    -34.15844093 </i>
    <i name="e_0_energy">    -34.15864454 </i>
   </energy>
  </scstep>
  <scstep>
   <time name="diag">   12.95   12.98</time>
   <time name="diis">   43.28   43.38</time>
   <time name="orth">    0.42    0.43</time>
   <time name="total">   81.20   81.41</time>
   <energy>
    <i name="e_fr_energy">    -35.83465439 </i>
    <i name="e_wo_entrp">    -35.83519394 </i>
    <i name="e_0_energy">    -35.83483424 </i>
   </energy>
  </scstep>
  <scstep>
   <time name="diag">   12.98   12.99</time>
   <time name="diis">   44.08   44.18</time>
   <time name="orth">    0.42    0.43</time>
   <time name="total">   81.93   82.10</time>
   <energy>
    <i name="e_fr_energy">    -36.43606222 </i>
    <i name="e_wo_entrp">    -36.43644327 </i>
    <i name="e_0_energy">    -36.43618923 </i>
   </energy>
  </scstep>
  <scstep>
   <time name="diag">   12.99   13.02</time>
   <time name="diis">   50.89   51.02</time>
   <time name="orth">    0.42    0.42</time>
   <time name="total">   88.88   89.09</time>
   <energy>
    <i name="e_fr_energy">    -36.49823050 </i>
    <i name="e_wo_entrp">    -36.49883715 </i>
    <i name="e_0_energy">    -36.49843271 </i>
   </energy>
  </scstep>
  <scstep>
   <time name="diag">   12.97   12.99</time>
   <time name="diis">   49.81   49.92</time>
   <time name="orth">    0.42    0.42</time>
   <time name="total">   87.82   88.00</time>
   <energy>
    <i name="e_fr_energy">    -36.52469462 </i>
    <i name="e_wo_entrp">    -36.52538862 </i>
    <i name="e_0_energy">    -36.52492595 </i>
   </energy>
  </scstep>
  <scstep>
   <time name="diag">   12.99   13.02</time>
   <time name="diis">   47.37   47.46</time>
   <time name="orth">    0.42    0.42</time>
   <time name="total">   85.36   85.55</time>
   <energy>
    <i name="e_fr_energy">    -36.53382156 </i>
    <i name="e_wo_entrp">    -36.53449624 </i>
    <i name="e_0_energy">    -36.53404646 </i>
   </energy>
  </scstep>
  <scstep>
   <time name="diag">   12.99   13.01</time>
   <time name="diis">   43.36   43.44</time>
   <time name="orth">    0.42    0.42</time>
   <time name="total">   81.31   81.47</time>
   <energy>
    <i name="e_fr_energy">    -36.53286378 </i>
    <i name="e_wo_entrp">    -36.53355016 </i>
    <i name="e_0_energy">    -36.53309257 </i>
   </energy>
  </scstep>
  <scstep>
   <time name="diag">   12.96   13.00</time>
   <time name="diis">   39.06   39.12</time>
   <time name="orth">    0.42    0.42</time>
   <time name="total">   76.96   77.11</time>
   <energy>
    <i name="e_fr_energy">    -36.53371321 </i>
    <i name="e_wo_entrp">    -36.53439799 </i>
    <i name="e_0_energy">    -36.53394147 </i>
   </energy>
  </scstep>
  <scstep>
   <time name="diag">   12.97   12.99</time>
   <time name="diis">   35.79   35.86</time>
   <time name="orth">    0.42    0.42</time>
   <time name="total">   67.82   67.96</time>
   <energy>
    <i name="alphaZ">    104.15310261 </i>
    <i name="ewald">  13746.53400133 </i>
    <i name="hartreedc"> -17128.77917265 </i>
    <i name="XCdc">    124.55150634 </i>
    <i name="pawpsdc">   2418.50656768 </i>
    <i name="pawaedc">  -2380.34850981 </i>
    <i name="eentropy">      0.00068503 </i>
    <i name="bandstr">   -609.47036199 </i>
    <i name="atom">   3688.31848598 </i>
    <i name="e_fr_energy">    -36.53369548 </i>
    <i name="e_wo_entrp">    -36.53438051 </i>
    <i name="e_0_energy">    -36.53392382 </i>
   </energy>
  </scstep>
  <structure>
   <crystal>
    <varray name="basis" >
     <v>       3.19031700       0.00000000       0.00000000 </v>
     <v>      -1.59515800       2.76289700       0.00000000 </v>
     <v>       0.00000000       0.00000000      23.14049200 </v>
    </varray>
    <i name="volume">    203.97226633 </i>
    <varray name="rec_basis" >
     <v>       0.31344848       0.18096941       0.00000000 </v>
     <v>       0.00000000       0.36193894       0.00000000 </v>
     <v>       0.00000000       0.00000000       0.04321429 </v>
    </varray>
   </crystal>
   <varray name="positions" >
    <v>       0.66666700       0.33333300       0.06785900 </v>
    <v>       0.33333300       0.66666700       0.00000000 </v>
    <v>       0.33333300       0.66666700       0.13571500 </v>
    <v>       0.95238100       0.04761900       0.26839400 </v>
    <v>       0.61904700       0.38095300       0.20053600 </v>
    <v>       0.61904700       0.38095300       0.33625000 </v>
   </varray>
  </structure>
  <varray name="forces" >
   <v>      -0.15293641       0.08829794      -2.17238322 </v>
   <v>       0.05705751      -0.03294219       0.04771623 </v>
   <v>      -0.78636653       0.45400921      -4.73094921 </v>
   <v>       0.09726528      -0.05615617       1.19463323 </v>
   <v>       0.72044088      -0.41594699       5.50446923 </v>
   <v>       0.06453927      -0.03726179       0.15651375 </v>
  </varray>
  <varray name="stress" >
   <v>      40.64585148      -7.53266712      13.68561547 </v>
   <v>      -7.53266712      31.94791038      -7.90139870 </v>
   <v>      13.68561558      -7.90139876     123.98167050 </v>
  </varray>
  <energy>
   <i name="e_fr_energy">    -36.53369548 </i>
   <i name="e_wo_entrp">    -36.53392382 </i>
   <i name="e_0_energy">      0.00068503 </i>
  </energy>
  <time name="totalsc"> 1582.86 1586.19</time>
  <eigenvalues>
   <array>
    <dimension dim="1">band</dimension>
    <dimension dim="2">kpoint</dimension>
    <dimension dim="3">spin</dimension>
    <field>eigene</field>
    <field>occ</field>
    <set>
     <set comment="spin 1">
      <set comment="kpoint 1">
       <r>  -34.9220    1.0000 </r>
       <r>  -34.7858    1.0000 </r>
       <r>  -34.7682    1.0000 </r>
       <r>  -34.7416    1.0000 </r>
       <r>  -34.5429    1.0000 </r>
       <r>  -34.5199    1.0000 </r>
       <r>  -17.0546    1.0000 </r>
       <r>  -13.6323    1.0000 </r>
       <r>  -13.1949    1.0000 </r>
       <r>  -11.6877    1.0000 </r>
       <r>   -6.6793    1.0000 </r>
       <r>   -4.4901    1.0000 </r>
       <r>   -3.8133    1.0000 </r>
       <r>   -3.0824    1.0000 </r>
       <r>   -2.7413    1.0000 </r>
       <r>   -2.6229    1.0000 </r>
       <r>   -2.3469    1.0000 </r>
       <r>   -2.0055    1.0000 </r>
       <r>   -1.8754    1.0000 </r>
       <r>   -1.6111    1.0000 </r>
       <r>   -1.4603    1.0000 </r>
       <r>   -0.5881    1.0000 </r>
       <r>   -0.0983    1.0000 </r>
       <r>    0.8413    1.0331 </r>
       <r>    1.0336    0.0070 </r>
       <r>    1.4116   -0.0000 </r>
       <r>    2.0191   -0.0000 </r>
       <r>    2.5797   -0.0000 </r>
       <r>    2.8814   -0.0000 </r>
       <r>    2.9392   -0.0000 </r>
       <r>    3.0272   -0.0000 </r>
       <r>    3.7366    0.0000 </r>
       <r>    5.1057    0.0000 </r>
       <r>    5.6973    0.0000 </r>
       <r>    6.1583    0.0000 </r>
       <r>    6.6692    0.0000 </r>
      </set>
      <set comment="kpoint 2">
       <r>  -34.9179    1.0000 </r>
       <r>  -34.7987    1.0000 </r>
       <r>  -34.7817    1.0000 </r>
       <r>  -34.7375    1.0000 </r>
       <r>  -34.5619    1.0000 </r>
       <r>  -34.5272    1.0000 </r>
       <r>  -16.9701    1.0000 </r>
       <r>  -13.5515    1.0000 </r>
       <r>  -13.1323    1.0000 </r>
       <r>  -11.6755    1.0000 </r>
       <r>   -6.6096    1.0000 </r>
       <r>   -4.4579    1.0000 </r>
       <r>   -3.9934    1.0000 </r>
       <r>   -3.3327    1.0000 </r>
       <r>   -2.8968    1.0000 </r>
       <r>   -2.6579    1.0000 </r>
       <r>   -2.5379    1.0000 </r>
       <r>   -2.1036    1.0000 </r>
       <r>   -1.9884    1.0000 </r>
       <r>   -1.6391    1.0000 </r>
       <r>   -1.3620    1.0000 </r>
       <r>   -0.5446    1.0000 </r>
       <r>   -0.2159    1.0000 </r>
       <r>    0.4198    1.0000 </r>
       <r>    1.0172    0.0599 </r>
       <r>    1.8790   -0.0000 </r>
       <r>    2.2224   -0.0000 </r>
       <r>    2.5985   -0.0000 </r>
       <r>    2.7873   -0.0000 </r>
       <r>    2.8746   -0.0000 </r>
       <r>    2.9861   -0.0000 </r>
       <r>    3.7511    0.0000 </r>
       <r>    5.2322    0.0000 </r>
       <r>    5.8203    0.0000 </r>
       <r>    6.2317    0.0000 </r>
       <r>    6.8725    0.0000 </r>
      </set>
      <set comment="kpoint 3">
       <r>  -34.9070    1.0000 </r>
       <r>  -34.8539    1.0000 </r>
       <r>  -34.7986    1.0000 </r>
       <r>  -34.7265    1.0000 </r>
       <r>  -34.6191    1.0000 </r>
       <r>  -34.5423    1.0000 </r>
       <r>  -16.7224    1.0000 </r>
       <r>  -13.3233    1.0000 </r>
       <r>  -12.9532    1.0000 </r>
       <r>  -11.6501    1.0000 </r>
       <r>   -6.4451    1.0000 </r>
       <r>   -4.8764    1.0000 </r>
       <r>   -4.2152    1.0000 </r>
       <r>   -3.7110    1.0000 </r>
       <r>   -3.2823    1.0000 </r>
       <r>   -3.1372    1.0000 </r>
       <r>   -2.4433    1.0000 </r>
       <r>   -2.3061    1.0000 </r>
       <r>   -2.0795    1.0000 </r>
       <r>   -1.9069    1.0000 </r>
       <r>   -1.2894    1.0000 </r>
       <r>   -0.7106    1.0000 </r>
       <r>   -0.3817    1.0000 </r>
       <r>    0.1220    1.0000 </r>
       <r>    1.0508   -0.0233 </r>
       <r>    1.8623   -0.0000 </r>
       <r>    2.3111   -0.0000 </r>
       <r>    2.6479   -0.0000 </r>
       <r>    2.8106   -0.0000 </r>
       <r>    2.9614   -0.0000 </r>
       <r>    3.2710   -0.0000 </r>
       <r>    4.0101    0.0000 </r>
       <r>    5.5828    0.0000 </r>
       <r>    6.1669    0.0000 </r>
       <r>    6.6008    0.0000 </r>
       <r>    7.6735    0.0000 </r>
      </set>
      <set comment="kpoint 4">
       <r>  -34.9391    1.0000 </r>
       <r>  -34.8882    1.0000 </r>
       <r>  -34.8175    1.0000 </r>
       <r>  -34.7177    1.0000 </r>
       <r>  -34.6942    1.0000 </r>
       <r>  -34.5613    1.0000 </r>
       <r>  -16.3295    1.0000 </r>
       <r>  -12.9892    1.0000 </r>
       <r>  -12.6838    1.0000 </r>
       <r>  -11.6462    1.0000 </r>
       <r>   -6.3239    1.0000 </r>
       <r>   -5.8874    1.0000 </r>
       <r>   -4.2619    1.0000 </r>
       <r>   -4.0666    1.0000 </r>
       <r>   -3.6868    1.0000 </r>
       <r>   -3.5102    1.0000 </r>
       <r>   -2.8347    1.0000 </r>
       <r>   -2.3229    1.0000 </r>
       <r>   -2.0827    1.0000 </r>
       <r>   -1.8309    1.0000 </r>
       <r>   -1.4717    1.0000 </r>
       <r>   -0.9766    1.0000 </r>
       <r>   -0.6761    1.0000 </r>
       <r>   -0.0669    1.0000 </r>
       <r>    1.1012   -0.0282 </r>
       <r>    1.8653   -0.0000 </r>
       <r>    2.3066   -0.0000 </r>
       <r>    2.6799   -0.0000 </r>
       <r>    2.8265   -0.0000 </r>
       <r>    3.1253   -0.0000 </r>
       <r>    3.7858    0.0000 </r>
       <r>    4.4965    0.0000 </r>
       <r>    6.1217    0.0000 </r>
       <r>    6.6782    0.0000 </r>
       <r>    7.1025    0.0000 </r>
       <r>    7.4962    0.0000 </r>
      </set>
      <set comment="kpoint 5">
       <r>  -35.0248    1.0000 </r>
       <r>  -34.8737    1.0000 </r>
       <r>  -34.8355    1.0000 </r>
       <r>  -34.7905    1.0000 </r>
       <r>  -34.6913    1.0000 </r>
       <r>  -34.5805    1.0000 </r>
       <r>  -15.8286    1.0000 </r>
       <r>  -12.6169    1.0000 </r>
       <r>  -12.3748    1.0000 </r>
       <r>  -11.7180    1.0000 </r>
       <r>   -6.8533    1.0000 </r>
       <r>   -6.3426    1.0000 </r>
       <r>   -4.6020    1.0000 </r>
       <r>   -4.3956    1.0000 </r>
       <r>   -4.0988    1.0000 </r>
       <r>   -3.6342    1.0000 </r>
       <r>   -3.0854    1.0000 </r>
       <r>   -2.6423    1.0000 </r>
       <r>   -2.0007    1.0000 </r>
       <r>   -1.7077    1.0000 </r>
       <r>   -1.5255    1.0000 </r>
       <r>   -1.0216    1.0000 </r>
       <r>   -0.9373    1.0000 </r>
       <r>   -0.2464    1.0000 </r>
       <r>    1.2929   -0.0000 </r>
       <r>    1.9565   -0.0000 </r>
       <r>    2.4337   -0.0000 </r>
       <r>    2.6300   -0.0000 </r>
       <r>    3.1269   -0.0000 </r>
       <r>    3.2934   -0.0000 </r>
       <r>    4.1374    0.0000 </r>
       <r>    4.8655    0.0000 </r>
       <r>    6.7036    0.0000 </r>
       <r>    6.8317    0.0000 </r>
       <r>    7.4181    0.0000 </r>
       <r>    7.7888    0.0000 </r>
      </set>
      <set comment="kpoint 6">
       <r>  -35.0955    1.0000 </r>
       <r>  -34.8682    1.0000 </r>
       <r>  -34.8607    1.0000 </r>
       <r>  -34.8429    1.0000 </r>
       <r>  -34.6790    1.0000 </r>
       <r>  -34.5954    1.0000 </r>
       <r>  -15.2960    1.0000 </r>
       <r>  -12.2968    1.0000 </r>
       <r>  -12.1459    1.0000 </r>
       <r>  -11.8549    1.0000 </r>
       <r>   -7.4927    1.0000 </r>
       <r>   -6.5273    1.0000 </r>
       <r>   -4.9519    1.0000 </r>
       <r>   -4.6700    1.0000 </r>
       <r>   -4.4504    1.0000 </r>
       <r>   -3.8456    1.0000 </r>
       <r>   -3.2241    1.0000 </r>
       <r>   -2.8901    1.0000 </r>
       <r>   -1.9992    1.0000 </r>
       <r>   -1.7699    1.0000 </r>
       <r>   -1.4280    1.0000 </r>
       <r>   -0.9697    1.0000 </r>
       <r>   -0.7788    1.0000 </r>
       <r>   -0.2511    1.0000 </r>
       <r>    1.6245   -0.0000 </r>
       <r>    2.1543   -0.0000 </r>
       <r>    2.4073   -0.0000 </r>
       <r>    2.7845   -0.0000 </r>
       <r>    3.3051   -0.0000 </r>
       <r>    3.4785   -0.0000 </r>
       <r>    4.4110    0.0000 </r>
       <r>    5.0405    0.0000 </r>
       <r>    6.1132    0.0000 </r>
       <r>    7.3352    0.0000 </r>
       <r>    7.5642    0.0000 </r>
       <r>    8.0896    0.0000 </r>
      </set>
      <set comment="kpoint 7">
       <r>  -35.1351    1.0000 </r>
       <r>  -34.9002    1.0000 </r>
       <r>  -34.8723    1.0000 </r>
       <r>  -34.8399    1.0000 </r>
       <r>  -34.6725    1.0000 </r>
       <r>  -34.6031    1.0000 </r>
       <r>  -14.9010    1.0000 </r>
       <r>  -12.2675    1.0000 </r>
       <r>  -12.0826    1.0000 </r>
       <r>  -11.8096    1.0000 </r>
       <r>   -7.7825    1.0000 </r>
       <r>   -6.6846    1.0000 </r>
       <r>   -5.1572    1.0000 </r>
       <r>   -4.8223    1.0000 </r>
       <r>   -4.6562    1.0000 </r>
       <r>   -4.0371    1.0000 </r>
       <r>   -3.3324    1.0000 </r>
       <r>   -3.0305    1.0000 </r>
       <r>   -2.0163    1.0000 </r>
       <r>   -1.7744    1.0000 </r>
       <r>   -1.3701    1.0000 </r>
       <r>   -0.9555    1.0000 </r>
       <r>   -0.5059    1.0000 </r>
       <r>   -0.1351    1.0000 </r>
       <r>    1.9027   -0.0000 </r>
       <r>    2.3041   -0.0000 </r>
       <r>    2.4568   -0.0000 </r>
       <r>    2.9526   -0.0000 </r>
       <r>    3.2888   -0.0000 </r>
       <r>    3.5850   -0.0000 </r>
       <r>    4.5678    0.0000 </r>
       <r>    4.9552    0.0000 </r>
       <r>    5.8403    0.0000 </r>
       <r>    6.9862    0.0000 </r>
       <r>    7.4816    0.0000 </r>
       <r>    8.3875    0.0000 </r>
      </set>
      <set comment="kpoint 8">
       <r>  -34.9100    1.0000 </r>
       <r>  -34.8295    1.0000 </r>
       <r>  -34.8005    1.0000 </r>
       <r>  -34.7297    1.0000 </r>
       <r>  -34.6041    1.0000 </r>
       <r>  -34.5346    1.0000 </r>
       <r>  -16.8108    1.0000 </r>
       <r>  -13.3963    1.0000 </r>
       <r>  -13.0117    1.0000 </r>
       <r>  -11.6487    1.0000 </r>
       <r>   -6.4838    1.0000 </r>
       <r>   -4.4005    1.0000 </r>
       <r>   -4.2117    1.0000 </r>
       <r>   -3.9247    1.0000 </r>
       <r>   -3.1425    1.0000 </r>
       <r>   -2.9967    1.0000 </r>
       <r>   -2.4727    1.0000 </r>
       <r>   -2.2309    1.0000 </r>
       <r>   -2.0863    1.0000 </r>
       <r>   -1.8255    1.0000 </r>
       <r>   -1.2744    1.0000 </r>
       <r>   -0.5167    1.0000 </r>
       <r>   -0.4303    1.0000 </r>
       <r>    0.1003    1.0000 </r>
       <r>    1.0712   -0.0352 </r>
       <r>    1.9470   -0.0000 </r>
       <r>    2.2621   -0.0000 </r>
       <r>    2.5814   -0.0000 </r>
       <r>    2.8442   -0.0000 </r>
       <r>    2.9758   -0.0000 </r>
       <r>    3.1032   -0.0000 </r>
       <r>    3.8742    0.0000 </r>
       <r>    5.4687    0.0000 </r>
       <r>    6.0583    0.0000 </r>
       <r>    6.4870    0.0000 </r>
       <r>    7.5676    0.0000 </r>
      </set>
      <set comment="kpoint 9">
       <r>  -34.9019    1.0000 </r>
       <r>  -34.8937    1.0000 </r>
       <r>  -34.8176    1.0000 </r>
       <r>  -34.7164    1.0000 </r>
       <r>  -34.6717    1.0000 </r>
       <r>  -34.5535    1.0000 </r>
       <r>  -16.4966    1.0000 </r>
       <r>  -13.1139    1.0000 </r>
       <r>  -12.7865    1.0000 </r>
       <r>  -11.6232    1.0000 </r>
       <r>   -6.3232    1.0000 </r>
       <r>   -5.1903    1.0000 </r>
       <r>   -4.4774    1.0000 </r>
       <r>   -4.1979    1.0000 </r>
       <r>   -3.4656    1.0000 </r>
       <r>   -3.3488    1.0000 </r>
       <r>   -2.7529    1.0000 </r>
       <r>   -2.3149    1.0000 </r>
       <r>   -2.1100    1.0000 </r>
       <r>   -1.9695    1.0000 </r>
       <r>   -1.2471    1.0000 </r>
       <r>   -0.7961    1.0000 </r>
       <r>   -0.5339    1.0000 </r>
       <r>   -0.1748    1.0000 </r>
       <r>    1.2417   -0.0002 </r>
       <r>    1.9425   -0.0000 </r>
       <r>    2.1681   -0.0000 </r>
       <r>    2.5087   -0.0000 </r>
       <r>    2.8064   -0.0000 </r>
       <r>    3.0813   -0.0000 </r>
       <r>    3.7365    0.0000 </r>
       <r>    4.2302    0.0000 </r>
       <r>    5.9163    0.0000 </r>
       <r>    6.4916    0.0000 </r>
       <r>    6.9166    0.0000 </r>
       <r>    7.6466    0.0000 </r>
      </set>
      <set comment="kpoint 10">
       <r>  -34.9826    1.0000 </r>
       <r>  -34.8808    1.0000 </r>
       <r>  -34.8370    1.0000 </r>
       <r>  -34.7537    1.0000 </r>
       <r>  -34.6988    1.0000 </r>
       <r>  -34.5763    1.0000 </r>
       <r>  -16.0531    1.0000 </r>
       <r>  -12.7586    1.0000 </r>
       <r>  -12.4926    1.0000 </r>
       <r>  -11.6440    1.0000 </r>
       <r>   -6.3648    1.0000 </r>
       <r>   -6.1633    1.0000 </r>
       <r>   -4.8365    1.0000 </r>
       <r>   -4.3398    1.0000 </r>
       <r>   -3.9151    1.0000 </r>
       <r>   -3.5339    1.0000 </r>
       <r>   -2.9784    1.0000 </r>
       <r>   -2.6222    1.0000 </r>
       <r>   -2.1241    1.0000 </r>
       <r>   -1.8530    1.0000 </r>
       <r>   -1.3262    1.0000 </r>
       <r>   -0.9647    1.0000 </r>
       <r>   -0.7737    1.0000 </r>
       <r>   -0.2684    1.0000 </r>
       <r>    1.3877   -0.0000 </r>
       <r>    1.9023   -0.0000 </r>
       <r>    2.3058   -0.0000 </r>
       <r>    2.5804   -0.0000 </r>
       <r>    2.8555   -0.0000 </r>
       <r>    3.2813   -0.0000 </r>
       <r>    4.1425    0.0000 </r>
       <r>    4.7066    0.0000 </r>
       <r>    6.5382    0.0000 </r>
       <r>    6.9471    0.0000 </r>
       <r>    7.2348    0.0000 </r>
       <r>    7.5570    0.0000 </r>
      </set>
      <set comment="kpoint 11">
       <r>  -35.0595    1.0000 </r>
       <r>  -34.8743    1.0000 </r>
       <r>  -34.8475    1.0000 </r>
       <r>  -34.8282    1.0000 </r>
       <r>  -34.6848    1.0000 </r>
       <r>  -34.5967    1.0000 </r>
       <r>  -15.5303    1.0000 </r>
       <r>  -12.4082    1.0000 </r>
       <r>  -12.1998    1.0000 </r>
       <r>  -11.7612    1.0000 </r>
       <r>   -7.1390    1.0000 </r>
       <r>   -6.3620    1.0000 </r>
       <r>   -5.1556    1.0000 </r>
       <r>   -4.6355    1.0000 </r>
       <r>   -4.3027    1.0000 </r>
       <r>   -3.6816    1.0000 </r>
       <r>   -3.1010    1.0000 </r>
       <r>   -2.8723    1.0000 </r>
       <r>   -2.2812    1.0000 </r>
       <r>   -1.7598    1.0000 </r>
       <r>   -1.3860    1.0000 </r>
       <r>   -0.9979    1.0000 </r>
       <r>   -0.6927    1.0000 </r>
       <r>   -0.2802    1.0000 </r>
       <r>    1.6325   -0.0000 </r>
       <r>    1.9813   -0.0000 </r>
       <r>    2.4577   -0.0000 </r>
       <r>    2.6247   -0.0000 </r>
       <r>    3.1191   -0.0000 </r>
       <r>    3.4659   -0.0000 </r>
       <r>    4.3850    0.0000 </r>
       <r>    5.0432    0.0000 </r>
       <r>    6.4025    0.0000 </r>
       <r>    7.2755    0.0000 </r>
       <r>    7.7141    0.0000 </r>
       <r>    8.0425    0.0000 </r>
      </set>
      <set comment="kpoint 12">
       <r>  -35.1137    1.0000 </r>
       <r>  -34.8814    1.0000 </r>
       <r>  -34.8805    1.0000 </r>
       <r>  -34.8429    1.0000 </r>
       <r>  -34.6759    1.0000 </r>
       <r>  -34.6101    1.0000 </r>
       <r>  -15.0343    1.0000 </r>
       <r>  -12.1840    1.0000 </r>
       <r>  -12.1044    1.0000 </r>
       <r>  -11.8313    1.0000 </r>
       <r>   -7.6258    1.0000 </r>
       <r>   -6.5610    1.0000 </r>
       <r>   -5.3632    1.0000 </r>
       <r>   -4.8902    1.0000 </r>
       <r>   -4.5623    1.0000 </r>
       <r>   -3.8652    1.0000 </r>
       <r>   -3.2155    1.0000 </r>
       <r>   -3.0616    1.0000 </r>
       <r>   -2.4195    1.0000 </r>
       <r>   -1.7454    1.0000 </r>
       <r>   -1.2403    1.0000 </r>
       <r>   -0.9353    1.0000 </r>
       <r>   -0.5508    1.0000 </r>
       <r>   -0.1560    1.0000 </r>
       <r>    1.8834   -0.0000 </r>
       <r>    2.1694   -0.0000 </r>
       <r>    2.4926   -0.0000 </r>
       <r>    2.8542   -0.0000 </r>
       <r>    3.1674   -0.0000 </r>
       <r>    3.6902    0.0000 </r>
       <r>    4.5119    0.0000 </r>
       <r>    5.0875    0.0000 </r>
       <r>    5.9145    0.0000 </r>
       <r>    7.2582    0.0000 </r>
       <r>    7.8347    0.0000 </r>
       <r>    8.3829    0.0000 </r>
      </set>
      <set comment="kpoint 13">
       <r>  -35.1337    1.0000 </r>
       <r>  -34.8988    1.0000 </r>
       <r>  -34.8847    1.0000 </r>
       <r>  -34.8399    1.0000 </r>
       <r>  -34.6729    1.0000 </r>
       <r>  -34.6151    1.0000 </r>
       <r>  -14.7857    1.0000 </r>
       <r>  -12.3058    1.0000 </r>
       <r>  -12.0361    1.0000 </r>
       <r>  -11.7737    1.0000 </r>
       <r>   -7.7654    1.0000 </r>
       <r>   -6.6840    1.0000 </r>
       <r>   -5.3971    1.0000 </r>
       <r>   -4.9803    1.0000 </r>
       <r>   -4.6653    1.0000 </r>
       <r>   -3.9444    1.0000 </r>
       <r>   -3.2993    1.0000 </r>
       <r>   -3.1305    1.0000 </r>
       <r>   -2.4238    1.0000 </r>
       <r>   -1.7506    1.0000 </r>
       <r>   -1.1302    1.0000 </r>
       <r>   -0.9078    1.0000 </r>
       <r>   -0.5423    1.0000 </r>
       <r>   -0.0521    1.0000 </r>
       <r>    1.9653   -0.0000 </r>
       <r>    2.2657   -0.0000 </r>
       <r>    2.5937   -0.0000 </r>
       <r>    2.9788   -0.0000 </r>
       <r>    3.1595   -0.0000 </r>
       <r>    3.7890    0.0000 </r>
       <r>    4.5080    0.0000 </r>
       <r>    4.8876    0.0000 </r>
       <r>    5.8620    0.0000 </r>
       <r>    7.1418    0.0000 </r>
       <r>    7.5989    0.0000 </r>
       <r>    8.8187    0.0000 </r>
      </set>
      <set comment="kpoint 14">
       <r>  -35.1157    1.0000 </r>
       <r>  -34.8793    1.0000 </r>
       <r>  -34.8788    1.0000 </r>
       <r>  -34.8432    1.0000 </r>
       <r>  -34.6750    1.0000 </r>
       <r>  -34.6125    1.0000 </r>
       <r>  -14.9844    1.0000 </r>
       <r>  -12.2424    1.0000 </r>
       <r>  -12.1172    1.0000 </r>
       <r>  -11.8430    1.0000 </r>
       <r>   -7.6282    1.0000 </r>
       <r>   -6.6485    1.0000 </r>
       <r>   -5.2273    1.0000 </r>
       <r>   -4.8711    1.0000 </r>
       <r>   -4.6030    1.0000 </r>
       <r>   -3.8503    1.0000 </r>
       <r>   -3.2941    1.0000 </r>
       <r>   -3.0109    1.0000 </r>
       <r>   -2.3082    1.0000 </r>
       <r>   -1.7592    1.0000 </r>
       <r>   -1.1595    1.0000 </r>
       <r>   -0.9918    1.0000 </r>
       <r>   -0.7385    1.0000 </r>
       <r>   -0.1095    1.0000 </r>
       <r>    1.8589   -0.0000 </r>
       <r>    2.2763   -0.0000 </r>
       <r>    2.4786   -0.0000 </r>
       <r>    2.8285   -0.0000 </r>
       <r>    3.2610   -0.0000 </r>
       <r>    3.7506    0.0000 </r>
       <r>    4.4184    0.0000 </r>
       <r>    4.8457    0.0000 </r>
       <r>    6.0952    0.0000 </r>
       <r>    7.2518    0.0000 </r>
       <r>    7.9161    0.0000 </r>
       <r>    8.3120    0.0000 </r>
      </set>
      <set comment="kpoint 15">
       <r>  -35.0638    1.0000 </r>
       <r>  -34.8703    1.0000 </r>
       <r>  -34.8472    1.0000 </r>
       <r>  -34.8253    1.0000 </r>
       <r>  -34.6829    1.0000 </r>
       <r>  -34.6016    1.0000 </r>
       <r>  -15.4705    1.0000 </r>
       <r>  -12.4168    1.0000 </r>
       <r>  -12.2139    1.0000 </r>
       <r>  -11.8390    1.0000 </r>
       <r>   -7.2042    1.0000 </r>
       <r>   -6.4936    1.0000 </r>
       <r>   -4.8870    1.0000 </r>
       <r>   -4.6297    1.0000 </r>
       <r>   -4.3478    1.0000 </r>
       <r>   -3.6691    1.0000 </r>
       <r>   -3.1952    1.0000 </r>
       <r>   -2.7815    1.0000 </r>
       <r>   -2.1393    1.0000 </r>
       <r>   -1.7428    1.0000 </r>
       <r>   -1.3726    1.0000 </r>
       <r>   -1.0909    1.0000 </r>
       <r>   -0.8919    1.0000 </r>
       <r>   -0.1937    1.0000 </r>
       <r>    1.6024   -0.0000 </r>
       <r>    2.1489   -0.0000 </r>
       <r>    2.3630   -0.0000 </r>
       <r>    2.6150   -0.0000 </r>
       <r>    3.2971   -0.0000 </r>
       <r>    3.5025   -0.0000 </r>
       <r>    4.1952    0.0000 </r>
       <r>    4.8509    0.0000 </r>
       <r>    6.6365    0.0000 </r>
       <r>    7.2877    0.0000 </r>
       <r>    7.7073    0.0000 </r>
       <r>    8.0089    0.0000 </r>
      </set>
      <set comment="kpoint 16">
       <r>  -34.9900    1.0000 </r>
       <r>  -34.8779    1.0000 </r>
       <r>  -34.8325    1.0000 </r>
       <r>  -34.7512    1.0000 </r>
       <r>  -34.6939    1.0000 </r>
       <r>  -34.5838    1.0000 </r>
       <r>  -16.0027    1.0000 </r>
       <r>  -12.7644    1.0000 </r>
       <r>  -12.4943    1.0000 </r>
       <r>  -11.7145    1.0000 </r>
       <r>   -6.5094    1.0000 </r>
       <r>   -6.3372    1.0000 </r>
       <r>   -4.4660    1.0000 </r>
       <r>   -4.3535    1.0000 </r>
       <r>   -3.9464    1.0000 </r>
       <r>   -3.5163    1.0000 </r>
       <r>   -3.0251    1.0000 </r>
       <r>   -2.5649    1.0000 </r>
       <r>   -2.0331    1.0000 </r>
       <r>   -1.7542    1.0000 </r>
       <r>   -1.4732    1.0000 </r>
       <r>   -1.0888    1.0000 </r>
       <r>   -0.8138    1.0000 </r>
       <r>   -0.1178    1.0000 </r>
       <r>    1.3335   -0.0000 </r>
       <r>    2.0084   -0.0000 </r>
       <r>    2.2968   -0.0000 </r>
       <r>    2.5049   -0.0000 </r>
       <r>    3.0326   -0.0000 </r>
       <r>    3.3260   -0.0000 </r>
       <r>    3.8663    0.0000 </r>
       <r>    4.7486    0.0000 </r>
       <r>    6.5386    0.0000 </r>
       <r>    7.0359    0.0000 </r>
       <r>    7.3284    0.0000 </r>
       <r>    7.5512    0.0000 </r>
      </set>
      <set comment="kpoint 17">
       <r>  -34.9162    1.0000 </r>
       <r>  -34.8881    1.0000 </r>
       <r>  -34.8089    1.0000 </r>
       <r>  -34.7196    1.0000 </r>
       <r>  -34.6579    1.0000 </r>
       <r>  -34.5642    1.0000 </r>
       <r>  -16.4604    1.0000 </r>
       <r>  -13.1179    1.0000 </r>
       <r>  -12.7856    1.0000 </r>
       <r>  -11.6689    1.0000 </r>
       <r>   -6.3818    1.0000 </r>
       <r>   -5.6028    1.0000 </r>
       <r>   -4.2215    1.0000 </r>
       <r>   -4.0133    1.0000 </r>
       <r>   -3.5065    1.0000 </r>
       <r>   -3.2517    1.0000 </r>
       <r>   -2.7936    1.0000 </r>
       <r>   -2.2944    1.0000 </r>
       <r>   -2.1156    1.0000 </r>
       <r>   -1.9746    1.0000 </r>
       <r>   -1.2478    1.0000 </r>
       <r>   -0.8727    1.0000 </r>
       <r>   -0.5343    1.0000 </r>
       <r>    0.0109    1.0000 </r>
       <r>    1.2060   -0.0010 </r>
       <r>    1.9459   -0.0000 </r>
       <r>    2.2831   -0.0000 </r>
       <r>    2.4884   -0.0000 </r>
       <r>    2.8888   -0.0000 </r>
       <r>    3.1024   -0.0000 </r>
       <r>    3.4388   -0.0000 </r>
       <r>    4.4318    0.0000 </r>
       <r>    5.9135    0.0000 </r>
       <r>    6.4875    0.0000 </r>
       <r>    6.9308    0.0000 </r>
       <r>    7.7295    0.0000 </r>
      </set>
      <set comment="kpoint 18">
       <r>  -34.9111    1.0000 </r>
       <r>  -34.8423    1.0000 </r>
       <r>  -34.7867    1.0000 </r>
       <r>  -34.7305    1.0000 </r>
       <r>  -34.5887    1.0000 </r>
       <r>  -34.5492    1.0000 </r>
       <r>  -16.7893    1.0000 </r>
       <r>  -13.3986    1.0000 </r>
       <r>  -13.0106    1.0000 </r>
       <r>  -11.6731    1.0000 </r>
       <r>   -6.5092    1.0000 </r>
       <r>   -4.8338    1.0000 </r>
       <r>   -4.2374    1.0000 </r>
       <r>   -3.5334    1.0000 </r>
       <r>   -3.0476    1.0000 </r>
       <r>   -2.9463    1.0000 </r>
       <r>   -2.5562    1.0000 </r>
       <r>   -2.2943    1.0000 </r>
       <r>   -2.1151    1.0000 </r>
       <r>   -1.8561    1.0000 </r>
       <r>   -1.1077    1.0000 </r>
       <r>   -0.6101    1.0000 </r>
       <r>   -0.4076    1.0000 </r>
       <r>    0.1564    1.0000 </r>
       <r>    1.2405   -0.0002 </r>
       <r>    2.0144   -0.0000 </r>
       <r>    2.3479   -0.0000 </r>
       <r>    2.5589   -0.0000 </r>
       <r>    2.7324   -0.0000 </r>
       <r>    2.9501   -0.0000 </r>
       <r>    3.0953   -0.0000 </r>
       <r>    3.9122    0.0000 </r>
       <r>    5.4697    0.0000 </r>
       <r>    6.0524    0.0000 </r>
       <r>    6.4949    0.0000 </r>
       <r>    7.6375    0.0000 </r>
      </set>
      <set comment="kpoint 19">
       <r>  -34.9180    1.0000 </r>
       <r>  -34.8071    1.0000 </r>
       <r>  -34.7731    1.0000 </r>
       <r>  -34.7377    1.0000 </r>
       <r>  -34.5478    1.0000 </r>
       <r>  -34.5411    1.0000 </r>
       <r>  -16.9630    1.0000 </r>
       <r>  -13.5523    1.0000 </r>
       <r>  -13.1319    1.0000 </r>
       <r>  -11.6831    1.0000 </r>
       <r>   -6.6164    1.0000 </r>
       <r>   -4.5104    1.0000 </r>
       <r>   -4.1185    1.0000 </r>
       <r>   -3.1719    1.0000 </r>
       <r>   -2.8113    1.0000 </r>
       <r>   -2.6678    1.0000 </r>
       <r>   -2.6200    1.0000 </r>
       <r>   -2.1659    1.0000 </r>
       <r>   -1.9930    1.0000 </r>
       <r>   -1.6624    1.0000 </r>
       <r>   -1.2336    1.0000 </r>
       <r>   -0.5476    1.0000 </r>
       <r>   -0.2616    1.0000 </r>
       <r>    0.3233    1.0000 </r>
       <r>    1.3796   -0.0000 </r>
       <r>    1.8772   -0.0000 </r>
       <r>    2.2109   -0.0000 </r>
       <r>    2.4220   -0.0000 </r>
       <r>    2.7595   -0.0000 </r>
       <r>    2.8887   -0.0000 </r>
       <r>    3.1031   -0.0000 </r>
       <r>    3.6840    0.0000 </r>
       <r>    5.2409    0.0000 </r>
       <r>    5.8203    0.0000 </r>
       <r>    6.2347    0.0000 </r>
       <r>    6.8815    0.0000 </r>
      </set>
      <set comment="kpoint 20">
       <r>  -34.9616    1.0000 </r>
       <r>  -34.8846    1.0000 </r>
       <r>  -34.8422    1.0000 </r>
       <r>  -34.7361    1.0000 </r>
       <r>  -34.7026    1.0000 </r>
       <r>  -34.5781    1.0000 </r>
       <r>  -16.1295    1.0000 </r>
       <r>  -12.8094    1.0000 </r>
       <r>  -12.5345    1.0000 </r>
       <r>  -11.6203    1.0000 </r>
       <r>   -6.2511    1.0000 </r>
       <r>   -5.5990    1.0000 </r>
       <r>   -5.4559    1.0000 </r>
       <r>   -4.2923    1.0000 </r>
       <r>   -3.8168    1.0000 </r>
       <r>   -3.4364    1.0000 </r>
       <r>   -3.0659    1.0000 </r>
       <r>   -2.5786    1.0000 </r>
       <r>   -2.1222    1.0000 </r>
       <r>   -2.0231    1.0000 </r>
       <r>   -1.1689    1.0000 </r>
       <r>   -0.9385    1.0000 </r>
       <r>   -0.6625    1.0000 </r>
       <r>   -0.2890    1.0000 </r>
       <r>    1.5258   -0.0000 </r>
       <r>    2.0442   -0.0000 </r>
       <r>    2.0934   -0.0000 </r>
       <r>    2.4793   -0.0000 </r>
       <r>    2.7498   -0.0000 </r>
       <r>    3.3142   -0.0000 </r>
       <r>    4.1299    0.0000 </r>
       <r>    4.6250    0.0000 </r>
       <r>    6.4567    0.0000 </r>
       <r>    6.9970    0.0000 </r>
       <r>    7.2618    0.0000 </r>
       <r>    7.4966    0.0000 </r>
      </set>
      <set comment="kpoint 21">
       <r>  -35.0262    1.0000 </r>
       <r>  -34.8869    1.0000 </r>
       <r>  -34.8541    1.0000 </r>
       <r>  -34.7995    1.0000 </r>
       <r>  -34.6898    1.0000 </r>
       <r>  -34.6063    1.0000 </r>
       <r>  -15.6546    1.0000 </r>
       <r>  -12.4730    1.0000 </r>
       <r>  -12.2445    1.0000 </r>
       <r>  -11.6898    1.0000 </r>
       <r>   -6.6048    1.0000 </r>
       <r>   -6.2226    1.0000 </r>
       <r>   -5.7899    1.0000 </r>
       <r>   -4.5262    1.0000 </r>
       <r>   -4.2178    1.0000 </r>
       <r>   -3.5410    1.0000 </r>
       <r>   -3.2180    1.0000 </r>
       <r>   -2.7197    1.0000 </r>
       <r>   -2.4045    1.0000 </r>
       <r>   -2.0462    1.0000 </r>
       <r>   -1.2915    1.0000 </r>
       <r>   -0.9940    1.0000 </r>
       <r>   -0.5782    1.0000 </r>
       <r>   -0.2445    1.0000 </r>
       <r>    1.7444   -0.0000 </r>
       <r>    2.0738   -0.0000 </r>
       <r>    2.2968   -0.0000 </r>
       <r>    2.5528   -0.0000 </r>
       <r>    2.9314   -0.0000 </r>
       <r>    3.4789   -0.0000 </r>
       <r>    4.3886    0.0000 </r>
       <r>    5.0182    0.0000 </r>
       <r>    6.8874    0.0000 </r>
       <r>    7.1553    0.0000 </r>
       <r>    7.6774    0.0000 </r>
       <r>    8.1496    0.0000 </r>
      </set>
      <set comment="kpoint 22">
       <r>  -35.0793    1.0000 </r>
       <r>  -34.9065    1.0000 </r>
       <r>  -34.8500    1.0000 </r>
       <r>  -34.8460    1.0000 </r>
       <r>  -34.6830    1.0000 </r>
       <r>  -34.6276    1.0000 </r>
       <r>  -15.1377    1.0000 </r>
       <r>  -12.1878    1.0000 </r>
       <r>  -12.0456    1.0000 </r>
       <r>  -11.8173    1.0000 </r>
       <r>   -7.2766    1.0000 </r>
       <r>   -6.3981    1.0000 </r>
       <r>   -5.9896    1.0000 </r>
       <r>   -4.7848    1.0000 </r>
       <r>   -4.5156    1.0000 </r>
       <r>   -3.6952    1.0000 </r>
       <r>   -3.2657    1.0000 </r>
       <r>   -2.9845    1.0000 </r>
       <r>   -2.6022    1.0000 </r>
       <r>   -2.0815    1.0000 </r>
       <r>   -1.3450    1.0000 </r>
       <r>   -0.8114    1.0000 </r>
       <r>   -0.4779    1.0000 </r>
       <r>   -0.1754    1.0000 </r>
       <r>    1.9779   -0.0000 </r>
       <r>    2.1241   -0.0000 </r>
       <r>    2.5147   -0.0000 </r>
       <r>    2.7285   -0.0000 </r>
       <r>    3.1272   -0.0000 </r>
       <r>    3.6233   -0.0000 </r>
       <r>    4.5412    0.0000 </r>
       <r>    5.1844    0.0000 </r>
       <r>    6.4224    0.0000 </r>
       <r>    7.7488    0.0000 </r>
       <r>    7.9228    0.0000 </r>
       <r>    8.5112    0.0000 </r>
      </set>
      <set comment="kpoint 23">
       <r>  -35.1099    1.0000 </r>
       <r>  -34.9186    1.0000 </r>
       <r>  -34.8770    1.0000 </r>
       <r>  -34.8398    1.0000 </r>
       <r>  -34.6834    1.0000 </r>
       <r>  -34.6364    1.0000 </r>
       <r>  -14.7201    1.0000 </r>
       <r>  -12.2578    1.0000 </r>
       <r>  -11.9962    1.0000 </r>
       <r>  -11.7421    1.0000 </r>
       <r>   -7.5977    1.0000 </r>
       <r>   -6.5830    1.0000 </r>
       <r>   -6.0372    1.0000 </r>
       <r>   -4.9663    1.0000 </r>
       <r>   -4.6179    1.0000 </r>
       <r>   -3.8121    1.0000 </r>
       <r>   -3.3739    1.0000 </r>
       <r>   -3.1762    1.0000 </r>
       <r>   -2.7350    1.0000 </r>
       <r>   -2.0061    1.0000 </r>
       <r>   -1.2930    1.0000 </r>
       <r>   -0.6454    1.0000 </r>
       <r>   -0.5092    1.0000 </r>
       <r>    0.0295    1.0000 </r>
       <r>    1.9650   -0.0000 </r>
       <r>    2.1540   -0.0000 </r>
       <r>    2.7167   -0.0000 </r>
       <r>    2.9602   -0.0000 </r>
       <r>    3.1630   -0.0000 </r>
       <r>    3.8912    0.0000 </r>
       <r>    4.4858    0.0000 </r>
       <r>    5.0641    0.0000 </r>
       <r>    6.1628    0.0000 </r>
       <r>    7.4987    0.0000 </r>
       <r>    8.0303    0.0000 </r>
       <r>    8.8578    0.0000 </r>
      </set>
      <set comment="kpoint 24">
       <r>  -35.1123    1.0000 </r>
       <r>  -34.9160    1.0000 </r>
       <r>  -34.8751    1.0000 </r>
       <r>  -34.8399    1.0000 </r>
       <r>  -34.6829    1.0000 </r>
       <r>  -34.6388    1.0000 </r>
       <r>  -14.6533    1.0000 </r>
       <r>  -12.3613    1.0000 </r>
       <r>  -11.9967    1.0000 </r>
       <r>  -11.7445    1.0000 </r>
       <r>   -7.5857    1.0000 </r>
       <r>   -6.7164    1.0000 </r>
       <r>   -5.8829    1.0000 </r>
       <r>   -4.9540    1.0000 </r>
       <r>   -4.6367    1.0000 </r>
       <r>   -3.7882    1.0000 </r>
       <r>   -3.4055    1.0000 </r>
       <r>   -3.2146    1.0000 </r>
       <r>   -2.6318    1.0000 </r>
       <r>   -1.9551    1.0000 </r>
       <r>   -1.3548    1.0000 </r>
       <r>   -0.7319    1.0000 </r>
       <r>   -0.5216    1.0000 </r>
       <r>    0.0818    1.0000 </r>
       <r>    1.9432   -0.0000 </r>
       <r>    2.1738   -0.0000 </r>
       <r>    2.7419   -0.0000 </r>
       <r>    2.9468   -0.0000 </r>
       <r>    3.2354   -0.0000 </r>
       <r>    4.0000    0.0000 </r>
       <r>    4.3216    0.0000 </r>
       <r>    4.9482    0.0000 </r>
       <r>    6.2605    0.0000 </r>
       <r>    7.4869    0.0000 </r>
       <r>    8.1079    0.0000 </r>
       <r>    8.7483    0.0000 </r>
      </set>
      <set comment="kpoint 25">
       <r>  -35.0864    1.0000 </r>
       <r>  -34.8986    1.0000 </r>
       <r>  -34.8471    1.0000 </r>
       <r>  -34.8445    1.0000 </r>
       <r>  -34.6799    1.0000 </r>
       <r>  -34.6360    1.0000 </r>
       <r>  -15.0078    1.0000 </r>
       <r>  -12.2689    1.0000 </r>
       <r>  -12.1260    1.0000 </r>
       <r>  -11.8737    1.0000 </r>
       <r>   -7.3270    1.0000 </r>
       <r>   -6.7029    1.0000 </r>
       <r>   -5.5627    1.0000 </r>
       <r>   -4.7507    1.0000 </r>
       <r>   -4.5636    1.0000 </r>
       <r>   -3.6507    1.0000 </r>
       <r>   -3.3645    1.0000 </r>
       <r>   -2.9935    1.0000 </r>
       <r>   -2.3620    1.0000 </r>
       <r>   -2.0041    1.0000 </r>
       <r>   -1.4914    1.0000 </r>
       <r>   -0.8939    1.0000 </r>
       <r>   -0.6776    1.0000 </r>
       <r>    0.0159    1.0000 </r>
       <r>    1.8914   -0.0000 </r>
       <r>    2.2278   -0.0000 </r>
       <r>    2.5546   -0.0000 </r>
       <r>    2.6954   -0.0000 </r>
       <r>    3.3005   -0.0000 </r>
       <r>    3.6986    0.0000 </r>
       <r>    4.3818    0.0000 </r>
       <r>    4.8625    0.0000 </r>
       <r>    6.7020    0.0000 </r>
       <r>    7.7560    0.0000 </r>
       <r>    7.9646    0.0000 </r>
       <r>    8.5084    0.0000 </r>
      </set>
      <set comment="kpoint 26">
       <r>  -35.0381    1.0000 </r>
       <r>  -34.8738    1.0000 </r>
       <r>  -34.8553    1.0000 </r>
       <r>  -34.7921    1.0000 </r>
       <r>  -34.6834    1.0000 </r>
       <r>  -34.6203    1.0000 </r>
       <r>  -15.5318    1.0000 </r>
       <r>  -12.4911    1.0000 </r>
       <r>  -12.2609    1.0000 </r>
       <r>  -11.8594    1.0000 </r>
       <r>   -6.9104    1.0000 </r>
       <r>   -6.5257    1.0000 </r>
       <r>   -5.1205    1.0000 </r>
       <r>   -4.5278    1.0000 </r>
       <r>   -4.2507    1.0000 </r>
       <r>   -3.4969    1.0000 </r>
       <r>   -3.2702    1.0000 </r>
       <r>   -2.7448    1.0000 </r>
       <r>   -2.1262    1.0000 </r>
       <r>   -2.0149    1.0000 </r>
       <r>   -1.4544    1.0000 </r>
       <r>   -1.0529    1.0000 </r>
       <r>   -0.7917    1.0000 </r>
       <r>    0.0065    1.0000 </r>
       <r>    1.6647   -0.0000 </r>
       <r>    2.1858   -0.0000 </r>
       <r>    2.3363   -0.0000 </r>
       <r>    2.4841   -0.0000 </r>
       <r>    3.0727   -0.0000 </r>
       <r>    3.5922   -0.0000 </r>
       <r>    4.2041    0.0000 </r>
       <r>    4.8329    0.0000 </r>
       <r>    7.0885    0.0000 </r>
       <r>    7.2646    0.0000 </r>
       <r>    7.6669    0.0000 </r>
       <r>    8.1431    0.0000 </r>
      </set>
      <set comment="kpoint 27">
       <r>  -34.9782    1.0000 </r>
       <r>  -34.8779    1.0000 </r>
       <r>  -34.8322    1.0000 </r>
       <r>  -34.7346    1.0000 </r>
       <r>  -34.6865    1.0000 </r>
       <r>  -34.5958    1.0000 </r>
       <r>  -16.0351    1.0000 </r>
       <r>  -12.8210    1.0000 </r>
       <r>  -12.5353    1.0000 </r>
       <r>  -11.7510    1.0000 </r>
       <r>   -6.5380    1.0000 </r>
       <r>   -6.1958    1.0000 </r>
       <r>   -4.5811    1.0000 </r>
       <r>   -4.3041    1.0000 </r>
       <r>   -3.8623    1.0000 </r>
       <r>   -3.3915    1.0000 </r>
       <r>   -3.0639    1.0000 </r>
       <r>   -2.6101    1.0000 </r>
       <r>   -2.0279    1.0000 </r>
       <r>   -1.9096    1.0000 </r>
       <r>   -1.3221    1.0000 </r>
       <r>   -0.9926    1.0000 </r>
       <r>   -0.7171    1.0000 </r>
       <r>   -0.0281    1.0000 </r>
       <r>    1.4153   -0.0000 </r>
       <r>    2.0549   -0.0000 </r>
       <r>    2.2829   -0.0000 </r>
       <r>    2.4435   -0.0000 </r>
       <r>    2.8397   -0.0000 </r>
       <r>    3.4595   -0.0000 </r>
       <r>    3.8244    0.0000 </r>
       <r>    4.7403    0.0000 </r>
       <r>    6.4484    0.0000 </r>
       <r>    6.9999    0.0000 </r>
       <r>    7.3611    0.0000 </r>
       <r>    7.4597    0.0000 </r>
      </set>
      <set comment="kpoint 28">
       <r>  -34.9230    1.0000 </r>
       <r>  -34.8867    1.0000 </r>
       <r>  -34.8035    1.0000 </r>
       <r>  -34.7213    1.0000 </r>
       <r>  -34.6467    1.0000 </r>
       <r>  -34.5738    1.0000 </r>
       <r>  -16.4344    1.0000 </r>
       <r>  -13.1213    1.0000 </r>
       <r>  -12.7844    1.0000 </r>
       <r>  -11.7020    1.0000 </r>
       <r>   -6.4474    1.0000 </r>
       <r>   -5.6900    1.0000 </r>
       <r>   -4.2201    1.0000 </r>
       <r>   -3.9395    1.0000 </r>
       <r>   -3.5146    1.0000 </r>
       <r>   -3.2644    1.0000 </r>
       <r>   -2.8238    1.0000 </r>
       <r>   -2.2774    1.0000 </r>
       <r>   -2.1251    1.0000 </r>
       <r>   -1.9538    1.0000 </r>
       <r>   -1.1053    1.0000 </r>
       <r>   -0.8590    1.0000 </r>
       <r>   -0.5580    1.0000 </r>
       <r>   -0.0304    1.0000 </r>
       <r>    1.2597   -0.0001 </r>
       <r>    2.0459   -0.0000 </r>
       <r>    2.3307   -0.0000 </r>
       <r>    2.5187   -0.0000 </r>
       <r>    2.8500   -0.0000 </r>
       <r>    3.1673   -0.0000 </r>
       <r>    3.4411   -0.0000 </r>
       <r>    4.4121    0.0000 </r>
       <r>    5.9165    0.0000 </r>
       <r>    6.4776    0.0000 </r>
       <r>    6.9361    0.0000 </r>
       <r>    7.4265    0.0000 </r>
      </set>
      <set comment="kpoint 29">
       <r>  -34.9095    1.0000 </r>
       <r>  -34.8632    1.0000 </r>
       <r>  -34.7867    1.0000 </r>
       <r>  -34.7278    1.0000 </r>
       <r>  -34.5987    1.0000 </r>
       <r>  -34.5614    1.0000 </r>
       <r>  -16.6917    1.0000 </r>
       <r>  -13.3269    1.0000 </r>
       <r>  -12.9515    1.0000 </r>
       <r>  -11.6860    1.0000 </r>
       <r>   -6.4899    1.0000 </r>
       <r>   -5.1746    1.0000 </r>
       <r>   -4.2245    1.0000 </r>
       <r>   -3.4538    1.0000 </r>
       <r>   -3.2414    1.0000 </r>
       <r>   -3.1609    1.0000 </r>
       <r>   -2.5593    1.0000 </r>
       <r>   -2.3285    1.0000 </r>
       <r>   -2.0652    1.0000 </r>
       <r>   -1.8776    1.0000 </r>
       <r>   -1.0694    1.0000 </r>
       <r>   -0.7130    1.0000 </r>
       <r>   -0.4530    1.0000 </r>
       <r>    0.0731    1.0000 </r>
       <r>    1.2686   -0.0000 </r>
       <r>    2.1370   -0.0000 </r>
       <r>    2.3549   -0.0000 </r>
       <r>    2.6187   -0.0000 </r>
       <r>    2.6747   -0.0000 </r>
       <r>    2.9755   -0.0000 </r>
       <r>    3.3048   -0.0000 </r>
       <r>    3.9551    0.0000 </r>
       <r>    5.5833    0.0000 </r>
       <r>    6.1547    0.0000 </r>
       <r>    6.6116    0.0000 </r>
       <r>    7.4387    0.0000 </r>
      </set>
      <set comment="kpoint 30">
       <r>  -35.0587    1.0000 </r>
       <r>  -34.9239    1.0000 </r>
       <r>  -34.8473    1.0000 </r>
       <r>  -34.8328    1.0000 </r>
       <r>  -34.6891    1.0000 </r>
       <r>  -34.6364    1.0000 </r>
       <r>  -15.1761    1.0000 </r>
       <r>  -12.1982    1.0000 </r>
       <r>  -12.0233    1.0000 </r>
       <r>  -11.7966    1.0000 </r>
       <r>   -6.8583    1.0000 </r>
       <r>   -6.5754    1.0000 </r>
       <r>   -6.2793    1.0000 </r>
       <r>   -4.6779    1.0000 </r>
       <r>   -4.5468    1.0000 </r>
       <r>   -3.6625    1.0000 </r>
       <r>   -3.3276    1.0000 </r>
       <r>   -2.7706    1.0000 </r>
       <r>   -2.7083    1.0000 </r>
       <r>   -2.2803    1.0000 </r>
       <r>   -1.4969    1.0000 </r>
       <r>   -0.7863    1.0000 </r>
       <r>   -0.3525    1.0000 </r>
       <r>   -0.2195    1.0000 </r>
       <r>    1.9384   -0.0000 </r>
       <r>    2.2353   -0.0000 </r>
       <r>    2.5028   -0.0000 </r>
       <r>    2.7289   -0.0000 </r>
       <r>    3.0472   -0.0000 </r>
       <r>    3.5804   -0.0000 </r>
       <r>    4.5719    0.0000 </r>
       <r>    5.3001    0.0000 </r>
       <r>    6.9185    0.0000 </r>
       <r>    7.9573    0.0000 </r>
       <r>    8.1264    0.0000 </r>
       <r>    8.3357    0.0000 </r>
      </set>
      <set comment="kpoint 31">
       <r>  -35.0772    1.0000 </r>
       <r>  -34.9576    1.0000 </r>
       <r>  -34.8492    1.0000 </r>
       <r>  -34.8393    1.0000 </r>
       <r>  -34.7073    1.0000 </r>
       <r>  -34.6463    1.0000 </r>
       <r>  -14.6974    1.0000 </r>
       <r>  -12.1917    1.0000 </r>
       <r>  -11.9720    1.0000 </r>
       <r>  -11.7254    1.0000 </r>
       <r>   -7.3108    1.0000 </r>
       <r>   -6.6519    1.0000 </r>
       <r>   -6.4729    1.0000 </r>
       <r>   -4.8521    1.0000 </r>
       <r>   -4.6187    1.0000 </r>
       <r>   -3.8753    1.0000 </r>
       <r>   -3.4229    1.0000 </r>
       <r>   -3.0821    1.0000 </r>
       <r>   -2.6556    1.0000 </r>
       <r>   -2.4719    1.0000 </r>
       <r>   -1.5633    1.0000 </r>
       <r>   -0.4794    1.0000 </r>
       <r>   -0.3829    1.0000 </r>
       <r>   -0.0100    1.0000 </r>
       <r>    1.8789   -0.0000 </r>
       <r>    2.0972   -0.0000 </r>
       <r>    2.7373   -0.0000 </r>
       <r>    3.0416   -0.0000 </r>
       <r>    3.2101   -0.0000 </r>
       <r>    3.7497    0.0000 </r>
       <r>    4.7140    0.0000 </r>
       <r>    5.3197    0.0000 </r>
       <r>    6.8322    0.0000 </r>
       <r>    7.6334    0.0000 </r>
       <r>    8.0796    0.0000 </r>
       <r>    8.6788    0.0000 </r>
      </set>
      <set comment="kpoint 32">
       <r>  -35.0860    1.0000 </r>
       <r>  -34.9676    1.0000 </r>
       <r>  -34.8507    1.0000 </r>
       <r>  -34.8365    1.0000 </r>
       <r>  -34.7204    1.0000 </r>
       <r>  -34.6476    1.0000 </r>
       <r>  -14.3890    1.0000 </r>
       <r>  -12.4648    1.0000 </r>
       <r>  -11.9011    1.0000 </r>
       <r>  -11.6574    1.0000 </r>
       <r>   -7.4539    1.0000 </r>
       <r>   -6.7899    1.0000 </r>
       <r>   -6.4163    1.0000 </r>
       <r>   -4.9598    1.0000 </r>
       <r>   -4.5216    1.0000 </r>
       <r>   -3.9873    1.0000 </r>
       <r>   -3.5587    1.0000 </r>
       <r>   -3.1402    1.0000 </r>
       <r>   -2.7107    1.0000 </r>
       <r>   -2.4259    1.0000 </r>
       <r>   -1.6057    1.0000 </r>
       <r>   -0.4984    1.0000 </r>
       <r>   -0.2781    1.0000 </r>
       <r>    0.2098    1.0000 </r>
       <r>    1.7321   -0.0000 </r>
       <r>    1.9483   -0.0000 </r>
       <r>    2.8294   -0.0000 </r>
       <r>    3.1045   -0.0000 </r>
       <r>    3.4738   -0.0000 </r>
       <r>    3.8640    0.0000 </r>
       <r>    4.7274    0.0000 </r>
       <r>    5.1578    0.0000 </r>
       <r>    6.7503    0.0000 </r>
       <r>    7.6190    0.0000 </r>
       <r>    7.9459    0.0000 </r>
       <r>    8.7860    0.0000 </r>
      </set>
      <set comment="kpoint 33">
       <r>  -35.0871    1.0000 </r>
       <r>  -34.9472    1.0000 </r>
       <r>  -34.8422    1.0000 </r>
       <r>  -34.8396    1.0000 </r>
       <r>  -34.7097    1.0000 </r>
       <r>  -34.6512    1.0000 </r>
       <r>  -14.4964    1.0000 </r>
       <r>  -12.4996    1.0000 </r>
       <r>  -11.9735    1.0000 </r>
       <r>  -11.7296    1.0000 </r>
       <r>   -7.2737    1.0000 </r>
       <r>   -6.9678    1.0000 </r>
       <r>   -6.1403    1.0000 </r>
       <r>   -4.8553    1.0000 </r>
       <r>   -4.6107    1.0000 </r>
       <r>   -3.8001    1.0000 </r>
       <r>   -3.4588    1.0000 </r>
       <r>   -3.0933    1.0000 </r>
       <r>   -2.6180    1.0000 </r>
       <r>   -2.3649    1.0000 </r>
       <r>   -1.6776    1.0000 </r>
       <r>   -0.6623    1.0000 </r>
       <r>   -0.3312    1.0000 </r>
       <r>    0.1463    1.0000 </r>
       <r>    1.8566   -0.0000 </r>
       <r>    2.0877   -0.0000 </r>
       <r>    2.7560   -0.0000 </r>
       <r>    2.9967   -0.0000 </r>
       <r>    3.3923   -0.0000 </r>
       <r>    3.7054    0.0000 </r>
       <r>    4.7151    0.0000 </r>
       <r>    5.0583    0.0000 </r>
       <r>    7.0565    0.0000 </r>
       <r>    7.7848    0.0000 </r>
       <r>    8.0775    0.0000 </r>
       <r>    8.5197    0.0000 </r>
      </set>
      <set comment="kpoint 34">
       <r>  -35.0740    1.0000 </r>
       <r>  -34.9073    1.0000 </r>
       <r>  -34.8486    1.0000 </r>
       <r>  -34.8218    1.0000 </r>
       <r>  -34.6828    1.0000 </r>
       <r>  -34.6539    1.0000 </r>
       <r>  -14.9444    1.0000 </r>
       <r>  -12.3619    1.0000 </r>
       <r>  -12.1389    1.0000 </r>
       <r>  -11.9012    1.0000 </r>
       <r>   -7.1406    1.0000 </r>
       <r>   -6.8019    1.0000 </r>
       <r>   -5.7258    1.0000 </r>
       <r>   -4.6564    1.0000 </r>
       <r>   -4.5502    1.0000 </r>
       <r>   -3.5744    1.0000 </r>
       <r>   -3.3759    1.0000 </r>
       <r>   -2.8185    1.0000 </r>
       <r>   -2.4967    1.0000 </r>
       <r>   -2.2905    1.0000 </r>
       <r>   -1.5779    1.0000 </r>
       <r>   -0.8684    1.0000 </r>
       <r>   -0.5681    1.0000 </r>
       <r>    0.1235    1.0000 </r>
       <r>    1.8706   -0.0000 </r>
       <r>    2.2294   -0.0000 </r>
       <r>    2.5483   -0.0000 </r>
       <r>    2.7350   -0.0000 </r>
       <r>    3.1480   -0.0000 </r>
       <r>    3.6284   -0.0000 </r>
       <r>    4.6889    0.0000 </r>
       <r>    4.8995    0.0000 </r>
       <r>    7.2973    0.0000 </r>
       <r>    7.9277    0.0000 </r>
       <r>    8.2085    0.0000 </r>
       <r>    8.3817    0.0000 </r>
      </set>
      <set comment="kpoint 35">
       <r>  -35.0436    1.0000 </r>
       <r>  -34.8665    1.0000 </r>
       <r>  -34.8570    1.0000 </r>
       <r>  -34.7883    1.0000 </r>
       <r>  -34.6781    1.0000 </r>
       <r>  -34.6295    1.0000 </r>
       <r>  -15.4642    1.0000 </r>
       <r>  -12.5092    1.0000 </r>
       <r>  -12.2688    1.0000 </r>
       <r>  -11.9421    1.0000 </r>
       <r>   -7.0609    1.0000 </r>
       <r>   -6.4531    1.0000 </r>
       <r>   -5.1146    1.0000 </r>
       <r>   -4.5289    1.0000 </r>
       <r>   -4.2323    1.0000 </r>
       <r>   -3.4237    1.0000 </r>
       <r>   -3.2867    1.0000 </r>
       <r>   -2.7719    1.0000 </r>
       <r>   -2.2468    1.0000 </r>
       <r>   -1.9874    1.0000 </r>
       <r>   -1.2978    1.0000 </r>
       <r>   -1.0445    1.0000 </r>
       <r>   -0.7557    1.0000 </r>
       <r>    0.0286    1.0000 </r>
       <r>    1.6356   -0.0000 </r>
       <r>    2.1454   -0.0000 </r>
       <r>    2.3993   -0.0000 </r>
       <r>    2.5210   -0.0000 </r>
       <r>    2.9989   -0.0000 </r>
       <r>    3.6538   -0.0000 </r>
       <r>    4.3872    0.0000 </r>
       <r>    4.8378    0.0000 </r>
       <r>    6.9346    0.0000 </r>
       <r>    7.1677    0.0000 </r>
       <r>    7.6703    0.0000 </r>
       <r>    8.1429    0.0000 </r>
      </set>
      <set comment="kpoint 36">
       <r>  -35.0003    1.0000 </r>
       <r>  -34.8746    1.0000 </r>
       <r>  -34.8254    1.0000 </r>
       <r>  -34.7478    1.0000 </r>
       <r>  -34.6830    1.0000 </r>
       <r>  -34.5982    1.0000 </r>
       <r>  -15.9185    1.0000 </r>
       <r>  -12.7779    1.0000 </r>
       <r>  -12.4933    1.0000 </r>
       <r>  -11.8311    1.0000 </r>
       <r>   -6.8369    1.0000 </r>
       <r>   -6.2246    1.0000 </r>
       <r>   -4.4126    1.0000 </r>
       <r>   -4.3315    1.0000 </r>
       <r>   -3.9715    1.0000 </r>
       <r>   -3.4792    1.0000 </r>
       <r>   -3.0671    1.0000 </r>
       <r>   -2.5786    1.0000 </r>
       <r>   -2.0578    1.0000 </r>
       <r>   -1.7015    1.0000 </r>
       <r>   -1.2423    1.0000 </r>
       <r>   -1.0457    1.0000 </r>
       <r>   -0.8111    1.0000 </r>
       <r>   -0.1384    1.0000 </r>
       <r>    1.3443   -0.0000 </r>
       <r>    2.0574   -0.0000 </r>
       <r>    2.4112   -0.0000 </r>
       <r>    2.5245   -0.0000 </r>
       <r>    2.9714   -0.0000 </r>
       <r>    3.4571   -0.0000 </r>
       <r>    4.0344    0.0000 </r>
       <r>    4.7138    0.0000 </r>
       <r>    6.5185    0.0000 </r>
       <r>    6.7845    0.0000 </r>
       <r>    7.1665    0.0000 </r>
       <r>    7.5471    0.0000 </r>
      </set>
      <set comment="kpoint 37">
       <r>  -34.9548    1.0000 </r>
       <r>  -34.8840    1.0000 </r>
       <r>  -34.8059    1.0000 </r>
       <r>  -34.7239    1.0000 </r>
       <r>  -34.6689    1.0000 </r>
       <r>  -34.5805    1.0000 </r>
       <r>  -16.2504    1.0000 </r>
       <r>  -12.9996    1.0000 </r>
       <r>  -12.6812    1.0000 </r>
       <r>  -11.7509    1.0000 </r>
       <r>   -6.5795    1.0000 </r>
       <r>   -6.0038    1.0000 </r>
       <r>   -4.2437    1.0000 </r>
       <r>   -3.8622    1.0000 </r>
       <r>   -3.7481    1.0000 </r>
       <r>   -3.4755    1.0000 </r>
       <r>   -2.9448    1.0000 </r>
       <r>   -2.2737    1.0000 </r>
       <r>   -2.0390    1.0000 </r>
       <r>   -1.7763    1.0000 </r>
       <r>   -1.2766    1.0000 </r>
       <r>   -0.9190    1.0000 </r>
       <r>   -0.7034    1.0000 </r>
       <r>   -0.1205    1.0000 </r>
       <r>    1.2109   -0.0008 </r>
       <r>    2.0326   -0.0000 </r>
       <r>    2.4230   -0.0000 </r>
       <r>    2.6428   -0.0000 </r>
       <r>    2.8548   -0.0000 </r>
       <r>    3.2436   -0.0000 </r>
       <r>    3.7784    0.0000 </r>
       <r>    4.4916    0.0000 </r>
       <r>    6.1122    0.0000 </r>
       <r>    6.6296    0.0000 </r>
       <r>    7.0630    0.0000 </r>
       <r>    7.1417    0.0000 </r>
      </set>
      <set comment="kpoint 38">
       <r>  -35.0579    1.0000 </r>
       <r>  -35.0051    1.0000 </r>
       <r>  -34.8352    1.0000 </r>
[...]
       <r>    -2.1873     1.9749    18.6509 </r>
       <r>    -2.0252     2.8138    19.1070 </r>
       <r>    -1.8631     2.6855    19.5423 </r>
       <r>    -1.7010     1.9796    19.8632 </r>
       <r>    -1.5389     1.3875    20.0881 </r>
       <r>    -1.3768     1.7878    20.3779 </r>
       <r>    -1.2147     2.6385    20.8056 </r>
       <r>    -1.0526     1.7128    21.0832 </r>
       <r>    -0.8905     2.8265    21.5413 </r>
       <r>    -0.7284     2.6727    21.9746 </r>
       <r>    -0.5664     2.3774    22.3599 </r>
       <r>    -0.4043     2.3990    22.7488 </r>
       <r>    -0.2422     1.5947    23.0073 </r>
       <r>    -0.0801     2.3609    23.3899 </r>
       <r>     0.0820     2.3010    23.7629 </r>
       <r>     0.2441     1.0676    23.9360 </r>
       <r>     0.4062     0.2766    23.9808 </r>
       <r>     0.5683     0.0862    23.9948 </r>
       <r>     0.7304    -0.0055    23.9939 </r>
       <r>     0.8925     0.0215    23.9974 </r>
       <r>     1.0545     0.2716    24.0414 </r>
       <r>     1.2166     0.5358    24.1282 </r>
       <r>     1.3787     1.0780    24.3030 </r>
       <r>     1.5408     0.4423    24.3747 </r>
       <r>     1.7029     1.1268    24.5573 </r>
       <r>     1.8650     1.4273    24.7886 </r>
       <r>     2.0271     3.4490    25.3477 </r>
       <r>     2.1892     2.7704    25.7967 </r>
       <r>     2.3513     3.0709    26.2945 </r>
       <r>     2.5134     3.0314    26.7859 </r>
       <r>     2.6755     2.9892    27.2704 </r>
       <r>     2.8375     3.2786    27.8018 </r>
       <r>     2.9996     3.0450    28.2954 </r>
       <r>     3.1617     3.2167    28.8168 </r>
       <r>     3.3238     2.5674    29.2330 </r>
       <r>     3.4859     1.6615    29.5023 </r>
       <r>     3.6480     1.4426    29.7361 </r>
       <r>     3.8101     2.0425    30.0672 </r>
       <r>     3.9722     1.4085    30.2955 </r>
       <r>     4.1343     0.8697    30.4364 </r>
       <r>     4.2964     0.6147    30.5361 </r>
       <r>     4.4585     1.4234    30.7668 </r>
       <r>     4.6205     1.4670    31.0046 </r>
       <r>     4.7826     1.7547    31.2890 </r>
       <r>     4.9447     2.3218    31.6654 </r>
       <r>     5.1068     1.2933    31.8750 </r>
       <r>     5.2689     0.7712    32.0000 </r>
       <r>     5.4310     0.3033    32.0492 </r>
       <r>     5.5931     0.3692    32.1090 </r>
       <r>     5.7552     0.2788    32.1542 </r>
       <r>     5.9173     0.9377    32.3062 </r>
       <r>     6.0794     0.5854    32.4011 </r>
       <r>     6.2415     1.2004    32.5957 </r>
       <r>     6.4035     0.5267    32.6810 </r>
       <r>     6.5656     1.5171    32.9269 </r>
       <r>     6.7277     0.9378    33.0789 </r>
       <r>     6.8898     1.1071    33.2584 </r>
       <r>     7.0519     1.6791    33.5306 </r>
       <r>     7.2140     1.3821    33.7546 </r>
       <r>     7.3761     1.7862    34.0441 </r>
       <r>     7.5382     1.6006    34.3035 </r>
       <r>     7.7003     2.1484    34.6518 </r>
       <r>     7.8624     1.6652    34.9217 </r>
       <r>     8.0245     1.6512    35.1893 </r>
       <r>     8.1865     1.7559    35.4739 </r>
       <r>     8.3486     0.5221    35.5586 </r>
       <r>     8.5107     1.2005    35.7532 </r>
       <r>     8.6728     0.5104    35.8359 </r>
       <r>     8.8349     0.6785    35.9459 </r>
       <r>     8.9970     0.2091    35.9798 </r>
       <r>     9.1591     0.1289    36.0007 </r>
       <r>     9.3212    -0.0040    36.0000 </r>
       <r>     9.4833    -0.0001    36.0000 </r>
       <r>     9.6454    -0.0000    36.0000 </r>
       <r>     9.8074    -0.0000    36.0000 </r>
       <r>     9.9695     0.0000    36.0000 </r>
       <r>    10.1316     0.0000    36.0000 </r>
       <r>    10.2937     0.0000    36.0000 </r>
       <r>    10.4558     0.0000    36.0000 </r>
       <r>    10.6179     0.0000    36.0000 </r>
       <r>    10.7800     0.0000    36.0000 </r>
       <r>    10.9421     0.0000    36.0000 </r>
       <r>    11.1042     0.0000    36.0000 </r>
       <r>    11.2663     0.0000    36.0000 </r>
      </set>
      <set comment="spin 2">
       <r>   -37.3610     0.0000     0.0000 </r>
       <r>   -37.1989     0.0000     0.0000 </r>
       <r>   -37.0368     0.0000     0.0000 </r>
       <r>   -36.8747     0.0000     0.0000 </r>
       <r>   -36.7126     0.0000     0.0000 </r>
       <r>   -36.5505     0.0000     0.0000 </r>
       <r>   -36.3884     0.0000     0.0000 </r>
       <r>   -36.2263     0.0000     0.0000 </r>
       <r>   -36.0642    -0.0000    -0.0000 </r>
       <r>   -35.9021    -0.0000    -0.0000 </r>
       <r>   -35.7400    -0.0000    -0.0000 </r>
       <r>   -35.5780    -0.0000    -0.0000 </r>
       <r>   -35.4159    -0.0003    -0.0000 </r>
       <r>   -35.2538    -0.0859    -0.0140 </r>
       <r>   -35.0917     1.9539     0.3027 </r>
       <r>   -34.9296     5.0294     1.1180 </r>
       <r>   -34.7675    15.6521     3.6550 </r>
       <r>   -34.6054    11.0822     5.4513 </r>
       <r>   -34.4433     3.5265     6.0229 </r>
       <r>   -34.2812    -0.1405     6.0002 </r>
       <r>   -34.1191    -0.0009     6.0000 </r>
       <r>   -33.9570    -0.0000     6.0000 </r>
       <r>   -33.7950    -0.0000     6.0000 </r>
       <r>   -33.6329     0.0000     6.0000 </r>
       <r>   -33.4708     0.0000     6.0000 </r>
       <r>   -33.3087     0.0000     6.0000 </r>
       <r>   -33.1466     0.0000     6.0000 </r>
       <r>   -32.9845     0.0000     6.0000 </r>
       <r>   -32.8224     0.0000     6.0000 </r>
       <r>   -32.6603     0.0000     6.0000 </r>
       <r>   -32.4982     0.0000     6.0000 </r>
       <r>   -32.3361     0.0000     6.0000 </r>
       <r>   -32.1740     0.0000     6.0000 </r>
       <r>   -32.0120     0.0000     6.0000 </r>
       <r>   -31.8499     0.0000     6.0000 </r>
       <r>   -31.6878     0.0000     6.0000 </r>
       <r>   -31.5257     0.0000     6.0000 </r>
       <r>   -31.3636     0.0000     6.0000 </r>
       <r>   -31.2015     0.0000     6.0000 </r>
       <r>   -31.0394     0.0000     6.0000 </r>
       <r>   -30.8773     0.0000     6.0000 </r>
       <r>   -30.7152     0.0000     6.0000 </r>
       <r>   -30.5531     0.0000     6.0000 </r>
       <r>   -30.3911     0.0000     6.0000 </r>
       <r>   -30.2290     0.0000     6.0000 </r>
       <r>   -30.0669     0.0000     6.0000 </r>
       <r>   -29.9048     0.0000     6.0000 </r>
       <r>   -29.7427     0.0000     6.0000 </r>
       <r>   -29.5806     0.0000     6.0000 </r>
       <r>   -29.4185     0.0000     6.0000 </r>
       <r>   -29.2564     0.0000     6.0000 </r>
       <r>   -29.0943     0.0000     6.0000 </r>
       <r>   -28.9322     0.0000     6.0000 </r>
       <r>   -28.7701     0.0000     6.0000 </r>
       <r>   -28.6081     0.0000     6.0000 </r>
       <r>   -28.4460     0.0000     6.0000 </r>
       <r>   -28.2839     0.0000     6.0000 </r>
       <r>   -28.1218     0.0000     6.0000 </r>
       <r>   -27.9597     0.0000     6.0000 </r>
       <r>   -27.7976     0.0000     6.0000 </r>
       <r>   -27.6355     0.0000     6.0000 </r>
       <r>   -27.4734     0.0000     6.0000 </r>
       <r>   -27.3113     0.0000     6.0000 </r>
       <r>   -27.1492     0.0000     6.0000 </r>
       <r>   -26.9871     0.0000     6.0000 </r>
       <r>   -26.8251     0.0000     6.0000 </r>
       <r>   -26.6630     0.0000     6.0000 </r>
       <r>   -26.5009     0.0000     6.0000 </r>
       <r>   -26.3388     0.0000     6.0000 </r>
       <r>   -26.1767     0.0000     6.0000 </r>
       <r>   -26.0146     0.0000     6.0000 </r>
       <r>   -25.8525     0.0000     6.0000 </r>
       <r>   -25.6904     0.0000     6.0000 </r>
       <r>   -25.5283     0.0000     6.0000 </r>
       <r>   -25.3662     0.0000     6.0000 </r>
       <r>   -25.2041     0.0000     6.0000 </r>
       <r>   -25.0421     0.0000     6.0000 </r>
       <r>   -24.8800     0.0000     6.0000 </r>
       <r>   -24.7179     0.0000     6.0000 </r>
       <r>   -24.5558     0.0000     6.0000 </r>
       <r>   -24.3937     0.0000     6.0000 </r>
       <r>   -24.2316     0.0000     6.0000 </r>
       <r>   -24.0695     0.0000     6.0000 </r>
       <r>   -23.9074     0.0000     6.0000 </r>
       <r>   -23.7453     0.0000     6.0000 </r>
       <r>   -23.5832     0.0000     6.0000 </r>
       <r>   -23.4212     0.0000     6.0000 </r>
       <r>   -23.2591     0.0000     6.0000 </r>
       <r>   -23.0970     0.0000     6.0000 </r>
       <r>   -22.9349     0.0000     6.0000 </r>
       <r>   -22.7728     0.0000     6.0000 </r>
       <r>   -22.6107     0.0000     6.0000 </r>
       <r>   -22.4486     0.0000     6.0000 </r>
       <r>   -22.2865     0.0000     6.0000 </r>
       <r>   -22.1244     0.0000     6.0000 </r>
       <r>   -21.9623     0.0000     6.0000 </r>
       <r>   -21.8002     0.0000     6.0000 </r>
       <r>   -21.6382     0.0000     6.0000 </r>
       <r>   -21.4761     0.0000     6.0000 </r>
       <r>   -21.3140     0.0000     6.0000 </r>
       <r>   -21.1519     0.0000     6.0000 </r>
       <r>   -20.9898     0.0000     6.0000 </r>
       <r>   -20.8277     0.0000     6.0000 </r>
       <r>   -20.6656     0.0000     6.0000 </r>
       <r>   -20.5035     0.0000     6.0000 </r>
       <r>   -20.3414     0.0000     6.0000 </r>
       <r>   -20.1793     0.0000     6.0000 </r>
       <r>   -20.0172     0.0000     6.0000 </r>
       <r>   -19.8552     0.0000     6.0000 </r>
       <r>   -19.6931     0.0000     6.0000 </r>
       <r>   -19.5310     0.0000     6.0000 </r>
       <r>   -19.3689     0.0000     6.0000 </r>
       <r>   -19.2068     0.0000     6.0000 </r>
       <r>   -19.0447     0.0000     6.0000 </r>
       <r>   -18.8826     0.0000     6.0000 </r>
       <r>   -18.7205     0.0000     6.0000 </r>
       <r>   -18.5584     0.0000     6.0000 </r>
       <r>   -18.3963     0.0000     6.0000 </r>
       <r>   -18.2342     0.0000     6.0000 </r>
       <r>   -18.0722     0.0000     6.0000 </r>
       <r>   -17.9101    -0.0000     6.0000 </r>
       <r>   -17.7480    -0.0000     6.0000 </r>
       <r>   -17.5859    -0.0000     6.0000 </r>
       <r>   -17.4238    -0.0000     6.0000 </r>
       <r>   -17.2617    -0.0003     6.0000 </r>
       <r>   -17.0996    -0.0015     5.9997 </r>
       <r>   -16.9375     0.1946     6.0313 </r>
       <r>   -16.7754     0.2282     6.0683 </r>
       <r>   -16.6133     0.2680     6.1117 </r>
       <r>   -16.4512     0.2586     6.1536 </r>
       <r>   -16.2892     0.3227     6.2059 </r>
       <r>   -16.1271     0.1176     6.2250 </r>
       <r>   -15.9650     0.4576     6.2992 </r>
       <r>   -15.8029     0.2661     6.3423 </r>
       <r>   -15.6408     0.1648     6.3690 </r>
       <r>   -15.4787     0.4728     6.4456 </r>
       <r>   -15.3166     0.2764     6.4904 </r>
       <r>   -15.1545     0.3210     6.5425 </r>
       <r>   -14.9924     0.4245     6.6113 </r>
       <r>   -14.8303     0.5362     6.6982 </r>
       <r>   -14.6683     0.5508     6.7875 </r>
       <r>   -14.5062     0.2715     6.8315 </r>
       <r>   -14.3441     0.3196     6.8833 </r>
       <r>   -14.1820     0.2168     6.9184 </r>
       <r>   -14.0199     0.2863     6.9648 </r>
       <r>   -13.8578     0.1008     6.9812 </r>
       <r>   -13.6957     0.1117     6.9993 </r>
       <r>   -13.5336     0.2382     7.0379 </r>
       <r>   -13.3715     0.2862     7.0843 </r>
       <r>   -13.2094     0.4044     7.1498 </r>
       <r>   -13.0473     0.8811     7.2927 </r>
       <r>   -12.8853     0.6909     7.4046 </r>
       <r>   -12.7232     1.3611     7.6253 </r>
       <r>   -12.5611     0.8073     7.7561 </r>
       <r>   -12.3990     1.8253     8.0520 </r>
       <r>   -12.2369     1.7640     8.3379 </r>
       <r>   -12.0748     2.2453     8.7019 </r>
       <r>   -11.9127     2.0837     9.0396 </r>
       <r>   -11.7506     2.8906     9.5081 </r>
       <r>   -11.5885     2.9422     9.9850 </r>
       <r>   -11.4264     0.0996    10.0012 </r>
       <r>   -11.2643    -0.0074    10.0000 </r>
       <r>   -11.1023    -0.0000    10.0000 </r>
       <r>   -10.9402    -0.0000    10.0000 </r>
       <r>   -10.7781     0.0000    10.0000 </r>
       <r>   -10.6160     0.0000    10.0000 </r>
       <r>   -10.4539     0.0000    10.0000 </r>
       <r>   -10.2918     0.0000    10.0000 </r>
       <r>   -10.1297     0.0000    10.0000 </r>
       <r>    -9.9676     0.0000    10.0000 </r>
       <r>    -9.8055     0.0000    10.0000 </r>
       <r>    -9.6434     0.0000    10.0000 </r>
       <r>    -9.4813     0.0000    10.0000 </r>
       <r>    -9.3193     0.0000    10.0000 </r>
       <r>    -9.1572     0.0000    10.0000 </r>
       <r>    -8.9951     0.0000    10.0000 </r>
       <r>    -8.8330     0.0000    10.0000 </r>
       <r>    -8.6709    -0.0000    10.0000 </r>
       <r>    -8.5088    -0.0000    10.0000 </r>
       <r>    -8.3467    -0.0000    10.0000 </r>
       <r>    -8.1846    -0.0000    10.0000 </r>
       <r>    -8.0225    -0.0004     9.9999 </r>
       <r>    -7.8604    -0.0030     9.9995 </r>
       <r>    -7.6984     0.3267    10.0524 </r>
       <r>    -7.5363     0.9513    10.2066 </r>
       <r>    -7.3742     0.7488    10.3280 </r>
       <r>    -7.2121     1.0561    10.4992 </r>
       <r>    -7.0500     0.5120    10.5822 </r>
       <r>    -6.8879     0.8541    10.7206 </r>
       <r>    -6.7258     1.2558    10.9242 </r>
       <r>    -6.5637     1.7626    11.2099 </r>
       <r>    -6.4016     2.2402    11.5730 </r>
       <r>    -6.2395     1.4245    11.8039 </r>
       <r>    -6.0774     0.7724    11.9291 </r>
       <r>    -5.9154     0.4028    11.9944 </r>
       <r>    -5.7533     0.5309    12.0804 </r>
       <r>    -5.5912     0.4922    12.1602 </r>
       <r>    -5.4291     0.3952    12.2243 </r>
       <r>    -5.2670     0.3294    12.2777 </r>
       <r>    -5.1049     0.9144    12.4259 </r>
       <r>    -4.9428     1.0142    12.5903 </r>
       <r>    -4.7807     2.4494    12.9873 </r>
       <r>    -4.6186     1.7895    13.2773 </r>
       <r>    -4.4565     3.5386    13.8509 </r>
       <r>    -4.2944     1.6734    14.1222 </r>
       <r>    -4.1324     1.8731    14.4258 </r>
       <r>    -3.9703     1.0218    14.5914 </r>
       <r>    -3.8082     1.9338    14.9049 </r>
       <r>    -3.6461     1.8739    15.2086 </r>
       <r>    -3.4840     2.5538    15.6225 </r>
       <r>    -3.3219     2.8368    16.0824 </r>
       <r>    -3.1598     2.5798    16.5005 </r>
       <r>    -2.9977     2.9794    16.9834 </r>
       <r>    -2.8356     1.9364    17.2973 </r>
       <r>    -2.6735     2.1928    17.6528 </r>
       <r>    -2.5114     2.5835    18.0715 </r>
       <r>    -2.3494     1.6056    18.3318 </r>
       <r>    -2.1873     1.9727    18.6515 </r>
       <r>    -2.0252     2.8219    19.1089 </r>
       <r>    -1.8631     2.6773    19.5429 </r>
       <r>    -1.7010     1.9815    19.8641 </r>
       <r>    -1.5389     1.3866    20.0888 </r>
       <r>    -1.3768     1.7883    20.3787 </r>
       <r>    -1.2147     2.6380    20.8063 </r>
       <r>    -1.0526     1.7148    21.0842 </r>
       <r>    -0.8905     2.8286    21.5427 </r>
       <r>    -0.7284     2.6711    21.9757 </r>
       <r>    -0.5664     2.3785    22.3612 </r>
       <r>    -0.4043     2.3938    22.7492 </r>
       <r>    -0.2422     1.5989    23.0084 </r>
       <r>    -0.0801     2.3600    23.3909 </r>
       <r>     0.0820     2.2996    23.7637 </r>
       <r>     0.2441     1.0642    23.9362 </r>
       <r>     0.4062     0.2758    23.9809 </r>
       <r>     0.5683     0.0856    23.9948 </r>
       <r>     0.7304    -0.0054    23.9939 </r>
       <r>     0.8925     0.0215    23.9974 </r>
       <r>     1.0545     0.2732    24.0416 </r>
       <r>     1.2166     0.5371    24.1287 </r>
       <r>     1.3787     1.0783    24.3035 </r>
       <r>     1.5408     0.4421    24.3752 </r>
       <r>     1.7029     1.1274    24.5579 </r>
       <r>     1.8650     1.4374    24.7909 </r>
       <r>     2.0271     3.4456    25.3494 </r>
       <r>     2.1892     2.7732    25.7989 </r>
       <r>     2.3513     3.0669    26.2960 </r>
       <r>     2.5134     3.0371    26.7883 </r>
       <r>     2.6755     2.9827    27.2718 </r>
       <r>     2.8375     3.2814    27.8037 </r>
       <r>     2.9996     3.0439    28.2971 </r>
       <r>     3.1617     3.2162    28.8184 </r>
       <r>     3.3238     2.5631    29.2338 </r>
       <r>     3.4859     1.6611    29.5031 </r>
       <r>     3.6480     1.4429    29.7370 </r>
       <r>     3.8101     2.0416    30.0679 </r>
       <r>     3.9722     1.4076    30.2960 </r>
       <r>     4.1343     0.8675    30.4367 </r>
       <r>     4.2964     0.6143    30.5362 </r>
       <r>     4.4585     1.4264    30.7674 </r>
       <r>     4.6205     1.4653    31.0050 </r>
       <r>     4.7826     1.7572    31.2898 </r>
       <r>     4.9447     2.3222    31.6662 </r>
       <r>     5.1068     1.2847    31.8744 </r>
       <r>     5.2689     0.7134    31.9901 </r>
       <r>     5.4310     0.3324    32.0439 </r>
       <r>     5.5931     0.3318    32.0977 </r>
       <r>     5.7552     0.3726    32.1581 </r>
       <r>     5.9173     0.7892    32.2860 </r>
       <r>     6.0794     0.7318    32.4046 </r>
       <r>     6.2415     1.0835    32.5803 </r>
       <r>     6.4035     0.6142    32.6798 </r>
       <r>     6.5656     1.3138    32.8928 </r>
       <r>     6.7277     1.1390    33.0774 </r>
       <r>     6.8898     0.9922    33.2382 </r>
       <r>     7.0519     1.7249    33.5178 </r>
       <r>     7.2140     1.3560    33.7376 </r>
       <r>     7.3761     1.9173    34.0484 </r>
       <r>     7.5382     1.2225    34.2465 </r>
       <r>     7.7003     1.9483    34.5623 </r>
       <r>     7.8624     2.1149    34.9051 </r>
       <r>     8.0245     1.5152    35.1507 </r>
       <r>     8.1865     1.4749    35.3898 </r>
       <r>     8.3486     0.8235    35.5233 </r>
       <r>     8.5107     1.2897    35.7323 </r>
       <r>     8.6728     0.6967    35.8453 </r>
       <r>     8.8349     0.6855    35.9564 </r>
       <r>     8.9970     0.2729    36.0006 </r>
       <r>     9.1591    -0.0036    36.0000 </r>
       <r>     9.3212    -0.0002    36.0000 </r>
       <r>     9.4833    -0.0000    36.0000 </r>
       <r>     9.6454    -0.0000    36.0000 </r>
       <r>     9.8074     0.0000    36.0000 </r>
       <r>     9.9695     0.0000    36.0000 </r>
       <r>    10.1316     0.0000    36.0000 </r>
       <r>    10.2937     0.0000    36.0000 </r>
       <r>    10.4558     0.0000    36.0000 </r>
       <r>    10.6179     0.0000    36.0000 </r>
       <r>    10.7800     0.0000    36.0000 </r>
       <r>    10.9421     0.0000    36.0000 </r>
       <r>    11.1042     0.0000    36.0000 </r>
       <r>    11.2663     0.0000    36.0000 </r>
      </set>
     </set>
    </array>
   </total>
  </dos>
 </calculation>
 <structure name="finalpos" >
  <crystal>
   <varray name="basis" >
    <v>       3.19031700       0.00000000       0.00000000 </v>
    <v>      -1.59515800       2.76289700       0.00000000 </v>
    <v>       0.00000000       0.00000000      23.14049200 </v>
   </varray>
   <i name="volume">    203.97226633 </i>
   <varray name="rec_basis" >
    <v>       0.31344848       0.18096941       0.00000000 </v>
    <v>       0.00000000       0.36193894       0.00000000 </v>
    <v>       0.00000000       0.00000000       0.04321429 </v>
   </varray>
  </crystal>
  <varray name="positions" >
   <v>       0.66666700       0.33333300       0.06785900 </v>
   <v>       0.33333300       0.66666700       0.00000000 </v>
   <v>       0.33333300       0.66666700       0.13571500 </v>
   <v>       0.95238100       0.04761900       0.26839400 </v>
   <v>       0.61904700       0.38095300       0.20053600 </v>
   <v>       0.61904700       0.38095300       0.33625000 </v>
  </varray>
 </structure>
</modeling>
