   2   2   1   0
  0.5449325E+02  0.2508453E-09  0.2508454E-09  0.2000000E-08  0.5000000E-15
  1.000000000000000E-004
  CAR 
 unknown system                          
     13.84323134    -26.52915037  301     -5.22146860      1.00000000
    -26.529  0.0000E+00  0.0000E+00
    -26.395  0.0000E+00  0.0000E+00
    -26.260  0.0000E+00  0.0000E+00
    -26.125  0.0000E+00  0.0000E+00
    -25.991  0.0000E+00  0.0000E+00
    -25.856  0.0000E+00  0.0000E+00
    -25.722  0.0000E+00  0.0000E+00
    -25.587 -0.2972E-35 -0.3999E-36
    -25.453 -0.1135E-25 -0.1527E-26
    -25.318 -0.1122E-17 -0.1510E-18
    -25.183 -0.2718E-11 -0.3658E-12
    -25.049 -0.1665E-06 -0.2241E-07
    -24.914 -0.2463E-03 -0.3317E-04
    -24.780 -0.7359E-02 -0.1023E-02
    -24.645  0.1405E+00  0.1788E-01
    -24.511  0.3038E+00  0.5877E-01
    -24.376  0.4631E+00  0.1211E+00
    -24.241  0.1737E+00  0.1445E+00
    -24.107  0.5641E+00  0.2204E+00
    -23.972  0.2494E+00  0.2539E+00
    -23.838  0.2622E+00  0.2892E+00
    -23.703  0.6689E+00  0.3792E+00
    -23.569  0.1934E+00  0.4053E+00
    -23.434  0.2013E+00  0.4323E+00
    -23.299  0.6440E+00  0.5190E+00
    -23.165  0.5176E+00  0.5887E+00
    -23.030  0.8466E-01  0.6001E+00
    -22.896  0.3548E+00  0.6478E+00
    -22.761  0.7327E+00  0.7464E+00
    -22.626  0.5010E+00  0.8138E+00
    -22.492  0.1720E+00  0.8370E+00
    -22.357  0.2722E+00  0.8736E+00
    -22.223  0.8995E+00  0.9947E+00
    -22.088  0.4707E+00  0.1058E+01
    -21.954  0.5057E+00  0.1126E+01
    -21.819  0.1184E+00  0.1142E+01
    -21.684  0.1120E+01  0.1293E+01
    -21.550  0.8619E+00  0.1409E+01
    -21.415  0.5148E+00  0.1478E+01
    -21.281  0.1177E+01  0.1636E+01
    -21.146  0.1235E+01  0.1803E+01
    -21.012  0.2624E+00  0.1838E+01
    -20.877  0.8072E+00  0.1946E+01
    -20.742  0.3403E+00  0.1992E+01
    -20.608  0.6295E-01  0.2001E+01
    -20.473 -0.5651E-02  0.2000E+01
    -20.339 -0.2154E-04  0.2000E+01
    -20.204 -0.1455E-08  0.2000E+01
    -20.070 -0.2329E-14  0.2000E+01
    -19.935  0.0000E+00  0.2000E+01
    -19.800  0.0000E+00  0.2000E+01
    -19.666  0.0000E+00  0.2000E+01
    -19.531  0.0000E+00  0.2000E+01
    -19.397  0.0000E+00  0.2000E+01
    -19.262  0.0000E+00  0.2000E+01
    -19.128  0.0000E+00  0.2000E+01
    -18.993  0.0000E+00  0.2000E+01
    -18.858  0.0000E+00  0.2000E+01
    -18.724  0.0000E+00  0.2000E+01
    -18.589  0.0000E+00  0.2000E+01
    -18.455  0.0000E+00  0.2000E+01
    -18.320  0.0000E+00  0.2000E+01
    -18.186  0.0000E+00  0.2000E+01
    -18.051  0.0000E+00  0.2000E+01
    -17.916  0.0000E+00  0.2000E+01
    -17.782  0.0000E+00  0.2000E+01
    -17.647  0.0000E+00  0.2000E+01
    -17.513  0.0000E+00  0.2000E+01
    -17.378  0.0000E+00  0.2000E+01
    -17.244  0.0000E+00  0.2000E+01
    -17.109  0.0000E+00  0.2000E+01
    -16.974  0.0000E+00  0.2000E+01
    -16.840  0.0000E+00  0.2000E+01
    -16.705  0.0000E+00  0.2000E+01
    -16.571  0.0000E+00  0.2000E+01
    -16.436  0.0000E+00  0.2000E+01
    -16.301  0.0000E+00  0.2000E+01
    -16.167  0.0000E+00  0.2000E+01
    -16.032  0.0000E+00  0.2000E+01
    -15.898 -0.8042E-35  0.2000E+01
    -15.763 -0.3474E-25  0.2000E+01
    -15.629 -0.3895E-17  0.2000E+01
    -15.494 -0.1078E-10  0.2000E+01
    -15.359 -0.7592E-06  0.2000E+01
    -15.225 -0.1213E-02  0.2000E+01
    -15.090 -0.1315E-01  0.1998E+01
    -14.956  0.4294E+00  0.2056E+01
    -14.821  0.3283E+00  0.2100E+01
    -14.687  0.8093E+00  0.2209E+01
    -14.552  0.6243E+00  0.2293E+01
    -14.417  0.4400E-01  0.2299E+01
    -14.283  0.1177E+01  0.2457E+01
    -14.148  0.8489E+00  0.2572E+01
    -14.014  0.3524E+00  0.2619E+01
    -13.879  0.9270E+00  0.2744E+01
    -13.745  0.6279E+00  0.2828E+01
    -13.610  0.5275E+00  0.2899E+01
    -13.475  0.1020E+00  0.2913E+01
    -13.341  0.1834E+00  0.2938E+01
    -13.206  0.7642E+00  0.3040E+01
    -13.072  0.3646E+00  0.3090E+01
    -12.937  0.2360E+00  0.3121E+01
    -12.803 -0.2612E-01  0.3118E+01
    -12.668  0.9355E+00  0.3244E+01
    -12.533  0.6632E+00  0.3333E+01
    -12.399 -0.5169E-01  0.3326E+01
    -12.264  0.4178E+00  0.3382E+01
    -12.130  0.1886E+00  0.3408E+01
    -11.995  0.8314E+00  0.3519E+01
    -11.861  0.7802E+00  0.3624E+01
    -11.726  0.8305E-01  0.3636E+01
    -11.591  0.1825E+00  0.3660E+01
    -11.457  0.1856E+00  0.3685E+01
    -11.322  0.1133E+01  0.3838E+01
    -11.188  0.5467E+00  0.3911E+01
    -11.053  0.3907E+00  0.3964E+01
    -10.918  0.2920E+00  0.4003E+01
    -10.784  0.5413E+00  0.4076E+01
    -10.649  0.8439E+00  0.4190E+01
    -10.515  0.1688E+01  0.4417E+01
    -10.380  0.6133E+00  0.4499E+01
    -10.246  0.4487E+00  0.4560E+01
    -10.111  0.7804E+00  0.4665E+01
     -9.976  0.1108E+01  0.4814E+01
     -9.842  0.1161E+01  0.4970E+01
     -9.707  0.1637E+01  0.5190E+01
     -9.573  0.1345E+01  0.5371E+01
     -9.438  0.2567E+00  0.5406E+01
     -9.304  0.9503E+00  0.5534E+01
     -9.169  0.4565E+00  0.5595E+01
     -9.034  0.1024E+01  0.5733E+01
     -8.900  0.1298E+01  0.5908E+01
     -8.765  0.3449E+00  0.5954E+01
     -8.631  0.6721E+00  0.6044E+01
     -8.496  0.2825E+00  0.6082E+01
     -8.362  0.1288E+01  0.6256E+01
     -8.227  0.8579E+00  0.6371E+01
     -8.092  0.4365E+00  0.6430E+01
     -7.958  0.3959E+00  0.6483E+01
     -7.823  0.3602E+00  0.6532E+01
     -7.689  0.1107E+01  0.6681E+01
     -7.554  0.8031E+00  0.6789E+01
     -7.420  0.5659E+00  0.6865E+01
     -7.285  0.4821E+00  0.6930E+01
     -7.150  0.9119E+00  0.7053E+01
     -7.016  0.2144E+00  0.7081E+01
     -6.881  0.4589E+00  0.7143E+01
     -6.747  0.9956E+00  0.7277E+01
     -6.612  0.6501E+00  0.7365E+01
     -6.478  0.4674E+00  0.7427E+01
     -6.343  0.3349E+00  0.7473E+01
     -6.208  0.2424E+00  0.7505E+01
     -6.074  0.1411E+01  0.7695E+01
     -5.939  0.7682E+00  0.7798E+01
     -5.805  0.6482E-01  0.7807E+01
     -5.670  0.2070E+00  0.7835E+01
     -5.536  0.6673E+00  0.7925E+01
     -5.401  0.2620E+00  0.7960E+01
     -5.266  0.2370E+00  0.7992E+01
     -5.132  0.6495E-01  0.8001E+01
     -4.997 -0.5200E-02  0.8000E+01
     -4.863 -0.1787E-04  0.8000E+01
     -4.728 -0.1101E-08  0.8000E+01
     -4.593 -0.1576E-14  0.8000E+01
     -4.459  0.0000E+00  0.8000E+01
     -4.324  0.0000E+00  0.8000E+01
     -4.190  0.0000E+00  0.8000E+01
     -4.055  0.0000E+00  0.8000E+01
     -3.921  0.0000E+00  0.8000E+01
     -3.786  0.0000E+00  0.8000E+01
     -3.651  0.0000E+00  0.8000E+01
     -3.517  0.0000E+00  0.8000E+01
     -3.382  0.0000E+00  0.8000E+01
     -3.248  0.0000E+00  0.8000E+01
     -3.113  0.0000E+00  0.8000E+01
     -2.979  0.0000E+00  0.8000E+01
     -2.844  0.0000E+00  0.8000E+01
     -2.709  0.0000E+00  0.8000E+01
     -2.575  0.0000E+00  0.8000E+01
     -2.440  0.0000E+00  0.8000E+01
     -2.306  0.0000E+00  0.8000E+01
     -2.171  0.0000E+00  0.8000E+01
     -2.037  0.0000E+00  0.8000E+01
     -1.902  0.0000E+00  0.8000E+01
     -1.767  0.0000E+00  0.8000E+01
     -1.633  0.0000E+00  0.8000E+01
     -1.498  0.0000E+00  0.8000E+01
     -1.364  0.0000E+00  0.8000E+01
     -1.229  0.0000E+00  0.8000E+01
     -1.095  0.0000E+00  0.8000E+01
     -0.960  0.0000E+00  0.8000E+01
     -0.825  0.0000E+00  0.8000E+01
     -0.691  0.0000E+00  0.8000E+01
     -0.556  0.0000E+00  0.8000E+01
     -0.422 -0.1174E-33  0.8000E+01
     -0.287 -0.2538E-24  0.8000E+01
     -0.153 -0.1418E-16  0.8000E+01
     -0.018 -0.1923E-10  0.8000E+01
      0.117 -0.6406E-06  0.8000E+01
      0.251 -0.4331E-03  0.8000E+01
      0.386 -0.9493E-03  0.8000E+01
      0.520  0.9907E-01  0.8013E+01
      0.655  0.2539E+00  0.8047E+01
      0.789  0.1260E+00  0.8064E+01
      0.924  0.8371E+00  0.8177E+01
      1.059  0.1827E+01  0.8423E+01
      1.193  0.7155E+00  0.8519E+01
      1.328  0.1291E+01  0.8693E+01
      1.462  0.1032E+01  0.8832E+01
      1.597  0.9546E+00  0.8960E+01
      1.732  0.9071E+00  0.9082E+01
      1.866  0.1409E+01  0.9272E+01
      2.001  0.1154E+01  0.9427E+01
      2.135  0.4924E+00  0.9493E+01
      2.270  0.1305E+01  0.9669E+01
      2.404  0.1289E+01  0.9842E+01
      2.539  0.6476E+00  0.9929E+01
      2.674  0.1052E+01  0.1007E+02
      2.808  0.9498E+00  0.1020E+02
      2.943  0.1422E+01  0.1039E+02
      3.077  0.9811E+00  0.1052E+02
      3.212  0.9192E+00  0.1065E+02
      3.346  0.1385E+01  0.1083E+02
      3.481  0.1388E+01  0.1102E+02
      3.616  0.1511E+01  0.1122E+02
      3.750  0.1352E+01  0.1140E+02
      3.885  0.1355E+01  0.1159E+02
      4.019  0.4604E+00  0.1165E+02
      4.154  0.2396E+00  0.1168E+02
      4.288  0.8212E+00  0.1179E+02
      4.423  0.7996E+00  0.1190E+02
      4.558  0.8602E+00  0.1201E+02
      4.692  0.1302E+01  0.1219E+02
      4.827  0.6334E+00  0.1228E+02
      4.961  0.1398E+01  0.1246E+02
      5.096  0.1341E+01  0.1264E+02
      5.230  0.5037E+00  0.1271E+02
      5.365  0.1589E+00  0.1273E+02
      5.500  0.8885E+00  0.1285E+02
      5.634  0.1545E+01  0.1306E+02
      5.769  0.1677E+01  0.1329E+02
      5.903  0.7577E+00  0.1339E+02
      6.038  0.1401E+01  0.1358E+02
      6.172  0.7796E+00  0.1368E+02
      6.307  0.7307E+00  0.1378E+02
      6.442  0.1439E+00  0.1380E+02
      6.576  0.1541E+00  0.1382E+02
      6.711  0.8072E+00  0.1393E+02
      6.845  0.5897E+00  0.1401E+02
      6.980  0.1670E+01  0.1423E+02
      7.115  0.1122E+01  0.1438E+02
      7.249  0.9216E+00  0.1451E+02
      7.384  0.2949E+00  0.1455E+02
      7.518  0.1801E+00  0.1457E+02
      7.653  0.9094E+00  0.1469E+02
      7.787  0.1404E+00  0.1471E+02
      7.922  0.1173E+00  0.1473E+02
      8.057  0.5989E+00  0.1481E+02
      8.191  0.8411E+00  0.1492E+02
      8.326  0.1152E+01  0.1508E+02
      8.460  0.6169E+00  0.1516E+02
      8.595  0.9253E+00  0.1529E+02
      8.729  0.1536E+01  0.1549E+02
      8.864  0.8544E-01  0.1550E+02
      8.999 -0.1422E-01  0.1550E+02
      9.133  0.6354E-02  0.1550E+02
      9.268  0.2792E+00  0.1554E+02
      9.402  0.7109E+00  0.1564E+02
      9.537  0.5742E+00  0.1571E+02
      9.671 -0.3298E-01  0.1571E+02
      9.806  0.7664E-01  0.1572E+02
      9.941  0.6718E+00  0.1581E+02
     10.075  0.7603E+00  0.1591E+02
     10.210  0.4741E-01  0.1592E+02
     10.344 -0.6559E-02  0.1592E+02
     10.479 -0.2440E-04  0.1592E+02
     10.613 -0.1196E-06  0.1592E+02
     10.748 -0.3568E-03  0.1592E+02
     10.883 -0.1033E-01  0.1592E+02
     11.017  0.2139E+00  0.1594E+02
     11.152  0.1074E+00  0.1596E+02
     11.286  0.6982E-01  0.1597E+02
     11.421  0.2447E+00  0.1600E+02
     11.555 -0.7394E-02  0.1600E+02
     11.690 -0.6643E-03  0.1600E+02
     11.825 -0.3361E-06  0.1600E+02
     11.959 -0.3655E-11  0.1600E+02
     12.094  0.0000E+00  0.1600E+02
     12.228  0.0000E+00  0.1600E+02
     12.363  0.0000E+00  0.1600E+02
     12.497  0.0000E+00  0.1600E+02
     12.632  0.0000E+00  0.1600E+02
     12.767  0.0000E+00  0.1600E+02
     12.901  0.0000E+00  0.1600E+02
     13.036  0.0000E+00  0.1600E+02
     13.170  0.0000E+00  0.1600E+02
     13.305  0.0000E+00  0.1600E+02
     13.440  0.0000E+00  0.1600E+02
     13.574  0.0000E+00  0.1600E+02
     13.709  0.0000E+00  0.1600E+02
     13.843  0.0000E+00  0.1600E+02
     13.84323134    -26.52915037  301     -5.22146860      1.00000000
    -26.529  0.0000E+00  0.0000E+00  0.0000E+00  0.0000E+00  0.0000E+00  0.0000E+00  0.0000E+00  0.0000E+00  0.0000E+00
    -26.395  0.0000E+00  0.0000E+00  0.0000E+00  0.0000E+00  0.0000E+00  0.0000E+00  0.0000E+00  0.0000E+00  0.0000E+00
    -26.260  0.0000E+00  0.0000E+00  0.0000E+00  0.0000E+00  0.0000E+00  0.0000E+00  0.0000E+00  0.0000E+00  0.0000E+00
    -26.125  0.0000E+00  0.0000E+00  0.0000E+00  0.0000E+00  0.0000E+00  0.0000E+00  0.0000E+00  0.0000E+00  0.0000E+00
    -25.991  0.0000E+00  0.0000E+00  0.0000E+00  0.0000E+00  0.0000E+00  0.0000E+00  0.0000E+00  0.0000E+00  0.0000E+00
    -25.856  0.0000E+00  0.0000E+00  0.0000E+00  0.0000E+00  0.0000E+00  0.0000E+00  0.0000E+00  0.0000E+00  0.0000E+00
    -25.722  0.0000E+00  0.0000E+00  0.0000E+00  0.0000E+00  0.0000E+00  0.0000E+00  0.0000E+00  0.0000E+00  0.0000E+00
    -25.587 -0.8036E-36 -0.2352E-47 -0.7573E-51 -0.9743E-47  0.0000E+00  0.0000E+00  0.0000E+00  0.0000E+00  0.0000E+00
    -25.453 -0.3068E-26 -0.6606E-33 -0.2891E-41 -0.1982E-32  0.0000E+00  0.0000E+00  0.0000E+00  0.0000E+00  0.0000E+00
    -25.318 -0.3034E-18 -0.4649E-24 -0.2859E-33 -0.1395E-23  0.0000E+00  0.0000E+00  0.0000E+00  0.0000E+00  0.0000E+00
    -25.183 -0.7350E-12 -0.8154E-17 -0.6928E-27 -0.2446E-16  0.0000E+00  0.0000E+00  0.0000E+00  0.0000E+00  0.0000E+00
    -25.049 -0.4501E-07 -0.3636E-11 -0.4247E-22 -0.1091E-10  0.0000E+00  0.0000E+00  0.0000E+00  0.0000E+00  0.0000E+00
    -24.914 -0.6645E-04 -0.3751E-07 -0.6317E-19 -0.1125E-06  0.0000E+00  0.0000E+00  0.0000E+00  0.0000E+00  0.0000E+00
    -24.780 -0.1962E-02 -0.6540E-05 -0.1944E-17 -0.1907E-04  0.0000E+00  0.0000E+00  0.0000E+00  0.0000E+00  0.0000E+00
    -24.645  0.3769E-01  0.3896E-04  0.3639E-16  0.2425E-03  0.0000E+00  0.0000E+00  0.0000E+00  0.0000E+00  0.0000E+00
    -24.511  0.8055E-01  0.7854E-03  0.8158E-16  0.7005E-03  0.0000E+00  0.0000E+00  0.0000E+00  0.0000E+00  0.0000E+00
    -24.376  0.1192E+00  0.2561E-02  0.1677E-15  0.2976E-02  0.0000E+00  0.0000E+00  0.0000E+00  0.0000E+00  0.0000E+00
    -24.241  0.4329E-01  0.1580E-02  0.6235E-16  0.1805E-02  0.0000E+00  0.0000E+00  0.0000E+00  0.0000E+00  0.0000E+00
    -24.107  0.1375E+00  0.7463E-02  0.1678E-15  0.6367E-02  0.0000E+00  0.0000E+00  0.0000E+00  0.0000E+00  0.0000E+00
    -23.972  0.5927E-01  0.1567E-02  0.6315E-16  0.5909E-02  0.0000E+00  0.0000E+00  0.0000E+00  0.0000E+00  0.0000E+00
    -23.838  0.5886E-01  0.7303E-02  0.1733E-15  0.3613E-02  0.0000E+00  0.0000E+00  0.0000E+00  0.0000E+00  0.0000E+00
    -23.703  0.1489E+00  0.1531E-01  0.4902E-15  0.1364E-01  0.0000E+00  0.0000E+00  0.0000E+00  0.0000E+00  0.0000E+00
    -23.569  0.4069E-01  0.2351E-02  0.1993E-15  0.8060E-02  0.0000E+00  0.0000E+00  0.0000E+00  0.0000E+00  0.0000E+00
    -23.434  0.4147E-01  0.4797E-02  0.2127E-15  0.6799E-02  0.0000E+00  0.0000E+00  0.0000E+00  0.0000E+00  0.0000E+00
    -23.299  0.1270E+00  0.2494E-01  0.9295E-15  0.1703E-01  0.0000E+00  0.0000E+00  0.0000E+00  0.0000E+00  0.0000E+00
    -23.165  0.9882E-01  0.1531E-01  0.1205E-14  0.2114E-01  0.0000E+00  0.0000E+00  0.0000E+00  0.0000E+00  0.0000E+00
    -23.030  0.1471E-01  0.1205E-02 -0.2311E-15  0.5969E-02  0.0000E+00  0.0000E+00  0.0000E+00  0.0000E+00  0.0000E+00
    -22.896  0.6093E-01  0.1320E-01  0.1660E-13  0.1742E-01  0.0000E+00  0.0000E+00  0.0000E+00  0.0000E+00  0.0000E+00
    -22.761  0.1208E+00  0.4070E-01  0.2687E-13  0.2654E-01  0.0000E+00  0.0000E+00  0.0000E+00  0.0000E+00  0.0000E+00
    -22.626  0.7608E-01  0.1973E-01 -0.4419E-15  0.3153E-01  0.0000E+00  0.0000E+00  0.0000E+00  0.0000E+00  0.0000E+00
    -22.492  0.2621E-01  0.6368E-02  0.2974E-15  0.1117E-01  0.0000E+00  0.0000E+00  0.0000E+00  0.0000E+00  0.0000E+00
    -22.357  0.3524E-01  0.1097E-01  0.6037E-16  0.2168E-01  0.0000E+00  0.0000E+00  0.0000E+00  0.0000E+00  0.0000E+00
    -22.223  0.1139E+00  0.5994E-01  0.2028E-15  0.4963E-01  0.0000E+00  0.0000E+00  0.0000E+00  0.0000E+00  0.0000E+00
    -22.088  0.5513E-01  0.2753E-01  0.5677E-16  0.3327E-01  0.0000E+00  0.0000E+00  0.0000E+00  0.0000E+00  0.0000E+00
    -21.954  0.5192E-01  0.2337E-01  0.6325E-16  0.4762E-01  0.0000E+00  0.0000E+00  0.0000E+00  0.0000E+00  0.0000E+00
    -21.819  0.9841E-02  0.5457E-02  0.1310E-16  0.1290E-01  0.0000E+00  0.0000E+00  0.0000E+00  0.0000E+00  0.0000E+00
    -21.684  0.9306E-01  0.8755E-01  0.1010E-15  0.8495E-01  0.0000E+00  0.0000E+00  0.0000E+00  0.0000E+00  0.0000E+00
    -21.550  0.5992E-01  0.5620E-01  0.2198E-15  0.8534E-01  0.0000E+00  0.0000E+00  0.0000E+00  0.0000E+00  0.0000E+00
    -21.415  0.2625E-01  0.2395E-01  0.1005E-15  0.6791E-01  0.0000E+00  0.0000E+00  0.0000E+00  0.0000E+00  0.0000E+00
    -21.281  0.4453E-01  0.8036E-01  0.1417E-15  0.1388E+00  0.0000E+00  0.0000E+00  0.0000E+00  0.0000E+00  0.0000E+00
    -21.146  0.4982E-01  0.1011E+00  0.2659E-15  0.1257E+00  0.0000E+00  0.0000E+00  0.0000E+00  0.0000E+00  0.0000E+00
    -21.012  0.4040E-02  0.1644E-01  0.4830E-15  0.3602E-01  0.0000E+00  0.0000E+00  0.0000E+00  0.0000E+00  0.0000E+00
    -20.877  0.1275E-01  0.7857E-01  0.5248E-15  0.8151E-01  0.0000E+00  0.0000E+00  0.0000E+00  0.0000E+00  0.0000E+00
    -20.742  0.1992E-02  0.3341E-01  0.4417E-16  0.3597E-01  0.0000E+00  0.0000E+00  0.0000E+00  0.0000E+00  0.0000E+00
    -20.608  0.3821E-04  0.5642E-02 -0.3768E-17  0.7385E-02  0.0000E+00  0.0000E+00  0.0000E+00  0.0000E+00  0.0000E+00
    -20.473 -0.1455E-04 -0.5205E-03 -0.1039E-18 -0.6426E-03  0.0000E+00  0.0000E+00  0.0000E+00  0.0000E+00  0.0000E+00
    -20.339 -0.5415E-07 -0.1981E-05 -0.3498E-21 -0.2452E-05  0.0000E+00  0.0000E+00  0.0000E+00  0.0000E+00  0.0000E+00
    -20.204 -0.3656E-11 -0.1338E-09 -0.2358E-25 -0.1656E-09  0.0000E+00  0.0000E+00  0.0000E+00  0.0000E+00  0.0000E+00
    -20.070 -0.5853E-17 -0.2143E-15 -0.3775E-31 -0.2652E-15  0.0000E+00  0.0000E+00  0.0000E+00  0.0000E+00  0.0000E+00
    -19.935  0.0000E+00  0.0000E+00  0.0000E+00  0.0000E+00  0.0000E+00  0.0000E+00  0.0000E+00  0.0000E+00  0.0000E+00
    -19.800  0.0000E+00  0.0000E+00  0.0000E+00  0.0000E+00  0.0000E+00  0.0000E+00  0.0000E+00  0.0000E+00  0.0000E+00
    -19.666  0.0000E+00  0.0000E+00  0.0000E+00  0.0000E+00  0.0000E+00  0.0000E+00  0.0000E+00  0.0000E+00  0.0000E+00
    -19.531  0.0000E+00  0.0000E+00  0.0000E+00  0.0000E+00  0.0000E+00  0.0000E+00  0.0000E+00  0.0000E+00  0.0000E+00
    -19.397  0.0000E+00  0.0000E+00  0.0000E+00  0.0000E+00  0.0000E+00  0.0000E+00  0.0000E+00  0.0000E+00  0.0000E+00
    -19.262  0.0000E+00  0.0000E+00  0.0000E+00  0.0000E+00  0.0000E+00  0.0000E+00  0.0000E+00  0.0000E+00  0.0000E+00
    -19.128  0.0000E+00  0.0000E+00  0.0000E+00  0.0000E+00  0.0000E+00  0.0000E+00  0.0000E+00  0.0000E+00  0.0000E+00
    -18.993  0.0000E+00  0.0000E+00  0.0000E+00  0.0000E+00  0.0000E+00  0.0000E+00  0.0000E+00  0.0000E+00  0.0000E+00
    -18.858  0.0000E+00  0.0000E+00  0.0000E+00  0.0000E+00  0.0000E+00  0.0000E+00  0.0000E+00  0.0000E+00  0.0000E+00
    -18.724  0.0000E+00  0.0000E+00  0.0000E+00  0.0000E+00  0.0000E+00  0.0000E+00  0.0000E+00  0.0000E+00  0.0000E+00
    -18.589  0.0000E+00  0.0000E+00  0.0000E+00  0.0000E+00  0.0000E+00  0.0000E+00  0.0000E+00  0.0000E+00  0.0000E+00
    -18.455  0.0000E+00  0.0000E+00  0.0000E+00  0.0000E+00  0.0000E+00  0.0000E+00  0.0000E+00  0.0000E+00  0.0000E+00
    -18.320  0.0000E+00  0.0000E+00  0.0000E+00  0.0000E+00  0.0000E+00  0.0000E+00  0.0000E+00  0.0000E+00  0.0000E+00
    -18.186  0.0000E+00  0.0000E+00  0.0000E+00  0.0000E+00  0.0000E+00  0.0000E+00  0.0000E+00  0.0000E+00  0.0000E+00
    -18.051  0.0000E+00  0.0000E+00  0.0000E+00  0.0000E+00  0.0000E+00  0.0000E+00  0.0000E+00  0.0000E+00  0.0000E+00
    -17.916  0.0000E+00  0.0000E+00  0.0000E+00  0.0000E+00  0.0000E+00  0.0000E+00  0.0000E+00  0.0000E+00  0.0000E+00
    -17.782  0.0000E+00  0.0000E+00  0.0000E+00  0.0000E+00  0.0000E+00  0.0000E+00  0.0000E+00  0.0000E+00  0.0000E+00
    -17.647  0.0000E+00  0.0000E+00  0.0000E+00  0.0000E+00  0.0000E+00  0.0000E+00  0.0000E+00  0.0000E+00  0.0000E+00
    -17.513  0.0000E+00  0.0000E+00  0.0000E+00  0.0000E+00  0.0000E+00  0.0000E+00  0.0000E+00  0.0000E+00  0.0000E+00
    -17.378  0.0000E+00  0.0000E+00  0.0000E+00  0.0000E+00  0.0000E+00  0.0000E+00  0.0000E+00  0.0000E+00  0.0000E+00
    -17.244  0.0000E+00  0.0000E+00  0.0000E+00  0.0000E+00  0.0000E+00  0.0000E+00  0.0000E+00  0.0000E+00  0.0000E+00
    -17.109  0.0000E+00  0.0000E+00  0.0000E+00  0.0000E+00  0.0000E+00  0.0000E+00  0.0000E+00  0.0000E+00  0.0000E+00
    -16.974  0.0000E+00  0.0000E+00  0.0000E+00  0.0000E+00  0.0000E+00  0.0000E+00  0.0000E+00  0.0000E+00  0.0000E+00
    -16.840  0.0000E+00  0.0000E+00  0.0000E+00  0.0000E+00  0.0000E+00  0.0000E+00  0.0000E+00  0.0000E+00  0.0000E+00
    -16.705  0.0000E+00  0.0000E+00  0.0000E+00  0.0000E+00  0.0000E+00  0.0000E+00  0.0000E+00  0.0000E+00  0.0000E+00
    -16.571  0.0000E+00  0.0000E+00  0.0000E+00  0.0000E+00  0.0000E+00  0.0000E+00  0.0000E+00  0.0000E+00  0.0000E+00
    -16.436  0.0000E+00  0.0000E+00  0.0000E+00  0.0000E+00  0.0000E+00  0.0000E+00  0.0000E+00  0.0000E+00  0.0000E+00
    -16.301  0.0000E+00  0.0000E+00  0.0000E+00  0.0000E+00  0.0000E+00  0.0000E+00  0.0000E+00  0.0000E+00  0.0000E+00
    -16.167  0.0000E+00  0.0000E+00  0.0000E+00  0.0000E+00  0.0000E+00  0.0000E+00  0.0000E+00  0.0000E+00  0.0000E+00
    -16.032  0.0000E+00  0.0000E+00  0.0000E+00  0.0000E+00  0.0000E+00  0.0000E+00  0.0000E+00  0.0000E+00  0.0000E+00
    -15.898 -0.2635E-35 -0.1586E-36 -0.6893E-49 -0.3978E-36  0.0000E+00  0.0000E+00  0.0000E+00  0.0000E+00  0.0000E+00
    -15.763 -0.1138E-25 -0.6852E-27 -0.2979E-39 -0.1719E-26  0.0000E+00  0.0000E+00  0.0000E+00  0.0000E+00  0.0000E+00
    -15.629 -0.1276E-17 -0.7676E-19 -0.3341E-31 -0.1927E-18  0.0000E+00  0.0000E+00  0.0000E+00  0.0000E+00  0.0000E+00
    -15.494 -0.3531E-11 -0.2120E-12 -0.9262E-25 -0.5333E-12  0.0000E+00  0.0000E+00  0.0000E+00  0.0000E+00  0.0000E+00
    -15.359 -0.2487E-06 -0.1486E-07 -0.6558E-20 -0.3760E-07  0.0000E+00  0.0000E+00  0.0000E+00  0.0000E+00  0.0000E+00
    -15.225 -0.3975E-03 -0.2340E-04 -0.1063E-16 -0.6025E-04  0.0000E+00  0.0000E+00  0.0000E+00  0.0000E+00  0.0000E+00
    -15.090 -0.4302E-02 -0.2293E-03 -0.1255E-15 -0.6638E-03  0.0000E+00  0.0000E+00  0.0000E+00  0.0000E+00  0.0000E+00
    -14.956  0.1409E+00  0.7975E-02  0.3905E-14  0.2119E-01  0.0000E+00  0.0000E+00  0.0000E+00  0.0000E+00  0.0000E+00
    -14.821  0.1045E+00  0.5932E-02  0.2842E-14  0.1928E-01  0.0000E+00  0.0000E+00  0.0000E+00  0.0000E+00  0.0000E+00
    -14.687  0.2431E+00  0.1481E-01  0.7549E-14  0.5939E-01  0.0000E+00  0.0000E+00  0.0000E+00  0.0000E+00  0.0000E+00
    -14.552  0.1822E+00  0.1729E-01  0.9152E-14  0.4450E-01  0.0000E+00  0.0000E+00  0.0000E+00  0.0000E+00  0.0000E+00
    -14.417  0.1100E-01 -0.7725E-05  0.3764E-15  0.5860E-02  0.0000E+00  0.0000E+00  0.0000E+00  0.0000E+00  0.0000E+00
    -14.283  0.2921E+00  0.3676E-01  0.1157E-13  0.1237E+00  0.0000E+00  0.0000E+00  0.0000E+00  0.0000E+00  0.0000E+00
    -14.148  0.2120E+00  0.1737E-01  0.9140E-14  0.9473E-01  0.0000E+00  0.0000E+00  0.0000E+00  0.0000E+00  0.0000E+00
    -14.014  0.5157E-01  0.3174E-01  0.1947E-14  0.4794E-01  0.0000E+00  0.0000E+00  0.0000E+00  0.0000E+00  0.0000E+00
    -13.879  0.1558E+00  0.5653E-01  0.5462E-14  0.1322E+00  0.0000E+00  0.0000E+00  0.0000E+00  0.0000E+00  0.0000E+00
    -13.745  0.1550E+00  0.6429E-02  0.5629E-14  0.7168E-01  0.0000E+00  0.0000E+00  0.0000E+00  0.0000E+00  0.0000E+00
    -13.610  0.1131E+00  0.1937E-02  0.4829E-14  0.7848E-01  0.0000E+00  0.0000E+00  0.0000E+00  0.0000E+00  0.0000E+00
    -13.475  0.2185E-01 -0.1275E-03  0.9218E-15  0.1579E-01  0.0000E+00  0.0000E+00  0.0000E+00  0.0000E+00  0.0000E+00
    -13.341  0.3305E-01  0.9228E-02  0.1742E-14  0.2315E-01  0.0000E+00  0.0000E+00  0.0000E+00  0.0000E+00  0.0000E+00
    -13.206  0.1608E+00  0.1568E-01  0.7819E-14  0.9836E-01  0.0000E+00  0.0000E+00  0.0000E+00  0.0000E+00  0.0000E+00
    -13.072  0.8538E-01  0.3399E-02  0.3703E-14  0.4666E-01  0.0000E+00  0.0000E+00  0.0000E+00  0.0000E+00  0.0000E+00
    -12.937  0.8690E-01  0.1267E-01  0.1815E-14  0.4605E-02  0.0000E+00  0.0000E+00  0.0000E+00  0.0000E+00  0.0000E+00
    -12.803 -0.5139E-02 -0.4324E-03 -0.3386E-15 -0.3682E-02  0.0000E+00  0.0000E+00  0.0000E+00  0.0000E+00  0.0000E+00
    -12.668  0.1953E+00  0.3340E-01  0.9462E-14  0.1174E+00  0.0000E+00  0.0000E+00  0.0000E+00  0.0000E+00  0.0000E+00
    -12.533  0.1303E+00  0.1350E-01  0.8000E-14  0.9204E-01  0.0000E+00  0.0000E+00  0.0000E+00  0.0000E+00  0.0000E+00
    -12.399 -0.1054E-01 -0.3767E-02 -0.3716E-15 -0.5280E-02  0.0000E+00  0.0000E+00  0.0000E+00  0.0000E+00  0.0000E+00
    -12.264  0.8867E-01  0.6034E-01  0.2799E-15  0.2157E-01  0.0000E+00  0.0000E+00  0.0000E+00  0.0000E+00  0.0000E+00
    -12.130  0.4167E-01  0.3015E-01 -0.2280E-15  0.6936E-02  0.0000E+00  0.0000E+00  0.0000E+00  0.0000E+00  0.0000E+00
    -11.995  0.1434E+00  0.5486E-01  0.7608E-14  0.1035E+00  0.0000E+00  0.0000E+00  0.0000E+00  0.0000E+00  0.0000E+00
    -11.861  0.1395E+00  0.6851E-01 -0.5199E-13  0.8221E-01  0.0000E+00  0.0000E+00  0.0000E+00  0.0000E+00  0.0000E+00
    -11.726  0.1015E-01  0.4943E-02  0.8558E-12  0.1074E-01  0.0000E+00  0.0000E+00  0.0000E+00  0.0000E+00  0.0000E+00
    -11.591  0.2603E-01  0.1086E-01  0.1321E-11  0.2284E-01  0.0000E+00  0.0000E+00  0.0000E+00  0.0000E+00  0.0000E+00
    -11.457  0.2396E-01  0.3681E-01 -0.4414E-12  0.1365E-01  0.0000E+00  0.0000E+00  0.0000E+00  0.0000E+00  0.0000E+00
    -11.322  0.1519E+00  0.1791E+00 -0.2463E-07  0.1034E+00  0.0000E+00  0.0000E+00  0.0000E+00  0.0000E+00  0.0000E+00
    -11.188  0.7800E-01  0.2940E-01 -0.3537E-04  0.8035E-01  0.0000E+00  0.0000E+00  0.0000E+00  0.0000E+00  0.0000E+00
    -11.053  0.4413E-01  0.8940E-01 -0.7370E-03  0.2071E-01  0.0000E+00  0.0000E+00  0.0000E+00  0.0000E+00  0.0000E+00
    -10.918  0.2367E-01  0.4895E-01  0.1556E-01  0.1008E-01  0.0000E+00  0.0000E+00  0.0000E+00  0.0000E+00  0.0000E+00
    -10.784  0.3407E-01  0.7007E-02  0.5049E-01  0.4509E-01  0.0000E+00  0.0000E+00  0.0000E+00  0.0000E+00  0.0000E+00
    -10.649  0.5909E-01  0.8157E-01  0.4182E-01  0.7478E-01  0.0000E+00  0.0000E+00  0.0000E+00  0.0000E+00  0.0000E+00
    -10.515  0.1133E+00  0.2478E+00  0.7064E-01  0.1221E+00  0.0000E+00  0.0000E+00  0.0000E+00  0.0000E+00  0.0000E+00
    -10.380  0.4037E-01  0.1413E+00  0.2038E-02  0.4384E-01  0.0000E+00  0.0000E+00  0.0000E+00  0.0000E+00  0.0000E+00
    -10.246 -0.2370E-02 -0.8603E-02  0.8771E-01 -0.2997E-02  0.0000E+00  0.0000E+00  0.0000E+00  0.0000E+00  0.0000E+00
    -10.111  0.2611E-01  0.1373E+00  0.4544E-01  0.3269E-01  0.0000E+00  0.0000E+00  0.0000E+00  0.0000E+00  0.0000E+00
     -9.976  0.2926E-01  0.2192E+00  0.3582E-01  0.8228E-01  0.0000E+00  0.0000E+00  0.0000E+00  0.0000E+00  0.0000E+00
     -9.842  0.7057E-01  0.1610E+00  0.6748E-02  0.1555E+00  0.0000E+00  0.0000E+00  0.0000E+00  0.0000E+00  0.0000E+00
     -9.707  0.2011E-01  0.2701E+00  0.1037E+00  0.8776E-01  0.0000E+00  0.0000E+00  0.0000E+00  0.0000E+00  0.0000E+00
     -9.573  0.4690E-01  0.2328E+00  0.5006E-01  0.8818E-01  0.0000E+00  0.0000E+00  0.0000E+00  0.0000E+00  0.0000E+00
     -9.438  0.2786E-02  0.3053E-01  0.2187E-01  0.1002E-01  0.0000E+00  0.0000E+00  0.0000E+00  0.0000E+00  0.0000E+00
     -9.304  0.6166E-02  0.2167E+00  0.2669E-01  0.5972E-01  0.0000E+00  0.0000E+00  0.0000E+00  0.0000E+00  0.0000E+00
     -9.169  0.1690E-01  0.1002E-01  0.4029E-01  0.3679E-01  0.0000E+00  0.0000E+00  0.0000E+00  0.0000E+00  0.0000E+00
     -9.034  0.2296E-01  0.1004E+00  0.7489E-01  0.6784E-01  0.0000E+00  0.0000E+00  0.0000E+00  0.0000E+00  0.0000E+00
     -8.900  0.8503E-02  0.1940E+00  0.8331E-01  0.6477E-01  0.0000E+00  0.0000E+00  0.0000E+00  0.0000E+00  0.0000E+00
     -8.765  0.3475E-02  0.9002E-01 -0.1536E-03  0.2515E-01  0.0000E+00  0.0000E+00  0.0000E+00  0.0000E+00  0.0000E+00
     -8.631  0.3258E-01  0.4216E-01  0.2410E-01  0.7845E-01  0.0000E+00  0.0000E+00  0.0000E+00  0.0000E+00  0.0000E+00
     -8.496  0.4699E-02  0.1100E-01  0.2903E-01  0.1198E-01  0.0000E+00  0.0000E+00  0.0000E+00  0.0000E+00  0.0000E+00
     -8.362  0.4744E-02  0.1403E+00  0.9026E-01  0.7654E-01  0.0000E+00  0.0000E+00  0.0000E+00  0.0000E+00  0.0000E+00
     -8.227  0.5465E-02  0.1245E+00  0.4120E-01  0.5865E-01  0.0000E+00  0.0000E+00  0.0000E+00  0.0000E+00  0.0000E+00
     -8.092 -0.5624E-03 -0.6517E-02  0.6622E-01 -0.4534E-02  0.0000E+00  0.0000E+00  0.0000E+00  0.0000E+00  0.0000E+00
     -7.958  0.9680E-02  0.1605E-01  0.2097E-01  0.4631E-01  0.0000E+00  0.0000E+00  0.0000E+00  0.0000E+00  0.0000E+00
     -7.823  0.2895E-02  0.7349E-01 -0.1966E-02  0.3926E-01  0.0000E+00  0.0000E+00  0.0000E+00  0.0000E+00  0.0000E+00
     -7.689  0.8241E-02  0.1441E+00  0.4181E-01  0.8551E-01  0.0000E+00  0.0000E+00  0.0000E+00  0.0000E+00  0.0000E+00
     -7.554  0.3855E-02  0.2744E-01  0.8179E-01  0.1435E-01  0.0000E+00  0.0000E+00  0.0000E+00  0.0000E+00  0.0000E+00
     -7.420 -0.2850E-03  0.3385E-02  0.6844E-01 -0.6203E-03  0.0000E+00  0.0000E+00  0.0000E+00  0.0000E+00  0.0000E+00
     -7.285  0.2004E-04  0.6952E-01  0.1315E-01  0.3856E-01  0.0000E+00  0.0000E+00  0.0000E+00  0.0000E+00  0.0000E+00
     -7.150  0.2028E-02  0.3175E-01  0.6006E-01  0.7650E-01  0.0000E+00  0.0000E+00  0.0000E+00  0.0000E+00  0.0000E+00
     -7.016  0.1861E-02  0.2560E-01 -0.1799E-02  0.3726E-01  0.0000E+00  0.0000E+00  0.0000E+00  0.0000E+00  0.0000E+00
     -6.881 -0.1145E-03  0.5398E-01  0.2033E-01  0.1794E-01  0.0000E+00  0.0000E+00  0.0000E+00  0.0000E+00  0.0000E+00
     -6.747 -0.1785E-05  0.1031E-01  0.8970E-01  0.1126E-01  0.0000E+00  0.0000E+00  0.0000E+00  0.0000E+00  0.0000E+00
     -6.612 -0.3612E-09 -0.3434E-03  0.6036E-01 -0.2439E-03  0.0000E+00  0.0000E+00  0.0000E+00  0.0000E+00  0.0000E+00
     -6.478 -0.1101E-14 -0.4136E-04  0.3942E-01 -0.4138E-04  0.0000E+00  0.0000E+00  0.0000E+00  0.0000E+00  0.0000E+00
     -6.343  0.8762E-15 -0.2621E-07  0.2701E-01 -0.2629E-07  0.0000E+00  0.0000E+00  0.0000E+00  0.0000E+00  0.0000E+00
     -6.208  0.1535E-14 -0.3521E-12  0.1775E-01 -0.3530E-12  0.0000E+00  0.0000E+00  0.0000E+00  0.0000E+00  0.0000E+00
     -6.074  0.5817E-14  0.3118E-14  0.8784E-01  0.3102E-14  0.0000E+00  0.0000E+00  0.0000E+00  0.0000E+00  0.0000E+00
     -5.939  0.3244E-14  0.1018E-14  0.4734E-01  0.8699E-15  0.0000E+00  0.0000E+00  0.0000E+00  0.0000E+00  0.0000E+00
     -5.805  0.1190E-13  0.2985E-14  0.1747E-02  0.2802E-14  0.0000E+00  0.0000E+00  0.0000E+00  0.0000E+00  0.0000E+00
     -5.670  0.2087E-13  0.5272E-14  0.8746E-02  0.4943E-14  0.0000E+00  0.0000E+00  0.0000E+00  0.0000E+00  0.0000E+00
     -5.536 -0.5571E-16 -0.8248E-16  0.1813E-01 -0.8649E-16  0.0000E+00  0.0000E+00  0.0000E+00  0.0000E+00  0.0000E+00