<?xml version="1.0" encoding="ISO-8859-1"?>
<modeling>
 <generator>
  <i name="program" type="string">vasp </i>
  <i name="version" type="string">5.4.1  </i>
  <i name="subversion" type="string">24Jun15 (build May 10 2016 14:40:36) complex                          parallel </i>
  <i name="platform" type="string">IFC91_ompi </i>
  <i name="date" type="string">2017 02 28 </i>
  <i name="time" type="string">15:59:29 </i>
 </generator>
 <incar>
  <i type="string" name="PREC">accurate</i>
  <i type="string" name="ALGO"> Fast</i>
  <i type="int" name="ISPIN">     2</i>
  <i type="int" name="IBRION">     2</i>
  <i name="EDIFF">      0.00010000</i>
  <i type="int" name="NSW">    50</i>
  <i type="int" name="ISIF">     3</i>
  <i name="ENCUT">    500.00000000</i>
  <v name="MAGMOM">      6.00000000      6.00000000      6.00000000      6.00000000      0.50000000      0.50000000      0.50000000      0.50000000      0.50000000      0.50000000      0.50000000      0.50000000</v>
  <i type="string" name="LREAL"> Auto</i>
  <i type="int" name="ISMEAR">     1</i>
  <i name="SIGMA">      0.10000000</i>
  <i type="logical" name="LCHARG"> T  </i>
  <i type="logical" name="LVTOT"> T  </i>
  <i type="logical" name="LVHAR"> T  </i>
  <i type="logical" name="LAECHG"> T  </i>
  <v type="int" name="KPOINT_BSE">    -1     0     0     0</v>
  <i type="string" name="GGA"> Bo</i>
  <i name="PARAM1">      0.18333333</i>
  <i name="PARAM2">      0.22000000</i>
  <i type="logical" name="LUSE_VDW"> T  </i>
  <i name="AGGAC">      0.00000000</i>
 </incar>
 <kpoints>
  <generation param="Monkhorst-Pack">
   <v type="int" name="divisions">       6        4        4 </v>
   <v name="usershift">      0.00000000       0.00000000       0.00000000 </v>
   <v name="genvec1">      0.16666667      -0.00000000       0.00000000 </v>
   <v name="genvec2">     -0.00000000       0.25000000       0.00000000 </v>
   <v name="genvec3">      0.00000000      -0.00000000       0.25000000 </v>
   <v name="shift">      0.50000000       0.50000000       0.50000000 </v>
  </generation>
  <varray name="kpointlist" >
   <v>       0.08333333       0.12500000       0.12500000 </v>
   <v>       0.25000000       0.12500000       0.12500000 </v>
   <v>       0.41666667       0.12500000       0.12500000 </v>
   <v>      -0.41666667       0.12500000       0.12500000 </v>
   <v>      -0.25000000       0.12500000       0.12500000 </v>
   <v>      -0.08333333       0.12500000       0.12500000 </v>
   <v>       0.08333333       0.37500000       0.12500000 </v>
   <v>       0.25000000       0.37500000       0.12500000 </v>
   <v>       0.41666667       0.37500000       0.12500000 </v>
   <v>      -0.41666667       0.37500000       0.12500000 </v>
   <v>      -0.25000000       0.37500000       0.12500000 </v>
   <v>      -0.08333333       0.37500000       0.12500000 </v>
   <v>       0.08333333      -0.37500000       0.12500000 </v>
   <v>       0.25000000      -0.37500000       0.12500000 </v>
   <v>       0.41666667      -0.37500000       0.12500000 </v>
   <v>      -0.41666667      -0.37500000       0.12500000 </v>
   <v>      -0.25000000      -0.37500000       0.12500000 </v>
   <v>      -0.08333333      -0.37500000       0.12500000 </v>
   <v>       0.08333333      -0.12500000       0.12500000 </v>
   <v>       0.25000000      -0.12500000       0.12500000 </v>
   <v>       0.41666667      -0.12500000       0.12500000 </v>
   <v>      -0.41666667      -0.12500000       0.12500000 </v>
   <v>      -0.25000000      -0.12500000       0.12500000 </v>
   <v>      -0.08333333      -0.12500000       0.12500000 </v>
   <v>       0.08333333       0.12500000       0.37500000 </v>
   <v>       0.25000000       0.12500000       0.37500000 </v>
   <v>       0.41666667       0.12500000       0.37500000 </v>
   <v>      -0.41666667       0.12500000       0.37500000 </v>
   <v>      -0.25000000       0.12500000       0.37500000 </v>
   <v>      -0.08333333       0.12500000       0.37500000 </v>
   <v>       0.08333333       0.37500000       0.37500000 </v>
   <v>       0.25000000       0.37500000       0.37500000 </v>
   <v>       0.41666667       0.37500000       0.37500000 </v>
   <v>      -0.41666667       0.37500000       0.37500000 </v>
   <v>      -0.25000000       0.37500000       0.37500000 </v>
   <v>      -0.08333333       0.37500000       0.37500000 </v>
   <v>       0.08333333      -0.37500000       0.37500000 </v>
   <v>       0.25000000      -0.37500000       0.37500000 </v>
   <v>       0.41666667      -0.37500000       0.37500000 </v>
   <v>      -0.41666667      -0.37500000       0.37500000 </v>
   <v>      -0.25000000      -0.37500000       0.37500000 </v>
   <v>      -0.08333333      -0.37500000       0.37500000 </v>
   <v>       0.08333333      -0.12500000       0.37500000 </v>
   <v>       0.25000000      -0.12500000       0.37500000 </v>
   <v>       0.41666667      -0.12500000       0.37500000 </v>
   <v>      -0.41666667      -0.12500000       0.37500000 </v>
   <v>      -0.25000000      -0.12500000       0.37500000 </v>
   <v>      -0.08333333      -0.12500000       0.37500000 </v>
  </varray>
  <varray name="weights" >
   <v>       0.02083333 </v>
   <v>       0.02083333 </v>
   <v>       0.02083333 </v>
   <v>       0.02083333 </v>
   <v>       0.02083333 </v>
   <v>       0.02083333 </v>
   <v>       0.02083333 </v>
   <v>       0.02083333 </v>
   <v>       0.02083333 </v>
   <v>       0.02083333 </v>
   <v>       0.02083333 </v>
   <v>       0.02083333 </v>
   <v>       0.02083333 </v>
   <v>       0.02083333 </v>
   <v>       0.02083333 </v>
   <v>       0.02083333 </v>
   <v>       0.02083333 </v>
   <v>       0.02083333 </v>
   <v>       0.02083333 </v>
   <v>       0.02083333 </v>
   <v>       0.02083333 </v>
   <v>       0.02083333 </v>
   <v>       0.02083333 </v>
   <v>       0.02083333 </v>
   <v>       0.02083333 </v>
   <v>       0.02083333 </v>
   <v>       0.02083333 </v>
   <v>       0.02083333 </v>
   <v>       0.02083333 </v>
   <v>       0.02083333 </v>
   <v>       0.02083333 </v>
   <v>       0.02083333 </v>
   <v>       0.02083333 </v>
   <v>       0.02083333 </v>
   <v>       0.02083333 </v>
   <v>       0.02083333 </v>
   <v>       0.02083333 </v>
   <v>       0.02083333 </v>
   <v>       0.02083333 </v>
   <v>       0.02083333 </v>
   <v>       0.02083333 </v>
   <v>       0.02083333 </v>
   <v>       0.02083333 </v>
   <v>       0.02083333 </v>
   <v>       0.02083333 </v>
   <v>       0.02083333 </v>
   <v>       0.02083333 </v>
   <v>       0.02083333 </v>
  </varray>
 </kpoints>
 <parameters>
  <separator name="general" >
   <i type="string" name="SYSTEM">unknown system</i>
   <i type="logical" name="LCOMPAT"> F  </i>
  </separator>
  <separator name="electronic" >
   <i type="string" name="PREC">accura</i>
   <i name="ENMAX">    500.00000000</i>
   <i name="ENAUG">    605.39200000</i>
   <i name="EDIFF">      0.00010000</i>
   <i type="int" name="IALGO">    68</i>
   <i type="int" name="IWAVPR">    11</i>
   <i type="int" name="NBANDS">    72</i>
   <i name="NELECT">     96.00000000</i>
   <i type="int" name="TURBO">     0</i>
   <i type="int" name="IRESTART">     0</i>
   <i type="int" name="NREBOOT">     0</i>
   <i type="int" name="NMIN">     0</i>
   <i name="EREF">      0.00000000</i>
   <separator name="electronic smearing" >
    <i type="int" name="ISMEAR">     1</i>
    <i name="SIGMA">      0.10000000</i>
    <i name="KSPACING">      0.50000000</i>
    <i type="logical" name="KGAMMA"> T  </i>
   </separator>
   <separator name="electronic projectors" >
    <i type="logical" name="LREAL"> T  </i>
    <v name="ROPT">     -0.00025000     -0.00025000</v>
    <i type="int" name="LMAXPAW">  -100</i>
    <i type="int" name="LMAXMIX">     2</i>
    <i type="logical" name="NLSPLINE"> F  </i>
   </separator>
   <separator name="electronic startup" >
    <i type="int" name="ISTART">     1</i>
    <i type="int" name="ICHARG">     0</i>
    <i type="int" name="INIWAV">     1</i>
   </separator>
   <separator name="electronic spin" >
    <i type="int" name="ISPIN">     2</i>
    <i type="logical" name="LNONCOLLINEAR"> F  </i>
    <v name="MAGMOM">      6.00000000      6.00000000      6.00000000      6.00000000      0.50000000      0.50000000      0.50000000      0.50000000      0.50000000      0.50000000      0.50000000      0.50000000</v>
    <i name="NUPDOWN">     -1.00000000</i>
    <i type="logical" name="LSORBIT"> F  </i>
    <v name="SAXIS">      0.00000000      0.00000000      1.00000000</v>
    <i type="logical" name="LSPIRAL"> F  </i>
    <v name="QSPIRAL">      0.00000000      0.00000000      0.00000000</v>
    <i type="logical" name="LZEROZ"> F  </i>
   </separator>
   <separator name="electronic exchange-correlation" >
    <i type="logical" name="LASPH"> F  </i>
    <i type="logical" name="LMETAGGA"> F  </i>
   </separator>
   <separator name="electronic convergence" >
    <i type="int" name="NELM">    60</i>
    <i type="int" name="NELMDL">     0</i>
    <i type="int" name="NELMIN">     2</i>
    <i name="ENINI">    500.00000000</i>
    <separator name="electronic convergence detail" >
     <i type="logical" name="LDIAG"> T  </i>
     <i type="logical" name="LSUBROT"> F  </i>
     <i name="WEIMIN">      0.00100000</i>
     <i name="EBREAK">      0.00000035</i>
     <i name="DEPER">      0.30000000</i>
     <i type="int" name="NRMM">     4</i>
     <i name="TIME">      0.40000000</i>
    </separator>
   </separator>
   <separator name="electronic mixer" >
    <i name="AMIX">      0.40000000</i>
    <i name="BMIX">      1.00000000</i>
    <i name="AMIN">      0.10000000</i>
    <i name="AMIX_MAG">      1.60000000</i>
    <i name="BMIX_MAG">      1.00000000</i>
    <separator name="electronic mixer details" >
     <i type="int" name="IMIX">     4</i>
     <i type="logical" name="MIXFIRST"> F  </i>
     <i type="int" name="MAXMIX">   -45</i>
     <i name="WC">    100.00000000</i>
     <i type="int" name="INIMIX">     1</i>
     <i type="int" name="MIXPRE">     1</i>
     <i type="int" name="MREMOVE">     5</i>
    </separator>
   </separator>
   <separator name="electronic dipolcorrection" >
    <i type="logical" name="LDIPOL"> F  </i>
    <i type="logical" name="LMONO"> F  </i>
    <i type="int" name="IDIPOL">     0</i>
    <i name="EPSILON">      1.00000000</i>
    <v name="DIPOL">   -100.00000000   -100.00000000   -100.00000000</v>
    <i name="EFIELD">      0.00000000</i>
   </separator>
  </separator>
  <separator name="grids" >
   <i type="int" name="NGX">    36</i>
   <i type="int" name="NGY">    42</i>
   <i type="int" name="NGZ">    48</i>
   <i type="int" name="NGXF">    72</i>
   <i type="int" name="NGYF">    84</i>
   <i type="int" name="NGZF">    96</i>
   <i type="logical" name="ADDGRID"> F  </i>
  </separator>
  <separator name="ionic" >
   <i type="int" name="NSW">    50</i>
   <i type="int" name="IBRION">     2</i>
   <i type="int" name="ISIF">     3</i>
   <i name="PSTRESS">      0.00000000</i>
   <i name="EDIFFG">      0.00100000</i>
   <i type="int" name="NFREE">     1</i>
   <i name="POTIM">      0.50000000</i>
   <i name="SMASS">     -3.00000000</i>
   <i name="SCALEE">      1.00000000</i>
  </separator>
  <separator name="ionic md" >
   <i name="TEBEG">      0.00010000</i>
   <i name="TEEND">      0.00010000</i>
   <i type="int" name="NBLOCK">     1</i>
   <i type="int" name="KBLOCK">    50</i>
   <i type="int" name="NPACO">   256</i>
   <i name="APACO">     16.00000000</i>
  </separator>
  <separator name="symmetry" >
   <i type="int" name="ISYM">     2</i>
   <i name="SYMPREC">      0.00001000</i>
  </separator>
  <separator name="dos" >
   <i type="logical" name="LORBIT"> F  </i>
   <v name="RWIGS">     -1.00000000     -1.00000000</v>
   <i type="int" name="NEDOS">   301</i>
   <i name="EMIN">     10.00000000</i>
   <i name="EMAX">    -10.00000000</i>
   <i name="EFERMI">      0.00000000</i>
  </separator>
  <separator name="writing" >
   <i type="int" name="NWRITE">     2</i>
   <i type="logical" name="LWAVE"> T  </i>
   <i type="logical" name="LCHARG"> T  </i>
   <i type="logical" name="LPARD"> F  </i>
   <i type="logical" name="LVTOT"> F  </i>
   <i type="logical" name="LVHAR"> T  </i>
   <i type="logical" name="LELF"> F  </i>
   <i type="logical" name="LOPTICS"> F  </i>
   <v name="STM">      0.00000000      0.00000000      0.00000000      0.00000000      0.00000000      0.00000000      0.00000000</v>
  </separator>
  <separator name="performance" >
   <i type="int" name="NPAR">     4</i>
   <i type="int" name="NSIM">     4</i>
   <i type="int" name="NBLK">    -1</i>
   <i type="logical" name="LPLANE"> T  </i>
   <i type="logical" name="LSCALAPACK"> T  </i>
   <i type="logical" name="LSCAAWARE"> F  </i>
   <i type="logical" name="LSCALU"> F  </i>
   <i type="logical" name="LASYNC"> F  </i>
   <i type="logical" name="LORBITALREAL"> F  </i>
  </separator>
  <separator name="miscellaneous" >
   <i type="int" name="IDIOT">     3</i>
   <i type="logical" name="LMUSIC"> F  </i>
   <v name="POMASS">     95.94000000     16.00000000</v>
   <v name="DARWINR">      0.00000000      0.00000000</v>
   <v name="DARWINV">      1.00000000      1.00000000</v>
   <i type="logical" name="LCORR"> T  </i>
  </separator>
  <i type="logical" name="GGA_COMPAT"> T  </i>
  <i type="logical" name="LBERRY"> F  </i>
  <i type="int" name="ICORELEVEL">     0</i>
  <i type="logical" name="LDAU"> F  </i>
  <i type="int" name="I_CONSTRAINED_M">     0</i>
  <separator name="electronic exchange-correlation" >
   <i type="string" name="GGA">BO</i>
   <i type="int" name="VOSKOWN">     0</i>
   <i type="logical" name="LHFCALC"> F  </i>
   <i type="string" name="PRECFOCK"></i>
   <i type="logical" name="LSYMGRAD"> F  </i>
   <i type="logical" name="LHFONE"> F  </i>
   <i type="logical" name="LRHFCALC"> F  </i>
   <i type="logical" name="LTHOMAS"> F  </i>
   <i type="logical" name="LMODELHF"> F  </i>
   <i name="ENCUT4O">     -1.00000000</i>
   <i type="int" name="EXXOEP">     0</i>
   <i type="int" name="FOURORBIT">     0</i>
   <i name="AEXX">      0.00000000</i>
   <i name="HFALPHA">      0.00000000</i>
   <i name="MCALPHA">      0.00000000</i>
   <i name="ALDAX">      1.00000000</i>
   <i name="AGGAX">      1.00000000</i>
   <i name="ALDAC">      1.00000000</i>
   <i name="AGGAC">      0.00000000</i>
   <i type="int" name="NKREDX">     1</i>
   <i type="int" name="NKREDY">     1</i>
   <i type="int" name="NKREDZ">     1</i>
   <i type="logical" name="SHIFTRED"> F  </i>
   <i type="logical" name="ODDONLY"> F  </i>
   <i type="logical" name="EVENONLY"> F  </i>
   <i type="int" name="LMAXFOCK">     0</i>
   <i type="int" name="NMAXFOCKAE">     0</i>
   <i type="logical" name="LFOCKAEDFT"> F  </i>
   <i name="HFSCREEN">      0.00000000</i>
   <i name="HFSCREENC">      0.00000000</i>
   <i type="int" name="NBANDSGWLOW">     0</i>
  </separator>
  <separator name="vdW DFT" >
   <i type="logical" name="LUSE_VDW"> T  </i>
   <i name="Zab_VDW">     -0.84910000</i>
   <i name="PARAM1">      0.18333333</i>
   <i name="PARAM2">      0.22000000</i>
   <i name="PARAM3">      0.00000000</i>
  </separator>
  <separator name="model GW" >
   <i type="int" name="MODEL_GW">     0</i>
   <i name="MODEL_EPS0">      7.30958639</i>
   <i name="MODEL_ALPHA">      1.00000000</i>
  </separator>
  <separator name="linear response parameters" >
   <i type="logical" name="LEPSILON"> F  </i>
   <i type="logical" name="LRPA"> F  </i>
   <i type="logical" name="LNABLA"> F  </i>
   <i type="logical" name="LVEL"> F  </i>
   <i type="int" name="KINTER">     0</i>
   <i name="CSHIFT">      0.10000000</i>
   <i name="OMEGAMAX">     -1.00000000</i>
   <i name="DEG_THRESHOLD">      0.00200000</i>
  </separator>
  <separator name="orbital magnetization" >
   <i type="logical" name="NUCIND"> F  </i>
   <v name="MAGPOS">      0.00000000      0.00000000      0.00000000</v>
   <i type="logical" name="LNICSALL"> T  </i>
   <i type="logical" name="ORBITALMAG"> F  </i>
   <i type="logical" name="LMAGBLOCH"> F  </i>
   <i type="logical" name="LCHIMAG"> F  </i>
   <i type="logical" name="LGAUGE"> T  </i>
   <i type="int" name="MAGATOM">     0</i>
   <v name="MAGDIPOL">      0.00000000      0.00000000      0.00000000</v>
   <v name="AVECCONST">      0.00000000      0.00000000      0.00000000</v>
  </separator>
  <separator name="response functions" >
   <i type="logical" name="LADDER"> F  </i>
   <i type="logical" name="LFXC"> F  </i>
   <i type="logical" name="LHARTREE"> T  </i>
   <i type="int" name="IBSE">     0</i>
   <v type="int" name="KPOINT">    -1     0     0     0</v>
   <i type="logical" name="LTCTE"> F  </i>
   <i type="logical" name="LTETE"> F  </i>
   <i type="logical" name="LTRIPLET"> F  </i>
   <i type="logical" name="LFXCEPS"> F  </i>
   <i type="logical" name="LFXHEG"> F  </i>
   <i type="int" name="NATURALO">     0</i>
   <i type="logical" name="L2ORDER"> F  </i>
   <i type="logical" name="LUSEW"> F  </i>
   <i name="ENCUTGW">     -2.00000000</i>
   <i name="ENCUTGWSOFT">     -2.00000000</i>
   <i name="ENCUTLF">     -1.00000000</i>
   <i type="int" name="LMAXMP2">    -1</i>
   <i name="SCISSOR">      0.00000000</i>
   <i type="int" name="NOMEGA">     0</i>
   <i type="int" name="NOMEGAR">     0</i>
   <i type="int" name="NBANDSGW">    -1</i>
   <i type="int" name="NBANDSO">    -1</i>
   <i type="int" name="NBANDSV">    -1</i>
   <i type="int" name="NELM">     1</i>
   <i type="int" name="NELMHF">     1</i>
   <i type="int" name="DIM">     3</i>
   <i type="int" name="ANTIRES">     0</i>
   <i name="OMEGAMAX">    -30.00000000</i>
   <i name="OMEGAMIN">    -30.00000000</i>
   <i name="OMEGATL">   -200.00000000</i>
   <i type="int" name="OMEGAGRID">     0</i>
   <i name="CSHIFT">     -0.10000000</i>
   <i type="logical" name="SELFENERGY"> F  </i>
   <i type="logical" name="LSPECTRAL"> F  </i>
   <i type="logical" name="LSPECTRALGW"> F  </i>
   <i type="logical" name="LSINGLES"> F  </i>
   <i type="logical" name="LFERMIGW"> F  </i>
   <i type="logical" name="ODDONLYGW"> F  </i>
   <i type="logical" name="EVENONLYGW"> F  </i>
   <i type="int" name="NKREDLFX">     1</i>
   <i type="int" name="NKREDLFY">     1</i>
   <i type="int" name="NKREDLFZ">     1</i>
   <i type="int" name="MAXMEM">  1800</i>
   <i type="int" name="TELESCOPE">     0</i>
   <i type="int" name="TAUPAR">     1</i>
   <i type="int" name="OMEGAPAR">    -1</i>
   <i name="LAMBDA">      1.00000000</i>
  </separator>
  <separator name="External order field" >
   <i name="OFIELD_KAPPA">      0.00000000</i>
   <v name="OFIELD_K">      0.00000000      0.00000000      0.00000000</v>
   <i name="OFIELD_Q6_NEAR">      0.00000000</i>
   <i name="OFIELD_Q6_FAR">      0.00000000</i>
   <i name="OFIELD_A">      0.00000000</i>
  </separator>
 </parameters>
 <atominfo>
  <atoms>      12 </atoms>
  <types>       2 </types>
  <array name="atoms" >
   <dimension dim="1">ion</dimension>
   <field type="string">element</field>
   <field type="int">atomtype</field>
   <set>
    <rc><c>Mo</c><c>   1</c></rc>
    <rc><c>Mo</c><c>   1</c></rc>
    <rc><c>Mo</c><c>   1</c></rc>
    <rc><c>Mo</c><c>   1</c></rc>
    <rc><c>O </c><c>   2</c></rc>
    <rc><c>O </c><c>   2</c></rc>
    <rc><c>O </c><c>   2</c></rc>
    <rc><c>O </c><c>   2</c></rc>
    <rc><c>O </c><c>   2</c></rc>
    <rc><c>O </c><c>   2</c></rc>
    <rc><c>O </c><c>   2</c></rc>
    <rc><c>O </c><c>   2</c></rc>
   </set>
  </array>
  <array name="atomtypes" >
   <dimension dim="1">type</dimension>
   <field type="int">atomspertype</field>
   <field type="string">element</field>
   <field>mass</field>
   <field>valence</field>
   <field type="string">pseudopotential</field>
   <set>
    <rc><c>   4</c><c>Mo</c><c>     95.94000000</c><c>     12.00000000</c><c> PAW_PBE Mo_pv 08Apr2002                </c></rc>
    <rc><c>   8</c><c>O </c><c>     16.00000000</c><c>      6.00000000</c><c> PAW_PBE O 08Apr2002                    </c></rc>
   </set>
  </array>
 </atominfo>
 <structure name="initialpos" >
  <crystal>
   <varray name="basis" >
    <v>       4.74983100       0.00000400      -0.00000400 </v>
    <v>       0.00000100       4.77065700      -3.20618400 </v>
    <v>       0.00000600      -0.04878800       6.48437400 </v>
   </varray>
   <i name="volume">    146.19172778 </i>
   <varray name="rec_basis" >
    <v>       0.21053381      -0.00000018      -0.00000020 </v>
    <v>      -0.00000018       0.21068005       0.00158514 </v>
    <v>       0.00000004       0.10417027       0.15500066 </v>
   </varray>
  </crystal>
  <varray name="positions" >
   <v>       0.49999800       0.49999700       0.24999700 </v>
   <v>       0.99999800       0.00000300       0.25000300 </v>
   <v>       0.50000200       0.50000300       0.75000300 </v>
   <v>       0.00000200       0.99999700       0.74999700 </v>
   <v>       0.19829600       0.80091700       0.40046100 </v>
   <v>       0.69829900       0.69908600       0.09954100 </v>
   <v>       0.80170400       0.19908300       0.59953900 </v>
   <v>       0.30170100       0.30091400       0.90045900 </v>
   <v>       0.80169400       0.19907000       0.09952900 </v>
   <v>       0.30169100       0.30092700       0.40046900 </v>
   <v>       0.19830600       0.80093000       0.90047100 </v>
   <v>       0.69830900       0.69907300       0.59953100 </v>
  </varray>
 </structure>
 <calculation>
  <scstep>
   <time name="dav">   11.34   11.35</time>
   <time name="total">   13.96   13.98</time>
   <energy>
    <i name="alphaZ">    570.75518338 </i>
    <i name="ewald">  -6869.70485555 </i>
    <i name="hartreedc">  -1810.96818776 </i>
    <i name="XCdc">    366.80505220 </i>
    <i name="pawpsdc">   6037.58368015 </i>
    <i name="pawaedc">  -6011.83398287 </i>
    <i name="eentropy">      0.00518061 </i>
    <i name="bandstr">  -1007.67571987 </i>
    <i name="atom">   8630.95364861 </i>
    <i name="e_fr_energy">    -94.08000110 </i>
    <i name="e_wo_entrp">    -94.08518170 </i>
    <i name="e_0_energy">    -94.08172797 </i>
   </energy>
  </scstep>
  <scstep>
   <time name="diag">    1.98    1.98</time>
   <time name="diis">    6.89    6.90</time>
   <time name="orth">    0.17    0.17</time>
   <time name="total">   11.27   11.29</time>
   <energy>
    <i name="e_fr_energy">    -93.01757977 </i>
    <i name="e_wo_entrp">    -93.02090612 </i>
    <i name="e_0_energy">    -93.01868856 </i>
   </energy>
  </scstep>
  <scstep>
   <time name="diag">    2.03    2.03</time>
   <time name="diis">    6.83    6.83</time>
   <time name="orth">    0.17    0.17</time>
   <time name="total">   11.35   11.36</time>
   <energy>
    <i name="e_fr_energy">    -92.69400117 </i>
    <i name="e_wo_entrp">    -92.69628138 </i>
    <i name="e_0_energy">    -92.69476124 </i>
   </energy>
  </scstep>
  <scstep>
   <time name="diag">    2.03    2.03</time>
   <time name="diis">    6.87    6.87</time>
   <time name="orth">    0.17    0.17</time>
   <time name="total">   11.39   11.40</time>
   <energy>
    <i name="e_fr_energy">    -92.72706388 </i>
    <i name="e_wo_entrp">    -92.72897675 </i>
    <i name="e_0_energy">    -92.72770150 </i>
   </energy>
  </scstep>
  <scstep>
   <time name="diag">    2.03    2.03</time>
   <time name="diis">    7.61    7.62</time>
   <time name="orth">    0.17    0.17</time>
   <time name="total">   12.15   12.20</time>
   <energy>
    <i name="e_fr_energy">    -92.69797092 </i>
    <i name="e_wo_entrp">    -92.69990557 </i>
    <i name="e_0_energy">    -92.69861580 </i>
   </energy>
  </scstep>
  <scstep>
   <time name="diag">    2.03    2.03</time>
   <time name="diis">    6.88    6.89</time>
   <time name="orth">    0.17    0.17</time>
   <time name="total">   11.40   11.42</time>
   <energy>
    <i name="e_fr_energy">    -92.69524113 </i>
    <i name="e_wo_entrp">    -92.69716440 </i>
    <i name="e_0_energy">    -92.69588222 </i>
   </energy>
  </scstep>
  <scstep>
   <time name="diag">    2.03    2.03</time>
   <time name="diis">    5.98    5.99</time>
   <time name="orth">    0.17    0.17</time>
   <time name="total">   10.51   10.57</time>
   <energy>
    <i name="e_fr_energy">    -92.69708481 </i>
    <i name="e_wo_entrp">    -92.69900802 </i>
    <i name="e_0_energy">    -92.69772588 </i>
   </energy>
  </scstep>
  <scstep>
   <time name="diag">    2.03    2.03</time>
   <time name="diis">    4.56    4.57</time>
   <time name="orth">    0.17    0.17</time>
   <time name="total">    9.08    9.10</time>
   <energy>
    <i name="e_fr_energy">    -92.69955432 </i>
    <i name="e_wo_entrp">    -92.70147654 </i>
    <i name="e_0_energy">    -92.70019506 </i>
   </energy>
  </scstep>
  <scstep>
   <time name="diag">    2.03    2.03</time>
   <time name="diis">    4.36    4.36</time>
   <time name="orth">    0.17    0.17</time>
   <time name="total">    8.87    8.89</time>
   <energy>
    <i name="e_fr_energy">    -92.69989535 </i>
    <i name="e_wo_entrp">    -92.70181959 </i>
    <i name="e_0_energy">    -92.70053676 </i>
   </energy>
  </scstep>
  <scstep>
   <time name="diag">    2.03    2.03</time>
   <time name="diis">    4.30    4.30</time>
   <time name="orth">    0.17    0.17</time>
   <time name="total">    8.82    8.83</time>
   <energy>
    <i name="e_fr_energy">    -92.69921543 </i>
    <i name="e_wo_entrp">    -92.70114103 </i>
    <i name="e_0_energy">    -92.69985729 </i>
   </energy>
  </scstep>
  <scstep>
   <time name="diag">    2.02    2.03</time>
   <time name="diis">    3.48    3.48</time>
   <time name="orth">    0.17    0.17</time>
   <time name="total">    8.00    8.02</time>
   <energy>
    <i name="e_fr_energy">    -92.69899401 </i>
    <i name="e_wo_entrp">    -92.70092000 </i>
    <i name="e_0_energy">    -92.69963600 </i>
   </energy>
  </scstep>
  <scstep>
   <time name="diag">    2.03    2.03</time>
   <time name="diis">    3.54    3.54</time>
   <time name="orth">    0.17    0.17</time>
   <time name="total">    8.06    8.07</time>
   <energy>
    <i name="e_fr_energy">    -92.69885262 </i>
    <i name="e_wo_entrp">    -92.70077902 </i>
    <i name="e_0_energy">    -92.69949476 </i>
   </energy>
  </scstep>
  <scstep>
   <time name="diag">    2.02    2.03</time>
   <time name="diis">    3.25    3.25</time>
   <time name="orth">    0.17    0.17</time>
   <time name="total">    7.09    7.10</time>
   <energy>
    <i name="alphaZ">    570.75518338 </i>
    <i name="ewald">  -6869.70485555 </i>
    <i name="hartreedc">  -1868.09999240 </i>
    <i name="XCdc">    370.54941531 </i>
    <i name="pawpsdc">   6139.85439850 </i>
    <i name="pawaedc">  -6114.70598986 </i>
    <i name="eentropy">      0.00192632 </i>
    <i name="bandstr">   -952.30265984 </i>
    <i name="atom">   8630.95364861 </i>
    <i name="e_fr_energy">    -92.69892553 </i>
    <i name="e_wo_entrp">    -92.70085185 </i>
    <i name="e_0_energy">    -92.69956764 </i>
   </energy>
  </scstep>
  <structure>
   <crystal>
    <varray name="basis" >
     <v>       4.74983100       0.00000400      -0.00000400 </v>
     <v>       0.00000100       4.77065700      -3.20618400 </v>
     <v>       0.00000600      -0.04878800       6.48437400 </v>
    </varray>
    <i name="volume">    146.19172778 </i>
    <varray name="rec_basis" >
     <v>       0.21053381      -0.00000018      -0.00000020 </v>
     <v>      -0.00000018       0.21068005       0.00158514 </v>
     <v>       0.00000004       0.10417027       0.15500066 </v>
    </varray>
   </crystal>
   <varray name="positions" >
    <v>       0.49999800       0.49999700       0.24999700 </v>
    <v>       0.99999800       0.00000300       0.25000300 </v>
    <v>       0.50000200       0.50000300       0.75000300 </v>
    <v>       0.00000200       0.99999700       0.74999700 </v>
    <v>       0.19829600       0.80091700       0.40046100 </v>
    <v>       0.69829900       0.69908600       0.09954100 </v>
    <v>       0.80170400       0.19908300       0.59953900 </v>
    <v>       0.30170100       0.30091400       0.90045900 </v>
    <v>       0.80169400       0.19907000       0.09952900 </v>
    <v>       0.30169100       0.30092700       0.40046900 </v>
    <v>       0.19830600       0.80093000       0.90047100 </v>
    <v>       0.69830900       0.69907300       0.59953100 </v>
   </varray>
  </structure>
  <varray name="forces" >
   <v>       0.00011168      -0.00005148       0.00024060 </v>
   <v>       0.00011226       0.00005166      -0.00024097 </v>
   <v>      -0.00011168       0.00005148      -0.00024060 </v>
   <v>      -0.00011226      -0.00005166       0.00024097 </v>
   <v>      -0.28850887       0.29604643      -0.00018715 </v>
   <v>      -0.28869023      -0.29622786       0.00016590 </v>
   <v>       0.28850887      -0.29604643       0.00018715 </v>
   <v>       0.28869023       0.29622786      -0.00016590 </v>
   <v>       0.28859485      -0.29586618       0.00011164 </v>
   <v>       0.28877504       0.29604808      -0.00008979 </v>
   <v>      -0.28859485       0.29586618      -0.00011164 </v>
   <v>      -0.28877504      -0.29604808       0.00008979 </v>
  </varray>
  <varray name="stress" >
   <v>     -76.67839130       0.00046371      -0.00079453 </v>
   <v>       0.00046340     -76.82738524       0.61624348 </v>
   <v>      -0.00079455       0.61624348     -98.90807960 </v>
  </varray>
  <energy>
   <i name="e_fr_energy">    -92.69892553 </i>
   <i name="e_wo_entrp">    -92.69956764 </i>
   <i name="e_0_energy">      0.00192632 </i>
  </energy>
  <time name="totalsc">  154.46  154.94</time>
 </calculation>
 <calculation>
  <scstep>
   <time name="dav">   11.62   11.63</time>
   <time name="total">   14.24   14.26</time>
   <energy>
    <i name="alphaZ">    604.30464652 </i>
    <i name="ewald">  -7013.75706118 </i>
    <i name="hartreedc">  -1899.08061742 </i>
    <i name="XCdc">    378.11898373 </i>
    <i name="pawpsdc">   6139.87326467 </i>
    <i name="pawaedc">  -6114.72473699 </i>
    <i name="eentropy">      0.00106787 </i>
    <i name="bandstr">   -820.64617333 </i>
    <i name="atom">   8630.95364861 </i>
    <i name="e_fr_energy">    -94.95697751 </i>
    <i name="e_wo_entrp">    -94.95804538 </i>
    <i name="e_0_energy">    -94.95733346 </i>
   </energy>
  </scstep>
  <scstep>
   <time name="diag">    2.03    2.03</time>
   <time name="diis">    7.06    7.06</time>
   <time name="orth">    0.17    0.17</time>
   <time name="total">   11.58   11.59</time>
   <energy>
    <i name="e_fr_energy">    -93.09346907 </i>
    <i name="e_wo_entrp">    -93.09427902 </i>
    <i name="e_0_energy">    -93.09373905 </i>
   </energy>
  </scstep>
  <scstep>
   <time name="diag">    2.03    2.03</time>
   <time name="diis">    6.95    6.95</time>
   <time name="orth">    0.17    0.17</time>
   <time name="total">   11.49   11.51</time>
   <energy>
    <i name="e_fr_energy">    -92.64554105 </i>
    <i name="e_wo_entrp">    -92.64795115 </i>
    <i name="e_0_energy">    -92.64634442 </i>
   </energy>
  </scstep>
  <scstep>
   <time name="diag">    2.03    2.03</time>
   <time name="diis">    7.34    7.34</time>
   <time name="orth">    0.17    0.17</time>
   <time name="total">   11.88   11.91</time>
   <energy>
    <i name="e_fr_energy">    -92.69007729 </i>
    <i name="e_wo_entrp">    -92.69227390 </i>
    <i name="e_0_energy">    -92.69080950 </i>
   </energy>
  </scstep>
  <scstep>
   <time name="diag">    2.03    2.03</time>
   <time name="diis">    6.97    6.97</time>
   <time name="orth">    0.17    0.17</time>
   <time name="total">   11.51   11.52</time>
   <energy>
    <i name="e_fr_energy">    -92.76489252 </i>
    <i name="e_wo_entrp">    -92.76698528 </i>
    <i name="e_0_energy">    -92.76559011 </i>
   </energy>
  </scstep>
  <scstep>
   <time name="diag">    2.03    2.03</time>
   <time name="diis">    7.29    7.30</time>
   <time name="orth">    0.17    0.17</time>
   <time name="total">   11.83   11.85</time>
   <energy>
    <i name="e_fr_energy">    -92.80921090 </i>
    <i name="e_wo_entrp">    -92.81128679 </i>
    <i name="e_0_energy">    -92.80990287 </i>
   </energy>
  </scstep>
  <scstep>
   <time name="diag">    2.03    2.03</time>
   <time name="diis">    5.30    5.30</time>
   <time name="orth">    0.17    0.17</time>
   <time name="total">    9.84    9.86</time>
   <energy>
    <i name="e_fr_energy">    -92.81543198 </i>
    <i name="e_wo_entrp">    -92.81753100 </i>
    <i name="e_0_energy">    -92.81613166 </i>
   </energy>
  </scstep>
  <scstep>
   <time name="diag">    2.03    2.03</time>
   <time name="diis">    4.63    4.63</time>
   <time name="orth">    0.17    0.17</time>
   <time name="total">    9.18    9.20</time>
   <energy>
    <i name="e_fr_energy">    -92.81726092 </i>
    <i name="e_wo_entrp">    -92.81937138 </i>
    <i name="e_0_energy">    -92.81796440 </i>
   </energy>
  </scstep>
  <scstep>
   <time name="diag">    2.01    2.01</time>
   <time name="diis">    4.41    4.42</time>
   <time name="orth">    0.17    0.17</time>
   <time name="total">    8.90    8.92</time>
   <energy>
    <i name="e_fr_energy">    -92.81885955 </i>
    <i name="e_wo_entrp">    -92.82097464 </i>
    <i name="e_0_energy">    -92.81956458 </i>
   </energy>
  </scstep>
  <scstep>
   <time name="diag">    1.98    1.98</time>
   <time name="diis">    4.21    4.21</time>
   <time name="orth">    0.17    0.17</time>
   <time name="total">    8.58    8.59</time>
   <energy>
    <i name="e_fr_energy">    -92.82019254 </i>
    <i name="e_wo_entrp">    -92.82230620 </i>
    <i name="e_0_energy">    -92.82089709 </i>
   </energy>
  </scstep>
  <scstep>
   <time name="diag">    1.97    1.98</time>
   <time name="diis">    3.67    3.68</time>
   <time name="orth">    0.17    0.17</time>
   <time name="total">    8.04    8.05</time>
   <energy>
    <i name="e_fr_energy">    -92.82032523 </i>
    <i name="e_wo_entrp">    -92.82243598 </i>
    <i name="e_0_energy">    -92.82102881 </i>
   </energy>
  </scstep>
  <scstep>
   <time name="diag">    1.98    1.98</time>
   <time name="diis">    3.44    3.44</time>
   <time name="orth">    0.17    0.17</time>
   <time name="total">    7.16    7.17</time>
   <energy>
    <i name="alphaZ">    604.30464652 </i>
    <i name="ewald">  -7013.75706118 </i>
    <i name="hartreedc">  -1805.19230308 </i>
    <i name="XCdc">    372.64402384 </i>
    <i name="pawpsdc">   6239.91431993 </i>
    <i name="pawaedc">  -6216.69650087 </i>
    <i name="eentropy">      0.00211073 </i>
    <i name="bandstr">   -904.99321426 </i>
    <i name="atom">   8630.95364861 </i>
    <i name="e_fr_energy">    -92.82032976 </i>
    <i name="e_wo_entrp">    -92.82244049 </i>
    <i name="e_0_energy">    -92.82103334 </i>
   </energy>
  </scstep>
  <structure>
   <crystal>
    <varray name="basis" >
     <v>       4.61622890       0.00000389      -0.00000400 </v>
     <v>       0.00000097       4.63620836      -3.20618400 </v>
     <v>       0.00000583      -0.04741304       6.48437400 </v>
    </varray>
    <i name="volume">    138.07553339 </i>
    <varray name="rec_basis" >
     <v>       0.21662704      -0.00000018      -0.00000020 </v>
     <v>      -0.00000018       0.21678971       0.00158514 </v>
     <v>       0.00000004       0.10719118       0.15500066 </v>
    </varray>
   </crystal>
   <varray name="positions" >
    <v>       0.49999913       0.49999650       0.24999854 </v>
    <v>       0.99999914       0.00000351       0.25000146 </v>
    <v>       0.50000087       0.50000350       0.75000146 </v>
    <v>       0.00000086       0.99999649       0.74999854 </v>
    <v>       0.19536570       0.80392593       0.40194737 </v>
    <v>       0.69536686       0.69607522       0.09805356 </v>
    <v>       0.80463430       0.19607407       0.59805263 </v>
    <v>       0.30463314       0.30392478       0.90194644 </v>
    <v>       0.80462518       0.19606289       0.09804297 </v>
    <v>       0.30462400       0.30393595       0.40195610 </v>
    <v>       0.19537482       0.80393711       0.90195703 </v>
    <v>       0.69537600       0.69606405       0.59804390 </v>
   </varray>
  </structure>
  <varray name="forces" >
   <v>      -0.00009429       0.00016115      -0.00025047 </v>
   <v>      -0.00009449      -0.00016184       0.00025078 </v>
   <v>       0.00009429      -0.00016115       0.00025047 </v>
   <v>       0.00009449       0.00016184      -0.00025078 </v>
   <v>      -0.18781670       0.19153390       0.00175537 </v>
   <v>      -0.18793809      -0.19165386      -0.00177581 </v>
   <v>       0.18781670      -0.19153390      -0.00175537 </v>
   <v>       0.18793809       0.19165386       0.00177581 </v>
   <v>       0.18825179      -0.19026069      -0.00204673 </v>
   <v>       0.18837420       0.19038069       0.00206719 </v>
   <v>      -0.18825179       0.19026069       0.00204673 </v>
   <v>      -0.18837420      -0.19038069      -0.00206719 </v>
  </varray>
  <varray name="stress" >
   <v>      62.13485692      -0.00403261      -0.00097421 </v>
   <v>      -0.00403216      62.01192673       0.82719422 </v>
   <v>      -0.00097450       0.82719429       2.95595511 </v>
  </varray>
  <energy>
   <i name="e_fr_energy">    -92.82032976 </i>
   <i name="e_wo_entrp">    -92.82103334 </i>
   <i name="e_0_energy">      0.00211073 </i>
  </energy>
  <time name="totalsc">  144.21  144.45</time>
 </calculation>
 <calculation>
  <scstep>
   <time name="dav">   11.55   11.56</time>
   <time name="total">   13.83   13.85</time>
   <energy>
    <i name="alphaZ">    593.17689226 </i>
    <i name="ewald">  -6966.48383082 </i>
    <i name="hartreedc">  -1795.44955463 </i>
    <i name="XCdc">    370.20317148 </i>
    <i name="pawpsdc">   6239.88999356 </i>
    <i name="pawaedc">  -6216.67187946 </i>
    <i name="eentropy">      0.00097402 </i>
    <i name="bandstr">   -948.71444178 </i>
    <i name="atom">   8630.95364861 </i>
    <i name="e_fr_energy">    -93.09502676 </i>
    <i name="e_wo_entrp">    -93.09600078 </i>
    <i name="e_0_energy">    -93.09535143 </i>
   </energy>
  </scstep>
  <scstep>
   <time name="diag">    1.98    1.98</time>
   <time name="diis">    7.08    7.09</time>
   <time name="orth">    0.17    0.17</time>
   <time name="total">   11.50   11.52</time>
   <energy>
    <i name="e_fr_energy">    -92.96812006 </i>
    <i name="e_wo_entrp">    -92.96928753 </i>
    <i name="e_0_energy">    -92.96850922 </i>
   </energy>
  </scstep>
  <scstep>
   <time name="diag">    2.00    2.00</time>
   <time name="diis">    6.94    6.95</time>
   <time name="orth">    0.16    0.17</time>
   <time name="total">   11.40   11.42</time>
   <energy>
    <i name="e_fr_energy">    -92.92566156 </i>
    <i name="e_wo_entrp">    -92.92711010 </i>
    <i name="e_0_energy">    -92.92614441 </i>
   </energy>
  </scstep>
  <scstep>
   <time name="diag">    2.03    2.03</time>
   <time name="diis">    7.44    7.44</time>
   <time name="orth">    0.16    0.17</time>
   <time name="total">   12.00   12.44</time>
   <energy>
    <i name="e_fr_energy">    -92.90327635 </i>
    <i name="e_wo_entrp">    -92.90468630 </i>
    <i name="e_0_energy">    -92.90374633 </i>
   </energy>
  </scstep>
  <scstep>
   <time name="diag">    2.03    2.03</time>
   <time name="diis">    6.85    6.86</time>
   <time name="orth">    0.17    0.17</time>
   <time name="total">   11.43   11.45</time>
   <energy>
    <i name="e_fr_energy">    -92.88005413 </i>
    <i name="e_wo_entrp">    -92.88147877 </i>
    <i name="e_0_energy">    -92.88052901 </i>
   </energy>
  </scstep>
  <scstep>
   <time name="diag">    2.03    2.03</time>
   <time name="diis">    5.46    5.46</time>
   <time name="orth">    0.17    0.17</time>
   <time name="total">   10.02   10.04</time>
   <energy>
    <i name="e_fr_energy">    -92.86530548 </i>
    <i name="e_wo_entrp">    -92.86674138 </i>
    <i name="e_0_energy">    -92.86578412 </i>
   </energy>
  </scstep>
  <scstep>
   <time name="diag">    2.03    2.03</time>
   <time name="diis">    4.46    4.46</time>
   <time name="orth">    0.17    0.17</time>
   <time name="total">    9.02    9.04</time>
   <energy>
    <i name="e_fr_energy">    -92.86141608 </i>
    <i name="e_wo_entrp">    -92.86284534 </i>
    <i name="e_0_energy">    -92.86189250 </i>
   </energy>
  </scstep>
  <scstep>
   <time name="diag">    2.03    2.03</time>
   <time name="diis">    4.30    4.30</time>
   <time name="orth">    0.17    0.17</time>
   <time name="total">    8.86    8.87</time>
   <energy>
    <i name="e_fr_energy">    -92.86065195 </i>
    <i name="e_wo_entrp">    -92.86207713 </i>
    <i name="e_0_energy">    -92.86112701 </i>
   </energy>
  </scstep>
  <scstep>
   <time name="diag">    2.03    2.03</time>
   <time name="diis">    3.73    3.74</time>
   <time name="orth">    0.17    0.17</time>
   <time name="total">    8.29    8.31</time>
   <energy>
    <i name="e_fr_energy">    -92.86017359 </i>
    <i name="e_wo_entrp">    -92.86159851 </i>
    <i name="e_0_energy">    -92.86064856 </i>
   </energy>
  </scstep>
  <scstep>
   <time name="diag">    2.03    2.03</time>
   <time name="diis">    3.33    3.33</time>
   <time name="orth">    0.17    0.17</time>
   <time name="total">    7.90    7.91</time>
   <energy>
    <i name="e_fr_energy">    -92.85997564 </i>
    <i name="e_wo_entrp">    -92.86140144 </i>
    <i name="e_0_energy">    -92.86045091 </i>
   </energy>
  </scstep>
  <scstep>
   <time name="diag">    2.03    2.03</time>
   <time name="diis">    3.22    3.23</time>
   <time name="orth">    0.17    0.17</time>
   <time name="total">    7.10    7.11</time>
   <energy>
    <i name="alphaZ">    593.17689226 </i>
    <i name="ewald">  -6966.48383082 </i>
    <i name="hartreedc">  -1825.69351649 </i>
    <i name="XCdc">    371.95536013 </i>
    <i name="pawpsdc">   6206.21299141 </i>
    <i name="pawaedc">  -6182.35360965 </i>
    <i name="eentropy">      0.00142632 </i>
    <i name="bandstr">   -920.62926267 </i>
    <i name="atom">   8630.95364861 </i>
    <i name="e_fr_energy">    -92.85990089 </i>
    <i name="e_wo_entrp">    -92.86132721 </i>
    <i name="e_0_energy">    -92.86037633 </i>
   </energy>
  </scstep>
  <structure>
   <crystal>
    <varray name="basis" >
     <v>       4.65928394       0.00000392      -0.00000400 </v>
     <v>       0.00000098       4.67953622      -3.20618400 </v>
     <v>       0.00000589      -0.04785614       6.48437400 </v>
    </varray>
    <i name="volume">    140.66577355 </i>
    <varray name="rec_basis" >
     <v>       0.21462525      -0.00000018      -0.00000020 </v>
     <v>      -0.00000018       0.21478245       0.00158514 </v>
     <v>       0.00000004       0.10619870       0.15500066 </v>
    </varray>
   </crystal>
   <varray name="positions" >
    <v>       0.49999876       0.49999666       0.24999805 </v>
    <v>       0.99999876       0.00000334       0.25000195 </v>
    <v>       0.50000124       0.50000334       0.75000195 </v>
    <v>       0.00000124       0.99999666       0.74999805 </v>
    <v>       0.19633736       0.80292815       0.40145446 </v>
    <v>       0.69633913       0.69707362       0.09854682 </v>
    <v>       0.80366264       0.19707185       0.59854554 </v>
    <v>       0.30366087       0.30292638       0.90145318 </v>
    <v>       0.80365323       0.19706008       0.09853576 </v>
    <v>       0.30365145       0.30293816       0.40146296 </v>
    <v>       0.19634677       0.80293992       0.90146424 </v>
    <v>       0.69634855       0.69706184       0.59853704 </v>
   </varray>
  </structure>
  <varray name="forces" >
   <v>      -0.00001363       0.00008726      -0.00007961 </v>
   <v>      -0.00001433      -0.00008721       0.00008011 </v>
   <v>       0.00001363      -0.00008726       0.00007961 </v>
   <v>       0.00001433       0.00008721      -0.00008011 </v>
   <v>      -0.22027191       0.22889534      -0.00211777 </v>
   <v>      -0.22057481      -0.22920080       0.00209399 </v>
   <v>       0.22027191      -0.22889534       0.00211777 </v>
   <v>       0.22057481       0.22920080      -0.00209399 </v>
   <v>       0.22102066      -0.22875832       0.00323508 </v>
   <v>       0.22132444       0.22906389      -0.00321236 </v>
   <v>      -0.22102066       0.22875832      -0.00323508 </v>
   <v>      -0.22132444      -0.22906389       0.00321236 </v>
  </varray>
  <varray name="stress" >
   <v>      14.06536369       0.00103381      -0.00076681 </v>
   <v>       0.00103396      14.12001921       0.72932728 </v>
   <v>      -0.00076697       0.72932718     -32.89177123 </v>
  </varray>
  <energy>
   <i name="e_fr_energy">    -92.85990089 </i>
   <i name="e_wo_entrp">    -92.86037633 </i>
   <i name="e_0_energy">      0.00142632 </i>
  </energy>
  <time name="totalsc">  131.56  132.19</time>
 </calculation>
 <calculation>
  <scstep>
   <time name="dav">   11.49   11.50</time>
   <time name="total">   13.84   13.86</time>
   <energy>
    <i name="alphaZ">    592.42729344 </i>
    <i name="ewald">  -6958.90422803 </i>
    <i name="hartreedc">  -1829.12143554 </i>
    <i name="XCdc">    371.80462880 </i>
    <i name="pawpsdc">   6206.21063166 </i>
    <i name="pawaedc">  -6182.35103490 </i>
    <i name="eentropy">      0.00224445 </i>
    <i name="bandstr">   -923.88353372 </i>
    <i name="atom">   8630.95364861 </i>
    <i name="e_fr_energy">    -92.86178522 </i>
    <i name="e_wo_entrp">    -92.86402967 </i>
    <i name="e_0_energy">    -92.86253337 </i>
   </energy>
  </scstep>
  <scstep>
   <time name="diag">    2.03    2.03</time>
   <time name="diis">    6.87    6.87</time>
   <time name="orth">    0.17    0.17</time>
   <time name="total">   11.41   11.43</time>
   <energy>
    <i name="e_fr_energy">    -92.88472709 </i>
    <i name="e_wo_entrp">    -92.88706319 </i>
    <i name="e_0_energy">    -92.88550579 </i>
   </energy>
  </scstep>
  <scstep>
   <time name="diag">    2.03    2.03</time>
   <time name="diis">    7.20    7.20</time>
   <time name="orth">    0.17    0.17</time>
   <time name="total">   11.74   11.76</time>
   <energy>
    <i name="e_fr_energy">    -92.88147202 </i>
    <i name="e_wo_entrp">    -92.88386747 </i>
    <i name="e_0_energy">    -92.88227050 </i>
   </energy>
  </scstep>
  <scstep>
   <time name="diag">    2.03    2.03</time>
   <time name="diis">    6.82    6.82</time>
   <time name="orth">    0.17    0.17</time>
   <time name="total">   11.37   11.38</time>
   <energy>
    <i name="e_fr_energy">    -92.88082966 </i>
    <i name="e_wo_entrp">    -92.88325534 </i>
    <i name="e_0_energy">    -92.88163822 </i>
   </energy>
  </scstep>
  <scstep>
   <time name="diag">    2.03    2.03</time>
   <time name="diis">    4.69    4.69</time>
   <time name="orth">    0.16    0.17</time>
   <time name="total">    9.24    9.43</time>
   <energy>
    <i name="e_fr_energy">    -92.88037016 </i>
    <i name="e_wo_entrp">    -92.88280515 </i>
    <i name="e_0_energy">    -92.88118182 </i>
   </energy>
  </scstep>
  <scstep>
   <time name="diag">    2.03    2.03</time>
   <time name="diis">    4.46    4.46</time>
   <time name="orth">    0.17    0.17</time>
   <time name="total">    9.00    9.02</time>
   <energy>
    <i name="e_fr_energy">    -92.87915864 </i>
    <i name="e_wo_entrp">    -92.88158960 </i>
    <i name="e_0_energy">    -92.87996896 </i>
   </energy>
  </scstep>
  <scstep>
   <time name="diag">    2.03    2.03</time>
   <time name="diis">    4.12    4.12</time>
   <time name="orth">    0.17    0.17</time>
   <time name="total">    8.66    8.68</time>
   <energy>
    <i name="e_fr_energy">    -92.87902323 </i>
    <i name="e_wo_entrp">    -92.88145386 </i>
    <i name="e_0_energy">    -92.87983344 </i>
   </energy>
  </scstep>
  <scstep>
   <time name="diag">    2.03    2.03</time>
   <time name="diis">    3.61    3.61</time>
   <time name="orth">    0.17    0.17</time>
   <time name="total">    7.49    7.50</time>
   <energy>
    <i name="alphaZ">    592.42729344 </i>
    <i name="ewald">  -6958.90422803 </i>
    <i name="hartreedc">  -1831.61867139 </i>
    <i name="XCdc">    371.93545236 </i>
    <i name="pawpsdc">   6203.41119619 </i>
    <i name="pawaedc">  -6179.54609418 </i>
    <i name="eentropy">      0.00243101 </i>
    <i name="bandstr">   -921.54000239 </i>
    <i name="atom">   8630.95364861 </i>
    <i name="e_fr_energy">    -92.87897438 </i>
    <i name="e_wo_entrp">    -92.88140540 </i>
    <i name="e_0_energy">    -92.87978472 </i>
   </energy>
  </scstep>
  <structure>
   <crystal>
    <varray name="basis" >
     <v>       4.66220685       0.00000393      -0.00000400 </v>
     <v>       0.00000098       4.68251976      -3.20618400 </v>
     <v>       0.00000589      -0.04788665       6.48437400 </v>
    </varray>
    <i name="volume">    140.84375808 </i>
    <varray name="rec_basis" >
     <v>       0.21449070      -0.00000018      -0.00000020 </v>
     <v>      -0.00000018       0.21464560       0.00158514 </v>
     <v>       0.00000004       0.10613103       0.15500066 </v>
    </varray>
   </crystal>
   <varray name="positions" >
    <v>       0.49999879       0.49999743       0.24999813 </v>
    <v>       0.99999879       0.00000257       0.25000188 </v>
    <v>       0.50000121       0.50000257       0.75000187 </v>
    <v>       0.00000121       0.99999743       0.74999812 </v>
    <v>       0.19377700       0.80558498       0.40275318 </v>
    <v>       0.69377557       0.69441357       0.09724631 </v>
    <v>       0.80622300       0.19441502       0.59724682 </v>
    <v>       0.30622443       0.30558643       0.90275369 </v>
    <v>       0.80622097       0.19440492       0.09724556 </v>
    <v>       0.30622239       0.30559654       0.40275494 </v>
    <v>       0.19377903       0.80559508       0.90275444 </v>
    <v>       0.69377761       0.69440346       0.59724506 </v>
   </varray>
  </structure>
  <varray name="forces" >
   <v>       0.00020668       0.00003006       0.00010647 </v>
   <v>       0.00020591      -0.00002954      -0.00010666 </v>
   <v>      -0.00020668      -0.00003006      -0.00010647 </v>
   <v>      -0.00020591       0.00002954       0.00010666 </v>
   <v>       0.03071381      -0.02725385       0.00600272 </v>
   <v>       0.03076926       0.02730807      -0.00601747 </v>
   <v>      -0.03071381       0.02725385      -0.00600272 </v>
   <v>      -0.03076926      -0.02730807       0.00601747 </v>
   <v>      -0.03088335       0.02760564      -0.00630621 </v>
   <v>      -0.03093861      -0.02765898       0.00632093 </v>
   <v>       0.03088335      -0.02760564       0.00630621 </v>
   <v>       0.03093861       0.02765898      -0.00632093 </v>
  </varray>
  <varray name="stress" >
   <v>       4.96436337      -0.00928159      -0.00069681 </v>
   <v>      -0.00928127       4.96195771       0.50018175 </v>
   <v>      -0.00069695       0.50018182     -21.23095045 </v>
  </varray>
  <energy>
   <i name="e_fr_energy">    -92.87897438 </i>
   <i name="e_wo_entrp">    -92.87978472 </i>
   <i name="e_0_energy">      0.00243101 </i>
  </energy>
  <time name="totalsc">  102.91  103.24</time>
 </calculation>
 <calculation>
  <scstep>
   <time name="dav">   11.59   11.59</time>
   <time name="total">   13.93   13.95</time>
   <energy>
    <i name="alphaZ">    592.51264234 </i>
    <i name="ewald">  -6959.82518743 </i>
    <i name="hartreedc">  -1831.17446806 </i>
    <i name="XCdc">    371.95133796 </i>
    <i name="pawpsdc">   6203.40795864 </i>
    <i name="pawaedc">  -6179.54332112 </i>
    <i name="eentropy">      0.00237508 </i>
    <i name="bandstr">   -921.16400395 </i>
    <i name="atom">   8630.95364861 </i>
    <i name="e_fr_energy">    -92.87901791 </i>
    <i name="e_wo_entrp">    -92.88139299 </i>
    <i name="e_0_energy">    -92.87980961 </i>
   </energy>
  </scstep>
  <scstep>
   <time name="diag">    2.03    2.03</time>
   <time name="diis">    6.62    6.62</time>
   <time name="orth">    0.17    0.17</time>
   <time name="total">   11.11   11.13</time>
   <energy>
    <i name="e_fr_energy">    -92.87894992 </i>
    <i name="e_wo_entrp">    -92.88131701 </i>
    <i name="e_0_energy">    -92.87973895 </i>
   </energy>
  </scstep>
  <scstep>
   <time name="diag">    1.97    1.98</time>
   <time name="diis">    4.28    4.29</time>
   <time name="orth">    0.17    0.17</time>
   <time name="total">    8.62    8.64</time>
   <energy>
    <i name="e_fr_energy">    -92.87882344 </i>
    <i name="e_wo_entrp">    -92.88118462 </i>
    <i name="e_0_energy">    -92.87961050 </i>
   </energy>
  </scstep>
  <scstep>
   <time name="diag">    1.97    1.97</time>
   <time name="diis">    4.12    4.13</time>
   <time name="orth">    0.17    0.17</time>
   <time name="total">    8.49    8.51</time>
   <energy>
    <i name="e_fr_energy">    -92.87903129 </i>
    <i name="e_wo_entrp">    -92.88138830 </i>
    <i name="e_0_energy">    -92.87981696 </i>
   </energy>
  </scstep>
  <scstep>
   <time name="diag">    1.97    1.97</time>
   <time name="diis">    3.60    3.60</time>
   <time name="orth">    0.17    0.17</time>
   <time name="total">    7.33    7.34</time>
   <energy>
    <i name="alphaZ">    592.51264234 </i>
    <i name="ewald">  -6959.82518743 </i>
    <i name="hartreedc">  -1830.88078487 </i>
    <i name="XCdc">    371.93622402 </i>
    <i name="pawpsdc">   6203.56361725 </i>
    <i name="pawaedc">  -6179.70095569 </i>
    <i name="eentropy">      0.00235679 </i>
    <i name="bandstr">   -921.44067113 </i>
    <i name="atom">   8630.95364861 </i>
    <i name="e_fr_energy">    -92.87911011 </i>
    <i name="e_wo_entrp">    -92.88146690 </i>
    <i name="e_0_energy">    -92.87989570 </i>
   </energy>
  </scstep>
  <structure>
   <crystal>
    <varray name="basis" >
     <v>       4.66187377       0.00000393      -0.00000400 </v>
     <v>       0.00000098       4.68217977      -3.20618400 </v>
     <v>       0.00000589      -0.04788317       6.48437400 </v>
    </varray>
    <i name="volume">    140.82347015 </i>
    <varray name="rec_basis" >
     <v>       0.21450602      -0.00000018      -0.00000020 </v>
     <v>      -0.00000018       0.21466119       0.00158514 </v>
     <v>       0.00000004       0.10613874       0.15500066 </v>
    </varray>
   </crystal>
   <varray name="positions" >
    <v>       0.49999879       0.49999734       0.24999812 </v>
    <v>       0.99999879       0.00000266       0.25000188 </v>
    <v>       0.50000121       0.50000266       0.75000188 </v>
    <v>       0.00000121       0.99999734       0.74999812 </v>
    <v>       0.19406858       0.80528241       0.40260528 </v>
    <v>       0.69406752       0.69471650       0.09739441 </v>
    <v>       0.80593142       0.19471759       0.59739472 </v>
    <v>       0.30593248       0.30528350       0.90260559 </v>
    <v>       0.80592854       0.19470729       0.09739249 </v>
    <v>       0.30592960       0.30529380       0.40260781 </v>
    <v>       0.19407146       0.80529271       0.90260751 </v>
    <v>       0.69407040       0.69470620       0.59739219 </v>
   </varray>
  </structure>
  <varray name="forces" >
   <v>       0.00018150       0.00003693       0.00008356 </v>
   <v>       0.00018212      -0.00003643      -0.00008315 </v>
   <v>      -0.00018150      -0.00003693      -0.00008356 </v>
   <v>      -0.00018212       0.00003643       0.00008315 </v>
   <v>       0.00476245       0.00123157       0.00735576 </v>
   <v>       0.00492514      -0.00106768      -0.00736761 </v>
   <v>      -0.00476245      -0.00123157      -0.00735576 </v>
   <v>      -0.00492514       0.00106768       0.00736761 </v>
   <v>      -0.00490418      -0.00090790      -0.00763105 </v>
   <v>      -0.00506761       0.00074383       0.00764297 </v>
   <v>       0.00490418       0.00090790       0.00763105 </v>
   <v>       0.00506761      -0.00074383      -0.00764297 </v>
  </varray>
  <varray name="stress" >
   <v>       5.87290074       0.00585419      -0.00026909 </v>
   <v>       0.00585422       5.76139472       0.45254010 </v>
   <v>      -0.00026944       0.45254021     -22.79097580 </v>
  </varray>
  <energy>
   <i name="e_fr_energy">    -92.87911011 </i>
   <i name="e_wo_entrp">    -92.87989570 </i>
   <i name="e_0_energy">      0.00235679 </i>
  </energy>
  <time name="totalsc">   69.40   69.73</time>
 </calculation>
 <calculation>
  <scstep>
   <time name="dav">   11.80   11.81</time>
   <time name="total">   14.52   14.54</time>
   <energy>
    <i name="alphaZ">    590.32904038 </i>
    <i name="ewald">  -6950.38611960 </i>
    <i name="hartreedc">  -1828.97747452 </i>
    <i name="XCdc">    371.45040423 </i>
    <i name="pawpsdc">   6203.59497506 </i>
    <i name="pawaedc">  -6179.73195350 </i>
    <i name="eentropy">      0.00215984 </i>
    <i name="bandstr">   -930.12350421 </i>
    <i name="atom">   8630.95364861 </i>
    <i name="e_fr_energy">    -92.88882372 </i>
    <i name="e_wo_entrp">    -92.89098355 </i>
    <i name="e_0_energy">    -92.88954366 </i>
   </energy>
  </scstep>
  <scstep>
   <time name="diag">    1.98    1.98</time>
   <time name="diis">    7.05    7.05</time>
   <time name="orth">    0.17    0.17</time>
   <time name="total">   11.43   11.45</time>
   <energy>
    <i name="e_fr_energy">    -92.89239821 </i>
    <i name="e_wo_entrp">    -92.89459521 </i>
    <i name="e_0_energy">    -92.89313055 </i>
   </energy>
  </scstep>
  <scstep>
   <time name="diag">    1.98    1.98</time>
   <time name="diis">    6.93    6.93</time>
   <time name="orth">    0.17    0.17</time>
   <time name="total">   11.33   11.35</time>
   <energy>
    <i name="e_fr_energy">    -92.89115282 </i>
    <i name="e_wo_entrp">    -92.89346556 </i>
    <i name="e_0_energy">    -92.89192373 </i>
   </energy>
  </scstep>
  <scstep>
   <time name="diag">    2.03    2.03</time>
   <time name="diis">    5.47    5.47</time>
   <time name="orth">    0.17    0.17</time>
   <time name="total">   10.02   10.03</time>
   <energy>
    <i name="e_fr_energy">    -92.88713149 </i>
    <i name="e_wo_entrp">    -92.88943706 </i>
    <i name="e_0_energy">    -92.88790002 </i>
   </energy>
  </scstep>
  <scstep>
   <time name="diag">    2.03    2.03</time>
   <time name="diis">    4.25    4.25</time>
   <time name="orth">    0.17    0.17</time>
   <time name="total">    8.79    8.81</time>
   <energy>
    <i name="e_fr_energy">    -92.88250657 </i>
    <i name="e_wo_entrp">    -92.88481184 </i>
    <i name="e_0_energy">    -92.88327499 </i>
   </energy>
  </scstep>
  <scstep>
   <time name="diag">    2.03    2.03</time>
   <time name="diis">    4.10    4.10</time>
   <time name="orth">    0.17    0.17</time>
   <time name="total">    8.95    8.97</time>
   <energy>
    <i name="e_fr_energy">    -92.87972726 </i>
    <i name="e_wo_entrp">    -92.88203354 </i>
    <i name="e_0_energy">    -92.88049602 </i>
   </energy>
  </scstep>
  <scstep>
   <time name="diag">    2.03    2.03</time>
   <time name="diis">    3.66    3.66</time>
   <time name="orth">    0.17    0.17</time>
   <time name="total">    8.20    8.25</time>
   <energy>
    <i name="e_fr_energy">    -92.87904669 </i>
    <i name="e_wo_entrp">    -92.88135376 </i>
    <i name="e_0_energy">    -92.87981571 </i>
   </energy>
  </scstep>
  <scstep>
   <time name="diag">    2.03    2.03</time>
   <time name="diis">    3.34    3.35</time>
   <time name="orth">    0.17    0.17</time>
   <time name="total">    7.90    7.91</time>
   <energy>
    <i name="e_fr_energy">    -92.87889490 </i>
    <i name="e_wo_entrp">    -92.88120190 </i>
    <i name="e_0_energy">    -92.87966390 </i>
   </energy>
  </scstep>
  <scstep>
   <time name="diag">    2.03    2.03</time>
   <time name="diis">    3.12    3.12</time>
   <time name="orth">    0.17    0.17</time>
   <time name="total">    7.66    7.68</time>
   <energy>
    <i name="e_fr_energy">    -92.87875823 </i>
    <i name="e_wo_entrp">    -92.88106494 </i>
    <i name="e_0_energy">    -92.87952713 </i>
   </energy>
  </scstep>
  <scstep>
   <time name="diag">    2.03    2.03</time>
   <time name="diis">    3.08    3.09</time>
   <time name="orth">    0.17    0.17</time>
   <time name="total">    7.63    7.64</time>
   <energy>
    <i name="e_fr_energy">    -92.87861959 </i>
    <i name="e_wo_entrp">    -92.88092617 </i>
    <i name="e_0_energy">    -92.87938845 </i>
   </energy>
  </scstep>
  <scstep>
   <time name="diag">    2.03    2.03</time>
   <time name="diis">    3.00    3.00</time>
   <time name="orth">    0.17    0.17</time>
   <time name="total">    6.88    6.89</time>
   <energy>
    <i name="alphaZ">    590.32904038 </i>
    <i name="ewald">  -6950.38611960 </i>
    <i name="hartreedc">  -1835.06761319 </i>
    <i name="XCdc">    371.80256848 </i>
    <i name="pawpsdc">   6197.14963523 </i>
    <i name="pawaedc">  -6173.16000608 </i>
    <i name="eentropy">      0.00230664 </i>
    <i name="bandstr">   -924.50208380 </i>
    <i name="atom">   8630.95364861 </i>
    <i name="e_fr_energy">    -92.87862333 </i>
    <i name="e_wo_entrp">    -92.88092997 </i>
    <i name="e_0_energy">    -92.87939221 </i>
   </energy>
  </scstep>
  <structure>
   <crystal>
    <varray name="basis" >
     <v>       4.67057300       0.00000393      -0.00000400 </v>
     <v>       0.00000098       4.69074584      -3.20618400 </v>
     <v>       0.00000590      -0.04797077       6.48437400 </v>
    </varray>
    <i name="volume">    141.34437016 </i>
    <varray name="rec_basis" >
     <v>       0.21410649      -0.00000018      -0.00000020 </v>
     <v>      -0.00000018       0.21426918       0.00158514 </v>
     <v>       0.00000004       0.10594491       0.15500066 </v>
    </varray>
   </crystal>
   <varray name="positions" >
    <v>       0.50000050       0.49999766       0.24999886 </v>
    <v>       0.00000051       0.00000235       0.25000115 </v>
    <v>       0.49999950       0.50000234       0.75000114 </v>
    <v>      -0.00000051       0.99999765       0.74999885 </v>
    <v>       0.19424088       0.80516255       0.40259679 </v>
    <v>       0.69424152       0.69483807       0.09740368 </v>
    <v>       0.80575912       0.19483745       0.59740321 </v>
    <v>       0.30575848       0.30516193       0.90259632 </v>
    <v>       0.80575454       0.19483012       0.09740019 </v>
    <v>       0.30575389       0.30516926       0.40259933 </v>
    <v>       0.19424546       0.80516988       0.90259981 </v>
    <v>       0.69424611       0.69483074       0.59740067 </v>
   </varray>
  </structure>
  <varray name="forces" >
   <v>      -0.00006827       0.00011768      -0.00013075 </v>
   <v>      -0.00006908      -0.00011740       0.00012951 </v>
   <v>       0.00006827      -0.00011768       0.00013075 </v>
   <v>       0.00006908       0.00011740      -0.00012951 </v>
   <v>      -0.00090614       0.00812736       0.00489267 </v>
   <v>      -0.00180550      -0.00902995      -0.00490490 </v>
   <v>       0.00090614      -0.00812736      -0.00489267 </v>
   <v>       0.00180550       0.00902995       0.00490490 </v>
   <v>       0.00094884      -0.00801935      -0.00500194 </v>
   <v>       0.00184803       0.00892283       0.00501442 </v>
   <v>      -0.00094884       0.00801935       0.00500194 </v>
   <v>      -0.00184803      -0.00892283      -0.00501442 </v>
  </varray>
  <varray name="stress" >
   <v>      -3.20151847       0.00064854      -0.00036546 </v>
   <v>       0.00064837      -3.30561360       0.70059141 </v>
   <v>      -0.00036581       0.70059154     -29.57966076 </v>
  </varray>
  <energy>
   <i name="e_fr_energy">    -92.87862333 </i>
   <i name="e_wo_entrp">    -92.87939221 </i>
   <i name="e_0_energy">      0.00230664 </i>
  </energy>
  <time name="totalsc">  123.50  123.73</time>
 </calculation>
 <calculation>
  <scstep>
   <time name="dav">   11.79   11.80</time>
   <time name="total">   14.13   14.15</time>
   <energy>
    <i name="alphaZ">    591.11624634 </i>
    <i name="ewald">  -6953.79138177 </i>
    <i name="hartreedc">  -1835.75760260 </i>
    <i name="XCdc">    371.97810500 </i>
    <i name="pawpsdc">   6197.15103124 </i>
    <i name="pawaedc">  -6173.16139235 </i>
    <i name="eentropy">      0.00236717 </i>
    <i name="bandstr">   -921.37106943 </i>
    <i name="atom">   8630.95364861 </i>
    <i name="e_fr_energy">    -92.88004778 </i>
    <i name="e_wo_entrp">    -92.88241495 </i>
    <i name="e_0_energy">    -92.88083684 </i>
   </energy>
  </scstep>
  <scstep>
   <time name="diag">    2.03    2.03</time>
   <time name="diis">    7.07    7.07</time>
   <time name="orth">    0.17    0.17</time>
   <time name="total">   11.62   11.64</time>
   <energy>
    <i name="e_fr_energy">    -92.87515298 </i>
    <i name="e_wo_entrp">    -92.87751177 </i>
    <i name="e_0_energy">    -92.87593925 </i>
   </energy>
  </scstep>
  <scstep>
   <time name="diag">    2.03    2.03</time>
   <time name="diis">    6.92    6.93</time>
   <time name="orth">    0.17    0.17</time>
   <time name="total">   11.48   11.49</time>
   <energy>
    <i name="e_fr_energy">    -92.87469476 </i>
    <i name="e_wo_entrp">    -92.87701425 </i>
    <i name="e_0_energy">    -92.87546792 </i>
   </energy>
  </scstep>
  <scstep>
   <time name="diag">    2.03    2.03</time>
   <time name="diis">    4.01    4.02</time>
   <time name="orth">    0.17    0.17</time>
   <time name="total">    8.56    8.58</time>
   <energy>
    <i name="e_fr_energy">    -92.87610087 </i>
    <i name="e_wo_entrp">    -92.87842267 </i>
    <i name="e_0_energy">    -92.87687480 </i>
   </energy>
  </scstep>
  <scstep>
   <time name="diag">    2.03    2.03</time>
   <time name="diis">    3.84    3.84</time>
   <time name="orth">    0.17    0.17</time>
   <time name="total">    8.38    8.51</time>
   <energy>
    <i name="e_fr_energy">    -92.87784617 </i>
    <i name="e_wo_entrp">    -92.88016805 </i>
    <i name="e_0_energy">    -92.87862013 </i>
   </energy>
  </scstep>
  <scstep>
   <time name="diag">    2.03    2.03</time>
   <time name="diis">    3.52    3.53</time>
   <time name="orth">    0.17    0.17</time>
   <time name="total">    8.06    8.08</time>
   <energy>
    <i name="e_fr_energy">    -92.87901819 </i>
    <i name="e_wo_entrp">    -92.88133979 </i>
    <i name="e_0_energy">    -92.87979206 </i>
   </energy>
  </scstep>
  <scstep>
   <time name="diag">    2.03    2.03</time>
   <time name="diis">    2.96    2.96</time>
   <time name="orth">    0.17    0.17</time>
   <time name="total">    6.84    6.85</time>
   <energy>
    <i name="alphaZ">    591.11624634 </i>
    <i name="ewald">  -6953.79138177 </i>
    <i name="hartreedc">  -1833.55364111 </i>
    <i name="XCdc">    371.85057647 </i>
    <i name="pawpsdc">   6199.46966956 </i>
    <i name="pawaedc">  -6175.52920184 </i>
    <i name="eentropy">      0.00232133 </i>
    <i name="bandstr">   -923.39729879 </i>
    <i name="atom">   8630.95364861 </i>
    <i name="e_fr_energy">    -92.87906119 </i>
    <i name="e_wo_entrp">    -92.88138252 </i>
    <i name="e_0_energy">    -92.87983496 </i>
   </energy>
  </scstep>
  <structure>
   <crystal>
    <varray name="basis" >
     <v>       4.66743130       0.00000393      -0.00000400 </v>
     <v>       0.00000098       4.68765223      -3.20618400 </v>
     <v>       0.00000590      -0.04793914       6.48437400 </v>
    </varray>
    <i name="volume">    141.15613793 </i>
    <varray name="rec_basis" >
     <v>       0.21425061      -0.00000018      -0.00000020 </v>
     <v>      -0.00000018       0.21441059       0.00158514 </v>
     <v>       0.00000004       0.10601483       0.15500066 </v>
    </varray>
   </crystal>
   <varray name="positions" >
    <v>       0.49999988       0.49999755       0.24999859 </v>
    <v>      -0.00000011       0.00000246       0.25000141 </v>
    <v>       0.50000012       0.50000245       0.75000141 </v>
    <v>       0.00000011       0.99999754       0.74999859 </v>
    <v>       0.19417877       0.80520576       0.40259982 </v>
    <v>       0.69417879       0.69479425       0.09740037 </v>
    <v>       0.80582123       0.19479424       0.59740018 </v>
    <v>       0.30582121       0.30520575       0.90259963 </v>
    <v>       0.80581726       0.19478584       0.09739745 </v>
    <v>       0.30581723       0.30521416       0.40260235 </v>
    <v>       0.19418274       0.80521416       0.90260255 </v>
    <v>       0.69418277       0.69478584       0.59739765 </v>
   </varray>
  </structure>
  <varray name="forces" >
   <v>       0.00003235       0.00008831      -0.00004485 </v>
   <v>       0.00003203      -0.00008898       0.00004409 </v>
   <v>      -0.00003235      -0.00008831       0.00004485 </v>
   <v>      -0.00003203       0.00008898      -0.00004409 </v>
   <v>       0.00049561       0.00758134       0.00578517 </v>
   <v>       0.00046818      -0.00760811      -0.00579702 </v>
   <v>      -0.00049561      -0.00758134      -0.00578517 </v>
   <v>      -0.00046818       0.00760811       0.00579702 </v>
   <v>      -0.00051677      -0.00740008      -0.00595081 </v>
   <v>      -0.00048848       0.00742687       0.00596192 </v>
   <v>       0.00051677       0.00740008       0.00595081 </v>
   <v>       0.00048848      -0.00742687      -0.00596192 </v>
  </varray>
  <varray name="stress" >
   <v>      -0.00176802      -0.00556728      -0.00050121 </v>
   <v>      -0.00556741      -0.16110236       0.62802579 </v>
   <v>      -0.00050114       0.62802600     -27.17221775 </v>
  </varray>
  <energy>
   <i name="e_fr_energy">    -92.87906119 </i>
   <i name="e_wo_entrp">    -92.87983496 </i>
   <i name="e_0_energy">      0.00232133 </i>
  </energy>
  <time name="totalsc">   89.31   91.04</time>
  <eigenvalues>
   <array>
    <dimension dim="1">band</dimension>
    <dimension dim="2">kpoint</dimension>
    <dimension dim="3">spin</dimension>
    <field>eigene</field>
    <field>occ</field>
    <set>
     <set comment="spin 1">
      <set comment="kpoint 1">
       <r>  -31.8299    1.0000 </r>
       <r>  -31.8182    1.0000 </r>
       <r>  -31.7720    1.0000 </r>
       <r>  -31.7579    1.0000 </r>
       <r>  -31.7122    1.0000 </r>
       <r>  -31.6987    1.0000 </r>
       <r>  -31.6136    1.0000 </r>
       <r>  -31.5985    1.0000 </r>
       <r>  -31.5747    1.0000 </r>
       <r>  -31.5743    1.0000 </r>
       <r>  -31.5599    1.0000 </r>
       <r>  -31.5292    1.0000 </r>
       <r>  -14.4218    1.0000 </r>
       <r>  -13.7386    1.0000 </r>
       <r>  -13.7037    1.0000 </r>
       <r>  -13.6212    1.0000 </r>
       <r>  -13.1192    1.0000 </r>
       <r>  -12.9972    1.0000 </r>
       <r>  -12.9960    1.0000 </r>
       <r>  -12.8284    1.0000 </r>
       <r>   -2.9289    1.0000 </r>
       <r>   -2.5087    1.0000 </r>
       <r>   -2.1706    1.0000 </r>
       <r>   -2.0035    1.0000 </r>
       <r>   -1.7689    1.0000 </r>
       <r>   -1.5222    1.0000 </r>
       <r>   -1.5018    1.0000 </r>
       <r>   -1.4335    1.0000 </r>
       <r>   -1.4078    1.0000 </r>
       <r>   -0.6035    1.0000 </r>
       <r>    0.0565    1.0000 </r>
       <r>    0.1821    1.0000 </r>
       <r>    0.2041    1.0000 </r>
       <r>    0.4795    1.0000 </r>
       <r>    0.5933    1.0000 </r>
       <r>    0.6757    1.0000 </r>
       <r>    0.7882    1.0000 </r>
       <r>    1.0901    1.0000 </r>
       <r>    1.3240    1.0000 </r>
       <r>    1.3598    1.0000 </r>
       <r>    1.6376    1.0000 </r>
       <r>    1.7620    1.0000 </r>
       <r>    1.9721    1.0000 </r>
       <r>    2.6246    1.0000 </r>
       <r>    4.0475    1.0000 </r>
       <r>    4.1846    1.0000 </r>
       <r>    4.3799    1.0000 </r>
       <r>    4.5789    1.0000 </r>
       <r>    4.6671    1.0000 </r>
       <r>    4.7340    1.0000 </r>
       <r>    4.7468    1.0000 </r>
       <r>    4.8091    1.0000 </r>
       <r>    4.9030    1.0000 </r>
       <r>    6.1716   -0.0000 </r>
       <r>    6.5010   -0.0000 </r>
       <r>    6.9131   -0.0000 </r>
       <r>    7.9017   -0.0000 </r>
       <r>    7.9471   -0.0000 </r>
       <r>    8.2385    0.0000 </r>
       <r>    9.6236    0.0000 </r>
       <r>    9.9060    0.0000 </r>
       <r>    9.9240    0.0000 </r>
       <r>   10.3809    0.0000 </r>
       <r>   10.4600    0.0000 </r>
       <r>   11.2326    0.0000 </r>
       <r>   13.5300    0.0000 </r>
       <r>   13.6729    0.0000 </r>
       <r>   13.8723    0.0000 </r>
       <r>   14.5189    0.0000 </r>
       <r>   16.0785    0.0000 </r>
       <r>   16.5454    0.0000 </r>
       <r>   17.2761    0.0000 </r>
      </set>
      <set comment="kpoint 2">
       <r>  -31.8306    1.0000 </r>
       <r>  -31.8049    1.0000 </r>
       <r>  -31.7759    1.0000 </r>
       <r>  -31.7459    1.0000 </r>
       <r>  -31.7271    1.0000 </r>
       <r>  -31.6972    1.0000 </r>
       <r>  -31.6275    1.0000 </r>
       <r>  -31.5955    1.0000 </r>
       <r>  -31.5755    1.0000 </r>
       <r>  -31.5745    1.0000 </r>
       <r>  -31.5555    1.0000 </r>
       <r>  -31.5331    1.0000 </r>
       <r>  -14.2948    1.0000 </r>
       <r>  -13.7432    1.0000 </r>
       <r>  -13.6553    1.0000 </r>
       <r>  -13.4496    1.0000 </r>
       <r>  -13.2966    1.0000 </r>
       <r>  -13.2037    1.0000 </r>
       <r>  -12.9848    1.0000 </r>
       <r>  -12.8349    1.0000 </r>
       <r>   -2.9735    1.0000 </r>
       <r>   -2.2148    1.0000 </r>
       <r>   -1.9626    1.0000 </r>
       <r>   -1.7419    1.0000 </r>
       <r>   -1.6404    1.0000 </r>
       <r>   -1.5658    1.0000 </r>
       <r>   -1.4577    1.0000 </r>
       <r>   -1.4233    1.0000 </r>
       <r>   -1.3194    1.0000 </r>
       <r>   -1.1239    1.0000 </r>
       <r>   -0.3422    1.0000 </r>
       <r>    0.0672    1.0000 </r>
       <r>    0.3508    1.0000 </r>
       <r>    0.3736    1.0000 </r>
       <r>    0.4545    1.0000 </r>
       <r>    0.6600    1.0000 </r>
       <r>    0.7295    1.0000 </r>
       <r>    1.1668    1.0000 </r>
       <r>    1.4017    1.0000 </r>
       <r>    1.5126    1.0000 </r>
       <r>    1.5417    1.0000 </r>
       <r>    1.8160    1.0000 </r>
       <r>    1.8826    1.0000 </r>
       <r>    2.3989    1.0000 </r>
       <r>    4.0212    1.0000 </r>
       <r>    4.1196    1.0000 </r>
       <r>    4.3900    1.0000 </r>
       <r>    4.6995    1.0000 </r>
       <r>    4.7174    1.0000 </r>
       <r>    4.8067    1.0000 </r>
       <r>    5.0298    1.0013 </r>
       <r>    5.1088    1.0196 </r>
       <r>    5.1957    0.9922 </r>
       <r>    5.6348   -0.0000 </r>
       <r>    6.5061   -0.0000 </r>
       <r>    6.6481   -0.0000 </r>
       <r>    7.8589   -0.0000 </r>
       <r>    8.2585    0.0000 </r>
       <r>    8.6423    0.0000 </r>
       <r>    9.4076    0.0000 </r>
       <r>    9.5473    0.0000 </r>
       <r>    9.9398    0.0000 </r>
       <r>   10.3806    0.0000 </r>
       <r>   10.6489    0.0000 </r>
       <r>   11.2842    0.0000 </r>
       <r>   13.5658    0.0000 </r>
       <r>   13.7646    0.0000 </r>
       <r>   14.0730    0.0000 </r>
       <r>   14.6801    0.0000 </r>
       <r>   15.1728    0.0000 </r>
       <r>   16.3821    0.0000 </r>
       <r>   17.1074    0.0000 </r>
      </set>
      <set comment="kpoint 3">
       <r>  -31.8205    1.0000 </r>
       <r>  -31.8064    1.0000 </r>
       <r>  -31.7668    1.0000 </r>
       <r>  -31.7513    1.0000 </r>
       <r>  -31.7250    1.0000 </r>
       <r>  -31.7088    1.0000 </r>
       <r>  -31.6230    1.0000 </r>
       <r>  -31.6066    1.0000 </r>
       <r>  -31.5757    1.0000 </r>
       <r>  -31.5752    1.0000 </r>
       <r>  -31.5481    1.0000 </r>
       <r>  -31.5399    1.0000 </r>
       <r>  -14.0654    1.0000 </r>
       <r>  -13.7927    1.0000 </r>
       <r>  -13.6549    1.0000 </r>
       <r>  -13.4930    1.0000 </r>
       <r>  -13.2482    1.0000 </r>
       <r>  -13.1831    1.0000 </r>
       <r>  -13.0769    1.0000 </r>
       <r>  -12.9856    1.0000 </r>
       <r>   -2.6432    1.0000 </r>
       <r>   -2.1254    1.0000 </r>
       <r>   -2.0938    1.0000 </r>
       <r>   -1.8758    1.0000 </r>
       <r>   -1.5629    1.0000 </r>
       <r>   -1.5553    1.0000 </r>
       <r>   -1.4767    1.0000 </r>
       <r>   -1.4713    1.0000 </r>
       <r>   -1.0176    1.0000 </r>
       <r>   -0.7549    1.0000 </r>
       <r>   -0.4630    1.0000 </r>
       <r>   -0.2091    1.0000 </r>
       <r>    0.0636    1.0000 </r>
       <r>    0.4013    1.0000 </r>
       <r>    0.4236    1.0000 </r>
       <r>    0.5874    1.0000 </r>
       <r>    0.7944    1.0000 </r>
       <r>    0.9943    1.0000 </r>
       <r>    1.0515    1.0000 </r>
       <r>    1.3162    1.0000 </r>
       <r>    1.7464    1.0000 </r>
       <r>    1.9093    1.0000 </r>
       <r>    2.0655    1.0000 </r>
       <r>    2.0907    1.0000 </r>
       <r>    4.2747    1.0000 </r>
       <r>    4.3338    1.0000 </r>
       <r>    4.5964    1.0000 </r>
       <r>    4.7332    1.0000 </r>
       <r>    4.7637    1.0000 </r>
       <r>    4.7803    1.0000 </r>
       <r>    4.7981    1.0000 </r>
       <r>    5.1267    1.0277 </r>
       <r>    5.6347   -0.0000 </r>
       <r>    5.7139   -0.0000 </r>
       <r>    6.1816   -0.0000 </r>
       <r>    6.1963   -0.0000 </r>
       <r>    8.1127    0.0000 </r>
       <r>    8.5371    0.0000 </r>
       <r>    8.9984    0.0000 </r>
       <r>    9.4400    0.0000 </r>
       <r>    9.6734    0.0000 </r>
       <r>    9.7374    0.0000 </r>
       <r>    9.9401    0.0000 </r>
       <r>   10.1126    0.0000 </r>
       <r>   12.1292    0.0000 </r>
       <r>   12.9728    0.0000 </r>
       <r>   13.8957    0.0000 </r>
       <r>   14.3214    0.0000 </r>
       <r>   14.9543    0.0000 </r>
       <r>   15.1485    0.0000 </r>
       <r>   15.9846    0.0000 </r>
       <r>   16.0539    0.0000 </r>
      </set>
      <set comment="kpoint 4">
       <r>  -31.8205    1.0000 </r>
       <r>  -31.8065    1.0000 </r>
       <r>  -31.7668    1.0000 </r>
       <r>  -31.7512    1.0000 </r>
       <r>  -31.7249    1.0000 </r>
       <r>  -31.7088    1.0000 </r>
       <r>  -31.6231    1.0000 </r>
       <r>  -31.6065    1.0000 </r>
       <r>  -31.5758    1.0000 </r>
       <r>  -31.5752    1.0000 </r>
       <r>  -31.5481    1.0000 </r>
       <r>  -31.5399    1.0000 </r>
       <r>  -14.0654    1.0000 </r>
       <r>  -13.7928    1.0000 </r>
       <r>  -13.6548    1.0000 </r>
       <r>  -13.4930    1.0000 </r>
       <r>  -13.2482    1.0000 </r>
       <r>  -13.1831    1.0000 </r>
       <r>  -13.0769    1.0000 </r>
       <r>  -12.9856    1.0000 </r>
       <r>   -2.6432    1.0000 </r>
       <r>   -2.1254    1.0000 </r>
       <r>   -2.0938    1.0000 </r>
       <r>   -1.8758    1.0000 </r>
       <r>   -1.5629    1.0000 </r>
       <r>   -1.5553    1.0000 </r>
       <r>   -1.4767    1.0000 </r>
       <r>   -1.4713    1.0000 </r>
       <r>   -1.0176    1.0000 </r>
       <r>   -0.7549    1.0000 </r>
       <r>   -0.4629    1.0000 </r>
       <r>   -0.2091    1.0000 </r>
       <r>    0.0636    1.0000 </r>
       <r>    0.4012    1.0000 </r>
       <r>    0.4236    1.0000 </r>
       <r>    0.5873    1.0000 </r>
       <r>    0.7944    1.0000 </r>
       <r>    0.9943    1.0000 </r>
       <r>    1.0515    1.0000 </r>
       <r>    1.3162    1.0000 </r>
       <r>    1.7464    1.0000 </r>
       <r>    1.9093    1.0000 </r>
       <r>    2.0655    1.0000 </r>
       <r>    2.0907    1.0000 </r>
       <r>    4.2747    1.0000 </r>
       <r>    4.3338    1.0000 </r>
       <r>    4.5964    1.0000 </r>
       <r>    4.7332    1.0000 </r>
       <r>    4.7636    1.0000 </r>
       <r>    4.7804    1.0000 </r>
       <r>    4.7981    1.0000 </r>
       <r>    5.1267    1.0277 </r>
       <r>    5.6347   -0.0000 </r>
       <r>    5.7139   -0.0000 </r>
       <r>    6.1816   -0.0000 </r>
       <r>    6.1963   -0.0000 </r>
       <r>    8.1127    0.0000 </r>
       <r>    8.5371    0.0000 </r>
       <r>    8.9984    0.0000 </r>
       <r>    9.4400    0.0000 </r>
       <r>    9.6734    0.0000 </r>
       <r>    9.7374    0.0000 </r>
[...]
       <r>     6.6726     1.4348    55.8061 </r>
       <r>     6.8547     0.5527    55.9068 </r>
       <r>     7.0369     0.2922    55.9601 </r>
       <r>     7.2191     0.2241    56.0009 </r>
       <r>     7.4013    -0.0052    56.0000 </r>
       <r>     7.5834     0.0147    56.0026 </r>
       <r>     7.7656     0.1866    56.0366 </r>
       <r>     7.9478     1.4183    56.2950 </r>
       <r>     8.1300     2.7575    56.7974 </r>
       <r>     8.3121     2.4481    57.2433 </r>
       <r>     8.4943     1.9349    57.5958 </r>
       <r>     8.6765     3.4204    58.2190 </r>
       <r>     8.8587     2.6659    58.7046 </r>
       <r>     9.0408     2.7751    59.2102 </r>
       <r>     9.2230     1.9107    59.5583 </r>
       <r>     9.4052     2.8335    60.0745 </r>
       <r>     9.5874     5.1883    61.0197 </r>
       <r>     9.7696     2.7652    61.5234 </r>
       <r>     9.9517     3.4143    62.1454 </r>
       <r>    10.1339     2.7617    62.6485 </r>
       <r>    10.3161     2.3494    63.0766 </r>
       <r>    10.4983     2.7404    63.5758 </r>
       <r>    10.6804     1.5734    63.8624 </r>
       <r>    10.8626     0.5721    63.9667 </r>
       <r>    11.0448     0.2132    64.0055 </r>
       <r>    11.2270     0.6649    64.1266 </r>
       <r>    11.4091     0.7477    64.2628 </r>
       <r>    11.5913     0.3869    64.3333 </r>
       <r>    11.7735     0.0545    64.3432 </r>
       <r>    11.9557     0.9650    64.5190 </r>
       <r>    12.1378     0.3156    64.5765 </r>
       <r>    12.3200     0.3199    64.6348 </r>
       <r>    12.5022     0.8776    64.7947 </r>
       <r>    12.6844     1.0286    64.9821 </r>
       <r>    12.8665     0.7867    65.1254 </r>
       <r>    13.0487     0.8598    65.2820 </r>
       <r>    13.2309     0.8943    65.4449 </r>
       <r>    13.4131     1.5785    65.7325 </r>
       <r>    13.5953     2.2720    66.1464 </r>
       <r>    13.7774     1.9878    66.5085 </r>
       <r>    13.9596     2.1028    66.8916 </r>
       <r>    14.1418     2.0887    67.2721 </r>
       <r>    14.3240     1.5226    67.5495 </r>
       <r>    14.5061     0.9868    67.7293 </r>
       <r>    14.6883     1.3555    67.9762 </r>
       <r>    14.8705     1.2754    68.2086 </r>
       <r>    15.0527     1.8817    68.5514 </r>
       <r>    15.2348     1.4009    68.8066 </r>
       <r>    15.4170     0.8462    68.9608 </r>
       <r>    15.5992     1.2777    69.1935 </r>
       <r>    15.7814     1.6305    69.4906 </r>
       <r>    15.9635     1.7318    69.8061 </r>
       <r>    16.1457     2.2927    70.2237 </r>
       <r>    16.3279     1.7714    70.5465 </r>
       <r>    16.5101     1.2018    70.7654 </r>
       <r>    16.6923     2.7031    71.2578 </r>
       <r>    16.8744     1.6901    71.5657 </r>
       <r>    17.0566     0.8606    71.7225 </r>
       <r>    17.2388     0.6153    71.8346 </r>
       <r>    17.4210     0.7445    71.9702 </r>
       <r>    17.6031     0.1706    72.0013 </r>
       <r>    17.7853    -0.0073    72.0000 </r>
       <r>    17.9675    -0.0000    72.0000 </r>
       <r>    18.1497    -0.0000    72.0000 </r>
       <r>    18.3318     0.0000    72.0000 </r>
       <r>    18.5140     0.0000    72.0000 </r>
       <r>    18.6962     0.0000    72.0000 </r>
       <r>    18.8784     0.0000    72.0000 </r>
       <r>    19.0605     0.0000    72.0000 </r>
       <r>    19.2427     0.0000    72.0000 </r>
       <r>    19.4249     0.0000    72.0000 </r>
       <r>    19.6071     0.0000    72.0000 </r>
       <r>    19.7892     0.0000    72.0000 </r>
       <r>    19.9714     0.0000    72.0000 </r>
       <r>    20.1536     0.0000    72.0000 </r>
       <r>    20.3358     0.0000    72.0000 </r>
      </set>
      <set comment="spin 2">
       <r>   -34.3171     0.0000     0.0000 </r>
       <r>   -34.1349     0.0000     0.0000 </r>
       <r>   -33.9528     0.0000     0.0000 </r>
       <r>   -33.7706     0.0000     0.0000 </r>
       <r>   -33.5884     0.0000     0.0000 </r>
       <r>   -33.4062     0.0000     0.0000 </r>
       <r>   -33.2241     0.0000     0.0000 </r>
       <r>   -33.0419     0.0000     0.0000 </r>
       <r>   -32.8597     0.0000     0.0000 </r>
       <r>   -32.6775     0.0000     0.0000 </r>
       <r>   -32.4954     0.0000     0.0000 </r>
       <r>   -32.3132     0.0000     0.0000 </r>
       <r>   -32.1310     0.0000     0.0000 </r>
       <r>   -31.9488     0.0000     0.0000 </r>
       <r>   -31.7666     0.0000     0.0000 </r>
       <r>   -31.5845    -0.0000    -0.0000 </r>
       <r>   -31.4023    -0.0000    -0.0000 </r>
       <r>   -31.2201    -0.0000    -0.0000 </r>
       <r>   -31.0379    -0.0000    -0.0000 </r>
       <r>   -30.8558    -0.0350    -0.0064 </r>
       <r>   -30.6736     1.6621     0.2964 </r>
       <r>   -30.4914    22.4487     4.3860 </r>
       <r>   -30.3092    11.1868     6.4240 </r>
       <r>   -30.1271    30.9618    12.0645 </r>
       <r>   -29.9449    -0.3423    12.0022 </r>
       <r>   -29.7627    -0.0120    12.0000 </r>
       <r>   -29.5805    -0.0000    12.0000 </r>
       <r>   -29.3984    -0.0000    12.0000 </r>
       <r>   -29.2162     0.0000    12.0000 </r>
       <r>   -29.0340     0.0000    12.0000 </r>
       <r>   -28.8518     0.0000    12.0000 </r>
       <r>   -28.6696     0.0000    12.0000 </r>
       <r>   -28.4875     0.0000    12.0000 </r>
       <r>   -28.3053     0.0000    12.0000 </r>
       <r>   -28.1231     0.0000    12.0000 </r>
       <r>   -27.9409     0.0000    12.0000 </r>
       <r>   -27.7588     0.0000    12.0000 </r>
       <r>   -27.5766     0.0000    12.0000 </r>
       <r>   -27.3944     0.0000    12.0000 </r>
       <r>   -27.2122     0.0000    12.0000 </r>
       <r>   -27.0301     0.0000    12.0000 </r>
       <r>   -26.8479     0.0000    12.0000 </r>
       <r>   -26.6657     0.0000    12.0000 </r>
       <r>   -26.4835     0.0000    12.0000 </r>
       <r>   -26.3014     0.0000    12.0000 </r>
       <r>   -26.1192     0.0000    12.0000 </r>
       <r>   -25.9370     0.0000    12.0000 </r>
       <r>   -25.7548     0.0000    12.0000 </r>
       <r>   -25.5727     0.0000    12.0000 </r>
       <r>   -25.3905     0.0000    12.0000 </r>
       <r>   -25.2083     0.0000    12.0000 </r>
       <r>   -25.0261     0.0000    12.0000 </r>
       <r>   -24.8439     0.0000    12.0000 </r>
       <r>   -24.6618     0.0000    12.0000 </r>
       <r>   -24.4796     0.0000    12.0000 </r>
       <r>   -24.2974     0.0000    12.0000 </r>
       <r>   -24.1152     0.0000    12.0000 </r>
       <r>   -23.9331     0.0000    12.0000 </r>
       <r>   -23.7509     0.0000    12.0000 </r>
       <r>   -23.5687     0.0000    12.0000 </r>
       <r>   -23.3865     0.0000    12.0000 </r>
       <r>   -23.2044     0.0000    12.0000 </r>
       <r>   -23.0222     0.0000    12.0000 </r>
       <r>   -22.8400     0.0000    12.0000 </r>
       <r>   -22.6578     0.0000    12.0000 </r>
       <r>   -22.4757     0.0000    12.0000 </r>
       <r>   -22.2935     0.0000    12.0000 </r>
       <r>   -22.1113     0.0000    12.0000 </r>
       <r>   -21.9291     0.0000    12.0000 </r>
       <r>   -21.7469     0.0000    12.0000 </r>
       <r>   -21.5648     0.0000    12.0000 </r>
       <r>   -21.3826     0.0000    12.0000 </r>
       <r>   -21.2004     0.0000    12.0000 </r>
       <r>   -21.0182     0.0000    12.0000 </r>
       <r>   -20.8361     0.0000    12.0000 </r>
       <r>   -20.6539     0.0000    12.0000 </r>
       <r>   -20.4717     0.0000    12.0000 </r>
       <r>   -20.2895     0.0000    12.0000 </r>
       <r>   -20.1074     0.0000    12.0000 </r>
       <r>   -19.9252     0.0000    12.0000 </r>
       <r>   -19.7430     0.0000    12.0000 </r>
       <r>   -19.5608     0.0000    12.0000 </r>
       <r>   -19.3787     0.0000    12.0000 </r>
       <r>   -19.1965     0.0000    12.0000 </r>
       <r>   -19.0143     0.0000    12.0000 </r>
       <r>   -18.8321     0.0000    12.0000 </r>
       <r>   -18.6500     0.0000    12.0000 </r>
       <r>   -18.4678     0.0000    12.0000 </r>
       <r>   -18.2856     0.0000    12.0000 </r>
       <r>   -18.1034     0.0000    12.0000 </r>
       <r>   -17.9212     0.0000    12.0000 </r>
       <r>   -17.7391     0.0000    12.0000 </r>
       <r>   -17.5569     0.0000    12.0000 </r>
       <r>   -17.3747     0.0000    12.0000 </r>
       <r>   -17.1925     0.0000    12.0000 </r>
       <r>   -17.0104     0.0000    12.0000 </r>
       <r>   -16.8282     0.0000    12.0000 </r>
       <r>   -16.6460     0.0000    12.0000 </r>
       <r>   -16.4638     0.0000    12.0000 </r>
       <r>   -16.2817     0.0000    12.0000 </r>
       <r>   -16.0995     0.0000    12.0000 </r>
       <r>   -15.9173     0.0000    12.0000 </r>
       <r>   -15.7351     0.0000    12.0000 </r>
       <r>   -15.5530     0.0000    12.0000 </r>
       <r>   -15.3708    -0.0000    12.0000 </r>
       <r>   -15.1886    -0.0000    12.0000 </r>
       <r>   -15.0064    -0.0000    12.0000 </r>
       <r>   -14.8242    -0.0000    12.0000 </r>
       <r>   -14.6421    -0.0008    11.9999 </r>
       <r>   -14.4599     0.0321    12.0057 </r>
       <r>   -14.2777     0.4099    12.0804 </r>
       <r>   -14.0955     1.0362    12.2692 </r>
       <r>   -13.9134     2.0728    12.6468 </r>
       <r>   -13.7312     2.7434    13.1466 </r>
       <r>   -13.5490     7.4411    14.5022 </r>
       <r>   -13.3668     6.9305    15.7647 </r>
       <r>   -13.1847     3.6059    16.4216 </r>
       <r>   -13.0025    11.3134    18.4827 </r>
       <r>   -12.8203     6.8489    19.7304 </r>
       <r>   -12.6381     1.5177    20.0069 </r>
       <r>   -12.4560    -0.0374    20.0001 </r>
       <r>   -12.2738    -0.0003    20.0000 </r>
       <r>   -12.0916    -0.0000    20.0000 </r>
       <r>   -11.9094     0.0000    20.0000 </r>
       <r>   -11.7273     0.0000    20.0000 </r>
       <r>   -11.5451     0.0000    20.0000 </r>
       <r>   -11.3629     0.0000    20.0000 </r>
       <r>   -11.1807     0.0000    20.0000 </r>
       <r>   -10.9985     0.0000    20.0000 </r>
       <r>   -10.8164     0.0000    20.0000 </r>
       <r>   -10.6342     0.0000    20.0000 </r>
       <r>   -10.4520     0.0000    20.0000 </r>
       <r>   -10.2698     0.0000    20.0000 </r>
       <r>   -10.0877     0.0000    20.0000 </r>
       <r>    -9.9055     0.0000    20.0000 </r>
       <r>    -9.7233     0.0000    20.0000 </r>
       <r>    -9.5411     0.0000    20.0000 </r>
       <r>    -9.3590     0.0000    20.0000 </r>
       <r>    -9.1768     0.0000    20.0000 </r>
       <r>    -8.9946     0.0000    20.0000 </r>
       <r>    -8.8124     0.0000    20.0000 </r>
       <r>    -8.6303     0.0000    20.0000 </r>
       <r>    -8.4481     0.0000    20.0000 </r>
       <r>    -8.2659     0.0000    20.0000 </r>
       <r>    -8.0837     0.0000    20.0000 </r>
       <r>    -7.9015     0.0000    20.0000 </r>
       <r>    -7.7194     0.0000    20.0000 </r>
       <r>    -7.5372     0.0000    20.0000 </r>
       <r>    -7.3550     0.0000    20.0000 </r>
       <r>    -7.1728     0.0000    20.0000 </r>
       <r>    -6.9907     0.0000    20.0000 </r>
       <r>    -6.8085     0.0000    20.0000 </r>
       <r>    -6.6263     0.0000    20.0000 </r>
       <r>    -6.4441     0.0000    20.0000 </r>
       <r>    -6.2620     0.0000    20.0000 </r>
       <r>    -6.0798     0.0000    20.0000 </r>
       <r>    -5.8976     0.0000    20.0000 </r>
       <r>    -5.7154     0.0000    20.0000 </r>
       <r>    -5.5333     0.0000    20.0000 </r>
       <r>    -5.3511     0.0000    20.0000 </r>
       <r>    -5.1689     0.0000    20.0000 </r>
       <r>    -4.9867     0.0000    20.0000 </r>
       <r>    -4.8046     0.0000    20.0000 </r>
       <r>    -4.6224     0.0000    20.0000 </r>
       <r>    -4.4402     0.0000    20.0000 </r>
       <r>    -4.2580     0.0000    20.0000 </r>
       <r>    -4.0758     0.0000    20.0000 </r>
       <r>    -3.8937     0.0000    20.0000 </r>
       <r>    -3.7115     0.0000    20.0000 </r>
       <r>    -3.5293    -0.0000    20.0000 </r>
       <r>    -3.3471    -0.0000    20.0000 </r>
       <r>    -3.1650    -0.0000    20.0000 </r>
       <r>    -2.9828    -0.0000    20.0000 </r>
       <r>    -2.8006    -0.0028    19.9995 </r>
       <r>    -2.6184     0.1143    20.0203 </r>
       <r>    -2.4363     1.4242    20.2798 </r>
       <r>    -2.2541     1.4522    20.5443 </r>
       <r>    -2.0719     1.9794    20.9049 </r>
       <r>    -1.8897     1.5237    21.1825 </r>
       <r>    -1.7076     4.9705    22.0880 </r>
       <r>    -1.5254     5.4493    23.0808 </r>
       <r>    -1.3432     7.3549    24.4206 </r>
       <r>    -1.1610    11.4210    26.5013 </r>
       <r>    -0.9788     8.1853    27.9924 </r>
       <r>    -0.7967     1.4241    28.2519 </r>
       <r>    -0.6145     1.7967    28.5792 </r>
       <r>    -0.4323     4.3294    29.3679 </r>
       <r>    -0.2501     3.7117    30.0441 </r>
       <r>    -0.0680     4.5444    30.8720 </r>
       <r>     0.1142     3.7445    31.5541 </r>
       <r>     0.2964     3.3648    32.1671 </r>
       <r>     0.4786     4.2820    32.9472 </r>
       <r>     0.6607     7.1298    34.2461 </r>
       <r>     0.8429     6.7516    35.4761 </r>
       <r>     1.0251     5.5459    36.4864 </r>
       <r>     1.2073     6.9090    37.7451 </r>
       <r>     1.3894     6.0015    38.8384 </r>
       <r>     1.5716     4.9510    39.7404 </r>
       <r>     1.7538     6.0504    40.8426 </r>
       <r>     1.9360     5.8758    41.9130 </r>
       <r>     2.1181     5.9722    43.0010 </r>
       <r>     2.3003     3.0899    43.5639 </r>
       <r>     2.4825     1.4252    43.8236 </r>
       <r>     2.6647     0.6842    43.9482 </r>
       <r>     2.8469     0.2929    44.0016 </r>
       <r>     3.0290    -0.0085    44.0000 </r>
       <r>     3.2112    -0.0000    44.0000 </r>
       <r>     3.3934    -0.0000    44.0000 </r>
       <r>     3.5756     0.0000    44.0000 </r>
       <r>     3.7577     0.0000    44.0000 </r>
       <r>     3.9399     0.0000    44.0000 </r>
       <r>     4.1221     0.0000    44.0000 </r>
       <r>     4.3043    -0.0000    44.0000 </r>
       <r>     4.4864    -0.0000    44.0000 </r>
       <r>     4.6686    -0.0000    44.0000 </r>
       <r>     4.8508    -0.0000    44.0000 </r>
       <r>     5.0330    -0.0009    43.9998 </r>
       <r>     5.2151     0.0290    44.0051 </r>
       <r>     5.3973     0.9384    44.1761 </r>
       <r>     5.5795     3.4102    44.7973 </r>
       <r>     5.7617     4.0083    45.5275 </r>
       <r>     5.9438     4.3467    46.3194 </r>
       <r>     6.1260     6.4056    47.4863 </r>
       <r>     6.3082     6.9492    48.7523 </r>
       <r>     6.4904     6.6197    49.9583 </r>
       <r>     6.6726     9.7677    51.7377 </r>
       <r>     6.8547     6.9001    52.9948 </r>
       <r>     7.0369     3.0322    53.5471 </r>
       <r>     7.2191     3.3796    54.1628 </r>
       <r>     7.4013     4.0056    54.8925 </r>
       <r>     7.5834     3.4970    55.5296 </r>
       <r>     7.7656     1.5277    55.8079 </r>
       <r>     7.9478     0.5759    55.9129 </r>
       <r>     8.1300     0.2675    55.9616 </r>
       <r>     8.3121     0.2160    56.0009 </r>
       <r>     8.4943     0.0595    56.0118 </r>
       <r>     8.6765     1.0364    56.2006 </r>
       <r>     8.8587     2.9978    56.7467 </r>
       <r>     9.0408     2.4896    57.2003 </r>
       <r>     9.2230     2.0624    57.5760 </r>
       <r>     9.4052     4.1258    58.3276 </r>
       <r>     9.5874     2.4112    58.7669 </r>
       <r>     9.7696     2.0968    59.1489 </r>
       <r>     9.9517     2.4375    59.5929 </r>
       <r>    10.1339     4.1565    60.3501 </r>
       <r>    10.3161     4.2537    61.1251 </r>
       <r>    10.4983     3.2487    61.7169 </r>
       <r>    10.6804     3.6060    62.3738 </r>
       <r>    10.8626     2.1878    62.7724 </r>
       <r>    11.0448     3.1435    63.3450 </r>
       <r>    11.2270     2.1861    63.7433 </r>
       <r>    11.4091     0.9433    63.9152 </r>
       <r>    11.5913     0.3608    63.9809 </r>
       <r>    11.7735     0.9345    64.1511 </r>
       <r>    11.9557     0.6562    64.2707 </r>
       <r>    12.1378     0.2226    64.3112 </r>
       <r>    12.3200     0.9096    64.4769 </r>
       <r>    12.5022     0.4162    64.5528 </r>
       <r>    12.6844     0.3668    64.6196 </r>
       <r>    12.8665     0.7683    64.7596 </r>
       <r>    13.0487     0.9458    64.9319 </r>
       <r>    13.2309     1.0497    65.1231 </r>
       <r>    13.4131     0.7690    65.2632 </r>
       <r>    13.5953     0.8319    65.4147 </r>
       <r>    13.7774     1.6115    65.7083 </r>
       <r>    13.9596     1.6309    66.0054 </r>
       <r>    14.1418     2.5081    66.4624 </r>
       <r>    14.3240     2.3449    66.8895 </r>
       <r>    14.5061     1.5729    67.1761 </r>
       <r>    14.6883     1.5670    67.4616 </r>
       <r>    14.8705     0.7966    67.6067 </r>
       <r>    15.0527     1.2903    67.8418 </r>
       <r>    15.2348     1.1203    68.0459 </r>
       <r>    15.4170     0.9693    68.2224 </r>
       <r>    15.5992     1.5650    68.5075 </r>
       <r>    15.7814     1.3030    68.7449 </r>
       <r>    15.9635     1.4281    69.0051 </r>
       <r>    16.1457     1.0941    69.2044 </r>
       <r>    16.3279     1.3028    69.4417 </r>
       <r>    16.5101     2.4858    69.8946 </r>
       <r>    16.6923     1.7602    70.2153 </r>
       <r>    16.8744     1.9543    70.5713 </r>
       <r>    17.0566     0.7996    70.7170 </r>
       <r>    17.2388     2.3038    71.1366 </r>
       <r>    17.4210     2.1116    71.5213 </r>
       <r>    17.6031     1.5148    71.7973 </r>
       <r>    17.7853     0.7031    71.9254 </r>
       <r>    17.9675     0.4257    72.0029 </r>
       <r>    18.1497    -0.0161    72.0000 </r>
       <r>    18.3318    -0.0000    72.0000 </r>
       <r>    18.5140    -0.0000    72.0000 </r>
       <r>    18.6962     0.0000    72.0000 </r>
       <r>    18.8784     0.0000    72.0000 </r>
       <r>    19.0605     0.0000    72.0000 </r>
       <r>    19.2427     0.0000    72.0000 </r>
       <r>    19.4249     0.0000    72.0000 </r>
       <r>    19.6071     0.0000    72.0000 </r>
       <r>    19.7892     0.0000    72.0000 </r>
       <r>    19.9714     0.0000    72.0000 </r>
       <r>    20.1536     0.0000    72.0000 </r>
       <r>    20.3358     0.0000    72.0000 </r>
      </set>
     </set>
    </array>
   </total>
  </dos>
 </calculation>
 <structure name="finalpos" >
  <crystal>
   <varray name="basis" >
    <v>       4.66743130       0.00000393      -0.00000400 </v>
    <v>       0.00000098       4.68765223      -3.20618400 </v>
    <v>       0.00000590      -0.04793914       6.48437400 </v>
   </varray>
   <i name="volume">    141.15613793 </i>
   <varray name="rec_basis" >
    <v>       0.21425061      -0.00000018      -0.00000020 </v>
    <v>      -0.00000018       0.21441059       0.00158514 </v>
    <v>       0.00000004       0.10601483       0.15500066 </v>
   </varray>
  </crystal>
  <varray name="positions" >
   <v>       0.49999988       0.49999755       0.24999859 </v>
   <v>      -0.00000011       0.00000246       0.25000141 </v>
   <v>       0.50000012       0.50000245       0.75000141 </v>
   <v>       0.00000011       0.99999754       0.74999859 </v>
   <v>       0.19417877       0.80520576       0.40259982 </v>
   <v>       0.69417879       0.69479425       0.09740037 </v>
   <v>       0.80582123       0.19479424       0.59740018 </v>
   <v>       0.30582121       0.30520575       0.90259963 </v>
   <v>       0.80581726       0.19478584       0.09739745 </v>
   <v>       0.30581723       0.30521416       0.40260235 </v>
   <v>       0.19418274       0.80521416       0.90260255 </v>
   <v>       0.69418277       0.69478584       0.59739765 </v>
  </varray>
 </structure>
</modeling>
