<?xml version="1.0" encoding="ISO-8859-1"?>
<modeling>
 <generator>
  <i name="program" type="string">vasp </i>
  <i name="version" type="string">5.4.1  </i>
  <i name="subversion" type="string">24Jun15 (build May 10 2016 14:18:23) complex                          parallel </i>
  <i name="platform" type="string">IFC91_ompi </i>
  <i name="date" type="string">2016 12 09 </i>
  <i name="time" type="string">15:27:57 </i>
 </generator>
 <incar>
  <i type="string" name="PREC">accurate</i>
  <i type="string" name="ALGO"> Fast</i>
  <i type="int" name="ISPIN">     2</i>
  <i type="int" name="IBRION">     2</i>
  <i name="EDIFF">      0.00010000</i>
  <i type="int" name="NSW">     0</i>
  <i type="int" name="ISIF">     3</i>
  <i name="ENCUT">    500.00000000</i>
  <v name="MAGMOM">      6.00000000      0.50000000      0.50000000      6.00000000      0.50000000      0.50000000</v>
  <i type="string" name="LREAL"> Auto</i>
  <i type="int" name="ISMEAR">     1</i>
  <i name="SIGMA">      0.10000000</i>
  <i type="logical" name="LWAVE"> F  </i>
  <i type="logical" name="LCHARG"> F  </i>
  <i type="logical" name="LVTOT"> T  </i>
  <i type="logical" name="LVHAR"> T  </i>
  <i type="logical" name="LAECHG"> F  </i>
  <v type="int" name="KPOINT_BSE">    -1     0     0     0</v>
  <i type="string" name="GGA"> Bo</i>
  <i name="PARAM1">      0.18333333</i>
  <i name="PARAM2">      0.22000000</i>
  <i type="logical" name="LUSE_VDW"> T  </i>
  <i name="AGGAC">      0.00000000</i>
 </incar>
 <kpoints>
  <generation param="Gamma">
   <v type="int" name="divisions">      13       13        1 </v>
   <v name="usershift">      0.00000000       0.00000000       0.00000000 </v>
   <v name="genvec1">      0.07692308       0.00000000       0.00000000 </v>
   <v name="genvec2">      0.00000000       0.07692308       0.00000000 </v>
   <v name="genvec3">      0.00000000       0.00000000       1.00000000 </v>
   <v name="shift">      0.00000000       0.00000000       0.00000000 </v>
  </generation>
  <varray name="kpointlist" >
   <v>       0.00000000       0.00000000       0.00000000 </v>
   <v>       0.07692308      -0.00000000       0.00000000 </v>
   <v>       0.15384615       0.00000000       0.00000000 </v>
   <v>       0.23076923       0.00000000       0.00000000 </v>
   <v>       0.30769231      -0.00000000       0.00000000 </v>
   <v>       0.38461538       0.00000000       0.00000000 </v>
   <v>       0.46153846       0.00000000       0.00000000 </v>
   <v>       0.00000000       0.07692308       0.00000000 </v>
   <v>       0.07692308       0.07692308       0.00000000 </v>
   <v>       0.15384615       0.07692308       0.00000000 </v>
   <v>       0.23076923       0.07692308       0.00000000 </v>
   <v>       0.30769231       0.07692308       0.00000000 </v>
   <v>       0.38461538       0.07692308       0.00000000 </v>
   <v>       0.46153846       0.07692308       0.00000000 </v>
   <v>       0.00000000       0.15384615       0.00000000 </v>
   <v>       0.07692308       0.15384615       0.00000000 </v>
   <v>       0.15384615       0.15384615       0.00000000 </v>
   <v>       0.23076923       0.15384615       0.00000000 </v>
   <v>       0.30769231       0.15384615       0.00000000 </v>
   <v>       0.38461538       0.15384615       0.00000000 </v>
   <v>      -0.07692308       0.15384615       0.00000000 </v>
   <v>       0.00000000       0.23076923       0.00000000 </v>
   <v>       0.07692308       0.23076923       0.00000000 </v>
   <v>       0.15384615       0.23076923       0.00000000 </v>
   <v>       0.23076923       0.23076923       0.00000000 </v>
   <v>       0.30769231       0.23076923       0.00000000 </v>
   <v>       0.38461538       0.23076923       0.00000000 </v>
   <v>      -0.15384615       0.23076923       0.00000000 </v>
   <v>       0.00000000       0.30769231       0.00000000 </v>
   <v>       0.07692308       0.30769231       0.00000000 </v>
   <v>       0.15384615       0.30769231       0.00000000 </v>
   <v>       0.23076923       0.30769231       0.00000000 </v>
   <v>       0.30769231       0.30769231       0.00000000 </v>
   <v>      -0.23076923       0.30769231       0.00000000 </v>
   <v>      -0.15384615       0.30769231       0.00000000 </v>
   <v>       0.00000000       0.38461538       0.00000000 </v>
   <v>       0.07692308       0.38461538       0.00000000 </v>
   <v>       0.15384615       0.38461538       0.00000000 </v>
   <v>       0.23076923       0.38461538       0.00000000 </v>
   <v>       0.30769231       0.38461538       0.00000000 </v>
   <v>      -0.30769231       0.38461538       0.00000000 </v>
   <v>      -0.23076923       0.38461538       0.00000000 </v>
   <v>       0.00000000       0.46153846       0.00000000 </v>
   <v>       0.07692308       0.46153846       0.00000000 </v>
   <v>       0.15384615       0.46153846       0.00000000 </v>
   <v>       0.23076923       0.46153846       0.00000000 </v>
   <v>      -0.38461538       0.46153846       0.00000000 </v>
   <v>      -0.30769231       0.46153846       0.00000000 </v>
   <v>      -0.23076923       0.46153846       0.00000000 </v>
  </varray>
  <varray name="weights" >
   <v>       0.00591716 </v>
   <v>       0.01183432 </v>
   <v>       0.01183432 </v>
   <v>       0.01183432 </v>
   <v>       0.01183432 </v>
   <v>       0.01183432 </v>
   <v>       0.01183432 </v>
   <v>       0.02366864 </v>
   <v>       0.02366864 </v>
   <v>       0.02366864 </v>
   <v>       0.02366864 </v>
   <v>       0.02366864 </v>
   <v>       0.02366864 </v>
   <v>       0.01183432 </v>
   <v>       0.02366864 </v>
   <v>       0.02366864 </v>
   <v>       0.02366864 </v>
   <v>       0.02366864 </v>
   <v>       0.02366864 </v>
   <v>       0.02366864 </v>
   <v>       0.01183432 </v>
   <v>       0.02366864 </v>
   <v>       0.02366864 </v>
   <v>       0.02366864 </v>
   <v>       0.02366864 </v>
   <v>       0.02366864 </v>
   <v>       0.01183432 </v>
   <v>       0.02366864 </v>
   <v>       0.02366864 </v>
   <v>       0.02366864 </v>
   <v>       0.02366864 </v>
   <v>       0.02366864 </v>
   <v>       0.02366864 </v>
   <v>       0.02366864 </v>
   <v>       0.01183432 </v>
   <v>       0.02366864 </v>
   <v>       0.02366864 </v>
   <v>       0.02366864 </v>
   <v>       0.02366864 </v>
   <v>       0.01183432 </v>
   <v>       0.02366864 </v>
   <v>       0.02366864 </v>
   <v>       0.02366864 </v>
   <v>       0.02366864 </v>
   <v>       0.02366864 </v>
   <v>       0.02366864 </v>
   <v>       0.02366864 </v>
   <v>       0.02366864 </v>
   <v>       0.01183432 </v>
  </varray>
 </kpoints>
 <parameters>
  <separator name="general" >
   <i type="string" name="SYSTEM">unknown system</i>
   <i type="logical" name="LCOMPAT"> F  </i>
  </separator>
  <separator name="electronic" >
   <i type="string" name="PREC">accura</i>
   <i name="ENMAX">    500.00000000</i>
   <i name="ENAUG">    392.42700000</i>
   <i name="EDIFF">      0.00010000</i>
   <i type="int" name="IALGO">    68</i>
   <i type="int" name="IWAVPR">    10</i>
   <i type="int" name="NBANDS">    36</i>
   <i name="NELECT">     48.00000000</i>
   <i type="int" name="TURBO">     0</i>
   <i type="int" name="IRESTART">     0</i>
   <i type="int" name="NREBOOT">     0</i>
   <i type="int" name="NMIN">     0</i>
   <i name="EREF">      0.00000000</i>
   <separator name="electronic smearing" >
    <i type="int" name="ISMEAR">     1</i>
    <i name="SIGMA">      0.10000000</i>
    <i name="KSPACING">      0.50000000</i>
    <i type="logical" name="KGAMMA"> T  </i>
   </separator>
   <separator name="electronic projectors" >
    <i type="logical" name="LREAL"> T  </i>
    <v name="ROPT">     -0.00025000     -0.00025000     -0.00025000     -0.00025000</v>
    <i type="int" name="LMAXPAW">  -100</i>
    <i type="int" name="LMAXMIX">     2</i>
    <i type="logical" name="NLSPLINE"> F  </i>
   </separator>
   <separator name="electronic startup" >
    <i type="int" name="ISTART">     0</i>
    <i type="int" name="ICHARG">     2</i>
    <i type="int" name="INIWAV">     1</i>
   </separator>
   <separator name="electronic spin" >
    <i type="int" name="ISPIN">     2</i>
    <i type="logical" name="LNONCOLLINEAR"> F  </i>
    <v name="MAGMOM">      6.00000000      0.50000000      0.50000000      6.00000000      0.50000000      0.50000000</v>
    <i name="NUPDOWN">     -1.00000000</i>
    <i type="logical" name="LSORBIT"> F  </i>
    <v name="SAXIS">      0.00000000      0.00000000      1.00000000</v>
    <i type="logical" name="LSPIRAL"> F  </i>
    <v name="QSPIRAL">      0.00000000      0.00000000      0.00000000</v>
    <i type="logical" name="LZEROZ"> F  </i>
   </separator>
   <separator name="electronic exchange-correlation" >
    <i type="logical" name="LASPH"> F  </i>
    <i type="logical" name="LMETAGGA"> F  </i>
   </separator>
   <separator name="electronic convergence" >
    <i type="int" name="NELM">    60</i>
    <i type="int" name="NELMDL">     0</i>
    <i type="int" name="NELMIN">     2</i>
    <i name="ENINI">    500.00000000</i>
    <separator name="electronic convergence detail" >
     <i type="logical" name="LDIAG"> T  </i>
     <i type="logical" name="LSUBROT"> F  </i>
     <i name="WEIMIN">      0.00000000</i>
     <i name="EBREAK">      0.00000069</i>
     <i name="DEPER">      0.30000000</i>
     <i type="int" name="NRMM">     4</i>
     <i name="TIME">      0.40000000</i>
    </separator>
   </separator>
   <separator name="electronic mixer" >
    <i name="AMIX">      0.40000000</i>
    <i name="BMIX">      1.00000000</i>
    <i name="AMIN">      0.10000000</i>
    <i name="AMIX_MAG">      1.60000000</i>
    <i name="BMIX_MAG">      1.00000000</i>
    <separator name="electronic mixer details" >
     <i type="int" name="IMIX">     4</i>
     <i type="logical" name="MIXFIRST"> F  </i>
     <i type="int" name="MAXMIX">   -45</i>
     <i name="WC">    100.00000000</i>
     <i type="int" name="INIMIX">     1</i>
     <i type="int" name="MIXPRE">     1</i>
     <i type="int" name="MREMOVE">     5</i>
    </separator>
   </separator>
   <separator name="electronic dipolcorrection" >
    <i type="logical" name="LDIPOL"> F  </i>
    <i type="logical" name="LMONO"> F  </i>
    <i type="int" name="IDIPOL">     0</i>
    <i name="EPSILON">      1.00000000</i>
    <v name="DIPOL">   -100.00000000   -100.00000000   -100.00000000</v>
    <i name="EFIELD">      0.00000000</i>
   </separator>
  </separator>
  <separator name="grids" >
   <i type="int" name="NGX">    24</i>
   <i type="int" name="NGY">    24</i>
   <i type="int" name="NGZ">   180</i>
   <i type="int" name="NGXF">    48</i>
   <i type="int" name="NGYF">    48</i>
   <i type="int" name="NGZF">   360</i>
   <i type="logical" name="ADDGRID"> F  </i>
  </separator>
  <separator name="ionic" >
   <i type="int" name="NSW">     0</i>
   <i type="int" name="IBRION">    -1</i>
   <i type="int" name="ISIF">     3</i>
   <i name="PSTRESS">      0.00000000</i>
   <i name="EDIFFG">      0.00100000</i>
   <i type="int" name="NFREE">     1</i>
   <i name="POTIM">      0.50000000</i>
   <i name="SMASS">     -3.00000000</i>
   <i name="SCALEE">      1.00000000</i>
  </separator>
  <separator name="ionic md" >
   <i name="TEBEG">      0.00010000</i>
   <i name="TEEND">      0.00010000</i>
   <i type="int" name="NBLOCK">     1</i>
   <i type="int" name="KBLOCK">     1</i>
   <i type="int" name="NPACO">   256</i>
   <i name="APACO">     16.00000000</i>
  </separator>
  <separator name="symmetry" >
   <i type="int" name="ISYM">     2</i>
   <i name="SYMPREC">      0.00001000</i>
  </separator>
  <separator name="dos" >
   <i type="logical" name="LORBIT"> F  </i>
   <v name="RWIGS">     -1.00000000     -1.00000000     -1.00000000     -1.00000000</v>
   <i type="int" name="NEDOS">   301</i>
   <i name="EMIN">     10.00000000</i>
   <i name="EMAX">    -10.00000000</i>
   <i name="EFERMI">      0.00000000</i>
  </separator>
  <separator name="writing" >
   <i type="int" name="NWRITE">     2</i>
   <i type="logical" name="LWAVE"> F  </i>
   <i type="logical" name="LCHARG"> F  </i>
   <i type="logical" name="LPARD"> F  </i>
   <i type="logical" name="LVTOT"> F  </i>
   <i type="logical" name="LVHAR"> T  </i>
   <i type="logical" name="LELF"> F  </i>
   <i type="logical" name="LOPTICS"> F  </i>
   <v name="STM">      0.00000000      0.00000000      0.00000000      0.00000000      0.00000000      0.00000000      0.00000000</v>
  </separator>
  <separator name="performance" >
   <i type="int" name="NPAR">     4</i>
   <i type="int" name="NSIM">     4</i>
   <i type="int" name="NBLK">    -1</i>
   <i type="logical" name="LPLANE"> T  </i>
   <i type="logical" name="LSCALAPACK"> T  </i>
   <i type="logical" name="LSCAAWARE"> F  </i>
   <i type="logical" name="LSCALU"> F  </i>
   <i type="logical" name="LASYNC"> F  </i>
   <i type="logical" name="LORBITALREAL"> F  </i>
  </separator>
  <separator name="miscellaneous" >
   <i type="int" name="IDIOT">     3</i>
   <i type="logical" name="LMUSIC"> F  </i>
   <v name="POMASS">     95.94000000     32.06600000     95.94000000     32.06600000</v>
   <v name="DARWINR">      0.00000000      0.00000000      0.00000000      0.00000000</v>
   <v name="DARWINV">      1.00000000      1.00000000      1.00000000      1.00000000</v>
   <i type="logical" name="LCORR"> T  </i>
  </separator>
  <i type="logical" name="GGA_COMPAT"> T  </i>
  <i type="logical" name="LBERRY"> F  </i>
  <i type="int" name="ICORELEVEL">     0</i>
  <i type="logical" name="LDAU"> F  </i>
  <i type="int" name="I_CONSTRAINED_M">     0</i>
  <separator name="electronic exchange-correlation" >
   <i type="string" name="GGA">BO</i>
   <i type="int" name="VOSKOWN">     0</i>
   <i type="logical" name="LHFCALC"> F  </i>
   <i type="string" name="PRECFOCK"></i>
   <i type="logical" name="LSYMGRAD"> F  </i>
   <i type="logical" name="LHFONE"> F  </i>
   <i type="logical" name="LRHFCALC"> F  </i>
   <i type="logical" name="LTHOMAS"> F  </i>
   <i type="logical" name="LMODELHF"> F  </i>
   <i name="ENCUT4O">     -1.00000000</i>
   <i type="int" name="EXXOEP">     0</i>
   <i type="int" name="FOURORBIT">     0</i>
   <i name="AEXX">      0.00000000</i>
   <i name="HFALPHA">      0.00000000</i>
   <i name="MCALPHA">      0.00000000</i>
   <i name="ALDAX">      1.00000000</i>
   <i name="AGGAX">      1.00000000</i>
   <i name="ALDAC">      1.00000000</i>
   <i name="AGGAC">      0.00000000</i>
   <i type="int" name="NKREDX">     1</i>
   <i type="int" name="NKREDY">     1</i>
   <i type="int" name="NKREDZ">     1</i>
   <i type="logical" name="SHIFTRED"> F  </i>
   <i type="logical" name="ODDONLY"> F  </i>
   <i type="logical" name="EVENONLY"> F  </i>
   <i type="int" name="LMAXFOCK">     0</i>
   <i type="int" name="NMAXFOCKAE">     0</i>
   <i type="logical" name="LFOCKAEDFT"> F  </i>
   <i name="HFSCREEN">      0.00000000</i>
   <i name="HFSCREENC">      0.00000000</i>
   <i type="int" name="NBANDSGWLOW">     0</i>
  </separator>
  <separator name="vdW DFT" >
   <i type="logical" name="LUSE_VDW"> T  </i>
   <i name="Zab_VDW">     -0.84910000</i>
   <i name="PARAM1">      0.18333333</i>
   <i name="PARAM2">      0.22000000</i>
   <i name="PARAM3">      0.00000000</i>
  </separator>
  <separator name="model GW" >
   <i type="int" name="MODEL_GW">     0</i>
   <i name="MODEL_EPS0">     20.39722663</i>
   <i name="MODEL_ALPHA">      1.00000000</i>
  </separator>
  <separator name="linear response parameters" >
   <i type="logical" name="LEPSILON"> F  </i>
   <i type="logical" name="LRPA"> F  </i>
   <i type="logical" name="LNABLA"> F  </i>
   <i type="logical" name="LVEL"> F  </i>
   <i type="int" name="KINTER">     0</i>
   <i name="CSHIFT">      0.10000000</i>
   <i name="OMEGAMAX">     -1.00000000</i>
   <i name="DEG_THRESHOLD">      0.00200000</i>
  </separator>
  <separator name="orbital magnetization" >
   <i type="logical" name="NUCIND"> F  </i>
   <v name="MAGPOS">      0.00000000      0.00000000      0.00000000</v>
   <i type="logical" name="LNICSALL"> T  </i>
   <i type="logical" name="ORBITALMAG"> F  </i>
   <i type="logical" name="LMAGBLOCH"> F  </i>
   <i type="logical" name="LCHIMAG"> F  </i>
   <i type="logical" name="LGAUGE"> T  </i>
   <i type="int" name="MAGATOM">     0</i>
   <v name="MAGDIPOL">      0.00000000      0.00000000      0.00000000</v>
   <v name="AVECCONST">      0.00000000      0.00000000      0.00000000</v>
  </separator>
  <separator name="response functions" >
   <i type="logical" name="LADDER"> F  </i>
   <i type="logical" name="LFXC"> F  </i>
   <i type="logical" name="LHARTREE"> T  </i>
   <i type="int" name="IBSE">     0</i>
   <v type="int" name="KPOINT">    -1     0     0     0</v>
   <i type="logical" name="LTCTE"> F  </i>
   <i type="logical" name="LTETE"> F  </i>
   <i type="logical" name="LTRIPLET"> F  </i>
   <i type="logical" name="LFXCEPS"> F  </i>
   <i type="logical" name="LFXHEG"> F  </i>
   <i type="int" name="NATURALO">     0</i>
   <i type="logical" name="L2ORDER"> F  </i>
   <i type="logical" name="LUSEW"> F  </i>
   <i name="ENCUTGW">     -2.00000000</i>
   <i name="ENCUTGWSOFT">     -2.00000000</i>
   <i name="ENCUTLF">     -1.00000000</i>
   <i type="int" name="LMAXMP2">    -1</i>
   <i name="SCISSOR">      0.00000000</i>
   <i type="int" name="NOMEGA">     0</i>
   <i type="int" name="NOMEGAR">     0</i>
   <i type="int" name="NBANDSGW">    -1</i>
   <i type="int" name="NBANDSO">    -1</i>
   <i type="int" name="NBANDSV">    -1</i>
   <i type="int" name="NELM">     1</i>
   <i type="int" name="NELMHF">     1</i>
   <i type="int" name="DIM">     3</i>
   <i type="int" name="ANTIRES">     0</i>
   <i name="OMEGAMAX">    -30.00000000</i>
   <i name="OMEGAMIN">    -30.00000000</i>
   <i name="OMEGATL">   -200.00000000</i>
   <i type="int" name="OMEGAGRID">     0</i>
   <i name="CSHIFT">     -0.10000000</i>
   <i type="logical" name="SELFENERGY"> F  </i>
   <i type="logical" name="LSPECTRAL"> F  </i>
   <i type="logical" name="LSPECTRALGW"> F  </i>
   <i type="logical" name="LSINGLES"> F  </i>
   <i type="logical" name="LFERMIGW"> F  </i>
   <i type="logical" name="ODDONLYGW"> F  </i>
   <i type="logical" name="EVENONLYGW"> F  </i>
   <i type="int" name="NKREDLFX">     1</i>
   <i type="int" name="NKREDLFY">     1</i>
   <i type="int" name="NKREDLFZ">     1</i>
   <i type="int" name="MAXMEM">  1800</i>
   <i type="int" name="TELESCOPE">     0</i>
   <i type="int" name="TAUPAR">     1</i>
   <i type="int" name="OMEGAPAR">    -1</i>
   <i name="LAMBDA">      1.00000000</i>
  </separator>
  <separator name="External order field" >
   <i name="OFIELD_KAPPA">      0.00000000</i>
   <v name="OFIELD_K">      0.00000000      0.00000000      0.00000000</v>
   <i name="OFIELD_Q6_NEAR">      0.00000000</i>
   <i name="OFIELD_Q6_FAR">      0.00000000</i>
   <i name="OFIELD_A">      0.00000000</i>
  </separator>
 </parameters>
 <atominfo>
  <atoms>       6 </atoms>
  <types>       4 </types>
  <array name="atoms" >
   <dimension dim="1">ion</dimension>
   <field type="string">element</field>
   <field type="int">atomtype</field>
   <set>
    <rc><c>Mo</c><c>   1</c></rc>
    <rc><c>S </c><c>   2</c></rc>
    <rc><c>S </c><c>   2</c></rc>
    <rc><c>Mo</c><c>   3</c></rc>
    <rc><c>S </c><c>   4</c></rc>
    <rc><c>S </c><c>   4</c></rc>
   </set>
  </array>
  <array name="atomtypes" >
   <dimension dim="1">type</dimension>
   <field type="int">atomspertype</field>
   <field type="string">element</field>
   <field>mass</field>
   <field>valence</field>
   <field type="string">pseudopotential</field>
   <set>
    <rc><c>   1</c><c>Mo</c><c>     95.94000000</c><c>     12.00000000</c><c> PAW_PBE Mo_pv 08Apr2002                </c></rc>
    <rc><c>   2</c><c>S </c><c>     32.06600000</c><c>      6.00000000</c><c>  PAW_PBE S 17Jan2003                   </c></rc>
    <rc><c>   1</c><c>Mo</c><c>     95.94000000</c><c>     12.00000000</c><c> PAW_PBE Mo_pv 08Apr2002                </c></rc>
    <rc><c>   2</c><c>S </c><c>     32.06600000</c><c>      6.00000000</c><c>  PAW_PBE S 17Jan2003                   </c></rc>
   </set>
  </array>
 </atominfo>
 <structure name="initialpos" >
  <crystal>
   <varray name="basis" >
    <v>       3.19031700       0.00000000       0.00000000 </v>
    <v>      -1.59515800       2.76289700       0.00000000 </v>
    <v>       0.00000000       0.00000000      23.14049200 </v>
   </varray>
   <i name="volume">    203.97226633 </i>
   <varray name="rec_basis" >
    <v>       0.31344848       0.18096941       0.00000000 </v>
    <v>       0.00000000       0.36193894       0.00000000 </v>
    <v>       0.00000000       0.00000000       0.04321429 </v>
   </varray>
  </crystal>
  <varray name="positions" >
   <v>       0.66666700       0.33333300       0.06785900 </v>
   <v>       0.33333300       0.66666700       0.00000000 </v>
   <v>       0.33333300       0.66666700       0.13571500 </v>
   <v>       0.52380986       0.76190443       0.35482300 </v>
   <v>       0.19047586       0.09523843       0.28696500 </v>
   <v>       0.19047586       0.09523843       0.42267900 </v>
  </varray>
 </structure>
 <calculation>
  <scstep>
   <time name="dav">   61.95   62.01</time>
   <time name="total">   81.45   81.54</time>
   <energy>
    <i name="alphaZ">    104.15310261 </i>
    <i name="ewald">   7698.97301231 </i>
    <i name="hartreedc"> -11109.03089428 </i>
    <i name="XCdc">    128.46244779 </i>
    <i name="pawpsdc">   2252.92270536 </i>
    <i name="pawaedc">  -2205.68654582 </i>
    <i name="eentropy">     -0.00226884 </i>
    <i name="bandstr">   -160.94249369 </i>
    <i name="atom">   3688.31848598 </i>
    <i name="e_fr_energy">    397.16755142 </i>
    <i name="e_wo_entrp">    397.16982025 </i>
    <i name="e_0_energy">    397.16830770 </i>
   </energy>
  </scstep>
  <scstep>
   <time name="dav">   66.86   66.93</time>
   <time name="total">   66.87   66.94</time>
   <energy>
    <i name="e_fr_energy">     -1.64673387 </i>
    <i name="e_wo_entrp">     -1.64513221 </i>
    <i name="e_0_energy">     -1.64619998 </i>
   </energy>
  </scstep>
  <scstep>
   <time name="dav">   68.62   68.68</time>
   <time name="total">   68.63   68.69</time>
   <energy>
    <i name="e_fr_energy">    -32.97717389 </i>
    <i name="e_wo_entrp">    -32.97787744 </i>
    <i name="e_0_energy">    -32.97740841 </i>
   </energy>
  </scstep>
  <scstep>
   <time name="dav">   65.99   66.05</time>
   <time name="total">   65.99   66.06</time>
   <energy>
    <i name="e_fr_energy">    -33.85035876 </i>
    <i name="e_wo_entrp">    -33.85173981 </i>
    <i name="e_0_energy">    -33.85081911 </i>
   </energy>
  </scstep>
  <scstep>
   <time name="dav">   68.80   68.87</time>
   <time name="total">   74.21   74.28</time>
   <energy>
    <i name="e_fr_energy">    -33.87720743 </i>
    <i name="e_wo_entrp">    -33.87863907 </i>
    <i name="e_0_energy">    -33.87768464 </i>
   </energy>
  </scstep>
  <scstep>
   <time name="diag">   12.75   12.76</time>
   <time name="diis">   45.79   45.83</time>
   <time name="orth">    0.42    0.42</time>
   <time name="total">   83.12   83.19</time>
   <energy>
    <i name="e_fr_energy">    -30.11076898 </i>
    <i name="e_wo_entrp">    -30.11026006 </i>
    <i name="e_0_energy">    -30.11059934 </i>
   </energy>
  </scstep>
  <scstep>
   <time name="diag">   12.76   12.77</time>
   <time name="diis">   44.87   44.92</time>
   <time name="orth">    0.42    0.42</time>
   <time name="total">   82.05   82.12</time>
   <energy>
    <i name="e_fr_energy">    -32.94888703 </i>
    <i name="e_wo_entrp">    -32.94906182 </i>
    <i name="e_0_energy">    -32.94894529 </i>
   </energy>
  </scstep>
  <scstep>
   <time name="diag">   12.65   12.66</time>
   <time name="diis">   47.72   47.76</time>
   <time name="orth">    0.42    0.42</time>
   <time name="total">   84.82   84.90</time>
   <energy>
    <i name="e_fr_energy">    -34.36296337 </i>
    <i name="e_wo_entrp">    -34.36312965 </i>
    <i name="e_0_energy">    -34.36301879 </i>
   </energy>
  </scstep>
  <scstep>
   <time name="diag">   12.73   12.74</time>
   <time name="diis">   44.57   44.61</time>
   <time name="orth">    0.42    0.42</time>
   <time name="total">   81.92   82.00</time>
   <energy>
    <i name="e_fr_energy">    -37.08310972 </i>
    <i name="e_wo_entrp">    -37.08327733 </i>
    <i name="e_0_energy">    -37.08316559 </i>
   </energy>
  </scstep>
  <scstep>
   <time name="diag">   12.84   12.85</time>
   <time name="diis">   41.13   41.17</time>
   <time name="orth">    0.42    0.42</time>
   <time name="total">   78.57   78.64</time>
   <energy>
    <i name="e_fr_energy">    -39.09064572 </i>
    <i name="e_wo_entrp">    -39.09081380 </i>
    <i name="e_0_energy">    -39.09070175 </i>
   </energy>
  </scstep>
  <scstep>
   <time name="diag">   12.94   12.95</time>
   <time name="diis">   44.55   44.59</time>
   <time name="orth">    0.42    0.42</time>
   <time name="total">   82.23   82.31</time>
   <energy>
    <i name="e_fr_energy">    -39.38742108 </i>
    <i name="e_wo_entrp">    -39.38775543 </i>
    <i name="e_0_energy">    -39.38753253 </i>
   </energy>
  </scstep>
  <scstep>
   <time name="diag">   12.74   12.75</time>
   <time name="diis">   49.48   49.52</time>
   <time name="orth">    0.42    0.42</time>
   <time name="total">   86.94   87.09</time>
   <energy>
    <i name="e_fr_energy">    -39.43969419 </i>
    <i name="e_wo_entrp">    -39.44002592 </i>
    <i name="e_0_energy">    -39.43980476 </i>
   </energy>
  </scstep>
  <scstep>
   <time name="diag">   12.80   12.81</time>
   <time name="diis">   44.10   44.14</time>
   <time name="orth">    0.43    0.43</time>
   <time name="total">   81.62   81.70</time>
   <energy>
    <i name="e_fr_energy">    -39.42209862 </i>
    <i name="e_wo_entrp">    -39.42243282 </i>
    <i name="e_0_energy">    -39.42221002 </i>
   </energy>
  </scstep>
  <scstep>
   <time name="diag">   12.82   12.83</time>
   <time name="diis">   45.50   45.53</time>
   <time name="orth">    0.42    0.42</time>
   <time name="total">   83.12   83.22</time>
   <energy>
    <i name="e_fr_energy">    -39.42714323 </i>
    <i name="e_wo_entrp">    -39.42747847 </i>
    <i name="e_0_energy">    -39.42725497 </i>
   </energy>
  </scstep>
  <scstep>
   <time name="diag">   12.81   12.82</time>
   <time name="diis">   43.34   43.38</time>
   <time name="orth">    0.42    0.43</time>
   <time name="total">   75.15   75.22</time>
   <energy>
    <i name="alphaZ">    104.15310261 </i>
    <i name="ewald">   7698.97301231 </i>
    <i name="hartreedc"> -11093.61046164 </i>
    <i name="XCdc">    122.66464412 </i>
    <i name="pawpsdc">   2398.14475370 </i>
    <i name="pawaedc">  -2360.29853616 </i>
    <i name="eentropy">      0.00033528 </i>
    <i name="bandstr">   -597.77242701 </i>
    <i name="atom">   3688.31848598 </i>
    <i name="e_fr_energy">    -39.42709082 </i>
    <i name="e_wo_entrp">    -39.42742610 </i>
    <i name="e_0_energy">    -39.42720258 </i>
   </energy>
  </scstep>
  <structure>
   <crystal>
    <varray name="basis" >
     <v>       3.19031700       0.00000000       0.00000000 </v>
     <v>      -1.59515800       2.76289700       0.00000000 </v>
     <v>       0.00000000       0.00000000      23.14049200 </v>
    </varray>
    <i name="volume">    203.97226633 </i>
    <varray name="rec_basis" >
     <v>       0.31344848       0.18096941       0.00000000 </v>
     <v>       0.00000000       0.36193894       0.00000000 </v>
     <v>       0.00000000       0.00000000       0.04321429 </v>
    </varray>
   </crystal>
   <varray name="positions" >
    <v>       0.66666700       0.33333300       0.06785900 </v>
    <v>       0.33333300       0.66666700       0.00000000 </v>
    <v>       0.33333300       0.66666700       0.13571500 </v>
    <v>       0.52380986       0.76190443       0.35482300 </v>
    <v>       0.19047586       0.09523843       0.28696500 </v>
    <v>       0.19047586       0.09523843       0.42267900 </v>
   </varray>
  </structure>
  <varray name="forces" >
   <v>       0.00027255       0.00015736       0.00297844 </v>
   <v>       0.00092117       0.00053184      -0.05260101 </v>
   <v>       0.00507403       0.00292949       0.12602711 </v>
   <v>      -0.00363405      -0.00209812       0.00277915 </v>
   <v>      -0.00363988      -0.00210149      -0.13834180 </v>
   <v>       0.00100617       0.00058092       0.05915810 </v>
  </varray>
  <varray name="stress" >
   <v>       3.58458479      -0.22620485      -0.20757661 </v>
   <v>      -0.22620485       3.84578839      -0.11984446 </v>
   <v>      -0.20757650      -0.11984440      -0.71164694 </v>
  </varray>
  <energy>
   <i name="e_fr_energy">    -39.42709082 </i>
   <i name="e_wo_entrp">    -39.42720258 </i>
   <i name="e_0_energy">      0.00033528 </i>
  </energy>
  <time name="totalsc"> 1304.30 1305.67</time>
  <eigenvalues>
   <array>
    <dimension dim="1">band</dimension>
    <dimension dim="2">kpoint</dimension>
    <dimension dim="3">spin</dimension>
    <field>eigene</field>
    <field>occ</field>
    <set>
     <set comment="spin 1">
      <set comment="kpoint 1">
       <r>  -34.9769    1.0000 </r>
       <r>  -34.9698    1.0000 </r>
       <r>  -34.7857    1.0000 </r>
       <r>  -34.7856    1.0000 </r>
       <r>  -34.7787    1.0000 </r>
       <r>  -34.7787    1.0000 </r>
       <r>  -13.9546    1.0000 </r>
       <r>  -13.8986    1.0000 </r>
       <r>  -12.6881    1.0000 </r>
       <r>  -12.5957    1.0000 </r>
       <r>   -5.6649    1.0000 </r>
       <r>   -5.3802    1.0000 </r>
       <r>   -2.6061    1.0000 </r>
       <r>   -2.6056    1.0000 </r>
       <r>   -2.5958    1.0000 </r>
       <r>   -2.5952    1.0000 </r>
       <r>   -2.1523    1.0000 </r>
       <r>   -1.5137    1.0000 </r>
       <r>   -1.5120    1.0000 </r>
       <r>   -1.5016    1.0000 </r>
       <r>   -1.4998    1.0000 </r>
       <r>   -1.4578    1.0000 </r>
       <r>   -0.2015    1.0000 </r>
       <r>    0.2275    0.7933 </r>
       <r>    2.7049   -0.0000 </r>
       <r>    2.7187   -0.0000 </r>
       <r>    2.7305   -0.0000 </r>
       <r>    2.7405   -0.0000 </r>
       <r>    2.8863   -0.0000 </r>
       <r>    2.9009   -0.0000 </r>
       <r>    2.9135   -0.0000 </r>
       <r>    2.9321   -0.0000 </r>
       <r>    5.3222    0.0000 </r>
       <r>    5.7231    0.0000 </r>
       <r>    6.2570    0.0000 </r>
       <r>    6.5900    0.0000 </r>
      </set>
      <set comment="kpoint 2">
       <r>  -34.9728    1.0000 </r>
       <r>  -34.9657    1.0000 </r>
       <r>  -34.8068    1.0000 </r>
       <r>  -34.8000    1.0000 </r>
       <r>  -34.7905    1.0000 </r>
       <r>  -34.7836    1.0000 </r>
       <r>  -13.8679    1.0000 </r>
       <r>  -13.8121    1.0000 </r>
       <r>  -12.6515    1.0000 </r>
       <r>  -12.5613    1.0000 </r>
       <r>   -5.5657    1.0000 </r>
       <r>   -5.2813    1.0000 </r>
       <r>   -2.7927    1.0000 </r>
       <r>   -2.7823    1.0000 </r>
       <r>   -2.5155    1.0000 </r>
       <r>   -2.5043    1.0000 </r>
       <r>   -2.4390    1.0000 </r>
       <r>   -2.0544    1.0000 </r>
       <r>   -1.6514    1.0000 </r>
       <r>   -1.6370    1.0000 </r>
       <r>   -1.3433    1.0000 </r>
       <r>   -1.0500    1.0000 </r>
       <r>   -0.2233    1.0000 </r>
       <r>    0.1548    1.0327 </r>
       <r>    2.5959   -0.0000 </r>
       <r>    2.6262   -0.0000 </r>
       <r>    2.6560   -0.0000 </r>
       <r>    2.7387   -0.0000 </r>
       <r>    2.7823   -0.0000 </r>
       <r>    2.8316   -0.0000 </r>
       <r>    2.8598   -0.0000 </r>
       <r>    2.8959   -0.0000 </r>
       <r>    5.4507    0.0000 </r>
       <r>    5.8684    0.0000 </r>
       <r>    6.5961    0.0000 </r>
       <r>    6.9608    0.0000 </r>
      </set>
      <set comment="kpoint 3">
       <r>  -34.9614    1.0000 </r>
       <r>  -34.9543    1.0000 </r>
       <r>  -34.8653    1.0000 </r>
       <r>  -34.8584    1.0000 </r>
       <r>  -34.8039    1.0000 </r>
       <r>  -34.7970    1.0000 </r>
       <r>  -13.6194    1.0000 </r>
       <r>  -13.5642    1.0000 </r>
       <r>  -12.5467    1.0000 </r>
       <r>  -12.4628    1.0000 </r>
       <r>   -5.3056    1.0000 </r>
       <r>   -5.0271    1.0000 </r>
       <r>   -3.2449    1.0000 </r>
       <r>   -3.2282    1.0000 </r>
       <r>   -2.9397    1.0000 </r>
       <r>   -2.6697    1.0000 </r>
       <r>   -2.2605    1.0000 </r>
       <r>   -2.2480    1.0000 </r>
       <r>   -1.9869    1.0000 </r>
       <r>   -1.9715    1.0000 </r>
       <r>   -1.2629    1.0000 </r>
       <r>   -0.9158    1.0000 </r>
       <r>   -0.3561    1.0000 </r>
       <r>   -0.1137    1.0000 </r>
       <r>    2.1801   -0.0000 </r>
       <r>    2.3808   -0.0000 </r>
       <r>    2.5115   -0.0000 </r>
       <r>    2.5589   -0.0000 </r>
       <r>    2.6085   -0.0000 </r>
       <r>    2.6453   -0.0000 </r>
       <r>    3.1994    0.0000 </r>
       <r>    3.2433    0.0000 </r>
       <r>    5.8010    0.0000 </r>
       <r>    6.2210    0.0000 </r>
       <r>    6.8934    0.0000 </r>
       <r>    7.7995    0.0000 </r>
      </set>
      <set comment="kpoint 4">
       <r>  -34.9468    1.0000 </r>
       <r>  -34.9453    1.0000 </r>
       <r>  -34.9400    1.0000 </r>
       <r>  -34.9381    1.0000 </r>
       <r>  -34.8228    1.0000 </r>
       <r>  -34.8158    1.0000 </r>
       <r>  -13.2444    1.0000 </r>
       <r>  -13.1908    1.0000 </r>
       <r>  -12.3894    1.0000 </r>
       <r>  -12.3151    1.0000 </r>
       <r>   -5.0417    1.0000 </r>
       <r>   -4.8101    1.0000 </r>
       <r>   -3.7153    1.0000 </r>
       <r>   -3.6500    1.0000 </r>
       <r>   -3.4721    1.0000 </r>
       <r>   -3.2870    1.0000 </r>
       <r>   -2.3826    1.0000 </r>
       <r>   -2.3660    1.0000 </r>
       <r>   -1.8924    1.0000 </r>
       <r>   -1.8766    1.0000 </r>
       <r>   -1.4432    1.0000 </r>
       <r>   -1.0987    1.0000 </r>
       <r>   -0.6774    1.0000 </r>
       <r>   -0.5554    1.0000 </r>
       <r>    1.9535   -0.0000 </r>
       <r>    2.2546   -0.0000 </r>
       <r>    2.3109   -0.0000 </r>
       <r>    2.3576   -0.0000 </r>
       <r>    2.7071   -0.0000 </r>
       <r>    2.9212   -0.0000 </r>
       <r>    3.5766    0.0000 </r>
       <r>    3.6331    0.0000 </r>
       <r>    6.3488    0.0000 </r>
       <r>    6.7150    0.0000 </r>
       <r>    7.3339    0.0000 </r>
       <r>    8.1860    0.0000 </r>
      </set>
      <set comment="kpoint 5">
       <r>  -35.0321    1.0000 </r>
       <r>  -35.0252    1.0000 </r>
       <r>  -34.9282    1.0000 </r>
       <r>  -34.9211    1.0000 </r>
       <r>  -34.8427    1.0000 </r>
       <r>  -34.8357    1.0000 </r>
       <r>  -12.8044    1.0000 </r>
       <r>  -12.7541    1.0000 </r>
       <r>  -12.2077    1.0000 </r>
       <r>  -12.1450    1.0000 </r>
       <r>   -5.0966    1.0000 </r>
       <r>   -4.9781    1.0000 </r>
       <r>   -4.0468    1.0000 </r>
       <r>   -3.9034    1.0000 </r>
       <r>   -3.8645    1.0000 </r>
       <r>   -3.7142    1.0000 </r>
       <r>   -2.7382    1.0000 </r>
       <r>   -2.7209    1.0000 </r>
       <r>   -1.7222    1.0000 </r>
       <r>   -1.4994    1.0000 </r>
       <r>   -1.4770    1.0000 </r>
       <r>   -1.3889    1.0000 </r>
       <r>   -0.9703    1.0000 </r>
       <r>   -0.8800    1.0000 </r>
       <r>    2.0517   -0.0000 </r>
       <r>    2.1461   -0.0000 </r>
       <r>    2.1839   -0.0000 </r>
       <r>    2.3328   -0.0000 </r>
       <r>    3.1112    0.0000 </r>
       <r>    3.3717    0.0000 </r>
       <r>    3.8738    0.0000 </r>
       <r>    3.9461    0.0000 </r>
       <r>    7.0341    0.0000 </r>
       <r>    7.2762    0.0000 </r>
       <r>    7.8328    0.0000 </r>
       <r>    8.0729    0.0000 </r>
      </set>
      <set comment="kpoint 6">
       <r>  -35.1018    1.0000 </r>
       <r>  -35.0949    1.0000 </r>
       <r>  -34.9140    1.0000 </r>
       <r>  -34.9069    1.0000 </r>
       <r>  -34.8591    1.0000 </r>
       <r>  -34.8522    1.0000 </r>
       <r>  -12.3940    1.0000 </r>
       <r>  -12.3484    1.0000 </r>
       <r>  -12.0427    1.0000 </r>
       <r>  -11.9913    1.0000 </r>
       <r>   -5.4158    1.0000 </r>
       <r>   -5.3467    1.0000 </r>
       <r>   -4.4664    1.0000 </r>
       <r>   -4.3590    1.0000 </r>
       <r>   -3.9598    1.0000 </r>
       <r>   -3.7827    1.0000 </r>
       <r>   -2.9982    1.0000 </r>
       <r>   -2.9804    1.0000 </r>
       <r>   -1.9374    1.0000 </r>
       <r>   -1.6143    1.0000 </r>
       <r>   -1.1858    1.0000 </r>
       <r>   -1.1540    1.0000 </r>
       <r>   -0.9275    1.0000 </r>
       <r>   -0.8166    1.0000 </r>
       <r>    2.1068   -0.0000 </r>
       <r>    2.1312   -0.0000 </r>
       <r>    2.3179   -0.0000 </r>
       <r>    2.5073   -0.0000 </r>
       <r>    3.4917    0.0000 </r>
       <r>    3.7704    0.0000 </r>
       <r>    4.0573    0.0000 </r>
       <r>    4.1441    0.0000 </r>
       <r>    6.7894    0.0000 </r>
       <r>    7.2107    0.0000 </r>
       <r>    7.6903    0.0000 </r>
       <r>    7.9638    0.0000 </r>
      </set>
      <set comment="kpoint 7">
       <r>  -35.1408    1.0000 </r>
       <r>  -35.1339    1.0000 </r>
       <r>  -34.9059    1.0000 </r>
       <r>  -34.8988    1.0000 </r>
       <r>  -34.8684    1.0000 </r>
       <r>  -34.8614    1.0000 </r>
       <r>  -12.1371    1.0000 </r>
       <r>  -12.0954    1.0000 </r>
       <r>  -11.9419    1.0000 </r>
       <r>  -11.8982    1.0000 </r>
       <r>   -5.6574    1.0000 </r>
       <r>   -5.5973    1.0000 </r>
       <r>   -4.7185    1.0000 </r>
       <r>   -4.6246    1.0000 </r>
       <r>   -4.0624    1.0000 </r>
       <r>   -3.8944    1.0000 </r>
       <r>   -3.1343    1.0000 </r>
       <r>   -3.1162    1.0000 </r>
       <r>   -2.0423    1.0000 </r>
       <r>   -1.7267    1.0000 </r>
       <r>   -1.0215    1.0000 </r>
       <r>   -0.9824    1.0000 </r>
       <r>   -0.7109    1.0000 </r>
       <r>   -0.5837    1.0000 </r>
       <r>    2.1370   -0.0000 </r>
       <r>    2.1511   -0.0000 </r>
       <r>    2.5684   -0.0000 </r>
       <r>    2.6614   -0.0000 </r>
       <r>    3.6887    0.0000 </r>
       <r>    3.9794    0.0000 </r>
       <r>    4.1400    0.0000 </r>
       <r>    4.2353    0.0000 </r>
       <r>    5.9988    0.0000 </r>
       <r>    6.5623    0.0000 </r>
       <r>    7.9825    0.0000 </r>
       <r>    8.0073    0.0000 </r>
      </set>
      <set comment="kpoint 8">
       <r>  -34.9728    1.0000 </r>
       <r>  -34.9657    1.0000 </r>
       <r>  -34.8069    1.0000 </r>
       <r>  -34.8000    1.0000 </r>
       <r>  -34.7905    1.0000 </r>
       <r>  -34.7836    1.0000 </r>
       <r>  -13.8678    1.0000 </r>
       <r>  -13.8122    1.0000 </r>
       <r>  -12.6513    1.0000 </r>
       <r>  -12.5615    1.0000 </r>
       <r>   -5.5654    1.0000 </r>
       <r>   -5.2816    1.0000 </r>
       <r>   -2.7929    1.0000 </r>
       <r>   -2.7821    1.0000 </r>
       <r>   -2.5150    1.0000 </r>
       <r>   -2.5050    1.0000 </r>
       <r>   -2.4400    1.0000 </r>
       <r>   -2.0544    1.0000 </r>
       <r>   -1.6497    1.0000 </r>
       <r>   -1.6388    1.0000 </r>
       <r>   -1.3332    1.0000 </r>
       <r>   -1.0581    1.0000 </r>
       <r>   -0.2220    1.0000 </r>
       <r>    0.1483    1.0349 </r>
       <r>    2.6125   -0.0000 </r>
       <r>    2.6240   -0.0000 </r>
       <r>    2.6685   -0.0000 </r>
       <r>    2.7129   -0.0000 </r>
       <r>    2.8045   -0.0000 </r>
       <r>    2.8229   -0.0000 </r>
       <r>    2.8662   -0.0000 </r>
       <r>    2.8796   -0.0000 </r>
       <r>    5.4508    0.0000 </r>
       <r>    5.8684    0.0000 </r>
       <r>    6.5804    0.0000 </r>
       <r>    6.9624    0.0000 </r>
      </set>
      <set comment="kpoint 9">
       <r>  -34.9651    1.0000 </r>
       <r>  -34.9580    1.0000 </r>
       <r>  -34.8458    1.0000 </r>
       <r>  -34.8389    1.0000 </r>
       <r>  -34.8006    1.0000 </r>
       <r>  -34.7936    1.0000 </r>
       <r>  -13.7002    1.0000 </r>
       <r>  -13.6449    1.0000 </r>
       <r>  -12.5805    1.0000 </r>
       <r>  -12.4950    1.0000 </r>
       <r>   -5.3838    1.0000 </r>
       <r>   -5.1024    1.0000 </r>
       <r>   -3.1060    1.0000 </r>
       <r>   -3.0956    1.0000 </r>
       <r>   -2.7778    1.0000 </r>
       <r>   -2.4683    1.0000 </r>
       <r>   -2.3471    1.0000 </r>
       <r>   -2.3364    1.0000 </r>
       <r>   -1.9628    1.0000 </r>
       <r>   -1.9518    1.0000 </r>
       <r>   -1.1799    1.0000 </r>
       <r>   -0.8707    1.0000 </r>
       <r>   -0.2982    1.0000 </r>
       <r>   -0.0236    1.0002 </r>
       <r>    2.3087   -0.0000 </r>
       <r>    2.4376   -0.0000 </r>
       <r>    2.4758   -0.0000 </r>
       <r>    2.5611   -0.0000 </r>
       <r>    2.6412   -0.0000 </r>
       <r>    2.6604   -0.0000 </r>
       <r>    3.1428    0.0000 </r>
       <r>    3.1620    0.0000 </r>
       <r>    5.6871    0.0000 </r>
       <r>    6.1126    0.0000 </r>
       <r>    6.9357    0.0000 </r>
       <r>    7.6106    0.0000 </r>
      </set>
      <set comment="kpoint 10">
       <r>  -34.9513    1.0000 </r>
       <r>  -34.9442    1.0000 </r>
       <r>  -34.9134    1.0000 </r>
       <r>  -34.9065    1.0000 </r>
       <r>  -34.8191    1.0000 </r>
       <r>  -34.8121    1.0000 </r>
       <r>  -13.3878    1.0000 </r>
       <r>  -13.3337    1.0000 </r>
       <r>  -12.4488    1.0000 </r>
       <r>  -12.3713    1.0000 </r>
       <r>   -5.1046    1.0000 </r>
       <r>   -4.8436    1.0000 </r>
       <r>   -3.5517    1.0000 </r>
       <r>   -3.5230    1.0000 </r>
       <r>   -3.2138    1.0000 </r>
       <r>   -2.9881    1.0000 </r>
       <r>   -2.4479    1.0000 </r>
       <r>   -2.4266    1.0000 </r>
       <r>   -2.0636    1.0000 </r>
       <r>   -2.0508    1.0000 </r>
       <r>   -1.1661    1.0000 </r>
       <r>   -0.8714    1.0000 </r>
       <r>   -0.5316    1.0000 </r>
       <r>   -0.3870    1.0000 </r>
       <r>    1.9655   -0.0000 </r>
       <r>    2.1996   -0.0000 </r>
       <r>    2.4174   -0.0000 </r>
       <r>    2.4238   -0.0000 </r>
       <r>    2.4881   -0.0000 </r>
       <r>    2.6472   -0.0000 </r>
       <r>    3.5571    0.0000 </r>
       <r>    3.5702    0.0000 </r>
       <r>    6.1398    0.0000 </r>
       <r>    6.5379    0.0000 </r>
       <r>    7.1879    0.0000 </r>
       <r>    8.2263    0.0000 </r>
      </set>
      <set comment="kpoint 11">
       <r>  -34.9937    1.0000 </r>
       <r>  -34.9868    1.0000 </r>
       <r>  -34.9347    1.0000 </r>
       <r>  -34.9276    1.0000 </r>
       <r>  -34.8415    1.0000 </r>
       <r>  -34.8345    1.0000 </r>
       <r>  -12.9781    1.0000 </r>
       <r>  -12.9266    1.0000 </r>
       <r>  -12.2773    1.0000 </r>
       <r>  -12.2105    1.0000 </r>
       <r>   -4.9806    1.0000 </r>
       <r>   -4.8131    1.0000 </r>
       <r>   -3.8640    1.0000 </r>
       <r>   -3.7436    1.0000 </r>
       <r>   -3.7059    1.0000 </r>
       <r>   -3.5790    1.0000 </r>
       <r>   -2.8426    1.0000 </r>
       <r>   -2.7892    1.0000 </r>
       <r>   -1.7815    1.0000 </r>
       <r>   -1.7650    1.0000 </r>
       <r>   -1.3853    1.0000 </r>
       <r>   -1.1135    1.0000 </r>
       <r>   -0.8362    1.0000 </r>
       <r>   -0.7643    1.0000 </r>
       <r>    1.8667   -0.0000 </r>
       <r>    2.0717   -0.0000 </r>
       <r>    2.3007   -0.0000 </r>
       <r>    2.3797   -0.0000 </r>
       <r>    2.7660   -0.0000 </r>
       <r>    2.9619   -0.0000 </r>
       <r>    3.9168    0.0000 </r>
       <r>    3.9279    0.0000 </r>
       <r>    6.7710    0.0000 </r>
       <r>    7.0897    0.0000 </r>
       <r>    7.7169    0.0000 </r>
       <r>    8.3363    0.0000 </r>
      </set>
      <set comment="kpoint 12">
       <r>  -35.0683    1.0000 </r>
       <r>  -35.0614    1.0000 </r>
       <r>  -34.9190    1.0000 </r>
       <r>  -34.9119    1.0000 </r>
       <r>  -34.8625    1.0000 </r>
       <r>  -34.8555    1.0000 </r>
       <r>  -12.5477    1.0000 </r>
       <r>  -12.5004    1.0000 </r>
       <r>  -12.1003    1.0000 </r>
       <r>  -12.0450    1.0000 </r>
       <r>   -5.2041    1.0000 </r>
       <r>   -5.1201    1.0000 </r>
       <r>   -4.2797    1.0000 </r>
       <r>   -4.1822    1.0000 </r>
       <r>   -3.8800    1.0000 </r>
       <r>   -3.7043    1.0000 </r>
       <r>   -3.0562    1.0000 </r>
       <r>   -3.0018    1.0000 </r>
       <r>   -1.6970    1.0000 </r>
       <r>   -1.6192    1.0000 </r>
       <r>   -1.5963    1.0000 </r>
       <r>   -1.4185    1.0000 </r>
       <r>   -0.8576    1.0000 </r>
       <r>   -0.8028    1.0000 </r>
       <r>    1.9783   -0.0000 </r>
       <r>    2.1060   -0.0000 </r>
       <r>    2.3347   -0.0000 </r>
       <r>    2.4462   -0.0000 </r>
       <r>    3.1921    0.0000 </r>
       <r>    3.3771    0.0000 </r>
       <r>    4.1179    0.0000 </r>
       <r>    4.1459    0.0000 </r>
       <r>    7.3521    0.0000 </r>
       <r>    7.5559    0.0000 </r>
       <r>    7.6074    0.0000 </r>
       <r>    8.1416    0.0000 </r>
      </set>
      <set comment="kpoint 13">
       <r>  -35.1207    1.0000 </r>
       <r>  -35.1137    1.0000 </r>
       <r>  -34.9079    1.0000 </r>
       <r>  -34.9008    1.0000 </r>
       <r>  -34.8774    1.0000 </r>
       <r>  -34.8704    1.0000 </r>
       <r>  -12.2060    1.0000 </r>
       <r>  -12.1636    1.0000 </r>
       <r>  -11.9629    1.0000 </r>
       <r>  -11.9174    1.0000 </r>
       <r>   -5.4877    1.0000 </r>
       <r>   -5.4258    1.0000 </r>
       <r>   -4.6671    1.0000 </r>
       <r>   -4.5887    1.0000 </r>
       <r>   -3.9848    1.0000 </r>
       <r>   -3.8112    1.0000 </r>
       <r>   -3.1437    1.0000 </r>
       <r>   -3.1079    1.0000 </r>
       <r>   -1.9317    1.0000 </r>
       <r>   -1.6582    1.0000 </r>
       <r>   -1.4744    1.0000 </r>
       <r>   -1.4522    1.0000 </r>
       <r>   -0.6468    1.0000 </r>
       <r>   -0.5723    1.0000 </r>
       <r>    2.1224   -0.0000 </r>
       <r>    2.1753   -0.0000 </r>
       <r>    2.5075   -0.0000 </r>
       <r>    2.6080   -0.0000 </r>
       <r>    3.5885    0.0000 </r>
       <r>    3.7323    0.0000 </r>
       <r>    4.1161    0.0000 </r>
       <r>    4.1911    0.0000 </r>
       <r>    6.4098    0.0000 </r>
       <r>    6.9560    0.0000 </r>
       <r>    8.0929    0.0000 </r>
       <r>    8.2471    0.0000 </r>
      </set>
      <set comment="kpoint 14">
       <r>  -35.1394    1.0000 </r>
       <r>  -35.1325    1.0000 </r>
       <r>  -34.9038    1.0000 </r>
       <r>  -34.8968    1.0000 </r>
       <r>  -34.8827    1.0000 </r>
       <r>  -34.8757    1.0000 </r>
       <r>  -12.0733    1.0000 </r>
       <r>  -12.0331    1.0000 </r>
       <r>  -11.9100    1.0000 </r>
       <r>  -11.8688    1.0000 </r>
       <r>   -5.6057    1.0000 </r>
       <r>   -5.5469    1.0000 </r>
       <r>   -4.8100    1.0000 </r>
       <r>   -4.7358    1.0000 </r>
       <r>   -4.0536    1.0000 </r>
       <r>   -3.8859    1.0000 </r>
       <r>   -3.1635    1.0000 </r>
       <r>   -3.1391    1.0000 </r>
       <r>   -2.0215    1.0000 </r>
       <r>   -1.7412    1.0000 </r>
       <r>   -1.4097    1.0000 </r>
       <r>   -1.3820    1.0000 </r>
       <r>   -0.5167    1.0000 </r>
       <r>   -0.4261    1.0000 </r>
       <r>    2.1567   -0.0000 </r>
       <r>    2.1762   -0.0000 </r>
       <r>    2.6529   -0.0000 </r>
       <r>    2.7291   -0.0000 </r>
       <r>    3.8221    0.0000 </r>
       <r>    3.9114    0.0000 </r>
       <r>    4.0058    0.0000 </r>
       <r>    4.1331    0.0000 </r>
       <r>    5.9699    0.0000 </r>
       <r>    6.5776    0.0000 </r>
       <r>    8.3520    0.0000 </r>
       <r>    8.4474    0.0000 </r>
      </set>
      <set comment="kpoint 15">
       <r>  -34.9614    1.0000 </r>
       <r>  -34.9543    1.0000 </r>
       <r>  -34.8654    1.0000 </r>
       <r>  -34.8585    1.0000 </r>
       <r>  -34.8039    1.0000 </r>
       <r>  -34.7970    1.0000 </r>
       <r>  -13.6190    1.0000 </r>
       <r>  -13.5646    1.0000 </r>
       <r>  -12.5460    1.0000 </r>
       <r>  -12.4636    1.0000 </r>
       <r>   -5.3044    1.0000 </r>
       <r>   -5.0280    1.0000 </r>
       <r>   -3.2418    1.0000 </r>
       <r>   -3.2309    1.0000 </r>
       <r>   -2.9407    1.0000 </r>
       <r>   -2.6702    1.0000 </r>
       <r>   -2.2595    1.0000 </r>
       <r>   -2.2490    1.0000 </r>
       <r>   -1.9851    1.0000 </r>
       <r>   -1.9734    1.0000 </r>
       <r>   -1.2359    1.0000 </r>
       <r>   -0.9370    1.0000 </r>
       <r>   -0.3496    1.0000 </r>
       <r>   -0.1385    1.0000 </r>
       <r>    2.2076   -0.0000 </r>
       <r>    2.3774   -0.0000 </r>
       <r>    2.5194   -0.0000 </r>
       <r>    2.5721   -0.0000 </r>
       <r>    2.5963   -0.0000 </r>
       <r>    2.6282   -0.0000 </r>
       <r>    3.2113    0.0000 </r>
       <r>    3.2304    0.0000 </r>
       <r>    5.8012    0.0000 </r>
       <r>    6.2195    0.0000 </r>
       <r>    6.9255    0.0000 </r>
       <r>    7.8443    0.0000 </r>
      </set>
      <set comment="kpoint 16">
       <r>  -34.9513    1.0000 </r>
       <r>  -34.9442    1.0000 </r>
       <r>  -34.9134    1.0000 </r>
       <r>  -34.9065    1.0000 </r>
       <r>  -34.8190    1.0000 </r>
       <r>  -34.8121    1.0000 </r>
       <r>  -13.3874    1.0000 </r>
       <r>  -13.3340    1.0000 </r>
       <r>  -12.4482    1.0000 </r>
       <r>  -12.3719    1.0000 </r>
       <r>   -5.1041    1.0000 </r>
       <r>   -4.8440    1.0000 </r>
       <r>   -3.5450    1.0000 </r>
       <r>   -3.5297    1.0000 </r>
       <r>   -3.2133    1.0000 </r>
       <r>   -2.9894    1.0000 </r>
       <r>   -2.4486    1.0000 </r>
       <r>   -2.4250    1.0000 </r>
       <r>   -2.0629    1.0000 </r>
       <r>   -2.0516    1.0000 </r>
       <r>   -1.1469    1.0000 </r>
       <r>   -0.8858    1.0000 </r>
       <r>   -0.5263    1.0000 </r>
       <r>   -0.4055    1.0000 </r>
       <r>    1.9755   -0.0000 </r>
       <r>    2.1999   -0.0000 </r>
       <r>    2.4124   -0.0000 </r>
       <r>    2.4383   -0.0000 </r>
       <r>    2.4821   -0.0000 </r>
       <r>    2.6436   -0.0000 </r>
       <r>    3.5544    0.0000 </r>
       <r>    3.5713    0.0000 </r>
       <r>    6.1395    0.0000 </r>
       <r>    6.5366    0.0000 </r>
       <r>    7.1936    0.0000 </r>
       <r>    8.3390    0.0000 </r>
      </set>
      <set comment="kpoint 17">
       <r>  -34.9755    1.0000 </r>
       <r>  -34.9686    1.0000 </r>
       <r>  -34.9371    1.0000 </r>
       <r>  -34.9300    1.0000 </r>
       <r>  -34.8454    1.0000 </r>
       <r>  -34.8385    1.0000 </r>
       <r>  -13.0387    1.0000 </r>
       <r>  -12.9877    1.0000 </r>
       <r>  -12.3008    1.0000 </r>
       <r>  -12.2338    1.0000 </r>
       <r>   -4.9323    1.0000 </r>
       <r>   -4.7374    1.0000 </r>
       <r>   -3.7941    1.0000 </r>
       <r>   -3.7188    1.0000 </r>
       <r>   -3.5055    1.0000 </r>
       <r>   -3.3821    1.0000 </r>
       <r>   -3.0779    1.0000 </r>
       <r>   -2.9807    1.0000 </r>
       <r>   -1.9323    1.0000 </r>
       <r>   -1.9189    1.0000 </r>
       <r>   -1.1273    1.0000 </r>
       <r>   -0.9199    1.0000 </r>
       <r>   -0.7647    1.0000 </r>
       <r>   -0.7168    1.0000 </r>
       <r>    1.7754   -0.0000 </r>
       <r>    2.0023   -0.0000 </r>
       <r>    2.3394   -0.0000 </r>
       <r>    2.4157   -0.0000 </r>
       <r>    2.5342   -0.0000 </r>
       <r>    2.7272   -0.0000 </r>
       <r>    3.9519    0.0000 </r>
       <r>    3.9897    0.0000 </r>
       <r>    6.6821    0.0000 </r>
       <r>    7.0299    0.0000 </r>
       <r>    7.6834    0.0000 </r>
       <r>    8.5800    0.0000 </r>
      </set>
      <set comment="kpoint 18">
       <r>  -35.0383    1.0000 </r>
       <r>  -35.0314    1.0000 </r>
       <r>  -34.9219    1.0000 </r>
       <r>  -34.9148    1.0000 </r>
       <r>  -34.8758    1.0000 </r>
       <r>  -34.8688    1.0000 </r>
       <r>  -12.6327    1.0000 </r>
       <r>  -12.5857    1.0000 </r>
       <r>  -12.1293    1.0000 </r>
       <r>  -12.0733    1.0000 </r>
       <r>   -5.0089    1.0000 </r>
       <r>   -4.9048    1.0000 </r>
       <r>   -4.0836    1.0000 </r>
       <r>   -4.0331    1.0000 </r>
       <r>   -3.7836    1.0000 </r>
       <r>   -3.6298    1.0000 </r>
       <r>   -3.2945    1.0000 </r>
       <r>   -3.1482    1.0000 </r>
       <r>   -2.0589    1.0000 </r>
       <r>   -2.0396    1.0000 </r>
       <r>   -1.3480    1.0000 </r>
       <r>   -1.1673    1.0000 </r>
       <r>   -0.8201    1.0000 </r>
       <r>   -0.8014    1.0000 </r>
       <r>    1.8048   -0.0000 </r>
       <r>    2.0556   -0.0000 </r>
       <r>    2.4058   -0.0000 </r>
       <r>    2.4575   -0.0000 </r>
       <r>    2.8023   -0.0000 </r>
       <r>    2.9745   -0.0000 </r>
       <r>    4.2044    0.0000 </r>
       <r>    4.2753    0.0000 </r>
       <r>    7.3802    0.0000 </r>
       <r>    7.6156    0.0000 </r>
       <r>    8.1567    0.0000 </r>
       <r>    8.4716    0.0000 </r>
      </set>
      <set comment="kpoint 19">
       <r>  -35.0889    1.0000 </r>
       <r>  -35.0820    1.0000 </r>
       <r>  -34.9093    1.0000 </r>
       <r>  -34.9022    1.0000 </r>
       <r>  -34.9017    1.0000 </r>
       <r>  -34.8948    1.0000 </r>
       <r>  -12.2588    1.0000 </r>
       <r>  -12.2171    1.0000 </r>
       <r>  -11.9722    1.0000 </r>
       <r>  -11.9268    1.0000 </r>
       <r>   -5.2100    1.0000 </r>
       <r>   -5.1420    1.0000 </r>
       <r>   -4.6259    1.0000 </r>
       <r>   -4.5854    1.0000 </r>
       <r>   -3.8181    1.0000 </r>
       <r>   -3.6424    1.0000 </r>
       <r>   -3.2657    1.0000 </r>
       <r>   -3.1440    1.0000 </r>
       <r>   -2.1938    1.0000 </r>
       <r>   -2.1584    1.0000 </r>
       <r>   -1.6888    1.0000 </r>
       <r>   -1.5060    1.0000 </r>
       <r>   -0.6505    1.0000 </r>
       <r>   -0.6207    1.0000 </r>
       <r>    2.0267   -0.0000 </r>
       <r>    2.2297   -0.0000 </r>
       <r>    2.5237   -0.0000 </r>
       <r>    2.5657   -0.0000 </r>
       <r>    3.1676    0.0000 </r>
       <r>    3.2751    0.0000 </r>
       <r>    4.2601    0.0000 </r>
       <r>    4.3937    0.0000 </r>
       <r>    7.0589    0.0000 </r>
       <r>    7.5440    0.0000 </r>
       <r>    8.2066    0.0000 </r>
       <r>    8.4786    0.0000 </r>
      </set>
      <set comment="kpoint 20">
       <r>  -35.1170    1.0000 </r>
       <r>  -35.1101    1.0000 </r>
       <r>  -34.9166    1.0000 </r>
       <r>  -34.9096    1.0000 </r>
       <r>  -34.9021    1.0000 </r>
       <r>  -34.8951    1.0000 </r>
       <r>  -12.0284    1.0000 </r>
       <r>  -11.9908    1.0000 </r>
       <r>  -11.8755    1.0000 </r>
       <r>  -11.8374    1.0000 </r>
       <r>   -5.3420    1.0000 </r>
       <r>   -5.2840    1.0000 </r>
       <r>   -4.9340    1.0000 </r>
       <r>   -4.8938    1.0000 </r>
       <r>   -3.9581    1.0000 </r>
       <r>   -3.7881    1.0000 </r>
       <r>   -3.1780    1.0000 </r>
       <r>   -3.0902    1.0000 </r>
       <r>   -2.1925    1.0000 </r>
       <r>   -2.1447    1.0000 </r>
       <r>   -1.9530    1.0000 </r>
       <r>   -1.7517    1.0000 </r>
       <r>   -0.4297    1.0000 </r>
       <r>   -0.3720    1.0000 </r>
       <r>    2.0740   -0.0000 </r>
       <r>    2.1271   -0.0000 </r>
       <r>    2.7684   -0.0000 </r>
       <r>    2.8820   -0.0000 </r>
       <r>    3.4492    0.0000 </r>
       <r>    3.4830    0.0000 </r>
       <r>    4.1797    0.0000 </r>
       <r>    4.3989    0.0000 </r>
       <r>    6.3076    0.0000 </r>
       <r>    6.9412    0.0000 </r>
       <r>    8.8686    0.0000 </r>
       <r>    9.0382    0.0000 </r>
      </set>
      <set comment="kpoint 21">
       <r>  -34.9651    1.0000 </r>
       <r>  -34.9580    1.0000 </r>
       <r>  -34.8459    1.0000 </r>
       <r>  -34.8389    1.0000 </r>
       <r>  -34.8005    1.0000 </r>
       <r>  -34.7936    1.0000 </r>
       <r>  -13.6998    1.0000 </r>
       <r>  -13.6452    1.0000 </r>
       <r>  -12.5800    1.0000 </r>
       <r>  -12.4955    1.0000 </r>
       <r>   -5.3829    1.0000 </r>
       <r>   -5.1032    1.0000 </r>
       <r>   -3.1069    1.0000 </r>
       <r>   -3.0945    1.0000 </r>
       <r>   -2.7797    1.0000 </r>
       <r>   -2.4667    1.0000 </r>
       <r>   -2.3468    1.0000 </r>
       <r>   -2.3367    1.0000 </r>
       <r>   -1.9625    1.0000 </r>
       <r>   -1.9516    1.0000 </r>
       <r>   -1.1650    1.0000 </r>
       <r>   -0.8829    1.0000 </r>
       <r>   -0.2940    1.0000 </r>
       <r>   -0.0402    1.0001 </r>
       <r>    2.3300   -0.0000 </r>
       <r>    2.4393   -0.0000 </r>
       <r>    2.4849   -0.0000 </r>
       <r>    2.5455   -0.0000 </r>
       <r>    2.6396   -0.0000 </r>
       <r>    2.6561   -0.0000 </r>
       <r>    3.1443    0.0000 </r>
       <r>    3.1603    0.0000 </r>
       <r>    5.6877    0.0000 </r>
       <r>    6.1127    0.0000 </r>
       <r>    6.9289    0.0000 </r>
       <r>    7.5953    0.0000 </r>
      </set>
      <set comment="kpoint 22">
       <r>  -34.9469    1.0000 </r>
       <r>  -34.9453    1.0000 </r>
       <r>  -34.9400    1.0000 </r>
       <r>  -34.9382    1.0000 </r>
       <r>  -34.8227    1.0000 </r>
       <r>  -34.8158    1.0000 </r>
       <r>  -13.2431    1.0000 </r>
       <r>  -13.1918    1.0000 </r>
       <r>  -12.3876    1.0000 </r>
       <r>  -12.3171    1.0000 </r>
       <r>   -5.0409    1.0000 </r>
       <r>   -4.8106    1.0000 </r>
       <r>   -3.6956    1.0000 </r>
       <r>   -3.6695    1.0000 </r>
       <r>   -3.4699    1.0000 </r>
       <r>   -3.2910    1.0000 </r>
       <r>   -2.3806    1.0000 </r>
       <r>   -2.3680    1.0000 </r>
       <r>   -1.8907    1.0000 </r>
       <r>   -1.8787    1.0000 </r>
       <r>   -1.3931    1.0000 </r>
       <r>   -1.1402    1.0000 </r>
       <r>   -0.6621    1.0000 </r>
       <r>   -0.5946    1.0000 </r>
       <r>    1.9722   -0.0000 </r>
       <r>    2.2533   -0.0000 </r>
       <r>    2.3211   -0.0000 </r>
       <r>    2.3479   -0.0000 </r>
       <r>    2.7175   -0.0000 </r>
       <r>    2.9109   -0.0000 </r>
       <r>    3.5901    0.0000 </r>
       <r>    3.6190    0.0000 </r>
       <r>    6.3502    0.0000 </r>
       <r>    6.7091    0.0000 </r>
       <r>    7.3409    0.0000 </r>
       <r>    8.1819    0.0000 </r>
      </set>
      <set comment="kpoint 23">
       <r>  -34.9937    1.0000 </r>
       <r>  -34.9868    1.0000 </r>
       <r>  -34.9347    1.0000 </r>
       <r>  -34.9276    1.0000 </r>
       <r>  -34.8414    1.0000 </r>
       <r>  -34.8345    1.0000 </r>
       <r>  -12.9766    1.0000 </r>
       <r>  -12.9277    1.0000 </r>
       <r>  -12.2755    1.0000 </r>
       <r>  -12.2126    1.0000 </r>
       <r>   -4.9812    1.0000 </r>
       <r>   -4.8130    1.0000 </r>
       <r>   -3.8449    1.0000 </r>
       <r>   -3.7665    1.0000 </r>
       <r>   -3.6972    1.0000 </r>
       <r>   -3.5830    1.0000 </r>
       <r>   -2.8437    1.0000 </r>
       <r>   -2.7883    1.0000 </r>
       <r>   -1.7810    1.0000 </r>
       <r>   -1.7670    1.0000 </r>
       <r>   -1.3415    1.0000 </r>
       <r>   -1.1501    1.0000 </r>
       <r>   -0.8256    1.0000 </r>
       <r>   -0.7917    1.0000 </r>
       <r>    1.8668   -0.0000 </r>
       <r>    2.0797   -0.0000 </r>
       <r>    2.2977   -0.0000 </r>
       <r>    2.3874   -0.0000 </r>
       <r>    2.7587   -0.0000 </r>
       <r>    2.9713   -0.0000 </r>
       <r>    3.9063    0.0000 </r>
       <r>    3.9338    0.0000 </r>
       <r>    6.7741    0.0000 </r>
       <r>    7.0818    0.0000 </r>
       <r>    7.7150    0.0000 </r>
       <r>    8.3344    0.0000 </r>
      </set>
      <set comment="kpoint 24">
       <r>  -35.0383    1.0000 </r>
       <r>  -35.0314    1.0000 </r>
       <r>  -34.9219    1.0000 </r>
       <r>  -34.9148    1.0000 </r>
       <r>  -34.8757    1.0000 </r>
       <r>  -34.8688    1.0000 </r>
       <r>  -12.6315    1.0000 </r>
       <r>  -12.5867    1.0000 </r>
       <r>  -12.1279    1.0000 </r>
       <r>  -12.0750    1.0000 </r>
       <r>   -5.0091    1.0000 </r>
       <r>   -4.9054    1.0000 </r>
       <r>   -4.0838    1.0000 </r>
       <r>   -4.0408    1.0000 </r>
       <r>   -3.7514    1.0000 </r>
       <r>   -3.6464    1.0000 </r>
       <r>   -3.2976    1.0000 </r>
       <r>   -3.1529    1.0000 </r>
       <r>   -2.0596    1.0000 </r>
       <r>   -2.0398    1.0000 </r>
       <r>   -1.3196    1.0000 </r>
       <r>   -1.1927    1.0000 </r>
       <r>   -0.8178    1.0000 </r>
       <r>   -0.8084    1.0000 </r>
       <r>    1.8008   -0.0000 </r>
       <r>    2.0561   -0.0000 </r>
       <r>    2.4087   -0.0000 </r>
       <r>    2.4614   -0.0000 </r>
       <r>    2.7870   -0.0000 </r>
       <r>    2.9915   -0.0000 </r>
       <r>    4.2125    0.0000 </r>
       <r>    4.2641    0.0000 </r>
       <r>    7.3811    0.0000 </r>
       <r>    7.6161    0.0000 </r>
       <r>    8.3013    0.0000 </r>
       <r>    8.5434    0.0000 </r>
      </set>
      <set comment="kpoint 25">
       <r>  -35.0708    1.0000 </r>
       <r>  -35.0638    1.0000 </r>
       <r>  -34.9173    1.0000 </r>
       <r>  -34.9104    1.0000 </r>
       <r>  -34.9098    1.0000 </r>
       <r>  -34.9027    1.0000 </r>
       <r>  -12.2773    1.0000 </r>
       <r>  -12.2382    1.0000 </r>
       <r>  -11.9733    1.0000 </r>
       <r>  -11.9309    1.0000 </r>
       <r>   -5.0635    1.0000 </r>
       <r>   -4.9901    1.0000 </r>
       <r>   -4.6045    1.0000 </r>
       <r>   -4.5883    1.0000 </r>
       <r>   -3.6445    1.0000 </r>
       <r>   -3.5172    1.0000 </r>
       <r>   -3.3271    1.0000 </r>
       <r>   -3.1745    1.0000 </r>
       <r>   -2.5847    1.0000 </r>
       <r>   -2.5707    1.0000 </r>
       <r>   -1.5394    1.0000 </r>
       <r>   -1.4385    1.0000 </r>
       <r>   -0.6725    1.0000 </r>
       <r>   -0.6592    1.0000 </r>
       <r>    1.9710   -0.0000 </r>
       <r>    2.2373   -0.0000 </r>
       <r>    2.5425   -0.0000 </r>
       <r>    2.5589   -0.0000 </r>
       <r>    2.9331   -0.0000 </r>
       <r>    3.0843    0.0000 </r>
       <r>    4.3839    0.0000 </r>
       <r>    4.4767    0.0000 </r>
       <r>    7.6253    0.0000 </r>
       <r>    7.8005    0.0000 </r>
       <r>    8.2345    0.0000 </r>
       <r>    8.3212    0.0000 </r>
      </set>
      <set comment="kpoint 26">
       <r>  -35.0876    1.0000 </r>
       <r>  -35.0807    1.0000 </r>
       <r>  -34.9529    1.0000 </r>
       <r>  -34.9459    1.0000 </r>
       <r>  -34.9012    1.0000 </r>
       <r>  -34.8941    1.0000 </r>
       <r>  -12.0052    1.0000 </r>
       <r>  -11.9717    1.0000 </r>
       <r>  -11.8517    1.0000 </r>
       <r>  -11.8181    1.0000 </r>
       <r>   -5.0557    1.0000 </r>
       <r>   -5.0167    1.0000 </r>
       <r>   -5.0028    1.0000 </r>
       <r>   -4.9716    1.0000 </r>
       <r>   -3.7430    1.0000 </r>
       <r>   -3.5911    1.0000 </r>
       <r>   -3.1762    1.0000 </r>
       <r>   -3.0506    1.0000 </r>
       <r>   -2.9414    1.0000 </r>
       <r>   -2.8957    1.0000 </r>
       <r>   -1.8771    1.0000 </r>
       <r>   -1.7647    1.0000 </r>
       <r>   -0.4077    1.0000 </r>
       <r>   -0.3852    1.0000 </r>
       <r>    1.9602   -0.0000 </r>
       <r>    2.0376   -0.0000 </r>
       <r>    2.8465   -0.0000 </r>
       <r>    2.9827   -0.0000 </r>
       <r>    3.0959    0.0000 </r>
       <r>    3.1830    0.0000 </r>
       <r>    4.4707    0.0000 </r>
       <r>    4.6155    0.0000 </r>
       <r>    6.8940    0.0000 </r>
       <r>    7.4082    0.0000 </r>
       <r>    8.3950    0.0000 </r>
       <r>    8.6684    0.0000 </r>
      </set>
      <set comment="kpoint 27">
       <r>  -35.0920    1.0000 </r>
       <r>  -35.0850    1.0000 </r>
       <r>  -34.9674    1.0000 </r>
       <r>  -34.9604    1.0000 </r>
       <r>  -34.8981    1.0000 </r>
       <r>  -34.8910    1.0000 </r>
       <r>  -11.9023    1.0000 </r>
       <r>  -11.8712    1.0000 </r>
       <r>  -11.8044    1.0000 </r>
       <r>  -11.7747    1.0000 </r>
       <r>   -5.1839    1.0000 </r>
       <r>   -5.1618    1.0000 </r>
       <r>   -4.9792    1.0000 </r>
       <r>   -4.9310    1.0000 </r>
       <r>   -3.9086    1.0000 </r>
       <r>   -3.7520    1.0000 </r>
       <r>   -3.0649    1.0000 </r>
       <r>   -3.0273    1.0000 </r>
       <r>   -2.9395    1.0000 </r>
       <r>   -2.9214    1.0000 </r>
       <r>   -2.0648    1.0000 </r>
       <r>   -1.9377    1.0000 </r>
       <r>   -0.2403    1.0000 </r>
       <r>   -0.2025    1.0000 </r>
       <r>    1.8421   -0.0000 </r>
       <r>    1.8617   -0.0000 </r>
       <r>    3.0439    0.0000 </r>
       <r>    3.1348    0.0000 </r>
       <r>    3.1870    0.0000 </r>
       <r>    3.3026    0.0000 </r>
       <r>    4.4997    0.0000 </r>
       <r>    4.6677    0.0000 </r>
       <r>    6.5164    0.0000 </r>
       <r>    7.1591    0.0000 </r>
       <r>    8.2562    0.0000 </r>
       <r>    8.7087    0.0000 </r>
      </set>
      <set comment="kpoint 28">
       <r>  -34.9513    1.0000 </r>
       <r>  -34.9442    1.0000 </r>
       <r>  -34.9135    1.0000 </r>
       <r>  -34.9065    1.0000 </r>
       <r>  -34.8190    1.0000 </r>
       <r>  -34.8121    1.0000 </r>
       <r>  -13.3868    1.0000 </r>
       <r>  -13.3345    1.0000 </r>
       <r>  -12.4474    1.0000 </r>
       <r>  -12.3728    1.0000 </r>
       <r>   -5.1032    1.0000 </r>
       <r>   -4.8446    1.0000 </r>
       <r>   -3.5426    1.0000 </r>
       <r>   -3.5320    1.0000 </r>
       <r>   -3.2148    1.0000 </r>
       <r>   -2.9880    1.0000 </r>
       <r>   -2.4453    1.0000 </r>
       <r>   -2.4277    1.0000 </r>
       <r>   -2.0628    1.0000 </r>
       <r>   -2.0517    1.0000 </r>
       <r>   -1.1304    1.0000 </r>
       <r>   -0.8994    1.0000 </r>
       <r>   -0.5202    1.0000 </r>
       <r>   -0.4234    1.0000 </r>
       <r>    1.9828   -0.0000 </r>
       <r>    2.2014   -0.0000 </r>
       <r>    2.4131   -0.0000 </r>
       <r>    2.4311   -0.0000 </r>
       <r>    2.4931   -0.0000 </r>
       <r>    2.6371   -0.0000 </r>
       <r>    3.5515    0.0000 </r>
       <r>    3.5757    0.0000 </r>
       <r>    6.1404    0.0000 </r>
       <r>    6.5369    0.0000 </r>
       <r>    7.1888    0.0000 </r>
       <r>    8.2593    0.0000 </r>
      </set>
      <set comment="kpoint 29">
       <r>  -35.0321    1.0000 </r>
       <r>  -35.0252    1.0000 </r>
       <r>  -34.9282    1.0000 </r>
       <r>  -34.9211    1.0000 </r>
       <r>  -34.8426    1.0000 </r>
       <r>  -34.8357    1.0000 </r>
       <r>  -12.8013    1.0000 </r>
       <r>  -12.7566    1.0000 </r>
       <r>  -12.2039    1.0000 </r>
       <r>  -12.1494    1.0000 </r>
       <r>   -5.0961    1.0000 </r>
       <r>   -4.9806    1.0000 </r>
       <r>   -4.0321    1.0000 </r>
       <r>   -3.9188    1.0000 </r>
       <r>   -3.8270    1.0000 </r>
       <r>   -3.7502    1.0000 </r>
       <r>   -2.7361    1.0000 </r>
       <r>   -2.7229    1.0000 </r>
       <r>   -1.6508    1.0000 </r>
       <r>   -1.4967    1.0000 </r>
       <r>   -1.4823    1.0000 </r>
       <r>   -1.4533    1.0000 </r>
       <r>   -0.9541    1.0000 </r>
       <r>   -0.9155    1.0000 </r>
       <r>    2.0627   -0.0000 </r>
       <r>    2.1537   -0.0000 </r>
       <r>    2.1767   -0.0000 </r>
       <r>    2.3346   -0.0000 </r>
       <r>    3.1315    0.0000 </r>
       <r>    3.3519    0.0000 </r>
       <r>    3.8894    0.0000 </r>
       <r>    3.9301    0.0000 </r>
       <r>    7.0364    0.0000 </r>
       <r>    7.2625    0.0000 </r>
       <r>    7.8948    0.0000 </r>
       <r>    7.9686    0.0000 </r>
      </set>
      <set comment="kpoint 30">
       <r>  -35.0684    1.0000 </r>
       <r>  -35.0614    1.0000 </r>
       <r>  -34.9190    1.0000 </r>
       <r>  -34.9120    1.0000 </r>
       <r>  -34.8624    1.0000 </r>
       <r>  -34.8555    1.0000 </r>
       <r>  -12.5437    1.0000 </r>
       <r>  -12.5035    1.0000 </r>
       <r>  -12.0960    1.0000 </r>
       <r>  -12.0501    1.0000 </r>
       <r>   -5.2014    1.0000 </r>
       <r>   -5.1254    1.0000 </r>
       <r>   -4.2693    1.0000 </r>
       <r>   -4.1978    1.0000 </r>
       <r>   -3.8252    1.0000 </r>
       <r>   -3.7489    1.0000 </r>
       <r>   -3.0580    1.0000 </r>
       <r>   -3.0026    1.0000 </r>
       <r>   -1.6658    1.0000 </r>
       <r>   -1.6076    1.0000 </r>
       <r>   -1.5817    1.0000 </r>
       <r>   -1.4757    1.0000 </r>
       <r>   -0.8465    1.0000 </r>
       <r>   -0.8256    1.0000 </r>
       <r>    1.9710   -0.0000 </r>
       <r>    2.1113   -0.0000 </r>
       <r>    2.3393   -0.0000 </r>
       <r>    2.4504   -0.0000 </r>
       <r>    3.1827    0.0000 </r>
       <r>    3.3969    0.0000 </r>
       <r>    4.1165    0.0000 </r>
       <r>    4.1369    0.0000 </r>
       <r>    7.4062    0.0000 </r>
       <r>    7.5391    0.0000 </r>
       <r>    7.6840    0.0000 </r>
       <r>    8.1627    0.0000 </r>
      </set>
      <set comment="kpoint 31">
       <r>  -35.0890    1.0000 </r>
       <r>  -35.0820    1.0000 </r>
       <r>  -34.9093    1.0000 </r>
       <r>  -34.9022    1.0000 </r>
       <r>  -34.9017    1.0000 </r>
       <r>  -34.8947    1.0000 </r>
       <r>  -12.2544    1.0000 </r>
       <r>  -12.2203    1.0000 </r>
       <r>  -11.9682    1.0000 </r>
       <r>  -11.9320    1.0000 </r>
       <r>   -5.2057    1.0000 </r>
       <r>   -5.1482    1.0000 </r>
       <r>   -4.6198    1.0000 </r>
       <r>   -4.5964    1.0000 </r>
       <r>   -3.7511    1.0000 </r>
       <r>   -3.6926    1.0000 </r>
       <r>   -3.2661    1.0000 </r>
       <r>   -3.1549    1.0000 </r>
       <r>   -2.2121    1.0000 </r>
       <r>   -2.1451    1.0000 </r>
       <r>   -1.6297    1.0000 </r>
       <r>   -1.5588    1.0000 </r>
       <r>   -0.6437    1.0000 </r>
       <r>   -0.6328    1.0000 </r>
       <r>    2.0253   -0.0000 </r>
       <r>    2.2231   -0.0000 </r>
       <r>    2.5274   -0.0000 </r>
       <r>    2.5665   -0.0000 </r>
       <r>    3.1301    0.0000 </r>
       <r>    3.3175    0.0000 </r>
       <r>    4.3076    0.0000 </r>
       <r>    4.3433    0.0000 </r>
       <r>    7.2455    0.0000 </r>
       <r>    7.4051    0.0000 </r>
       <r>    8.2769    0.0000 </r>
       <r>    8.5443    0.0000 </r>
      </set>
      <set comment="kpoint 32">
       <r>  -35.0876    1.0000 </r>
       <r>  -35.0807    1.0000 </r>
       <r>  -34.9528    1.0000 </r>
       <r>  -34.9459    1.0000 </r>
       <r>  -34.9012    1.0000 </r>
       <r>  -34.8941    1.0000 </r>
       <r>  -12.0015    1.0000 </r>
       <r>  -11.9742    1.0000 </r>
       <r>  -11.8491    1.0000 </r>
       <r>  -11.8219    1.0000 </r>
       <r>   -5.0444    1.0000 </r>
       <r>   -5.0173    1.0000 </r>
       <r>   -5.0076    1.0000 </r>
       <r>   -4.9813    1.0000 </r>
       <r>   -3.6772    1.0000 </r>
       <r>   -3.6466    1.0000 </r>
       <r>   -3.1725    1.0000 </r>
       <r>   -3.0601    1.0000 </r>
       <r>   -2.9625    1.0000 </r>
       <r>   -2.8785    1.0000 </r>
       <r>   -1.8475    1.0000 </r>
       <r>   -1.7911    1.0000 </r>
       <r>   -0.4024    1.0000 </r>
       <r>   -0.3918    1.0000 </r>
       <r>    1.9609   -0.0000 </r>
       <r>    2.0359   -0.0000 </r>
       <r>    2.8533   -0.0000 </r>
       <r>    2.9755   -0.0000 </r>
       <r>    3.0735    0.0000 </r>
       <r>    3.1984    0.0000 </r>
       <r>    4.5087    0.0000 </r>
       <r>    4.5777    0.0000 </r>
       <r>    7.1127    0.0000 </r>
       <r>    7.2350    0.0000 </r>
       <r>    8.2816    0.0000 </r>
       <r>    8.6217    0.0000 </r>
      </set>
      <set comment="kpoint 33">
       <r>  -35.0675    1.0000 </r>
       <r>  -35.0606    1.0000 </r>
       <r>  -35.0012    1.0000 </r>
       <r>  -34.9942    1.0000 </r>
       <r>  -34.8966    1.0000 </r>
       <r>  -34.8896    1.0000 </r>
       <r>  -11.8534    1.0000 </r>
       <r>  -11.8308    1.0000 </r>
       <r>  -11.7751    1.0000 </r>
       <r>  -11.7539    1.0000 </r>
       <r>   -5.2784    1.0000 </r>
       <r>   -5.2645    1.0000 </r>
       <r>   -4.6903    1.0000 </r>
       <r>   -4.6462    1.0000 </r>
       <r>   -3.8237    1.0000 </r>
       <r>   -3.8026    1.0000 </r>
       <r>   -3.4677    1.0000 </r>
       <r>   -3.4099    1.0000 </r>
       <r>   -2.9384    1.0000 </r>
       <r>   -2.8628    1.0000 </r>
       <r>   -2.1374    1.0000 </r>
       <r>   -2.0542    1.0000 </r>
       <r>   -0.1346    1.0000 </r>
       <r>   -0.1190    1.0000 </r>
       <r>    1.6939   -0.0000 </r>
       <r>    1.7086   -0.0000 </r>
       <r>    2.9632   -0.0000 </r>
       <r>    3.0382    0.0000 </r>
       <r>    3.2963    0.0000 </r>
       <r>    3.4089    0.0000 </r>
       <r>    4.6818    0.0000 </r>
       <r>    4.7624    0.0000 </r>
       <r>    6.9583    0.0000 </r>
       <r>    7.2708    0.0000 </r>
       <r>    7.8593    0.0000 </r>
       <r>    7.9870    0.0000 </r>
      </set>
      <set comment="kpoint 34">
       <r>  -34.9938    1.0000 </r>
       <r>  -34.9868    1.0000 </r>
       <r>  -34.9347    1.0000 </r>
       <r>  -34.9276    1.0000 </r>
       <r>  -34.8414    1.0000 </r>
       <r>  -34.8345    1.0000 </r>
       <r>  -12.9757    1.0000 </r>
       <r>  -12.9285    1.0000 </r>
       <r>  -12.2743    1.0000 </r>
       <r>  -12.2139    1.0000 </r>
       <r>   -4.9812    1.0000 </r>
       <r>   -4.8129    1.0000 </r>
       <r>   -3.8382    1.0000 </r>
       <r>   -3.7725    1.0000 </r>
       <r>   -3.6962    1.0000 </r>
       <r>   -3.5853    1.0000 </r>
       <r>   -2.8406    1.0000 </r>
       <r>   -2.7897    1.0000 </r>
       <r>   -1.7808    1.0000 </r>
       <r>   -1.7656    1.0000 </r>
       <r>   -1.3263    1.0000 </r>
       <r>   -1.1676    1.0000 </r>
       <r>   -0.8208    1.0000 </r>
       <r>   -0.8018    1.0000 </r>
       <r>    1.8726   -0.0000 </r>
       <r>    2.0758   -0.0000 </r>
       <r>    2.2990   -0.0000 </r>
       <r>    2.3847   -0.0000 </r>
       <r>    2.7740   -0.0000 </r>
       <r>    2.9568   -0.0000 </r>
       <r>    3.9086    0.0000 </r>
       <r>    3.9341    0.0000 </r>
       <r>    6.7739    0.0000 </r>
       <r>    7.0824    0.0000 </r>
       <r>    7.8161    0.0000 </r>
       <r>    8.4294    0.0000 </r>
      </set>
      <set comment="kpoint 35">
       <r>  -34.9756    1.0000 </r>
       <r>  -34.9686    1.0000 </r>
       <r>  -34.9371    1.0000 </r>
       <r>  -34.9300    1.0000 </r>
       <r>  -34.8453    1.0000 </r>
       <r>  -34.8385    1.0000 </r>
       <r>  -13.0371    1.0000 </r>
       <r>  -12.9890    1.0000 </r>
       <r>  -12.2987    1.0000 </r>
       <r>  -12.2361    1.0000 </r>
       <r>   -4.9325    1.0000 </r>
       <r>   -4.7366    1.0000 </r>
       <r>   -3.7769    1.0000 </r>
       <r>   -3.7383    1.0000 </r>
       <r>   -3.5037    1.0000 </r>
       <r>   -3.3814    1.0000 </r>
       <r>   -3.0708    1.0000 </r>
       <r>   -2.9869    1.0000 </r>
       <r>   -1.9340    1.0000 </r>
       <r>   -1.9169    1.0000 </r>
       <r>   -1.0881    1.0000 </r>
       <r>   -0.9530    1.0000 </r>
       <r>   -0.7554    1.0000 </r>
       <r>   -0.7450    1.0000 </r>
       <r>    1.7814   -0.0000 </r>
       <r>    2.0012   -0.0000 </r>
       <r>    2.3425   -0.0000 </r>
       <r>    2.4120   -0.0000 </r>
       <r>    2.5436   -0.0000 </r>
       <r>    2.7225   -0.0000 </r>
       <r>    3.9552    0.0000 </r>
       <r>    3.9874    0.0000 </r>
       <r>    6.6859    0.0000 </r>
       <r>    7.0269    0.0000 </r>
       <r>    7.6892    0.0000 </r>
       <r>    8.6063    0.0000 </r>
      </set>
      <set comment="kpoint 36">
       <r>  -35.1019    1.0000 </r>
       <r>  -35.0949    1.0000 </r>
       <r>  -34.9140    1.0000 </r>
       <r>  -34.9069    1.0000 </r>
       <r>  -34.8590    1.0000 </r>
       <r>  -34.8522    1.0000 </r>
       <r>  -12.3870    1.0000 </r>
       <r>  -12.3537    1.0000 </r>
       <r>  -12.0358    1.0000 </r>
       <r>  -11.9998    1.0000 </r>
       <r>   -5.4078    1.0000 </r>
       <r>   -5.3581    1.0000 </r>
       <r>   -4.4467    1.0000 </r>
       <r>   -4.3810    1.0000 </r>
       <r>   -3.8980    1.0000 </r>
       <r>   -3.8398    1.0000 </r>
       <r>   -2.9961    1.0000 </r>
       <r>   -2.9825    1.0000 </r>
       <r>   -1.8420    1.0000 </r>
       <r>   -1.7085    1.0000 </r>
       <r>   -1.1803    1.0000 </r>
       <r>   -1.1596    1.0000 </r>
       <r>   -0.9129    1.0000 </r>
       <r>   -0.8491    1.0000 </r>
       <r>    2.1110   -0.0000 </r>
       <r>    2.1271   -0.0000 </r>
       <r>    2.3261   -0.0000 </r>
       <r>    2.5084   -0.0000 </r>
       <r>    3.5431    0.0000 </r>
       <r>    3.7176    0.0000 </r>
       <r>    4.0750    0.0000 </r>
       <r>    4.1260    0.0000 </r>
       <r>    6.9455    0.0000 </r>
       <r>    7.1050    0.0000 </r>
       <r>    7.7446    0.0000 </r>
       <r>    7.9634    0.0000 </r>
      </set>
      <set comment="kpoint 37">
       <r>  -35.1207    1.0000 </r>
       <r>  -35.1137    1.0000 </r>
       <r>  -34.9079    1.0000 </r>
       <r>  -34.9008    1.0000 </r>
       <r>  -34.8773    1.0000 </r>
       <r>  -34.8704    1.0000 </r>
       <r>  -12.1969    1.0000 </r>
       <r>  -12.1703    1.0000 </r>
       <r>  -11.9551    1.0000 </r>
       <r>  -11.9276    1.0000 </r>
       <r>   -5.4759    1.0000 </r>
       <r>   -5.4409    1.0000 </r>
       <r>   -4.6482    1.0000 </r>
       <r>   -4.6111    1.0000 </r>
       <r>   -3.9164    1.0000 </r>
       <r>   -3.8700    1.0000 </r>
       <r>   -3.1432    1.0000 </r>
       <r>   -3.1113    1.0000 </r>
       <r>   -1.8426    1.0000 </r>
       <r>   -1.7521    1.0000 </r>
       <r>   -1.4921    1.0000 </r>
       <r>   -1.4306    1.0000 </r>
       <r>   -0.6265    1.0000 </r>
       <r>   -0.6059    1.0000 </r>
       <r>    2.1211   -0.0000 </r>
       <r>    2.1724   -0.0000 </r>
       <r>    2.5143   -0.0000 </r>
       <r>    2.6055   -0.0000 </r>
       <r>    3.5859    0.0000 </r>
       <r>    3.7589    0.0000 </r>
       <r>    4.1350    0.0000 </r>
       <r>    4.1518    0.0000 </r>
       <r>    6.6059    0.0000 </r>
       <r>    6.7883    0.0000 </r>
       <r>    8.1500    0.0000 </r>
       <r>    8.3364    0.0000 </r>
      </set>
      <set comment="kpoint 38">
       <r>  -35.1171    1.0000 </r>
       <r>  -35.1101    1.0000 </r>
       <r>  -34.9165    1.0000 </r>
       <r>  -34.9096    1.0000 </r>
       <r>  -34.9021    1.0000 </r>
       <r>  -34.8951    1.0000 </r>
       <r>  -12.0176    1.0000 </r>
       <r>  -11.9980    1.0000 </r>
       <r>  -11.8680    1.0000 </r>
       <r>  -11.8485    1.0000 </r>
       <r>   -5.3276    1.0000 </r>
       <r>   -5.3011    1.0000 </r>
       <r>   -4.9245    1.0000 </r>
       <r>   -4.9076    1.0000 </r>
       <r>   -3.8850    1.0000 </r>
       <r>   -3.8465    1.0000 </r>
       <r>   -3.1614    1.0000 </r>
       <r>   -3.1145    1.0000 </r>
       <r>   -2.2154    1.0000 </r>
       <r>   -2.1333    1.0000 </r>
       <r>   -1.8736    1.0000 </r>
       <r>   -1.8209    1.0000 </r>
       <r>   -0.4120    1.0000 </r>
       <r>   -0.3962    1.0000 </r>
       <r>    2.0799   -0.0000 </r>
       <r>    2.1197   -0.0000 </r>
       <r>    2.7903   -0.0000 </r>
       <r>    2.8513   -0.0000 </r>
       <r>    3.3963    0.0000 </r>
       <r>    3.5265    0.0000 </r>
       <r>    4.2715    0.0000 </r>
       <r>    4.3173    0.0000 </r>
       <r>    6.5577    0.0000 </r>
       <r>    6.7308    0.0000 </r>
[...]
       <r>    -2.1715     1.6015    18.4533 </r>
       <r>    -2.0094     3.3889    19.0027 </r>
       <r>    -1.8473     3.7738    19.6145 </r>
       <r>    -1.6851     3.3374    20.1556 </r>
       <r>    -1.5230     2.9728    20.6375 </r>
       <r>    -1.3609     3.1200    21.1433 </r>
       <r>    -1.1988     1.6464    21.4103 </r>
       <r>    -1.0367     2.1232    21.7545 </r>
       <r>    -0.8745     2.0910    22.0935 </r>
       <r>    -0.7124     3.4964    22.6603 </r>
       <r>    -0.5503     2.9140    23.1327 </r>
       <r>    -0.3882     2.2597    23.4991 </r>
       <r>    -0.2260     1.6049    23.7592 </r>
       <r>    -0.0639     1.0326    23.9266 </r>
       <r>     0.0982     0.2313    23.9642 </r>
       <r>     0.2603     0.2196    23.9997 </r>
       <r>     0.4224     0.0020    24.0001 </r>
       <r>     0.5846    -0.0004    24.0000 </r>
       <r>     0.7467    -0.0000    24.0000 </r>
       <r>     0.9088    -0.0000    24.0000 </r>
       <r>     1.0709    -0.0000    24.0000 </r>
       <r>     1.2330    -0.0000    24.0000 </r>
       <r>     1.3952    -0.0000    24.0000 </r>
       <r>     1.5573    -0.0147    23.9976 </r>
       <r>     1.7194     0.2906    24.0447 </r>
       <r>     1.8815     1.3516    24.2639 </r>
       <r>     2.0436     3.2049    24.7834 </r>
       <r>     2.2058     5.2853    25.6403 </r>
       <r>     2.3679     3.4881    26.2058 </r>
       <r>     2.5300     5.1002    27.0326 </r>
       <r>     2.6921     4.7259    27.7988 </r>
       <r>     2.8542     3.2167    28.3203 </r>
       <r>     3.0164     2.8636    28.7845 </r>
       <r>     3.1785     2.7594    29.2319 </r>
       <r>     3.3406     2.2802    29.6015 </r>
       <r>     3.5027     1.5966    29.8604 </r>
       <r>     3.6648     2.0388    30.1909 </r>
       <r>     3.8270     0.9000    30.3368 </r>
       <r>     3.9891     2.1270    30.6816 </r>
       <r>     4.1512     2.2500    31.0464 </r>
       <r>     4.3133     2.8113    31.5022 </r>
       <r>     4.4754     1.3832    31.7264 </r>
       <r>     4.6376     1.1441    31.9119 </r>
       <r>     4.7997     0.5239    31.9968 </r>
       <r>     4.9618     0.0211    32.0002 </r>
       <r>     5.1239    -0.0018    31.9999 </r>
       <r>     5.2861     0.0036    32.0005 </r>
       <r>     5.4482     0.1388    32.0230 </r>
       <r>     5.6103     0.1188    32.0423 </r>
       <r>     5.7724     0.2990    32.0908 </r>
       <r>     5.9345     0.3993    32.1555 </r>
       <r>     6.0967     0.2751    32.2001 </r>
       <r>     6.2588     0.9908    32.3607 </r>
       <r>     6.4209     0.7616    32.4842 </r>
       <r>     6.5830     1.0393    32.6527 </r>
       <r>     6.7451     1.3275    32.8679 </r>
       <r>     6.9073     1.3237    33.0825 </r>
       <r>     7.0694     1.8359    33.3801 </r>
       <r>     7.2315     1.6244    33.6435 </r>
       <r>     7.3936     1.6754    33.9151 </r>
       <r>     7.5557     1.1132    34.0956 </r>
       <r>     7.7179     1.8753    34.3996 </r>
       <r>     7.8800     1.1635    34.5882 </r>
       <r>     8.0421     1.1509    34.7748 </r>
       <r>     8.2042     1.6127    35.0363 </r>
       <r>     8.3663     2.4977    35.4412 </r>
       <r>     8.5285     1.3773    35.6645 </r>
       <r>     8.6906     0.9418    35.8172 </r>
       <r>     8.8527     0.5869    35.9123 </r>
       <r>     9.0148     0.3254    35.9651 </r>
       <r>     9.1769     0.2251    36.0016 </r>
       <r>     9.3391    -0.0096    36.0000 </r>
       <r>     9.5012    -0.0001    36.0000 </r>
       <r>     9.6633    -0.0000    36.0000 </r>
       <r>     9.8254    -0.0000    36.0000 </r>
       <r>     9.9875     0.0000    36.0000 </r>
       <r>    10.1497     0.0000    36.0000 </r>
       <r>    10.3118     0.0000    36.0000 </r>
       <r>    10.4739     0.0000    36.0000 </r>
       <r>    10.6360     0.0000    36.0000 </r>
       <r>    10.7982     0.0000    36.0000 </r>
       <r>    10.9603     0.0000    36.0000 </r>
       <r>    11.1224     0.0000    36.0000 </r>
       <r>    11.2845     0.0000    36.0000 </r>
      </set>
      <set comment="spin 2">
       <r>   -37.3517     0.0000     0.0000 </r>
       <r>   -37.1896     0.0000     0.0000 </r>
       <r>   -37.0274     0.0000     0.0000 </r>
       <r>   -36.8653     0.0000     0.0000 </r>
       <r>   -36.7032     0.0000     0.0000 </r>
       <r>   -36.5411     0.0000     0.0000 </r>
       <r>   -36.3789     0.0000     0.0000 </r>
       <r>   -36.2168     0.0000     0.0000 </r>
       <r>   -36.0547    -0.0000    -0.0000 </r>
       <r>   -35.8926    -0.0000    -0.0000 </r>
       <r>   -35.7305    -0.0000    -0.0000 </r>
       <r>   -35.5683    -0.0000    -0.0000 </r>
       <r>   -35.4062    -0.0008    -0.0001 </r>
       <r>   -35.2441    -0.1864    -0.0303 </r>
       <r>   -35.0820     4.0903     0.6328 </r>
       <r>   -34.9199    15.1636     3.0911 </r>
       <r>   -34.7577    17.9372     5.9991 </r>
       <r>   -34.5956     0.0328     6.0044 </r>
       <r>   -34.4335    -0.0273     6.0000 </r>
       <r>   -34.2714    -0.0000     6.0000 </r>
       <r>   -34.1093    -0.0000     6.0000 </r>
       <r>   -33.9471     0.0000     6.0000 </r>
       <r>   -33.7850     0.0000     6.0000 </r>
       <r>   -33.6229     0.0000     6.0000 </r>
       <r>   -33.4608     0.0000     6.0000 </r>
       <r>   -33.2987     0.0000     6.0000 </r>
       <r>   -33.1365     0.0000     6.0000 </r>
       <r>   -32.9744     0.0000     6.0000 </r>
       <r>   -32.8123     0.0000     6.0000 </r>
       <r>   -32.6502     0.0000     6.0000 </r>
       <r>   -32.4881     0.0000     6.0000 </r>
       <r>   -32.3259     0.0000     6.0000 </r>
       <r>   -32.1638     0.0000     6.0000 </r>
       <r>   -32.0017     0.0000     6.0000 </r>
       <r>   -31.8396     0.0000     6.0000 </r>
       <r>   -31.6774     0.0000     6.0000 </r>
       <r>   -31.5153     0.0000     6.0000 </r>
       <r>   -31.3532     0.0000     6.0000 </r>
       <r>   -31.1911     0.0000     6.0000 </r>
       <r>   -31.0290     0.0000     6.0000 </r>
       <r>   -30.8668     0.0000     6.0000 </r>
       <r>   -30.7047     0.0000     6.0000 </r>
       <r>   -30.5426     0.0000     6.0000 </r>
       <r>   -30.3805     0.0000     6.0000 </r>
       <r>   -30.2184     0.0000     6.0000 </r>
       <r>   -30.0562     0.0000     6.0000 </r>
       <r>   -29.8941     0.0000     6.0000 </r>
       <r>   -29.7320     0.0000     6.0000 </r>
       <r>   -29.5699     0.0000     6.0000 </r>
       <r>   -29.4078     0.0000     6.0000 </r>
       <r>   -29.2456     0.0000     6.0000 </r>
       <r>   -29.0835     0.0000     6.0000 </r>
       <r>   -28.9214     0.0000     6.0000 </r>
       <r>   -28.7593     0.0000     6.0000 </r>
       <r>   -28.5972     0.0000     6.0000 </r>
       <r>   -28.4350     0.0000     6.0000 </r>
       <r>   -28.2729     0.0000     6.0000 </r>
       <r>   -28.1108     0.0000     6.0000 </r>
       <r>   -27.9487     0.0000     6.0000 </r>
       <r>   -27.7866     0.0000     6.0000 </r>
       <r>   -27.6244     0.0000     6.0000 </r>
       <r>   -27.4623     0.0000     6.0000 </r>
       <r>   -27.3002     0.0000     6.0000 </r>
       <r>   -27.1381     0.0000     6.0000 </r>
       <r>   -26.9760     0.0000     6.0000 </r>
       <r>   -26.8138     0.0000     6.0000 </r>
       <r>   -26.6517     0.0000     6.0000 </r>
       <r>   -26.4896     0.0000     6.0000 </r>
       <r>   -26.3275     0.0000     6.0000 </r>
       <r>   -26.1653     0.0000     6.0000 </r>
       <r>   -26.0032     0.0000     6.0000 </r>
       <r>   -25.8411     0.0000     6.0000 </r>
       <r>   -25.6790     0.0000     6.0000 </r>
       <r>   -25.5169     0.0000     6.0000 </r>
       <r>   -25.3547     0.0000     6.0000 </r>
       <r>   -25.1926     0.0000     6.0000 </r>
       <r>   -25.0305     0.0000     6.0000 </r>
       <r>   -24.8684     0.0000     6.0000 </r>
       <r>   -24.7063     0.0000     6.0000 </r>
       <r>   -24.5441     0.0000     6.0000 </r>
       <r>   -24.3820     0.0000     6.0000 </r>
       <r>   -24.2199     0.0000     6.0000 </r>
       <r>   -24.0578     0.0000     6.0000 </r>
       <r>   -23.8957     0.0000     6.0000 </r>
       <r>   -23.7335     0.0000     6.0000 </r>
       <r>   -23.5714     0.0000     6.0000 </r>
       <r>   -23.4093     0.0000     6.0000 </r>
       <r>   -23.2472     0.0000     6.0000 </r>
       <r>   -23.0851     0.0000     6.0000 </r>
       <r>   -22.9229     0.0000     6.0000 </r>
       <r>   -22.7608     0.0000     6.0000 </r>
       <r>   -22.5987     0.0000     6.0000 </r>
       <r>   -22.4366     0.0000     6.0000 </r>
       <r>   -22.2745     0.0000     6.0000 </r>
       <r>   -22.1123     0.0000     6.0000 </r>
       <r>   -21.9502     0.0000     6.0000 </r>
       <r>   -21.7881     0.0000     6.0000 </r>
       <r>   -21.6260     0.0000     6.0000 </r>
       <r>   -21.4639     0.0000     6.0000 </r>
       <r>   -21.3017     0.0000     6.0000 </r>
       <r>   -21.1396     0.0000     6.0000 </r>
       <r>   -20.9775     0.0000     6.0000 </r>
       <r>   -20.8154     0.0000     6.0000 </r>
       <r>   -20.6532     0.0000     6.0000 </r>
       <r>   -20.4911     0.0000     6.0000 </r>
       <r>   -20.3290     0.0000     6.0000 </r>
       <r>   -20.1669     0.0000     6.0000 </r>
       <r>   -20.0048     0.0000     6.0000 </r>
       <r>   -19.8426     0.0000     6.0000 </r>
       <r>   -19.6805     0.0000     6.0000 </r>
       <r>   -19.5184     0.0000     6.0000 </r>
       <r>   -19.3563     0.0000     6.0000 </r>
       <r>   -19.1942     0.0000     6.0000 </r>
       <r>   -19.0320     0.0000     6.0000 </r>
       <r>   -18.8699     0.0000     6.0000 </r>
       <r>   -18.7078     0.0000     6.0000 </r>
       <r>   -18.5457     0.0000     6.0000 </r>
       <r>   -18.3836     0.0000     6.0000 </r>
       <r>   -18.2214     0.0000     6.0000 </r>
       <r>   -18.0593     0.0000     6.0000 </r>
       <r>   -17.8972     0.0000     6.0000 </r>
       <r>   -17.7351     0.0000     6.0000 </r>
       <r>   -17.5730     0.0000     6.0000 </r>
       <r>   -17.4108     0.0000     6.0000 </r>
       <r>   -17.2487     0.0000     6.0000 </r>
       <r>   -17.0866     0.0000     6.0000 </r>
       <r>   -16.9245     0.0000     6.0000 </r>
       <r>   -16.7624     0.0000     6.0000 </r>
       <r>   -16.6002     0.0000     6.0000 </r>
       <r>   -16.4381     0.0000     6.0000 </r>
       <r>   -16.2760     0.0000     6.0000 </r>
       <r>   -16.1139     0.0000     6.0000 </r>
       <r>   -15.9517     0.0000     6.0000 </r>
       <r>   -15.7896     0.0000     6.0000 </r>
       <r>   -15.6275     0.0000     6.0000 </r>
       <r>   -15.4654     0.0000     6.0000 </r>
       <r>   -15.3033     0.0000     6.0000 </r>
       <r>   -15.1411     0.0000     6.0000 </r>
       <r>   -14.9790     0.0000     6.0000 </r>
       <r>   -14.8169    -0.0000     6.0000 </r>
       <r>   -14.6548    -0.0000     6.0000 </r>
       <r>   -14.4927    -0.0000     6.0000 </r>
       <r>   -14.3305    -0.0000     6.0000 </r>
       <r>   -14.1684    -0.0002     6.0000 </r>
       <r>   -14.0063    -0.0057     5.9990 </r>
       <r>   -13.8442     0.2745     6.0435 </r>
       <r>   -13.6821     0.4502     6.1165 </r>
       <r>   -13.5199     0.6297     6.2186 </r>
       <r>   -13.3578     0.4892     6.2979 </r>
       <r>   -13.1957     0.7266     6.4157 </r>
       <r>   -13.0336     0.3260     6.4686 </r>
       <r>   -12.8715     1.1086     6.6483 </r>
       <r>   -12.7093     0.4178     6.7160 </r>
       <r>   -12.5472     1.8222     7.0114 </r>
       <r>   -12.3851     2.2016     7.3684 </r>
       <r>   -12.2230     2.9304     7.8435 </r>
       <r>   -12.0609     3.9116     8.4776 </r>
       <r>   -11.8987     5.6811     9.3986 </r>
       <r>   -11.7366     3.6467     9.9898 </r>
       <r>   -11.5745     0.0707    10.0013 </r>
       <r>   -11.4124    -0.0080    10.0000 </r>
       <r>   -11.2503    -0.0000    10.0000 </r>
       <r>   -11.0881    -0.0000    10.0000 </r>
       <r>   -10.9260     0.0000    10.0000 </r>
       <r>   -10.7639     0.0000    10.0000 </r>
       <r>   -10.6018     0.0000    10.0000 </r>
       <r>   -10.4396     0.0000    10.0000 </r>
       <r>   -10.2775     0.0000    10.0000 </r>
       <r>   -10.1154     0.0000    10.0000 </r>
       <r>    -9.9533     0.0000    10.0000 </r>
       <r>    -9.7912     0.0000    10.0000 </r>
       <r>    -9.6290     0.0000    10.0000 </r>
       <r>    -9.4669     0.0000    10.0000 </r>
       <r>    -9.3048     0.0000    10.0000 </r>
       <r>    -9.1427     0.0000    10.0000 </r>
       <r>    -8.9806     0.0000    10.0000 </r>
       <r>    -8.8184     0.0000    10.0000 </r>
       <r>    -8.6563     0.0000    10.0000 </r>
       <r>    -8.4942     0.0000    10.0000 </r>
       <r>    -8.3321     0.0000    10.0000 </r>
       <r>    -8.1700     0.0000    10.0000 </r>
       <r>    -8.0078     0.0000    10.0000 </r>
       <r>    -7.8457     0.0000    10.0000 </r>
       <r>    -7.6836     0.0000    10.0000 </r>
       <r>    -7.5215     0.0000    10.0000 </r>
       <r>    -7.3594     0.0000    10.0000 </r>
       <r>    -7.1972     0.0000    10.0000 </r>
       <r>    -7.0351     0.0000    10.0000 </r>
       <r>    -6.8730     0.0000    10.0000 </r>
       <r>    -6.7109     0.0000    10.0000 </r>
       <r>    -6.5488    -0.0000    10.0000 </r>
       <r>    -6.3866    -0.0000    10.0000 </r>
       <r>    -6.2245    -0.0000    10.0000 </r>
       <r>    -6.0624    -0.0000    10.0000 </r>
       <r>    -5.9003    -0.0004     9.9999 </r>
       <r>    -5.7382    -0.0230     9.9962 </r>
       <r>    -5.5760     0.7237    10.1135 </r>
       <r>    -5.4139     1.3022    10.3247 </r>
       <r>    -5.2518     2.2442    10.6885 </r>
       <r>    -5.0897     2.9486    11.1665 </r>
       <r>    -4.9275     4.8580    11.9541 </r>
       <r>    -4.7654     2.4706    12.3547 </r>
       <r>    -4.6033     2.5333    12.7654 </r>
       <r>    -4.4412     1.1520    12.9521 </r>
       <r>    -4.2791     0.4540    13.0257 </r>
       <r>    -4.1169     0.7748    13.1513 </r>
       <r>    -3.9548     1.8082    13.4445 </r>
       <r>    -3.7927     4.3363    14.1475 </r>
       <r>    -3.6306     4.7941    14.9247 </r>
       <r>    -3.4685     2.4906    15.3285 </r>
       <r>    -3.3063     1.1309    15.5118 </r>
       <r>    -3.1442     3.9082    16.1454 </r>
       <r>    -2.9821     5.1762    16.9846 </r>
       <r>    -2.8200     2.8915    17.4534 </r>
       <r>    -2.6579     1.5658    17.7072 </r>
       <r>    -2.4957     1.0501    17.8775 </r>
       <r>    -2.3336     1.9512    18.1938 </r>
       <r>    -2.1715     1.6083    18.4545 </r>
       <r>    -2.0094     3.3904    19.0042 </r>
       <r>    -1.8473     3.7784    19.6167 </r>
       <r>    -1.6851     3.3331    20.1571 </r>
       <r>    -1.5230     2.9765    20.6397 </r>
       <r>    -1.3609     3.1132    21.1444 </r>
       <r>    -1.1988     1.6480    21.4116 </r>
       <r>    -1.0367     2.1224    21.7556 </r>
       <r>    -0.8745     2.1019    22.0964 </r>
       <r>    -0.7124     3.4789    22.6604 </r>
       <r>    -0.5503     2.9170    23.1333 </r>
       <r>    -0.3882     2.2569    23.4992 </r>
       <r>    -0.2260     1.6072    23.7598 </r>
       <r>    -0.0639     1.0288    23.9265 </r>
       <r>     0.0982     0.2321    23.9642 </r>
       <r>     0.2603     0.2195    23.9998 </r>
       <r>     0.4224     0.0019    24.0001 </r>
       <r>     0.5846    -0.0004    24.0000 </r>
       <r>     0.7467    -0.0000    24.0000 </r>
       <r>     0.9088    -0.0000    24.0000 </r>
       <r>     1.0709    -0.0000    24.0000 </r>
       <r>     1.2330    -0.0000    24.0000 </r>
       <r>     1.3952    -0.0000    24.0000 </r>
       <r>     1.5573    -0.0146    23.9976 </r>
       <r>     1.7194     0.2887    24.0444 </r>
       <r>     1.8815     1.3486    24.2631 </r>
       <r>     2.0436     3.2105    24.7836 </r>
       <r>     2.2058     5.2935    25.6418 </r>
       <r>     2.3679     3.4918    26.2079 </r>
       <r>     2.5300     5.0937    27.0337 </r>
       <r>     2.6921     4.7235    27.7994 </r>
       <r>     2.8542     3.2143    28.3205 </r>
       <r>     3.0164     2.8672    28.7854 </r>
       <r>     3.1785     2.7628    29.2333 </r>
       <r>     3.3406     2.2760    29.6022 </r>
       <r>     3.5027     1.5967    29.8611 </r>
       <r>     3.6648     2.0368    30.1913 </r>
       <r>     3.8270     0.8997    30.3372 </r>
       <r>     3.9891     2.1304    30.6825 </r>
       <r>     4.1512     2.2535    31.0479 </r>
       <r>     4.3133     2.8086    31.5032 </r>
       <r>     4.4754     1.3795    31.7269 </r>
       <r>     4.6376     1.1441    31.9123 </r>
       <r>     4.7997     0.5216    31.9969 </r>
       <r>     4.9618     0.0206    32.0002 </r>
       <r>     5.1239    -0.0015    32.0000 </r>
       <r>     5.2861    -0.0012    31.9998 </r>
       <r>     5.4482     0.0182    32.0028 </r>
       <r>     5.6103     0.2075    32.0364 </r>
       <r>     5.7724     0.1092    32.0541 </r>
       <r>     5.9345     0.5507    32.1434 </r>
       <r>     6.0967     0.2534    32.1845 </r>
       <r>     6.2588     0.8921    32.3291 </r>
       <r>     6.4209     0.8153    32.4613 </r>
       <r>     6.5830     1.2797    32.6687 </r>
       <r>     6.7451     0.9396    32.8211 </r>
       <r>     6.9073     1.6209    33.0838 </r>
       <r>     7.0694     1.7180    33.3624 </r>
       <r>     7.2315     1.4570    33.5986 </r>
       <r>     7.3936     1.5085    33.8431 </r>
       <r>     7.5557     1.6955    34.1180 </r>
       <r>     7.7179     1.5266    34.3655 </r>
       <r>     7.8800     1.3384    34.5825 </r>
       <r>     8.0421     1.0088    34.7460 </r>
       <r>     8.2042     1.6826    35.0188 </r>
       <r>     8.3663     2.4144    35.4102 </r>
       <r>     8.5285     1.7576    35.6952 </r>
       <r>     8.6906     0.6577    35.8018 </r>
       <r>     8.8527     0.6231    35.9028 </r>
       <r>     9.0148     0.3501    35.9596 </r>
       <r>     9.1769     0.2591    36.0016 </r>
       <r>     9.3391    -0.0096    36.0000 </r>
       <r>     9.5012    -0.0001    36.0000 </r>
       <r>     9.6633    -0.0000    36.0000 </r>
       <r>     9.8254    -0.0000    36.0000 </r>
       <r>     9.9875     0.0000    36.0000 </r>
       <r>    10.1497     0.0000    36.0000 </r>
       <r>    10.3118     0.0000    36.0000 </r>
       <r>    10.4739     0.0000    36.0000 </r>
       <r>    10.6360     0.0000    36.0000 </r>
       <r>    10.7982     0.0000    36.0000 </r>
       <r>    10.9603     0.0000    36.0000 </r>
       <r>    11.1224     0.0000    36.0000 </r>
       <r>    11.2845     0.0000    36.0000 </r>
      </set>
     </set>
    </array>
   </total>
  </dos>
 </calculation>
 <structure name="finalpos" >
  <crystal>
   <varray name="basis" >
    <v>       3.19031700       0.00000000       0.00000000 </v>
    <v>      -1.59515800       2.76289700       0.00000000 </v>
    <v>       0.00000000       0.00000000      23.14049200 </v>
   </varray>
   <i name="volume">    203.97226633 </i>
   <varray name="rec_basis" >
    <v>       0.31344848       0.18096941       0.00000000 </v>
    <v>       0.00000000       0.36193894       0.00000000 </v>
    <v>       0.00000000       0.00000000       0.04321429 </v>
   </varray>
  </crystal>
  <varray name="positions" >
   <v>       0.66666700       0.33333300       0.06785900 </v>
   <v>       0.33333300       0.66666700       0.00000000 </v>
   <v>       0.33333300       0.66666700       0.13571500 </v>
   <v>       0.52380986       0.76190443       0.35482300 </v>
   <v>       0.19047586       0.09523843       0.28696500 </v>
   <v>       0.19047586       0.09523843       0.42267900 </v>
  </varray>
 </structure>
</modeling>
