  24  24   0   0
  0.4176334E+02  0.3540400E-09  0.1044544E-08  0.2750143E-08  0.5000000E-15
  1.000000000000000E-004
  CAR 
 unknown system                          
      4.14162145    -16.08653508  301     -0.05257542      1.00000000
    -16.087  0.0000E+00  0.0000E+00
    -16.019  0.0000E+00  0.0000E+00
    -15.952  0.0000E+00  0.0000E+00
    -15.884  0.0000E+00  0.0000E+00
    -15.817  0.0000E+00  0.0000E+00
    -15.749  0.0000E+00  0.0000E+00
    -15.682  0.0000E+00  0.0000E+00
    -15.615  0.7428E-13  0.5009E-14
    -15.547  0.6874E-10  0.4640E-11
    -15.480  0.2625E-07  0.1775E-08
    -15.412  0.4177E-05  0.2834E-06
    -15.345  0.2812E-03  0.1925E-04
    -15.277  0.8188E-02  0.5714E-03
    -15.210  0.1062E+00  0.7731E-02
    -15.143  0.6335E+00  0.5045E-01
    -15.075  0.1793E+01  0.1714E+00
    -15.008  0.2537E+01  0.3424E+00
    -14.940  0.2271E+01  0.4955E+00
    -14.873  0.2021E+01  0.6318E+00
    -14.805  0.1494E+01  0.7325E+00
    -14.738  0.9300E+00  0.7952E+00
    -14.671  0.1340E+01  0.8856E+00
    -14.603  0.1656E+01  0.9973E+00
    -14.536  0.9532E+00  0.1062E+01
    -14.468  0.4379E+00  0.1091E+01
    -14.401  0.9241E+00  0.1153E+01
    -14.333  0.1642E+01  0.1264E+01
    -14.266  0.1292E+01  0.1351E+01
    -14.199  0.5113E+00  0.1386E+01
    -14.131  0.5595E+00  0.1423E+01
    -14.064  0.1371E+01  0.1516E+01
    -13.996  0.1671E+01  0.1629E+01
    -13.929  0.1250E+01  0.1713E+01
    -13.861  0.1464E+01  0.1812E+01
    -13.794  0.1658E+01  0.1923E+01
    -13.727  0.9026E+00  0.1984E+01
    -13.659  0.2159E+00  0.1999E+01
    -13.592  0.6467E-01  0.2003E+01
    -13.524  0.2779E+00  0.2022E+01
    -13.457  0.9569E+00  0.2086E+01
    -13.389  0.1967E+01  0.2219E+01
    -13.322  0.2871E+01  0.2413E+01
    -13.255  0.3572E+01  0.2653E+01
    -13.187  0.3848E+01  0.2913E+01
    -13.120  0.3697E+01  0.3162E+01
    -13.052  0.3375E+01  0.3390E+01
    -12.985  0.3118E+01  0.3600E+01
    -12.917  0.3547E+01  0.3839E+01
    -12.850  0.4404E+01  0.4136E+01
    -12.783  0.4824E+01  0.4461E+01
    -12.715  0.4605E+01  0.4772E+01
    -12.648  0.4159E+01  0.5052E+01
    -12.580  0.3892E+01  0.5315E+01
    -12.513  0.4372E+01  0.5610E+01
    -12.445  0.5492E+01  0.5980E+01
    -12.378  0.6709E+01  0.6432E+01
    -12.311  0.6664E+01  0.6882E+01
    -12.243  0.5242E+01  0.7235E+01
    -12.176  0.4328E+01  0.7527E+01
    -12.108  0.4195E+01  0.7810E+01
    -12.041  0.4880E+01  0.8139E+01
    -11.973  0.6963E+01  0.8608E+01
    -11.906  0.8256E+01  0.9165E+01
    -11.839  0.6960E+01  0.9634E+01
    -11.771  0.5435E+01  0.1000E+02
    -11.704  0.5336E+01  0.1036E+02
    -11.636  0.5705E+01  0.1075E+02
    -11.569  0.6405E+01  0.1118E+02
    -11.501  0.7961E+01  0.1171E+02
    -11.434  0.1004E+02  0.1239E+02
    -11.367  0.1049E+02  0.1310E+02
    -11.299  0.9359E+01  0.1373E+02
    -11.232  0.9628E+01  0.1438E+02
    -11.164  0.1084E+02  0.1511E+02
    -11.097  0.1005E+02  0.1579E+02
    -11.029  0.8320E+01  0.1635E+02
    -10.962  0.8170E+01  0.1690E+02
    -10.895  0.8747E+01  0.1749E+02
    -10.827  0.8527E+01  0.1806E+02
    -10.760  0.8806E+01  0.1866E+02
    -10.692  0.9597E+01  0.1930E+02
    -10.625  0.9544E+01  0.1995E+02
    -10.558  0.1017E+02  0.2063E+02
    -10.490  0.1024E+02  0.2132E+02
    -10.423  0.8587E+01  0.2190E+02
    -10.355  0.7256E+01  0.2239E+02
    -10.288  0.5814E+01  0.2278E+02
    -10.220  0.4268E+01  0.2307E+02
    -10.153  0.4042E+01  0.2334E+02
    -10.086  0.4484E+01  0.2365E+02
    -10.018  0.3490E+01  0.2388E+02
     -9.951  0.1441E+01  0.2398E+02
     -9.883  0.2865E+00  0.2400E+02
     -9.816  0.2635E-01  0.2400E+02
     -9.748  0.1090E-02  0.2400E+02
     -9.681  0.1985E-04  0.2400E+02
     -9.614  0.1738E-05  0.2400E+02
     -9.546  0.1337E-03  0.2400E+02
     -9.479  0.4776E-02  0.2400E+02
     -9.411  0.7294E-01  0.2401E+02
     -9.344  0.4844E+00  0.2404E+02
     -9.276  0.1441E+01  0.2414E+02
     -9.209  0.2074E+01  0.2427E+02
     -9.142  0.1926E+01  0.2440E+02
     -9.074  0.2288E+01  0.2456E+02
     -9.007  0.3539E+01  0.2480E+02
     -8.939  0.4595E+01  0.2511E+02
     -8.872  0.5373E+01  0.2547E+02
     -8.804  0.6076E+01  0.2588E+02
     -8.737  0.6347E+01  0.2631E+02
     -8.670  0.6628E+01  0.2675E+02
     -8.602  0.8339E+01  0.2732E+02
     -8.535  0.1187E+02  0.2812E+02
     -8.467  0.1290E+02  0.2899E+02
     -8.400  0.9919E+01  0.2966E+02
     -8.332  0.7560E+01  0.3016E+02
     -8.265  0.6301E+01  0.3059E+02
     -8.198  0.4469E+01  0.3089E+02
     -8.130  0.2947E+01  0.3109E+02
     -8.063  0.2753E+01  0.3128E+02
     -7.995  0.3070E+01  0.3148E+02
     -7.928  0.3165E+01  0.3170E+02
     -7.860  0.3454E+01  0.3193E+02
     -7.793  0.4220E+01  0.3221E+02
     -7.726  0.5517E+01  0.3259E+02
     -7.658  0.6128E+01  0.3300E+02
     -7.591  0.5245E+01  0.3335E+02
     -7.523  0.4080E+01  0.3363E+02
     -7.456  0.3544E+01  0.3387E+02
     -7.388  0.3898E+01  0.3413E+02
     -7.321  0.5636E+01  0.3451E+02
     -7.254  0.7482E+01  0.3501E+02
     -7.186  0.7468E+01  0.3552E+02
     -7.119  0.6452E+01  0.3595E+02
     -7.051  0.5886E+01  0.3635E+02
     -6.984  0.5118E+01  0.3669E+02
     -6.916  0.4708E+01  0.3701E+02
     -6.849  0.5732E+01  0.3740E+02
     -6.782  0.7452E+01  0.3790E+02
     -6.714  0.8607E+01  0.3848E+02
     -6.647  0.9830E+01  0.3914E+02
     -6.579  0.1178E+02  0.3994E+02
     -6.512  0.1107E+02  0.4068E+02
     -6.444  0.7495E+01  0.4119E+02
     -6.377  0.4447E+01  0.4149E+02
     -6.310  0.3282E+01  0.4171E+02
     -6.242  0.2921E+01  0.4191E+02
     -6.175  0.3164E+01  0.4212E+02
     -6.107  0.4286E+01  0.4241E+02
     -6.040  0.4934E+01  0.4274E+02
     -5.972  0.4964E+01  0.4308E+02
     -5.905  0.5565E+01  0.4345E+02
     -5.838  0.6581E+01  0.4390E+02
     -5.770  0.6532E+01  0.4434E+02
     -5.703  0.6143E+01  0.4475E+02
     -5.635  0.6553E+01  0.4519E+02
     -5.568  0.7354E+01  0.4569E+02
     -5.500  0.8133E+01  0.4624E+02
     -5.433  0.7197E+01  0.4672E+02
     -5.366  0.5019E+01  0.4706E+02
     -5.298  0.4695E+01  0.4738E+02
     -5.231  0.5753E+01  0.4777E+02
     -5.163  0.5549E+01  0.4814E+02
     -5.096  0.4575E+01  0.4845E+02
     -5.028  0.5656E+01  0.4883E+02
     -4.961  0.1006E+02  0.4951E+02
     -4.894  0.1355E+02  0.5042E+02
     -4.826  0.1314E+02  0.5131E+02
     -4.759  0.1073E+02  0.5203E+02
     -4.691  0.9112E+01  0.5265E+02
     -4.624  0.9921E+01  0.5331E+02
     -4.556  0.1106E+02  0.5406E+02
     -4.489  0.1074E+02  0.5478E+02
     -4.422  0.1096E+02  0.5552E+02
     -4.354  0.1162E+02  0.5631E+02
     -4.287  0.1195E+02  0.5711E+02
     -4.219  0.1215E+02  0.5793E+02
     -4.152  0.1216E+02  0.5875E+02
     -4.084  0.1228E+02  0.5958E+02
     -4.017  0.1315E+02  0.6047E+02
     -3.950  0.1394E+02  0.6141E+02
     -3.882  0.1293E+02  0.6228E+02
     -3.815  0.1069E+02  0.6300E+02
     -3.747  0.9939E+01  0.6367E+02
     -3.680  0.1181E+02  0.6446E+02
     -3.613  0.1357E+02  0.6538E+02
     -3.545  0.1434E+02  0.6635E+02
     -3.478  0.1405E+02  0.6729E+02
     -3.410  0.1275E+02  0.6815E+02
     -3.343  0.1262E+02  0.6900E+02
     -3.275  0.1368E+02  0.6993E+02
     -3.208  0.1432E+02  0.7089E+02
     -3.141  0.1470E+02  0.7188E+02
     -3.073  0.1557E+02  0.7293E+02
     -3.006  0.1714E+02  0.7409E+02
     -2.938  0.1771E+02  0.7528E+02
     -2.871  0.1551E+02  0.7633E+02
     -2.803  0.1249E+02  0.7717E+02
     -2.736  0.1223E+02  0.7800E+02
     -2.669  0.1505E+02  0.7901E+02
     -2.601  0.1714E+02  0.8017E+02
     -2.534  0.1666E+02  0.8129E+02
     -2.466  0.1534E+02  0.8232E+02
     -2.399  0.1396E+02  0.8326E+02
     -2.331  0.1338E+02  0.8417E+02
     -2.264  0.1289E+02  0.8504E+02
     -2.197  0.1198E+02  0.8584E+02
     -2.129  0.1234E+02  0.8668E+02
     -2.062  0.1441E+02  0.8765E+02
     -1.994  0.1841E+02  0.8889E+02
     -1.927  0.2194E+02  0.9037E+02
     -1.859  0.2197E+02  0.9185E+02
     -1.792  0.2009E+02  0.9320E+02
     -1.725  0.1811E+02  0.9443E+02
     -1.657  0.1642E+02  0.9553E+02
     -1.590  0.1511E+02  0.9655E+02
     -1.522  0.1249E+02  0.9739E+02
     -1.455  0.9746E+01  0.9805E+02
     -1.387  0.9284E+01  0.9868E+02
     -1.320  0.9193E+01  0.9930E+02
     -1.253  0.8981E+01  0.9990E+02
     -1.185  0.9537E+01  0.1005E+03
     -1.118  0.9047E+01  0.1012E+03
     -1.050  0.7292E+01  0.1016E+03
     -0.983  0.6449E+01  0.1021E+03
     -0.915  0.7038E+01  0.1026E+03
     -0.848  0.7276E+01  0.1030E+03
     -0.781  0.6214E+01  0.1035E+03
     -0.713  0.5097E+01  0.1038E+03
     -0.646  0.4962E+01  0.1041E+03
     -0.578  0.5526E+01  0.1045E+03
     -0.511  0.5624E+01  0.1049E+03
     -0.443  0.5003E+01  0.1052E+03
     -0.376  0.5136E+01  0.1056E+03
     -0.309  0.6913E+01  0.1060E+03
     -0.241  0.9251E+01  0.1067E+03
     -0.174  0.9108E+01  0.1073E+03
     -0.106  0.6663E+01  0.1077E+03
     -0.039  0.4913E+01  0.1081E+03
      0.029  0.5424E+01  0.1084E+03
      0.096  0.7337E+01  0.1089E+03
      0.163  0.7673E+01  0.1094E+03
      0.231  0.6610E+01  0.1099E+03
      0.298  0.6070E+01  0.1103E+03
      0.366  0.6601E+01  0.1107E+03
      0.433  0.6773E+01  0.1112E+03
      0.501  0.5072E+01  0.1115E+03
      0.568  0.3405E+01  0.1118E+03
      0.635  0.3464E+01  0.1120E+03
      0.703  0.3664E+01  0.1123E+03
      0.770  0.3220E+01  0.1125E+03
      0.838  0.3293E+01  0.1127E+03
      0.905  0.3317E+01  0.1129E+03
      0.973  0.2784E+01  0.1131E+03
      1.040  0.2404E+01  0.1133E+03
      1.107  0.2836E+01  0.1135E+03
      1.175  0.4392E+01  0.1138E+03
      1.242  0.6211E+01  0.1142E+03
      1.310  0.7384E+01  0.1147E+03
      1.377  0.8099E+01  0.1152E+03
      1.445  0.9025E+01  0.1158E+03
      1.512  0.9787E+01  0.1165E+03
      1.579  0.1034E+02  0.1172E+03
      1.647  0.1144E+02  0.1180E+03
      1.714  0.1219E+02  0.1188E+03
      1.782  0.1352E+02  0.1197E+03
      1.849  0.1568E+02  0.1207E+03
      1.917  0.1566E+02  0.1218E+03
      1.984  0.1383E+02  0.1227E+03
      2.051  0.1322E+02  0.1236E+03
      2.119  0.1321E+02  0.1245E+03
      2.186  0.1341E+02  0.1254E+03
      2.254  0.1489E+02  0.1264E+03
      2.321  0.1562E+02  0.1275E+03
      2.389  0.1455E+02  0.1285E+03
      2.456  0.1358E+02  0.1294E+03
      2.523  0.1248E+02  0.1302E+03
      2.591  0.1077E+02  0.1309E+03
      2.658  0.1072E+02  0.1317E+03
      2.726  0.1237E+02  0.1325E+03
      2.793  0.1250E+02  0.1333E+03
      2.861  0.1060E+02  0.1341E+03
      2.928  0.8308E+01  0.1346E+03
      2.995  0.6539E+01  0.1351E+03
      3.063  0.5550E+01  0.1354E+03
      3.130  0.4630E+01  0.1357E+03
      3.198  0.2796E+01  0.1359E+03
      3.265  0.9300E+00  0.1360E+03
      3.332  0.1488E+00  0.1360E+03
      3.400  0.1077E-01  0.1360E+03
      3.467  0.3414E-03  0.1360E+03
      3.535  0.4638E-05  0.1360E+03
      3.602  0.2664E-07  0.1360E+03
      3.670  0.6405E-10  0.1360E+03
      3.737  0.6396E-13  0.1360E+03
      3.804  0.0000E+00  0.1360E+03
      3.872  0.0000E+00  0.1360E+03
      3.939  0.0000E+00  0.1360E+03
      4.007  0.0000E+00  0.1360E+03
      4.074  0.0000E+00  0.1360E+03
      4.142  0.0000E+00  0.1360E+03
