       N       E                     dE             d eps       ncg     rms          rms(c)
DAV:   1     0.504379079397E+03    0.50438E+03   -0.28735E+04  7376   0.790E+02
DAV:   2    -0.596950588613E+02   -0.56407E+03   -0.54953E+03  9776   0.190E+02
DAV:   3    -0.116882938193E+03   -0.57188E+02   -0.56317E+02  8808   0.626E+01
DAV:   4    -0.119509045575E+03   -0.26261E+01   -0.26067E+01 11000   0.144E+01
DAV:   5    -0.119572421472E+03   -0.63376E-01   -0.63255E-01 10104   0.216E+00    0.120E+01
DAV:   6    -0.115623425869E+03    0.39490E+01   -0.21951E+01  8764   0.115E+01    0.625E+00
DAV:   7    -0.115401222780E+03    0.22220E+00   -0.14876E+01  8872   0.794E+00    0.406E+00
DAV:   8    -0.115228437747E+03    0.17279E+00   -0.24210E+00  9120   0.405E+00    0.175E+00
DAV:   9    -0.115194941233E+03    0.33497E-01   -0.72221E-01  9124   0.261E+00    0.927E-01
DAV:  10    -0.115182747662E+03    0.12194E-01   -0.17484E-01  8800   0.119E+00    0.403E-01
DAV:  11    -0.115170018648E+03    0.12729E-01   -0.48994E-02  9048   0.579E-01    0.163E-01
DAV:  12    -0.115165268398E+03    0.47503E-02   -0.98714E-03  8800   0.279E-01    0.712E-02
DAV:  13    -0.115159946123E+03    0.53223E-02   -0.10151E-03  9352   0.903E-02    0.356E-02
DAV:  14    -0.115156781849E+03    0.31643E-02   -0.22132E-04  9352   0.433E-02    0.165E-02
DAV:  15    -0.115155599466E+03    0.11824E-02   -0.80474E-05  9112   0.241E-02    0.995E-03
DAV:  16    -0.115155431226E+03    0.16824E-03   -0.59085E-05  8064   0.200E-02    0.599E-03
DAV:  17    -0.115155762095E+03   -0.33087E-03   -0.68302E-05  8192   0.182E-02    0.395E-03
DAV:  18    -0.115156110775E+03   -0.34868E-03   -0.16026E-04  7904   0.210E-02    0.210E-03
DAV:  19    -0.115156238247E+03   -0.12747E-03   -0.39396E-05  7464   0.122E-02    0.131E-03
DAV:  20    -0.115156274110E+03   -0.35863E-04   -0.10119E-05  6664   0.728E-03    0.863E-04
DAV:  21    -0.115156286297E+03   -0.12188E-04   -0.39275E-05  7032   0.119E-02    0.616E-04
DAV:  22    -0.115156255652E+03    0.30645E-04   -0.22093E-05  6648   0.132E-02    0.345E-04
DAV:  23    -0.115156175864E+03    0.79788E-04   -0.11468E-05  6568   0.877E-03    0.198E-04
DAV:  24    -0.115156163703E+03    0.12161E-04   -0.55914E-06  6588   0.761E-03    0.111E-04
DAV:  25    -0.115156144971E+03    0.18732E-04   -0.49314E-06  6520   0.762E-03    0.474E-05
DAV:  26    -0.115156144929E+03    0.42229E-07   -0.43197E-06  6848   0.701E-03
   1 F= -.11515614E+03 E0= -.11514442E+03  d E =-.234544E-01
