<?xml version="1.0" encoding="ISO-8859-1"?>
<modeling>
 <generator>
  <i name="program" type="string">vasp </i>
  <i name="version" type="string">5.3.5  </i>
  <i name="subversion" type="string">31Mar14 (build Oct 29 2014 16:16:03) complex                          parallel </i>
  <i name="platform" type="string">Linux-UFHPC </i>
  <i name="date" type="string">2016 02 09 </i>
  <i name="time" type="string">18:43:13 </i>
 </generator>
 <incar>
  <i type="string" name="PREC">accurate</i>
  <i type="int" name="IBRION">     2</i>
  <i name="EDIFF">      0.00000100</i>
  <i type="int" name="NSW">     0</i>
  <i type="int" name="ISIF">     3</i>
  <i name="ENCUT">    300.00000000</i>
  <i type="string" name="LREAL"> Auto</i>
  <i type="int" name="ISMEAR">     0</i>
  <i name="SIGMA">      0.10000000</i>
  <i type="logical" name="LWAVE"> F  </i>
  <i type="logical" name="LCHARG"> F  </i>
  <i type="logical" name="LAECHG"> F  </i>
  <i type="string" name="GGA"> Bo</i>
  <i name="PARAM1">      0.18333333</i>
  <i name="PARAM2">      0.22000000</i>
  <i type="logical" name="LUSE_VDW"> T  </i>
  <i name="AGGAC">      0.00000000</i>
 </incar>
 <kpoints>
  <generation param="Gamma">
   <v type="int" name="divisions">      13        4        2 </v>
   <v name="usershift">      0.00000000       0.00000000       0.00000000 </v>
   <v name="genvec1">      0.07692308      -0.00000000       0.00000000 </v>
   <v name="genvec2">      0.00000000       0.25000000       0.00000000 </v>
   <v name="genvec3">      0.00000000       0.00000000       0.50000000 </v>
   <v name="shift">      0.00000000       0.00000000       0.00000000 </v>
  </generation>
  <varray name="kpointlist" >
   <v>       0.00000000       0.00000000       0.00000000 </v>
   <v>       0.07692308      -0.00000000       0.00000000 </v>
   <v>       0.15384615      -0.00000000       0.00000000 </v>
   <v>       0.23076923      -0.00000000       0.00000000 </v>
   <v>       0.30769231      -0.00000000       0.00000000 </v>
   <v>       0.38461538      -0.00000000       0.00000000 </v>
   <v>       0.46153846      -0.00000000       0.00000000 </v>
   <v>       0.00000000       0.25000000       0.00000000 </v>
   <v>       0.07692308       0.25000000       0.00000000 </v>
   <v>       0.15384615       0.25000000       0.00000000 </v>
   <v>       0.23076923       0.25000000       0.00000000 </v>
   <v>       0.30769231       0.25000000       0.00000000 </v>
   <v>       0.38461538       0.25000000       0.00000000 </v>
   <v>       0.46153846       0.25000000       0.00000000 </v>
   <v>      -0.46153846       0.25000000       0.00000000 </v>
   <v>      -0.38461538       0.25000000       0.00000000 </v>
   <v>      -0.30769231       0.25000000       0.00000000 </v>
   <v>      -0.23076923       0.25000000       0.00000000 </v>
   <v>      -0.15384615       0.25000000       0.00000000 </v>
   <v>      -0.07692308       0.25000000       0.00000000 </v>
   <v>       0.00000000       0.50000000       0.00000000 </v>
   <v>       0.07692308       0.50000000       0.00000000 </v>
   <v>       0.15384615       0.50000000       0.00000000 </v>
   <v>       0.23076923       0.50000000       0.00000000 </v>
   <v>       0.30769231       0.50000000       0.00000000 </v>
   <v>       0.38461538       0.50000000       0.00000000 </v>
   <v>       0.46153846       0.50000000       0.00000000 </v>
   <v>       0.00000000       0.00000000       0.50000000 </v>
   <v>       0.07692308      -0.00000000       0.50000000 </v>
   <v>       0.15384615      -0.00000000       0.50000000 </v>
   <v>       0.23076923      -0.00000000       0.50000000 </v>
   <v>       0.30769231      -0.00000000       0.50000000 </v>
   <v>       0.38461538      -0.00000000       0.50000000 </v>
   <v>       0.46153846      -0.00000000       0.50000000 </v>
   <v>       0.00000000       0.25000000       0.50000000 </v>
   <v>       0.07692308       0.25000000       0.50000000 </v>
   <v>       0.15384615       0.25000000       0.50000000 </v>
   <v>       0.23076923       0.25000000       0.50000000 </v>
   <v>       0.30769231       0.25000000       0.50000000 </v>
   <v>       0.38461538       0.25000000       0.50000000 </v>
   <v>       0.46153846       0.25000000       0.50000000 </v>
   <v>      -0.46153846       0.25000000       0.50000000 </v>
   <v>      -0.38461538       0.25000000       0.50000000 </v>
   <v>      -0.30769231       0.25000000       0.50000000 </v>
   <v>      -0.23076923       0.25000000       0.50000000 </v>
   <v>      -0.15384615       0.25000000       0.50000000 </v>
   <v>      -0.07692308       0.25000000       0.50000000 </v>
   <v>       0.00000000       0.50000000       0.50000000 </v>
   <v>       0.07692308       0.50000000       0.50000000 </v>
   <v>       0.15384615       0.50000000       0.50000000 </v>
   <v>       0.23076923       0.50000000       0.50000000 </v>
   <v>       0.30769231       0.50000000       0.50000000 </v>
   <v>       0.38461538       0.50000000       0.50000000 </v>
   <v>       0.46153846       0.50000000       0.50000000 </v>
  </varray>
  <varray name="weights" >
   <v>       0.00961538 </v>
   <v>       0.01923077 </v>
   <v>       0.01923077 </v>
   <v>       0.01923077 </v>
   <v>       0.01923077 </v>
   <v>       0.01923077 </v>
   <v>       0.01923077 </v>
   <v>       0.01923077 </v>
   <v>       0.01923077 </v>
   <v>       0.01923077 </v>
   <v>       0.01923077 </v>
   <v>       0.01923077 </v>
   <v>       0.01923077 </v>
   <v>       0.01923077 </v>
   <v>       0.01923077 </v>
   <v>       0.01923077 </v>
   <v>       0.01923077 </v>
   <v>       0.01923077 </v>
   <v>       0.01923077 </v>
   <v>       0.01923077 </v>
   <v>       0.00961538 </v>
   <v>       0.01923077 </v>
   <v>       0.01923077 </v>
   <v>       0.01923077 </v>
   <v>       0.01923077 </v>
   <v>       0.01923077 </v>
   <v>       0.01923077 </v>
   <v>       0.00961538 </v>
   <v>       0.01923077 </v>
   <v>       0.01923077 </v>
   <v>       0.01923077 </v>
   <v>       0.01923077 </v>
   <v>       0.01923077 </v>
   <v>       0.01923077 </v>
   <v>       0.01923077 </v>
   <v>       0.01923077 </v>
   <v>       0.01923077 </v>
   <v>       0.01923077 </v>
   <v>       0.01923077 </v>
   <v>       0.01923077 </v>
   <v>       0.01923077 </v>
   <v>       0.01923077 </v>
   <v>       0.01923077 </v>
   <v>       0.01923077 </v>
   <v>       0.01923077 </v>
   <v>       0.01923077 </v>
   <v>       0.01923077 </v>
   <v>       0.00961538 </v>
   <v>       0.01923077 </v>
   <v>       0.01923077 </v>
   <v>       0.01923077 </v>
   <v>       0.01923077 </v>
   <v>       0.01923077 </v>
   <v>       0.01923077 </v>
  </varray>
 </kpoints>
 <parameters>
  <separator name="general" >
   <i type="string" name="SYSTEM">unknown system</i>
   <i type="logical" name="LCOMPAT"> F  </i>
  </separator>
  <separator name="electronic" >
   <i type="string" name="PREC">accura</i>
   <i name="ENMAX">    300.00000000</i>
   <i name="ENAUG">    342.92400000</i>
   <i name="EDIFF">      0.00000100</i>
   <i type="int" name="IALGO">    38</i>
   <i type="int" name="IWAVPR">    10</i>
   <i type="int" name="NBANDS">    68</i>
   <i name="NELECT">    108.00000000</i>
   <i type="int" name="TURBO">     0</i>
   <i type="int" name="IRESTART">     0</i>
   <i type="int" name="NREBOOT">     0</i>
   <i type="int" name="NMIN">     0</i>
   <i name="EREF">      0.00000000</i>
   <separator name="electronic smearing" >
    <i type="int" name="ISMEAR">     0</i>
    <i name="SIGMA">      0.10000000</i>
    <i name="KSPACING">      0.50000000</i>
    <i type="logical" name="KGAMMA"> T  </i>
   </separator>
   <separator name="electronic projectors" >
    <i type="logical" name="LREAL"> T  </i>
    <v name="ROPT">     -0.00025000     -0.00025000</v>
    <i type="int" name="LMAXPAW">  -100</i>
    <i type="int" name="LMAXMIX">     2</i>
    <i type="logical" name="NLSPLINE"> F  </i>
   </separator>
   <separator name="electronic startup" >
    <i type="int" name="ISTART">     0</i>
    <i type="int" name="ICHARG">     2</i>
    <i type="int" name="INIWAV">     1</i>
   </separator>
   <separator name="electronic spin" >
    <i type="int" name="ISPIN">     1</i>
    <i type="logical" name="LNONCOLLINEAR"> F  </i>
    <v name="MAGMOM">      1.00000000      1.00000000      1.00000000      1.00000000      1.00000000      1.00000000      1.00000000      1.00000000      1.00000000      1.00000000      1.00000000      1.00000000      1.00000000      1.00000000      1.00000000      1.00000000      1.00000000      1.00000000      1.00000000      1.00000000
      1.00000000      1.00000000      1.00000000      1.00000000</v>
    <i name="NUPDOWN">     -1.00000000</i>
    <i type="logical" name="LSORBIT"> F  </i>
    <v name="SAXIS">      0.00000000      0.00000000      1.00000000</v>
    <i type="logical" name="LSPIRAL"> F  </i>
    <v name="QSPIRAL">      0.00000000      0.00000000      0.00000000</v>
    <i type="logical" name="LZEROZ"> F  </i>
   </separator>
   <separator name="electronic exchange-correlation" >
    <i type="logical" name="LASPH"> F  </i>
    <i type="logical" name="LMETAGGA"> F  </i>
   </separator>
   <separator name="electronic convergence" >
    <i type="int" name="NELM">    60</i>
    <i type="int" name="NELMDL">    -5</i>
    <i type="int" name="NELMIN">     2</i>
    <i name="ENINI">    300.00000000</i>
    <separator name="electronic convergence detail" >
     <i type="logical" name="LDIAG"> T  </i>
     <i type="logical" name="LSUBROT"> F  </i>
     <i name="WEIMIN">      0.00000000</i>
     <i name="EBREAK">      0.00000000</i>
     <i name="DEPER">      0.30000000</i>
     <i type="int" name="NRMM">     4</i>
     <i name="TIME">      0.40000000</i>
    </separator>
   </separator>
   <separator name="electronic mixer" >
    <i name="AMIX">      0.40000000</i>
    <i name="BMIX">      1.00000000</i>
    <i name="AMIN">      0.10000000</i>
    <i name="AMIX_MAG">      1.60000000</i>
    <i name="BMIX_MAG">      1.00000000</i>
    <separator name="electronic mixer details" >
     <i type="int" name="IMIX">     4</i>
     <i type="int" name="MAXMIX">   -45</i>
     <i name="WC">    100.00000000</i>
     <i type="int" name="INIMIX">     1</i>
     <i type="int" name="MIXPRE">     1</i>
     <i type="int" name="MREMOVE">     5</i>
    </separator>
   </separator>
   <separator name="electronic dipolcorrection" >
    <i type="logical" name="LDIPOL"> F  </i>
    <i type="logical" name="LMONO"> F  </i>
    <i type="int" name="IDIPOL">     0</i>
    <i name="EPSILON">      1.00000000</i>
    <v name="DIPOL">   -100.00000000   -100.00000000   -100.00000000</v>
    <i name="EFIELD">      0.00000000</i>
   </separator>
  </separator>
  <separator name="grids" >
   <i type="int" name="NGX">    20</i>
   <i type="int" name="NGY">    60</i>
   <i type="int" name="NGZ">   160</i>
   <i type="int" name="NGXF">    40</i>
   <i type="int" name="NGYF">   120</i>
   <i type="int" name="NGZF">   320</i>
   <i type="logical" name="ADDGRID"> F  </i>
  </separator>
  <separator name="ionic" >
   <i type="int" name="NSW">     0</i>
   <i type="int" name="IBRION">    -1</i>
   <i type="int" name="ISIF">     3</i>
   <i name="PSTRESS">      0.00000000</i>
   <i name="EDIFFG">      0.00001000</i>
   <i type="int" name="NFREE">     1</i>
   <i name="POTIM">      0.50000000</i>
   <i name="SMASS">     -3.00000000</i>
   <i name="SCALEE">      1.00000000</i>
  </separator>
  <separator name="ionic md" >
   <i name="TEBEG">      0.00010000</i>
   <i name="TEEND">      0.00010000</i>
   <i type="int" name="NBLOCK">     1</i>
   <i type="int" name="KBLOCK">     1</i>
   <i type="int" name="NPACO">   256</i>
   <i name="APACO">     16.00000000</i>
  </separator>
  <separator name="symmetry" >
   <i type="int" name="ISYM">     2</i>
   <i name="SYMPREC">      0.00001000</i>
  </separator>
  <separator name="dos" >
   <i type="logical" name="LORBIT"> F  </i>
   <v name="RWIGS">     -1.00000000     -1.00000000</v>
   <i type="int" name="NEDOS">   301</i>
   <i name="EMIN">     10.00000000</i>
   <i name="EMAX">    -10.00000000</i>
   <i name="EFERMI">      0.00000000</i>
  </separator>
  <separator name="writing" >
   <i type="int" name="NWRITE">     2</i>
   <i type="logical" name="LWAVE"> F  </i>
   <i type="logical" name="LCHARG"> F  </i>
   <i type="logical" name="LPARD"> F  </i>
   <i type="logical" name="LVTOT"> F  </i>
   <i type="logical" name="LVHAR"> F  </i>
   <i type="logical" name="LELF"> F  </i>
   <i type="logical" name="LOPTICS"> F  </i>
   <v name="STM">      0.00000000      0.00000000      0.00000000      0.00000000      0.00000000      0.00000000      0.00000000</v>
  </separator>
  <separator name="performance" >
   <i type="int" name="NPAR">     4</i>
   <i type="int" name="NSIM">     4</i>
   <i type="int" name="NBLK">    -1</i>
   <i type="logical" name="LPLANE"> T  </i>
   <i type="logical" name="LSCALAPACK"> T  </i>
   <i type="logical" name="LSCAAWARE"> F  </i>
   <i type="logical" name="LSCALU"> F  </i>
   <i type="logical" name="LASYNC"> F  </i>
   <i type="logical" name="LORBITALREAL"> F  </i>
  </separator>
  <separator name="miscellaneous" >
   <i type="int" name="IDIOT">     3</i>
   <i type="logical" name="LMUSIC"> F  </i>
   <v name="POMASS">     30.97400000     28.08500000</v>
   <v name="DARWINR">      0.00000000      0.00000000</v>
   <v name="DARWINV">      1.00000000      1.00000000</v>
   <i type="logical" name="LCORR"> T  </i>
  </separator>
  <i type="logical" name="GGA_COMPAT"> T  </i>
  <i type="logical" name="LBERRY"> F  </i>
  <i type="int" name="ICORELEVEL">     0</i>
  <i type="logical" name="LDAU"> F  </i>
  <i type="int" name="I_CONSTRAINED_M">     0</i>
  <separator name="electronic exchange-correlation" >
   <i type="string" name="GGA">BO</i>
   <i type="int" name="VOSKOWN">     0</i>
   <i type="logical" name="LHFCALC"> F  </i>
   <i type="string" name="PRECFOCK"></i>
   <i type="logical" name="LSYMGRAD"> F  </i>
   <i type="logical" name="LHFONE"> F  </i>
   <i type="logical" name="LRHFCALC"> F  </i>
   <i type="logical" name="LTHOMAS"> F  </i>
   <i type="logical" name="LMODELHF"> F  </i>
   <i name="ENCUT4O">     -1.00000000</i>
   <i type="int" name="EXXOEP">     0</i>
   <i type="int" name="FOURORBIT">     0</i>
   <i name="AEXX">      0.00000000</i>
   <i name="HFALPHA">      0.00000000</i>
   <i name="MCALPHA">      0.00000000</i>
   <i name="ALDAX">      1.00000000</i>
   <i name="AGGAX">      1.00000000</i>
   <i name="ALDAC">      1.00000000</i>
   <i name="AGGAC">      0.00000000</i>
   <i type="int" name="NKREDX">     1</i>
   <i type="int" name="NKREDY">     1</i>
   <i type="int" name="NKREDZ">     1</i>
   <i type="logical" name="SHIFTRED"> F  </i>
   <i type="logical" name="ODDONLY"> F  </i>
   <i type="logical" name="EVENONLY"> F  </i>
   <i type="int" name="LMAXFOCK">     0</i>
   <i type="int" name="NMAXFOCKAE">     0</i>
   <i type="logical" name="LFOCKAEDFT"> F  </i>
   <i name="HFSCREEN">      0.00000000</i>
   <i name="HFSCREENC">      0.00000000</i>
   <i type="int" name="NBANDSGWLOW">     0</i>
  </separator>
  <separator name="vdW DFT" >
   <i type="logical" name="LUSE_VDW"> T  </i>
   <i name="Zab_VDW">     -0.84910000</i>
   <i name="PARAM1">      0.18333333</i>
   <i name="PARAM2">      0.22000000</i>
   <i name="PARAM3">      0.00000000</i>
  </separator>
  <separator name="model GW" >
   <i type="int" name="MODEL_GW">     0</i>
   <i name="MODEL_EPS0">     25.05800243</i>
   <i name="MODEL_ALPHA">      1.00000000</i>
  </separator>
  <separator name="linear response parameters" >
   <i type="logical" name="LEPSILON"> F  </i>
   <i type="logical" name="LRPA"> F  </i>
   <i type="logical" name="LNABLA"> F  </i>
   <i type="logical" name="LVEL"> F  </i>
   <i type="int" name="KINTER">     0</i>
   <i name="CSHIFT">      0.10000000</i>
   <i name="OMEGAMAX">     -1.00000000</i>
   <i name="DEG_THRESHOLD">      0.00200000</i>
  </separator>
  <separator name="orbital magnetization" >
   <i type="logical" name="NUCIND"> F  </i>
   <v name="MAGPOS">      0.00000000      0.00000000      0.00000000</v>
   <i type="logical" name="LNICSALL"> T  </i>
   <i type="logical" name="ORBITALMAG"> F  </i>
   <i type="logical" name="LMAGBLOCH"> F  </i>
   <i type="logical" name="LCHIMAG"> F  </i>
   <i type="logical" name="LGAUGE"> T  </i>
   <i type="int" name="MAGATOM">     0</i>
   <v name="MAGDIPOL">      0.00000000      0.00000000      0.00000000</v>
   <v name="AVECCONST">      0.00000000      0.00000000      0.00000000</v>
  </separator>
  <separator name="response functions" >
   <i type="logical" name="LADDER"> F  </i>
   <i type="logical" name="LFXC"> F  </i>
   <i type="logical" name="LHARTREE"> T  </i>
   <i type="int" name="IBSE">     0</i>
   <i type="logical" name="LTCTE"> F  </i>
   <i type="logical" name="LTETE"> F  </i>
   <i type="logical" name="LTRIPLET"> F  </i>
   <i type="logical" name="LFXCEPS"> F  </i>
   <i type="logical" name="LFXHEG"> F  </i>
   <i type="logical" name="L2ORDER"> F  </i>
   <i type="logical" name="LUSEW"> F  </i>
   <i name="ENCUTGW">     -2.00000000</i>
   <i name="ENCUTGWSOFT">     -2.00000000</i>
   <i name="ENCUTLF">     -1.00000000</i>
   <i type="int" name="LMAXMP2">    -1</i>
   <i name="SCISSOR">      0.00000000</i>
   <i type="int" name="NOMEGA">     0</i>
   <i type="int" name="NOMEGAR">     0</i>
   <i type="int" name="NBANDSGW">    -1</i>
   <i type="int" name="NBANDSO">    -1</i>
   <i type="int" name="NBANDSV">    -1</i>
   <i type="int" name="NELM">     1</i>
   <i type="int" name="DIM">     3</i>
   <i type="int" name="ANTIRES">     0</i>
   <i name="OMEGAMAX">    -30.00000000</i>
   <i name="OMEGAMIN">    -30.00000000</i>
   <i name="OMEGATL">   -200.00000000</i>
   <i type="int" name="OMEGAGRID">     0</i>
   <i name="CSHIFT">     -0.10000000</i>
   <i type="logical" name="SELFENERGY"> F  </i>
   <i type="logical" name="LSPECTRAL"> F  </i>
   <i type="logical" name="ODDONLYGW"> F  </i>
   <i type="logical" name="EVENONLYGW"> F  </i>
   <i type="int" name="NKREDLFX">     1</i>
   <i type="int" name="NKREDLFY">     1</i>
   <i type="int" name="NKREDLFZ">     1</i>
   <i type="int" name="MAXMEM">  1800</i>
   <i type="int" name="TELESCOPE">     0</i>
   <i type="int" name="TAUPAR">     1</i>
  </separator>
  <separator name="External order field" >
   <i name="OFIELD_KAPPA">      0.00000000</i>
   <v name="OFIELD_K">      0.00000000      0.00000000      0.00000000</v>
   <i name="OFIELD_Q6_NEAR">      0.00000000</i>
   <i name="OFIELD_Q6_FAR">      0.00000000</i>
   <i name="OFIELD_A">      0.00000000</i>
  </separator>
 </parameters>
 <atominfo>
  <atoms>      24 </atoms>
  <types>       2 </types>
  <array name="atoms" >
   <dimension dim="1">ion</dimension>
   <field type="string">element</field>
   <field type="int">atomtype</field>
   <set>
    <rc><c>P </c><c>   1</c></rc>
    <rc><c>P </c><c>   1</c></rc>
    <rc><c>P </c><c>   1</c></rc>
    <rc><c>P </c><c>   1</c></rc>
    <rc><c>P </c><c>   1</c></rc>
    <rc><c>P </c><c>   1</c></rc>
    <rc><c>P </c><c>   1</c></rc>
    <rc><c>P </c><c>   1</c></rc>
    <rc><c>P </c><c>   1</c></rc>
    <rc><c>P </c><c>   1</c></rc>
    <rc><c>P </c><c>   1</c></rc>
    <rc><c>P </c><c>   1</c></rc>
    <rc><c>Si</c><c>   2</c></rc>
    <rc><c>Si</c><c>   2</c></rc>
    <rc><c>Si</c><c>   2</c></rc>
    <rc><c>Si</c><c>   2</c></rc>
    <rc><c>Si</c><c>   2</c></rc>
    <rc><c>Si</c><c>   2</c></rc>
    <rc><c>Si</c><c>   2</c></rc>
    <rc><c>Si</c><c>   2</c></rc>
    <rc><c>Si</c><c>   2</c></rc>
    <rc><c>Si</c><c>   2</c></rc>
    <rc><c>Si</c><c>   2</c></rc>
    <rc><c>Si</c><c>   2</c></rc>
   </set>
  </array>
  <array name="atomtypes" >
   <dimension dim="1">type</dimension>
   <field type="int">atomspertype</field>
   <field type="string">element</field>
   <field>mass</field>
   <field>valence</field>
   <field type="string">pseudopotential</field>
   <set>
    <rc><c>  12</c><c>P </c><c>     30.97400000</c><c>      5.00000000</c><c>  PAW_PBE P 17Jan2003                   </c></rc>
    <rc><c>  12</c><c>Si</c><c>     28.08500000</c><c>      4.00000000</c><c> PAW_PBE Si 05Jan2001                   </c></rc>
   </set>
  </array>
 </atominfo>
 <structure name="initialpos" >
  <crystal>
   <varray name="basis" >
    <v>       3.54040000       0.00000000       0.00000000 </v>
    <v>      -1.77020000      10.29434800       0.00000000 </v>
    <v>       0.00000000       0.00000000      27.50142900 </v>
   </varray>
   <i name="volume">   1002.32009712 </i>
   <varray name="rec_basis" >
    <v>       0.28245396       0.04857034       0.00000000 </v>
    <v>       0.00000000       0.09714068       0.00000000 </v>
    <v>       0.00000000       0.00000000       0.03636175 </v>
   </varray>
  </crystal>
  <varray name="positions" >
   <v>       0.11402300       0.22804500       0.23316207 </v>
   <v>       0.91402300       0.82804500       0.51499159 </v>
   <v>       0.45808900       0.91617900       0.20939482 </v>
   <v>       0.25808900       0.51617900       0.49122434 </v>
   <v>       0.31085400       0.62170900       0.08414979 </v>
   <v>       0.31085400       0.62170900       0.36597930 </v>
   <v>       0.99923000       0.99846000       0.08631254 </v>
   <v>       0.99923000       0.99846000       0.36814206 </v>
   <v>       0.65492700       0.30985400       0.06041748 </v>
   <v>       0.65492700       0.30985400       0.34224700 </v>
   <v>       0.76973800       0.53947500       0.20725292 </v>
   <v>       0.56973800       0.13947500       0.48908244 </v>
   <v>       0.93971600       0.87943300       0.15783749 </v>
   <v>       0.73971600       0.47943300       0.43966701 </v>
   <v>       0.20515200       0.41030300       0.18578822 </v>
   <v>       0.00515200       0.01030300       0.46761774 </v>
   <v>       0.20184900       0.40369900       0.09969156 </v>
   <v>       0.20184900       0.40369900       0.38152107 </v>
   <v>       0.56380500       0.12761000       0.10779021 </v>
   <v>       0.56380500       0.12761000       0.38961973 </v>
   <v>       0.56710600       0.13421200       0.19387616 </v>
   <v>       0.36710600       0.73421200       0.47570568 </v>
   <v>       0.82923400       0.65846800       0.13571444 </v>
   <v>       0.62923400       0.25846800       0.41754396 </v>
  </varray>
 </structure>
 <calculation>
  <scstep>
   <time name="dav">   65.82   65.87</time>
   <time name="total">   82.17   82.24</time>
   <energy>
    <i name="alphaZ">     36.80884744 </i>
    <i name="ewald">  12029.47193413 </i>
    <i name="hartreedc"> -15058.63550872 </i>
    <i name="XCdc">    -87.03697865 </i>
    <i name="pawpsdc">   1056.43050070 </i>
    <i name="pawaedc">   -732.41190547 </i>
    <i name="eentropy">     -0.04243580 </i>
    <i name="bandstr">    -94.24663469 </i>
    <i name="atom">   3354.04126044 </i>
    <i name="e_fr_energy">    504.37907940 </i>
    <i name="e_wo_entrp">    504.42151520 </i>
    <i name="e_0_energy">    504.40029730 </i>
   </energy>
  </scstep>
  <scstep>
   <time name="dav">   83.33   83.41</time>
   <time name="total">   83.35   83.42</time>
   <energy>
    <i name="e_fr_energy">    -59.69505886 </i>
    <i name="e_wo_entrp">    -59.67105195 </i>
    <i name="e_0_energy">    -59.68305541 </i>
   </energy>
  </scstep>
  <scstep>
   <time name="dav">   77.88   77.91</time>
   <time name="total">   77.89   77.92</time>
   <energy>
    <i name="e_fr_energy">   -116.88293819 </i>
    <i name="e_wo_entrp">   -116.86327441 </i>
    <i name="e_0_energy">   -116.87310630 </i>
   </energy>
  </scstep>
  <scstep>
   <time name="dav">   92.09   92.17</time>
   <time name="total">   92.10   92.19</time>
   <energy>
    <i name="e_fr_energy">   -119.50904558 </i>
    <i name="e_wo_entrp">   -119.48578986 </i>
    <i name="e_0_energy">   -119.49741772 </i>
   </energy>
  </scstep>
  <scstep>
   <time name="dav">   86.00   86.03</time>
   <time name="total">   90.66   90.69</time>
   <energy>
    <i name="e_fr_energy">   -119.57242147 </i>
    <i name="e_wo_entrp">   -119.54892726 </i>
    <i name="e_0_energy">   -119.56067437 </i>
   </energy>
  </scstep>
  <scstep>
   <time name="dav">   76.86   76.89</time>
   <time name="total">   96.59   96.64</time>
   <energy>
    <i name="e_fr_energy">   -115.62342587 </i>
    <i name="e_wo_entrp">   -115.58157069 </i>
    <i name="e_0_energy">   -115.60249828 </i>
   </energy>
  </scstep>
  <scstep>
   <time name="dav">   77.64   77.66</time>
   <time name="total">   97.09   97.11</time>
   <energy>
    <i name="e_fr_energy">   -115.40122278 </i>
    <i name="e_wo_entrp">   -115.37036414 </i>
    <i name="e_0_energy">   -115.38579346 </i>
   </energy>
  </scstep>
  <scstep>
   <time name="dav">   80.44   80.49</time>
   <time name="total">   99.95  100.03</time>
   <energy>
    <i name="e_fr_energy">   -115.22843775 </i>
    <i name="e_wo_entrp">   -115.20282447 </i>
    <i name="e_0_energy">   -115.21563111 </i>
   </energy>
  </scstep>
  <scstep>
   <time name="dav">   79.26   79.28</time>
   <time name="total">   98.75   98.78</time>
   <energy>
    <i name="e_fr_energy">   -115.19494123 </i>
    <i name="e_wo_entrp">   -115.17093696 </i>
    <i name="e_0_energy">   -115.18293910 </i>
   </energy>
  </scstep>
  <scstep>
   <time name="dav">   77.22   77.24</time>
   <time name="total">   96.62   96.65</time>
   <energy>
    <i name="e_fr_energy">   -115.18274766 </i>
    <i name="e_wo_entrp">   -115.15767054 </i>
    <i name="e_0_energy">   -115.17020910 </i>
   </energy>
  </scstep>
  <scstep>
   <time name="dav">   79.32   79.34</time>
   <time name="total">   98.78   98.80</time>
   <energy>
    <i name="e_fr_energy">   -115.17001865 </i>
    <i name="e_wo_entrp">   -115.14687513 </i>
    <i name="e_0_energy">   -115.15844689 </i>
   </energy>
  </scstep>
  <scstep>
   <time name="dav">   77.72   77.75</time>
   <time name="total">   97.03   97.06</time>
   <energy>
    <i name="e_fr_energy">   -115.16526840 </i>
    <i name="e_wo_entrp">   -115.14185864 </i>
    <i name="e_0_energy">   -115.15356352 </i>
   </energy>
  </scstep>
  <scstep>
   <time name="dav">   76.76   76.94</time>
   <time name="total">   95.98   96.25</time>
   <energy>
    <i name="e_fr_energy">   -115.15994612 </i>
    <i name="e_wo_entrp">   -115.13656280 </i>
    <i name="e_0_energy">   -115.14825446 </i>
   </energy>
  </scstep>
  <scstep>
   <time name="dav">   80.13   80.16</time>
   <time name="total">   99.24   99.28</time>
   <energy>
    <i name="e_fr_energy">   -115.15678185 </i>
    <i name="e_wo_entrp">   -115.13329388 </i>
    <i name="e_0_energy">   -115.14503787 </i>
   </energy>
  </scstep>
  <scstep>
   <time name="dav">   77.55   77.58</time>
   <time name="total">   97.00   97.05</time>
   <energy>
    <i name="e_fr_energy">   -115.15559947 </i>
    <i name="e_wo_entrp">   -115.13213964 </i>
    <i name="e_0_energy">   -115.14386955 </i>
   </energy>
  </scstep>
  <scstep>
   <time name="dav">   69.73   69.79</time>
   <time name="total">   89.13   89.20</time>
   <energy>
    <i name="e_fr_energy">   -115.15543123 </i>
    <i name="e_wo_entrp">   -115.13199627 </i>
    <i name="e_0_energy">   -115.14371375 </i>
   </energy>
  </scstep>
  <scstep>
   <time name="dav">   70.20   70.22</time>
   <time name="total">   89.64   89.69</time>
   <energy>
    <i name="e_fr_energy">   -115.15576209 </i>
    <i name="e_wo_entrp">   -115.13231257 </i>
    <i name="e_0_energy">   -115.14403733 </i>
   </energy>
  </scstep>
  <scstep>
   <time name="dav">   68.28   68.32</time>
   <time name="total">   87.80   87.85</time>
   <energy>
    <i name="e_fr_energy">   -115.15611078 </i>
    <i name="e_wo_entrp">   -115.13264787 </i>
    <i name="e_0_energy">   -115.14437932 </i>
   </energy>
  </scstep>
  <scstep>
   <time name="dav">   68.03   68.05</time>
   <time name="total">   87.47   87.51</time>
   <energy>
    <i name="e_fr_energy">   -115.15623825 </i>
    <i name="e_wo_entrp">   -115.13278469 </i>
    <i name="e_0_energy">   -115.14451147 </i>
   </energy>
  </scstep>
  <scstep>
   <time name="dav">   60.19   60.21</time>
   <time name="total">   79.51   79.53</time>
   <energy>
    <i name="e_fr_energy">   -115.15627411 </i>
    <i name="e_wo_entrp">   -115.13281988 </i>
    <i name="e_0_energy">   -115.14454700 </i>
   </energy>
  </scstep>
  <scstep>
   <time name="dav">   63.67   63.71</time>
   <time name="total">   83.03   83.08</time>
   <energy>
    <i name="e_fr_energy">   -115.15628630 </i>
    <i name="e_wo_entrp">   -115.13283209 </i>
    <i name="e_0_energy">   -115.14455920 </i>
   </energy>
  </scstep>
  <scstep>
   <time name="dav">   60.71   60.74</time>
   <time name="total">   80.05   80.10</time>
   <energy>
    <i name="e_fr_energy">   -115.15625565 </i>
    <i name="e_wo_entrp">   -115.13280199 </i>
    <i name="e_0_energy">   -115.14452882 </i>
   </energy>
  </scstep>
  <scstep>
   <time name="dav">   58.42   58.48</time>
   <time name="total">   77.49   77.56</time>
   <energy>
    <i name="e_fr_energy">   -115.15617586 </i>
    <i name="e_wo_entrp">   -115.13272237 </i>
    <i name="e_0_energy">   -115.14444912 </i>
   </energy>
  </scstep>
  <scstep>
   <time name="dav">   58.69   58.73</time>
   <time name="total">   77.70   77.76</time>
   <energy>
    <i name="e_fr_energy">   -115.15616370 </i>
    <i name="e_wo_entrp">   -115.13270946 </i>
    <i name="e_0_energy">   -115.14443658 </i>
   </energy>
  </scstep>
  <scstep>
   <time name="dav">   58.12   58.14</time>
   <time name="total">   77.15   77.20</time>
   <energy>
    <i name="e_fr_energy">   -115.15614497 </i>
    <i name="e_wo_entrp">   -115.13269072 </i>
    <i name="e_0_energy">   -115.14441785 </i>
   </energy>
  </scstep>
  <scstep>
   <time name="dav">   60.42   60.45</time>
   <time name="total">   74.97   75.01</time>
   <energy>
    <i name="alphaZ">     36.80884744 </i>
    <i name="ewald">  12029.47193413 </i>
    <i name="hartreedc"> -15156.52301368 </i>
    <i name="XCdc">    -79.43907317 </i>
    <i name="pawpsdc">   1173.87265124 </i>
    <i name="pawaedc">   -853.33313733 </i>
    <i name="eentropy">     -0.02345437 </i>
    <i name="bandstr">   -620.03215966 </i>
    <i name="atom">   3354.04126044 </i>
    <i name="e_fr_energy">   -115.15614493 </i>
    <i name="e_wo_entrp">   -115.13269056 </i>
    <i name="e_0_energy">   -115.14441774 </i>
   </energy>
  </scstep>
  <structure>
   <crystal>
    <varray name="basis" >
     <v>       3.54040000       0.00000000       0.00000000 </v>
     <v>      -1.77020000      10.29434800       0.00000000 </v>
     <v>       0.00000000       0.00000000      27.50142900 </v>
    </varray>
    <i name="volume">   1002.32009712 </i>
    <varray name="rec_basis" >
     <v>       0.28245396       0.04857034       0.00000000 </v>
     <v>       0.00000000       0.09714068       0.00000000 </v>
     <v>       0.00000000       0.00000000       0.03636175 </v>
    </varray>
   </crystal>
   <varray name="positions" >
    <v>       0.11402300       0.22804500       0.23316207 </v>
    <v>       0.91402300       0.82804500       0.51499159 </v>
    <v>       0.45808900       0.91617900       0.20939482 </v>
    <v>       0.25808900       0.51617900       0.49122434 </v>
    <v>       0.31085400       0.62170900       0.08414979 </v>
    <v>       0.31085400       0.62170900       0.36597930 </v>
    <v>       0.99923000       0.99846000       0.08631254 </v>
    <v>       0.99923000       0.99846000       0.36814206 </v>
    <v>       0.65492700       0.30985400       0.06041748 </v>
    <v>       0.65492700       0.30985400       0.34224700 </v>
    <v>       0.76973800       0.53947500       0.20725292 </v>
    <v>       0.56973800       0.13947500       0.48908244 </v>
    <v>       0.93971600       0.87943300       0.15783749 </v>
    <v>       0.73971600       0.47943300       0.43966701 </v>
    <v>       0.20515200       0.41030300       0.18578822 </v>
    <v>       0.00515200       0.01030300       0.46761774 </v>
    <v>       0.20184900       0.40369900       0.09969156 </v>
    <v>       0.20184900       0.40369900       0.38152107 </v>
    <v>       0.56380500       0.12761000       0.10779021 </v>
    <v>       0.56380500       0.12761000       0.38961973 </v>
    <v>       0.56710600       0.13421200       0.19387616 </v>
    <v>       0.36710600       0.73421200       0.47570568 </v>
    <v>       0.82923400       0.65846800       0.13571444 </v>
    <v>       0.62923400       0.25846800       0.41754396 </v>
   </varray>
  </structure>
  <varray name="forces" >
   <v>       0.00000000      -0.05456036      -0.00864774 </v>
   <v>       0.00000000       0.01094717      -0.54355856 </v>
   <v>       0.00000000      -0.01077246       0.07480213 </v>
   <v>       0.00000000       0.26645094       1.32666510 </v>
   <v>       0.00000000       0.00000427       0.00330123 </v>
   <v>       0.00000000      -0.38789286       0.78764001 </v>
   <v>       0.00000000      -0.00735141      -0.00160012 </v>
   <v>       0.00000000      -0.04876399       1.34917453 </v>
   <v>       0.00000000      -0.00108228       0.00326701 </v>
   <v>       0.00000000       0.63349854      -4.82634952 </v>
   <v>       0.00000000       0.01059496       0.09504887 </v>
   <v>       0.00000000      -0.45680856       1.84317167 </v>
   <v>       0.00000000      -0.00383231       0.00482834 </v>
   <v>       0.00000000       1.38854680       1.34457030 </v>
   <v>       0.00000000       0.00765103       0.04500973 </v>
   <v>       0.00000000      -0.05989904      -0.35463647 </v>
   <v>       0.00000000      -0.00130079      -0.01213168 </v>
   <v>       0.00000000       0.25978159      -1.43414632 </v>
   <v>       0.00000000      -0.01201643      -0.00019327 </v>
   <v>      -0.00000000     -32.26405788     -19.91418803 </v>
   <v>       0.00000000       0.00291421      -0.01837152 </v>
   <v>       0.00000000      -0.67239091      -0.49476387 </v>
   <v>       0.00000000      -0.00030487       0.00022712 </v>
   <v>      -0.00000000      31.40064463      20.73088106 </v>
  </varray>
  <varray name="stress" >
   <v>      -0.94231944       0.00000000       0.00000000 </v>
   <v>       0.00000000      68.48200383      37.79215230 </v>
   <v>       0.00000000      37.79215227      41.51134734 </v>
  </varray>
  <energy>
   <i name="e_fr_energy">   -115.15614493 </i>
   <i name="e_wo_entrp">   -115.14441774 </i>
   <i name="e_0_energy">     -0.02345437 </i>
  </energy>
  <time name="totalsc"> 2414.95 2416.45</time>
  <eigenvalues>
   <array>
    <dimension dim="1">band</dimension>
    <dimension dim="2">kpoint</dimension>
    <dimension dim="3">spin</dimension>
    <field>eigene</field>
    <field>occ</field>
    <set>
     <set comment="spin 1">
      <set comment="kpoint 1">
       <r>  -15.0865    1.0000 </r>
       <r>  -13.4763    1.0000 </r>
       <r>  -13.1762    1.0000 </r>
       <r>  -12.8997    1.0000 </r>
       <r>  -12.7395    1.0000 </r>
       <r>  -12.4138    1.0000 </r>
       <r>  -12.0243    1.0000 </r>
       <r>  -11.7748    1.0000 </r>
       <r>  -11.4507    1.0000 </r>
       <r>  -11.3683    1.0000 </r>
       <r>  -10.9297    1.0000 </r>
       <r>  -10.5591    1.0000 </r>
       <r>   -8.9018    1.0000 </r>
       <r>   -8.6068    1.0000 </r>
       <r>   -7.9654    1.0000 </r>
       <r>   -7.7626    1.0000 </r>
       <r>   -6.7855    1.0000 </r>
       <r>   -6.7455    1.0000 </r>
       <r>   -6.4291    1.0000 </r>
       <r>   -6.0631    1.0000 </r>
       <r>   -5.7629    1.0000 </r>
       <r>   -5.4734    1.0000 </r>
       <r>   -4.8916    1.0000 </r>
       <r>   -4.7686    1.0000 </r>
       <r>   -4.5736    1.0000 </r>
       <r>   -4.4345    1.0000 </r>
       <r>   -3.6542    1.0000 </r>
       <r>   -3.5492    1.0000 </r>
       <r>   -3.2472    1.0000 </r>
       <r>   -3.1065    1.0000 </r>
       <r>   -3.0212    1.0000 </r>
       <r>   -2.9894    1.0000 </r>
       <r>   -2.9853    1.0000 </r>
       <r>   -2.7843    1.0000 </r>
       <r>   -2.4022    1.0000 </r>
       <r>   -2.3902    1.0000 </r>
       <r>   -2.3196    1.0000 </r>
       <r>   -2.3024    1.0000 </r>
       <r>   -2.1684    1.0000 </r>
       <r>   -2.1560    1.0000 </r>
       <r>   -1.9454    1.0000 </r>
       <r>   -1.8224    1.0000 </r>
       <r>   -1.6706    1.0000 </r>
       <r>   -1.6411    1.0000 </r>
       <r>   -1.5765    1.0000 </r>
       <r>   -1.5202    1.0000 </r>
       <r>   -1.4882    1.0000 </r>
       <r>   -1.3690    1.0000 </r>
       <r>   -1.2206    1.0000 </r>
       <r>   -1.1098    1.0000 </r>
       <r>   -0.9548    1.0000 </r>
       <r>   -0.7496    1.0000 </r>
       <r>   -0.4488    1.0000 </r>
       <r>    0.2494    0.0000 </r>
       <r>    0.3827    0.0000 </r>
       <r>    0.4995    0.0000 </r>
       <r>    0.9544    0.0000 </r>
       <r>    1.1975    0.0000 </r>
       <r>    1.3551    0.0000 </r>
       <r>    1.3788    0.0000 </r>
       <r>    1.6329    0.0000 </r>
       <r>    1.7687    0.0000 </r>
       <r>    1.8766    0.0000 </r>
       <r>    2.0241    0.0000 </r>
       <r>    2.0521    0.0000 </r>
       <r>    2.0751    0.0000 </r>
       <r>    2.1867    0.0000 </r>
       <r>    2.4828    0.0000 </r>
      </set>
      <set comment="kpoint 2">
       <r>  -15.0357    1.0000 </r>
       <r>  -13.4149    1.0000 </r>
       <r>  -13.1228    1.0000 </r>
       <r>  -12.8364    1.0000 </r>
       <r>  -12.6873    1.0000 </r>
       <r>  -12.3582    1.0000 </r>
       <r>  -11.9620    1.0000 </r>
       <r>  -11.7333    1.0000 </r>
       <r>  -11.3922    1.0000 </r>
       <r>  -11.3193    1.0000 </r>
       <r>  -10.8812    1.0000 </r>
       <r>  -10.5261    1.0000 </r>
       <r>   -8.8721    1.0000 </r>
       <r>   -8.5880    1.0000 </r>
       <r>   -8.0031    1.0000 </r>
       <r>   -7.7248    1.0000 </r>
       <r>   -6.7718    1.0000 </r>
       <r>   -6.7237    1.0000 </r>
       <r>   -6.4233    1.0000 </r>
       <r>   -6.0382    1.0000 </r>
       <r>   -5.7293    1.0000 </r>
       <r>   -5.4906    1.0000 </r>
       <r>   -4.9901    1.0000 </r>
       <r>   -4.8747    1.0000 </r>
       <r>   -4.7041    1.0000 </r>
       <r>   -4.4894    1.0000 </r>
       <r>   -3.6923    1.0000 </r>
       <r>   -3.6454    1.0000 </r>
       <r>   -3.5744    1.0000 </r>
       <r>   -3.3622    1.0000 </r>
       <r>   -3.2044    1.0000 </r>
       <r>   -3.1388    1.0000 </r>
       <r>   -3.0691    1.0000 </r>
       <r>   -2.9790    1.0000 </r>
       <r>   -2.8070    1.0000 </r>
       <r>   -2.6742    1.0000 </r>
       <r>   -2.5752    1.0000 </r>
       <r>   -2.4253    1.0000 </r>
       <r>   -2.3282    1.0000 </r>
       <r>   -2.1692    1.0000 </r>
       <r>   -2.1137    1.0000 </r>
       <r>   -1.9348    1.0000 </r>
       <r>   -1.9018    1.0000 </r>
       <r>   -1.8526    1.0000 </r>
       <r>   -1.7621    1.0000 </r>
       <r>   -1.7135    1.0000 </r>
       <r>   -1.5523    1.0000 </r>
       <r>   -1.4525    1.0000 </r>
       <r>   -1.1875    1.0000 </r>
       <r>   -1.0624    1.0000 </r>
       <r>   -0.9125    1.0000 </r>
       <r>   -0.4446    1.0000 </r>
       <r>   -0.3357    1.0000 </r>
       <r>    0.0521    0.0693 </r>
       <r>    0.4016    0.0000 </r>
       <r>    0.6138    0.0000 </r>
       <r>    0.8502    0.0000 </r>
       <r>    1.4680    0.0000 </r>
       <r>    1.6332    0.0000 </r>
       <r>    1.8030    0.0000 </r>
       <r>    1.8534    0.0000 </r>
       <r>    1.9542    0.0000 </r>
       <r>    2.1120    0.0000 </r>
       <r>    2.1872    0.0000 </r>
       <r>    2.2721    0.0000 </r>
       <r>    2.3362    0.0000 </r>
       <r>    2.4754    0.0000 </r>
       <r>    2.6691    0.0000 </r>
      </set>
      <set comment="kpoint 3">
       <r>  -14.8863    1.0000 </r>
       <r>  -13.2319    1.0000 </r>
       <r>  -12.9628    1.0000 </r>
       <r>  -12.6502    1.0000 </r>
       <r>  -12.5316    1.0000 </r>
       <r>  -12.1934    1.0000 </r>
       <r>  -11.7796    1.0000 </r>
       <r>  -11.6101    1.0000 </r>
       <r>  -11.2255    1.0000 </r>
       <r>  -11.1771    1.0000 </r>
       <r>  -10.7423    1.0000 </r>
       <r>  -10.4356    1.0000 </r>
       <r>   -8.7965    1.0000 </r>
       <r>   -8.5445    1.0000 </r>
       <r>   -8.1007    1.0000 </r>
       <r>   -7.6822    1.0000 </r>
       <r>   -6.7889    1.0000 </r>
       <r>   -6.6558    1.0000 </r>
       <r>   -6.4352    1.0000 </r>
       <r>   -6.1635    1.0000 </r>
       <r>   -5.8751    1.0000 </r>
       <r>   -5.6550    1.0000 </r>
       <r>   -5.2548    1.0000 </r>
       <r>   -4.9472    1.0000 </r>
       <r>   -4.8132    1.0000 </r>
       <r>   -4.5803    1.0000 </r>
       <r>   -4.2522    1.0000 </r>
       <r>   -4.1340    1.0000 </r>
       <r>   -4.0172    1.0000 </r>
       <r>   -3.9062    1.0000 </r>
       <r>   -3.6754    1.0000 </r>
       <r>   -3.5875    1.0000 </r>
       <r>   -3.4649    1.0000 </r>
       <r>   -3.2708    1.0000 </r>
       <r>   -3.1263    1.0000 </r>
       <r>   -3.0482    1.0000 </r>
       <r>   -2.9461    1.0000 </r>
       <r>   -2.9018    1.0000 </r>
       <r>   -2.8228    1.0000 </r>
       <r>   -2.6777    1.0000 </r>
       <r>   -2.3307    1.0000 </r>
       <r>   -2.2412    1.0000 </r>
       <r>   -2.1114    1.0000 </r>
       <r>   -2.0265    1.0000 </r>
       <r>   -1.8424    1.0000 </r>
       <r>   -1.7574    1.0000 </r>
       <r>   -1.6082    1.0000 </r>
       <r>   -1.5749    1.0000 </r>
       <r>   -1.2165    1.0000 </r>
       <r>   -1.0864    1.0000 </r>
       <r>   -0.9509    1.0000 </r>
       <r>   -0.6126    1.0000 </r>
       <r>   -0.4303    1.0000 </r>
       <r>   -0.2256    0.9928 </r>
       <r>    0.3895    0.0000 </r>
       <r>    0.8429    0.0000 </r>
       <r>    1.1243    0.0000 </r>
       <r>    1.6864    0.0000 </r>
       <r>    1.7622    0.0000 </r>
       <r>    2.0361    0.0000 </r>
       <r>    2.2511    0.0000 </r>
       <r>    2.3213    0.0000 </r>
       <r>    2.4897    0.0000 </r>
       <r>    2.6821    0.0000 </r>
       <r>    2.7214    0.0000 </r>
       <r>    2.8395    0.0000 </r>
       <r>    2.9886    0.0000 </r>
       <r>    3.0836    0.0000 </r>
      </set>
      <set comment="kpoint 4">
       <r>  -14.6502    1.0000 </r>
       <r>  -12.9308    1.0000 </r>
       <r>  -12.6984    1.0000 </r>
       <r>  -12.3529    1.0000 </r>
       <r>  -12.2755    1.0000 </r>
       <r>  -11.9267    1.0000 </r>
       <r>  -11.4925    1.0000 </r>
       <r>  -11.4140    1.0000 </r>
       <r>  -10.9802    1.0000 </r>
       <r>  -10.9588    1.0000 </r>
       <r>  -10.5388    1.0000 </r>
       <r>  -10.3158    1.0000 </r>
       <r>   -8.7385    1.0000 </r>
       <r>   -8.4997    1.0000 </r>
       <r>   -8.2923    1.0000 </r>
       <r>   -7.7569    1.0000 </r>
       <r>   -7.0611    1.0000 </r>
       <r>   -6.8875    1.0000 </r>
       <r>   -6.6281    1.0000 </r>
       <r>   -6.5679    1.0000 </r>
       <r>   -6.0349    1.0000 </r>
       <r>   -5.6770    1.0000 </r>
       <r>   -5.4382    1.0000 </r>
       <r>   -5.2751    1.0000 </r>
       <r>   -5.1769    1.0000 </r>
       <r>   -4.9744    1.0000 </r>
       <r>   -4.7456    1.0000 </r>
       <r>   -4.5427    1.0000 </r>
       <r>   -4.4492    1.0000 </r>
       <r>   -4.3436    1.0000 </r>
       <r>   -4.1374    1.0000 </r>
       <r>   -3.9943    1.0000 </r>
       <r>   -3.9089    1.0000 </r>
       <r>   -3.7070    1.0000 </r>
       <r>   -3.6704    1.0000 </r>
       <r>   -3.4053    1.0000 </r>
       <r>   -3.1636    1.0000 </r>
       <r>   -2.9805    1.0000 </r>
       <r>   -2.9289    1.0000 </r>
       <r>   -2.7616    1.0000 </r>
       <r>   -2.5556    1.0000 </r>
       <r>   -2.5192    1.0000 </r>
       <r>   -2.3780    1.0000 </r>
       <r>   -1.9558    1.0000 </r>
       <r>   -1.9225    1.0000 </r>
       <r>   -1.8324    1.0000 </r>
       <r>   -1.7502    1.0000 </r>
       <r>   -1.6457    1.0000 </r>
       <r>   -1.4193    1.0000 </r>
       <r>   -1.3368    1.0000 </r>
       <r>   -1.0984    1.0000 </r>
       <r>   -0.9436    1.0000 </r>
       <r>   -0.7842    1.0000 </r>
       <r>   -0.2906    0.9996 </r>
       <r>    0.2659    0.0000 </r>
       <r>    0.6365    0.0000 </r>
       <r>    1.1706    0.0000 </r>
       <r>    1.7045    0.0000 </r>
       <r>    1.9324    0.0000 </r>
       <r>    2.0515    0.0000 </r>
       <r>    2.2096    0.0000 </r>
       <r>    2.3121    0.0000 </r>
       <r>    2.4320    0.0000 </r>
       <r>    2.6453    0.0000 </r>
       <r>    2.7225    0.0000 </r>
       <r>    2.8420    0.0000 </r>
       <r>    2.9556    0.0000 </r>
       <r>    3.0201    0.0000 </r>
      </set>
      <set comment="kpoint 5">
       <r>  -14.3536    1.0000 </r>
       <r>  -12.5190    1.0000 </r>
       <r>  -12.3385    1.0000 </r>
       <r>  -11.9699    1.0000 </r>
       <r>  -11.9273    1.0000 </r>
       <r>  -11.5750    1.0000 </r>
       <r>  -11.1879    1.0000 </r>
       <r>  -11.1283    1.0000 </r>
       <r>  -10.7277    1.0000 </r>
       <r>  -10.7127    1.0000 </r>
       <r>  -10.3523    1.0000 </r>
       <r>  -10.2085    1.0000 </r>
       <r>   -8.8060    1.0000 </r>
       <r>   -8.5916    1.0000 </r>
       <r>   -8.4683    1.0000 </r>
       <r>   -8.0188    1.0000 </r>
       <r>   -7.7872    1.0000 </r>
       <r>   -7.2750    1.0000 </r>
       <r>   -6.9292    1.0000 </r>
       <r>   -6.8363    1.0000 </r>
       <r>   -6.5008    1.0000 </r>
       <r>   -6.1036    1.0000 </r>
       <r>   -5.8972    1.0000 </r>
       <r>   -5.8416    1.0000 </r>
       <r>   -5.5449    1.0000 </r>
       <r>   -5.1507    1.0000 </r>
       <r>   -4.9845    1.0000 </r>
       <r>   -4.7248    1.0000 </r>
       <r>   -4.6362    1.0000 </r>
       <r>   -4.4542    1.0000 </r>
       <r>   -4.2499    1.0000 </r>
       <r>   -4.1908    1.0000 </r>
       <r>   -4.1455    1.0000 </r>
       <r>   -3.8878    1.0000 </r>
       <r>   -3.7650    1.0000 </r>
       <r>   -3.5077    1.0000 </r>
       <r>   -3.3249    1.0000 </r>
       <r>   -3.1257    1.0000 </r>
       <r>   -3.0198    1.0000 </r>
       <r>   -2.8803    1.0000 </r>
       <r>   -2.6851    1.0000 </r>
       <r>   -2.5447    1.0000 </r>
       <r>   -2.5120    1.0000 </r>
       <r>   -2.3352    1.0000 </r>
       <r>   -2.0143    1.0000 </r>
       <r>   -1.9062    1.0000 </r>
       <r>   -1.8352    1.0000 </r>
       <r>   -1.8075    1.0000 </r>
       <r>   -1.6758    1.0000 </r>
       <r>   -1.6128    1.0000 </r>
       <r>   -1.4663    1.0000 </r>
       <r>   -1.1595    1.0000 </r>
       <r>   -0.6970    1.0000 </r>
       <r>   -0.2341    0.9949 </r>
       <r>    0.0579    0.0592 </r>
       <r>    0.3653    0.0000 </r>
       <r>    0.8856    0.0000 </r>
       <r>    1.5295    0.0000 </r>
       <r>    1.6736    0.0000 </r>
       <r>    1.8311    0.0000 </r>
       <r>    1.9921    0.0000 </r>
       <r>    2.0704    0.0000 </r>
       <r>    2.2854    0.0000 </r>
       <r>    2.3507    0.0000 </r>
       <r>    2.4426    0.0000 </r>
       <r>    2.7135    0.0000 </r>
       <r>    2.8106    0.0000 </r>
       <r>    2.8800    0.0000 </r>
      </set>
      <set comment="kpoint 6">
       <r>  -14.0507    1.0000 </r>
       <r>  -12.0106    1.0000 </r>
       <r>  -11.9059    1.0000 </r>
       <r>  -11.5653    1.0000 </r>
       <r>  -11.5085    1.0000 </r>
       <r>  -11.1772    1.0000 </r>
       <r>  -11.0246    1.0000 </r>
       <r>  -10.7865    1.0000 </r>
       <r>  -10.5907    1.0000 </r>
       <r>  -10.5636    1.0000 </r>
       <r>  -10.3913    1.0000 </r>
       <r>  -10.1154    1.0000 </r>
       <r>   -8.9943    1.0000 </r>
       <r>   -8.7673    1.0000 </r>
       <r>   -8.5326    1.0000 </r>
       <r>   -8.3121    1.0000 </r>
       <r>   -8.2367    1.0000 </r>
       <r>   -7.6792    1.0000 </r>
       <r>   -7.3953    1.0000 </r>
       <r>   -7.3483    1.0000 </r>
       <r>   -7.0641    1.0000 </r>
       <r>   -6.7006    1.0000 </r>
       <r>   -6.5956    1.0000 </r>
       <r>   -6.3099    1.0000 </r>
       <r>   -5.6784    1.0000 </r>
       <r>   -5.1497    1.0000 </r>
       <r>   -4.8215    1.0000 </r>
       <r>   -4.5808    1.0000 </r>
       <r>   -4.4723    1.0000 </r>
       <r>   -4.4275    1.0000 </r>
       <r>   -4.2393    1.0000 </r>
       <r>   -4.1851    1.0000 </r>
       <r>   -4.1013    1.0000 </r>
       <r>   -4.0083    1.0000 </r>
       <r>   -3.7203    1.0000 </r>
       <r>   -3.5926    1.0000 </r>
       <r>   -3.4980    1.0000 </r>
       <r>   -3.2141    1.0000 </r>
       <r>   -3.1945    1.0000 </r>
       <r>   -3.0916    1.0000 </r>
       <r>   -2.7576    1.0000 </r>
       <r>   -2.6893    1.0000 </r>
       <r>   -2.6043    1.0000 </r>
       <r>   -2.4525    1.0000 </r>
       <r>   -2.2482    1.0000 </r>
       <r>   -2.1103    1.0000 </r>
       <r>   -1.9770    1.0000 </r>
       <r>   -1.9589    1.0000 </r>
       <r>   -1.8926    1.0000 </r>
       <r>   -1.7483    1.0000 </r>
       <r>   -1.5772    1.0000 </r>
       <r>   -1.3062    1.0000 </r>
       <r>   -0.5687    1.0000 </r>
       <r>   -0.2090    0.9865 </r>
       <r>   -0.0910    0.7064 </r>
       <r>    0.2198    0.0001 </r>
       <r>    0.4991    0.0000 </r>
       <r>    1.3501    0.0000 </r>
       <r>    1.5024    0.0000 </r>
       <r>    1.7258    0.0000 </r>
       <r>    1.7697    0.0000 </r>
       <r>    1.8586    0.0000 </r>
       <r>    2.1247    0.0000 </r>
       <r>    2.2175    0.0000 </r>
       <r>    2.3284    0.0000 </r>
       <r>    2.3595    0.0000 </r>
       <r>    2.5068    0.0000 </r>
       <r>    2.7521    0.0000 </r>
      </set>
      <set comment="kpoint 7">
       <r>  -13.8419    1.0000 </r>
       <r>  -11.4618    1.0000 </r>
       <r>  -11.4363    1.0000 </r>
       <r>  -11.3041    1.0000 </r>
       <r>  -11.1073    1.0000 </r>
       <r>  -11.0863    1.0000 </r>
       <r>  -10.8755    1.0000 </r>
       <r>  -10.7804    1.0000 </r>
       <r>  -10.6679    1.0000 </r>
       <r>  -10.5700    1.0000 </r>
       <r>  -10.5213    1.0000 </r>
       <r>  -10.0684    1.0000 </r>
       <r>   -9.2583    1.0000 </r>
       <r>   -8.6270    1.0000 </r>
       <r>   -8.5025    1.0000 </r>
       <r>   -8.3855    1.0000 </r>
       <r>   -8.3490    1.0000 </r>
       <r>   -8.0149    1.0000 </r>
       <r>   -7.8935    1.0000 </r>
       <r>   -7.6031    1.0000 </r>
       <r>   -7.5032    1.0000 </r>
       <r>   -7.2202    1.0000 </r>
       <r>   -7.1210    1.0000 </r>
       <r>   -6.5403    1.0000 </r>
       <r>   -5.5365    1.0000 </r>
       <r>   -4.9100    1.0000 </r>
       <r>   -4.8493    1.0000 </r>
       <r>   -4.6173    1.0000 </r>
       <r>   -4.4465    1.0000 </r>
       <r>   -4.3128    1.0000 </r>
       <r>   -4.1516    1.0000 </r>
       <r>   -4.0213    1.0000 </r>
       <r>   -3.9686    1.0000 </r>
       <r>   -3.8658    1.0000 </r>
       <r>   -3.7704    1.0000 </r>
       <r>   -3.5604    1.0000 </r>
       <r>   -3.5120    1.0000 </r>
       <r>   -3.4648    1.0000 </r>
       <r>   -3.3324    1.0000 </r>
       <r>   -3.1958    1.0000 </r>
       <r>   -2.9629    1.0000 </r>
       <r>   -2.9365    1.0000 </r>
       <r>   -2.6772    1.0000 </r>
       <r>   -2.6174    1.0000 </r>
       <r>   -2.3209    1.0000 </r>
       <r>   -2.1947    1.0000 </r>
       <r>   -2.0730    1.0000 </r>
       <r>   -2.0041    1.0000 </r>
       <r>   -1.9294    1.0000 </r>
       <r>   -1.7599    1.0000 </r>
       <r>   -1.5922    1.0000 </r>
       <r>   -1.4258    1.0000 </r>
       <r>   -0.5597    1.0000 </r>
       <r>   -0.2308    0.9941 </r>
       <r>   -0.1029    0.7616 </r>
       <r>    0.1007    0.0151 </r>
       <r>    0.3830    0.0000 </r>
       <r>    1.2916    0.0000 </r>
       <r>    1.4388    0.0000 </r>
       <r>    1.5543    0.0000 </r>
       <r>    1.6572    0.0000 </r>
       <r>    1.7678    0.0000 </r>
       <r>    1.9196    0.0000 </r>
       <r>    2.0460    0.0000 </r>
       <r>    2.1692    0.0000 </r>
       <r>    2.3804    0.0000 </r>
       <r>    2.4635    0.0000 </r>
       <r>    2.5536    0.0000 </r>
      </set>
      <set comment="kpoint 8">
       <r>  -15.0842    1.0000 </r>
       <r>  -13.4206    1.0000 </r>
       <r>  -13.2779    1.0000 </r>
       <r>  -12.9133    1.0000 </r>
       <r>  -12.7146    1.0000 </r>
       <r>  -12.4120    1.0000 </r>
       <r>  -11.9934    1.0000 </r>
       <r>  -11.8098    1.0000 </r>
       <r>  -11.4148    1.0000 </r>
       <r>  -11.3167    1.0000 </r>
       <r>  -10.9379    1.0000 </r>
       <r>  -10.4979    1.0000 </r>
       <r>   -9.0727    1.0000 </r>
       <r>   -8.5473    1.0000 </r>
       <r>   -8.4498    1.0000 </r>
       <r>   -7.3153    1.0000 </r>
       <r>   -6.7779    1.0000 </r>
       <r>   -6.6073    1.0000 </r>
       <r>   -6.5380    1.0000 </r>
       <r>   -5.9703    1.0000 </r>
       <r>   -5.6875    1.0000 </r>
       <r>   -5.4752    1.0000 </r>
       <r>   -4.9141    1.0000 </r>
       <r>   -4.6081    1.0000 </r>
       <r>   -4.4372    1.0000 </r>
       <r>   -4.3831    1.0000 </r>
       <r>   -3.9576    1.0000 </r>
       <r>   -3.5917    1.0000 </r>
       <r>   -3.3804    1.0000 </r>
       <r>   -3.2057    1.0000 </r>
       <r>   -3.0642    1.0000 </r>
       <r>   -3.0524    1.0000 </r>
       <r>   -3.0439    1.0000 </r>
       <r>   -2.6480    1.0000 </r>
       <r>   -2.5699    1.0000 </r>
       <r>   -2.4086    1.0000 </r>
       <r>   -2.3226    1.0000 </r>
       <r>   -2.3002    1.0000 </r>
       <r>   -2.1342    1.0000 </r>
       <r>   -2.0140    1.0000 </r>
       <r>   -1.9785    1.0000 </r>
       <r>   -1.8589    1.0000 </r>
       <r>   -1.8220    1.0000 </r>
       <r>   -1.7113    1.0000 </r>
       <r>   -1.5628    1.0000 </r>
       <r>   -1.5507    1.0000 </r>
       <r>   -1.3724    1.0000 </r>
       <r>   -1.3008    1.0000 </r>
       <r>   -1.2301    1.0000 </r>
       <r>   -1.0617    1.0000 </r>
       <r>   -0.8939    1.0000 </r>
       <r>   -0.7847    1.0000 </r>
       <r>   -0.3414    1.0000 </r>
       <r>    0.1842    0.0004 </r>
       <r>    0.3505    0.0000 </r>
       <r>    0.6505    0.0000 </r>
       <r>    0.9980    0.0000 </r>
       <r>    1.2269    0.0000 </r>
       <r>    1.3341    0.0000 </r>
       <r>    1.4385    0.0000 </r>
       <r>    1.5390    0.0000 </r>
       <r>    1.7887    0.0000 </r>
       <r>    1.8109    0.0000 </r>
       <r>    1.9146    0.0000 </r>
       <r>    2.0788    0.0000 </r>
       <r>    2.2483    0.0000 </r>
       <r>    2.3187    0.0000 </r>
       <r>    2.5797    0.0000 </r>
      </set>
      <set comment="kpoint 9">
       <r>  -15.0329    1.0000 </r>
       <r>  -13.3436    1.0000 </r>
       <r>  -13.2362    1.0000 </r>
       <r>  -12.8944    1.0000 </r>
       <r>  -12.6156    1.0000 </r>
       <r>  -12.3547    1.0000 </r>
       <r>  -11.9890    1.0000 </r>
       <r>  -11.7103    1.0000 </r>
       <r>  -11.3733    1.0000 </r>
       <r>  -11.2466    1.0000 </r>
       <r>  -10.8934    1.0000 </r>
       <r>  -10.4511    1.0000 </r>
       <r>   -9.0663    1.0000 </r>
       <r>   -8.5324    1.0000 </r>
       <r>   -8.5047    1.0000 </r>
       <r>   -7.2667    1.0000 </r>
       <r>   -6.7657    1.0000 </r>
       <r>   -6.6156    1.0000 </r>
       <r>   -6.4672    1.0000 </r>
       <r>   -5.9280    1.0000 </r>
       <r>   -5.6402    1.0000 </r>
       <r>   -5.4985    1.0000 </r>
       <r>   -4.9615    1.0000 </r>
       <r>   -4.8628    1.0000 </r>
       <r>   -4.6330    1.0000 </r>
       <r>   -4.3232    1.0000 </r>
       <r>   -4.0131    1.0000 </r>
       <r>   -3.6819    1.0000 </r>
       <r>   -3.5579    1.0000 </r>
       <r>   -3.4502    1.0000 </r>
       <r>   -3.3330    1.0000 </r>
       <r>   -3.2054    1.0000 </r>
       <r>   -3.0813    1.0000 </r>
       <r>   -2.9609    1.0000 </r>
       <r>   -2.9442    1.0000 </r>
       <r>   -2.6332    1.0000 </r>
       <r>   -2.4663    1.0000 </r>
       <r>   -2.4210    1.0000 </r>
       <r>   -2.3395    1.0000 </r>
       <r>   -2.2396    1.0000 </r>
       <r>   -2.1263    1.0000 </r>
       <r>   -1.9879    1.0000 </r>
       <r>   -1.9378    1.0000 </r>
       <r>   -1.9061    1.0000 </r>
       <r>   -1.7607    1.0000 </r>
       <r>   -1.6965    1.0000 </r>
       <r>   -1.6149    1.0000 </r>
       <r>   -1.3005    1.0000 </r>
       <r>   -1.1848    1.0000 </r>
       <r>   -1.0006    1.0000 </r>
       <r>   -0.8459    1.0000 </r>
       <r>   -0.4799    1.0000 </r>
       <r>   -0.2383    0.9957 </r>
       <r>    0.0619    0.0528 </r>
       <r>    0.2740    0.0000 </r>
       <r>    0.6457    0.0000 </r>
       <r>    1.0123    0.0000 </r>
       <r>    1.4775    0.0000 </r>
       <r>    1.6411    0.0000 </r>
       <r>    1.7872    0.0000 </r>
       <r>    1.8756    0.0000 </r>
       <r>    1.8868    0.0000 </r>
       <r>    2.0041    0.0000 </r>
       <r>    2.0319    0.0000 </r>
       <r>    2.2762    0.0000 </r>
       <r>    2.5769    0.0000 </r>
       <r>    2.6910    0.0000 </r>
       <r>    2.7518    0.0000 </r>
      </set>
      <set comment="kpoint 10">
       <r>  -14.8834    1.0000 </r>
       <r>  -13.1469    1.0000 </r>
       <r>  -13.0759    1.0000 </r>
       <r>  -12.7580    1.0000 </r>
       <r>  -12.4089    1.0000 </r>
       <r>  -12.1882    1.0000 </r>
       <r>  -11.8810    1.0000 </r>
       <r>  -11.5124    1.0000 </r>
       <r>  -11.2337    1.0000 </r>
       <r>  -11.0923    1.0000 </r>
       <r>  -10.7520    1.0000 </r>
       <r>  -10.3499    1.0000 </r>
       <r>   -8.9831    1.0000 </r>
       <r>   -8.5771    1.0000 </r>
       <r>   -8.5008    1.0000 </r>
       <r>   -7.2373    1.0000 </r>
       <r>   -6.7683    1.0000 </r>
       <r>   -6.5929    1.0000 </r>
       <r>   -6.4352    1.0000 </r>
       <r>   -6.1130    1.0000 </r>
       <r>   -5.8149    1.0000 </r>
       <r>   -5.5927    1.0000 </r>
       <r>   -5.2694    1.0000 </r>
       <r>   -4.9304    1.0000 </r>
       <r>   -4.7916    1.0000 </r>
       <r>   -4.5953    1.0000 </r>
       <r>   -4.3159    1.0000 </r>
       <r>   -4.2268    1.0000 </r>
       <r>   -4.0449    1.0000 </r>
       <r>   -3.9028    1.0000 </r>
       <r>   -3.7861    1.0000 </r>
       <r>   -3.5469    1.0000 </r>
       <r>   -3.5279    1.0000 </r>
       <r>   -3.2322    1.0000 </r>
       <r>   -3.1049    1.0000 </r>
       <r>   -3.0274    1.0000 </r>
       <r>   -2.9009    1.0000 </r>
       <r>   -2.8375    1.0000 </r>
       <r>   -2.6917    1.0000 </r>
       <r>   -2.6359    1.0000 </r>
       <r>   -2.5358    1.0000 </r>
       <r>   -2.4140    1.0000 </r>
       <r>   -2.2585    1.0000 </r>
       <r>   -2.0063    1.0000 </r>
       <r>   -1.8757    1.0000 </r>
       <r>   -1.7878    1.0000 </r>
       <r>   -1.5966    1.0000 </r>
       <r>   -1.4232    1.0000 </r>
       <r>   -1.1502    1.0000 </r>
       <r>   -1.0243    1.0000 </r>
       <r>   -0.9054    1.0000 </r>
       <r>   -0.6545    1.0000 </r>
       <r>   -0.3926    1.0000 </r>
       <r>   -0.1975    0.9798 </r>
       <r>    0.2186    0.0001 </r>
       <r>    0.7317    0.0000 </r>
       <r>    1.1962    0.0000 </r>
       <r>    1.6294    0.0000 </r>
       <r>    1.8286    0.0000 </r>
       <r>    1.8703    0.0000 </r>
       <r>    2.1681    0.0000 </r>
       <r>    2.2514    0.0000 </r>
       <r>    2.4269    0.0000 </r>
       <r>    2.7302    0.0000 </r>
       <r>    2.8032    0.0000 </r>
       <r>    2.9209    0.0000 </r>
       <r>    3.0395    0.0000 </r>
       <r>    3.1268    0.0000 </r>
      </set>
      <set comment="kpoint 11">
       <r>  -14.6477    1.0000 </r>
       <r>  -12.8356    1.0000 </r>
       <r>  -12.8011    1.0000 </r>
       <r>  -12.5069    1.0000 </r>
       <r>  -12.1080    1.0000 </r>
       <r>  -11.9202    1.0000 </r>
       <r>  -11.6775    1.0000 </r>
       <r>  -11.2358    1.0000 </r>
       <r>  -11.0119    1.0000 </r>
       <r>  -10.8847    1.0000 </r>
       <r>  -10.5344    1.0000 </r>
       <r>  -10.2218    1.0000 </r>
       <r>   -8.8484    1.0000 </r>
       <r>   -8.7070    1.0000 </r>
       <r>   -8.5222    1.0000 </r>
       <r>   -7.3266    1.0000 </r>
       <r>   -7.0340    1.0000 </r>
       <r>   -6.8663    1.0000 </r>
       <r>   -6.6310    1.0000 </r>
       <r>   -6.5793    1.0000 </r>
       <r>   -5.9938    1.0000 </r>
       <r>   -5.7622    1.0000 </r>
       <r>   -5.4098    1.0000 </r>
       <r>   -5.2159    1.0000 </r>
       <r>   -5.1416    1.0000 </r>
       <r>   -4.9932    1.0000 </r>
       <r>   -4.8992    1.0000 </r>
       <r>   -4.6021    1.0000 </r>
       <r>   -4.5426    1.0000 </r>
       <r>   -4.4830    1.0000 </r>
       <r>   -4.1010    1.0000 </r>
       <r>   -3.9555    1.0000 </r>
       <r>   -3.7036    1.0000 </r>
       <r>   -3.5996    1.0000 </r>
       <r>   -3.5446    1.0000 </r>
       <r>   -3.2921    1.0000 </r>
       <r>   -3.1501    1.0000 </r>
       <r>   -3.0302    1.0000 </r>
       <r>   -2.9130    1.0000 </r>
       <r>   -2.7137    1.0000 </r>
       <r>   -2.6379    1.0000 </r>
       <r>   -2.5242    1.0000 </r>
       <r>   -2.4639    1.0000 </r>
       <r>   -2.0324    1.0000 </r>
       <r>   -1.9245    1.0000 </r>
       <r>   -1.8535    1.0000 </r>
       <r>   -1.7259    1.0000 </r>
       <r>   -1.6844    1.0000 </r>
       <r>   -1.3501    1.0000 </r>
       <r>   -1.2388    1.0000 </r>
       <r>   -1.1841    1.0000 </r>
       <r>   -0.9255    1.0000 </r>
       <r>   -0.8185    1.0000 </r>
       <r>   -0.2813    0.9994 </r>
       <r>    0.1321    0.0045 </r>
       <r>    0.4216    0.0000 </r>
       <r>    1.2321    0.0000 </r>
       <r>    1.4837    0.0000 </r>
       <r>    1.6281    0.0000 </r>
       <r>    1.8422    0.0000 </r>
       <r>    2.0896    0.0000 </r>
       <r>    2.2732    0.0000 </r>
       <r>    2.4732    0.0000 </r>
       <r>    2.6385    0.0000 </r>
       <r>    2.7591    0.0000 </r>
       <r>    2.8725    0.0000 </r>
       <r>    3.0808    0.0000 </r>
       <r>    3.1241    0.0000 </r>
      </set>
      <set comment="kpoint 12">
       <r>  -14.3518    1.0000 </r>
       <r>  -12.4265    1.0000 </r>
       <r>  -12.4146    1.0000 </r>
       <r>  -12.1482    1.0000 </r>
       <r>  -11.7447    1.0000 </r>
       <r>  -11.5691    1.0000 </r>
       <r>  -11.4062    1.0000 </r>
       <r>  -10.9220    1.0000 </r>
       <r>  -10.7488    1.0000 </r>
       <r>  -10.6943    1.0000 </r>
       <r>  -10.3286    1.0000 </r>
       <r>  -10.1148    1.0000 </r>
       <r>   -8.9073    1.0000 </r>
       <r>   -8.7432    1.0000 </r>
       <r>   -8.6116    1.0000 </r>
       <r>   -7.7844    1.0000 </r>
       <r>   -7.6404    1.0000 </r>
       <r>   -7.2562    1.0000 </r>
       <r>   -7.0492    1.0000 </r>
       <r>   -6.8947    1.0000 </r>
       <r>   -6.5175    1.0000 </r>
       <r>   -6.1316    1.0000 </r>
       <r>   -5.8521    1.0000 </r>
       <r>   -5.8234    1.0000 </r>
       <r>   -5.5039    1.0000 </r>
       <r>   -5.3202    1.0000 </r>
       <r>   -4.9451    1.0000 </r>
       <r>   -4.8752    1.0000 </r>
       <r>   -4.7561    1.0000 </r>
       <r>   -4.3594    1.0000 </r>
       <r>   -4.2613    1.0000 </r>
       <r>   -4.1605    1.0000 </r>
       <r>   -3.9541    1.0000 </r>
       <r>   -3.8653    1.0000 </r>
       <r>   -3.7032    1.0000 </r>
       <r>   -3.3334    1.0000 </r>
       <r>   -3.2704    1.0000 </r>
       <r>   -2.9467    1.0000 </r>
       <r>   -2.8927    1.0000 </r>
       <r>   -2.8013    1.0000 </r>
       <r>   -2.7008    1.0000 </r>
       <r>   -2.6423    1.0000 </r>
       <r>   -2.4308    1.0000 </r>
       <r>   -2.2850    1.0000 </r>
       <r>   -2.2575    1.0000 </r>
       <r>   -1.9699    1.0000 </r>
       <r>   -1.8903    1.0000 </r>
       <r>   -1.8210    1.0000 </r>
       <r>   -1.7856    1.0000 </r>
       <r>   -1.6632    1.0000 </r>
       <r>   -1.4136    1.0000 </r>
       <r>   -1.1784    1.0000 </r>
       <r>   -0.6966    1.0000 </r>
       <r>   -0.2898    0.9996 </r>
       <r>    0.0524    0.0689 </r>
       <r>    0.1364    0.0038 </r>
       <r>    0.8032    0.0000 </r>
       <r>    1.2700    0.0000 </r>
       <r>    1.3314    0.0000 </r>
       <r>    1.6491    0.0000 </r>
       <r>    1.9852    0.0000 </r>
       <r>    2.1134    0.0000 </r>
       <r>    2.2375    0.0000 </r>
       <r>    2.3918    0.0000 </r>
       <r>    2.5112    0.0000 </r>
       <r>    2.6770    0.0000 </r>
       <r>    2.7270    0.0000 </r>
       <r>    2.9311    0.0000 </r>
      </set>
      <set comment="kpoint 13">
       <r>  -14.0499    1.0000 </r>
       <r>  -11.9639    1.0000 </r>
       <r>  -11.9133    1.0000 </r>
       <r>  -11.6985    1.0000 </r>
       <r>  -11.3999    1.0000 </r>
       <r>  -11.1804    1.0000 </r>
       <r>  -11.1629    1.0000 </r>
       <r>  -10.6643    1.0000 </r>
       <r>  -10.5880    1.0000 </r>
       <r>  -10.5346    1.0000 </r>
       <r>  -10.4044    1.0000 </r>
       <r>  -10.0792    1.0000 </r>
       <r>   -8.9578    1.0000 </r>
       <r>   -8.8976    1.0000 </r>
       <r>   -8.5354    1.0000 </r>
       <r>   -8.2742    1.0000 </r>
       <r>   -8.0447    1.0000 </r>
       <r>   -7.7190    1.0000 </r>
       <r>   -7.6411    1.0000 </r>
       <r>   -7.2895    1.0000 </r>
       <r>   -7.1484    1.0000 </r>
       <r>   -6.6306    1.0000 </r>
       <r>   -6.6005    1.0000 </r>
       <r>   -6.3224    1.0000 </r>
       <r>   -5.5988    1.0000 </r>
       <r>   -5.2829    1.0000 </r>
       <r>   -4.7862    1.0000 </r>
       <r>   -4.7286    1.0000 </r>
       <r>   -4.6541    1.0000 </r>
       <r>   -4.4230    1.0000 </r>
       <r>   -4.3119    1.0000 </r>
       <r>   -4.0544    1.0000 </r>
       <r>   -4.0326    1.0000 </r>
       <r>   -3.7965    1.0000 </r>
       <r>   -3.6796    1.0000 </r>
       <r>   -3.3284    1.0000 </r>
       <r>   -3.2874    1.0000 </r>
       <r>   -3.2188    1.0000 </r>
       <r>   -3.0640    1.0000 </r>
       <r>   -3.0081    1.0000 </r>
       <r>   -2.8768    1.0000 </r>
       <r>   -2.7423    1.0000 </r>
       <r>   -2.6018    1.0000 </r>
       <r>   -2.4466    1.0000 </r>
       <r>   -2.2952    1.0000 </r>
       <r>   -2.1642    1.0000 </r>
       <r>   -2.0504    1.0000 </r>
       <r>   -2.0152    1.0000 </r>
       <r>   -1.9699    1.0000 </r>
       <r>   -1.7699    1.0000 </r>
       <r>   -1.5903    1.0000 </r>
       <r>   -1.3710    1.0000 </r>
       <r>   -0.5364    1.0000 </r>
       <r>   -0.3369    1.0000 </r>
       <r>   -0.0800    0.6511 </r>
       <r>    0.1153    0.0088 </r>
       <r>    0.4358    0.0000 </r>
       <r>    1.2274    0.0000 </r>
       <r>    1.3747    0.0000 </r>
       <r>    1.4649    0.0000 </r>
       <r>    1.8034    0.0000 </r>
       <r>    1.8940    0.0000 </r>
       <r>    1.9720    0.0000 </r>
       <r>    2.1486    0.0000 </r>
       <r>    2.2429    0.0000 </r>
       <r>    2.3997    0.0000 </r>
       <r>    2.6673    0.0000 </r>
       <r>    2.7040    0.0000 </r>
      </set>
      <set comment="kpoint 14">
       <r>  -13.8417    1.0000 </r>
       <r>  -11.4767    1.0000 </r>
       <r>  -11.3644    1.0000 </r>
       <r>  -11.2577    1.0000 </r>
       <r>  -11.2039    1.0000 </r>
       <r>  -11.1548    1.0000 </r>
       <r>  -10.8891    1.0000 </r>
       <r>  -10.8000    1.0000 </r>
       <r>  -10.6392    1.0000 </r>
       <r>  -10.5159    1.0000 </r>
       <r>  -10.4810    1.0000 </r>
       <r>  -10.0941    1.0000 </r>
       <r>   -9.2726    1.0000 </r>
       <r>   -8.5003    1.0000 </r>
       <r>   -8.4843    1.0000 </r>
       <r>   -8.3462    1.0000 </r>
       <r>   -8.2914    1.0000 </r>
       <r>   -8.2540    1.0000 </r>
       <r>   -7.9027    1.0000 </r>
       <r>   -7.6719    1.0000 </r>
       <r>   -7.4500    1.0000 </r>
       <r>   -7.2484    1.0000 </r>
       <r>   -7.0817    1.0000 </r>
       <r>   -6.5480    1.0000 </r>
       <r>   -5.4959    1.0000 </r>
       <r>   -4.9611    1.0000 </r>
       <r>   -4.8907    1.0000 </r>
       <r>   -4.6761    1.0000 </r>
       <r>   -4.4357    1.0000 </r>
       <r>   -4.3251    1.0000 </r>
       <r>   -4.1198    1.0000 </r>
       <r>   -4.0533    1.0000 </r>
       <r>   -3.9857    1.0000 </r>
       <r>   -3.8669    1.0000 </r>
       <r>   -3.6033    1.0000 </r>
       <r>   -3.5131    1.0000 </r>
       <r>   -3.4546    1.0000 </r>
       <r>   -3.4102    1.0000 </r>
       <r>   -3.2859    1.0000 </r>
       <r>   -3.1987    1.0000 </r>
       <r>   -2.9634    1.0000 </r>
       <r>   -2.9316    1.0000 </r>
       <r>   -2.6421    1.0000 </r>
       <r>   -2.5589    1.0000 </r>
       <r>   -2.5279    1.0000 </r>
       <r>   -2.1697    1.0000 </r>
       <r>   -2.0842    1.0000 </r>
       <r>   -2.0129    1.0000 </r>
       <r>   -1.9516    1.0000 </r>
       <r>   -1.8019    1.0000 </r>
       <r>   -1.5871    1.0000 </r>
       <r>   -1.4566    1.0000 </r>
       <r>   -0.5443    1.0000 </r>
       <r>   -0.2383    0.9957 </r>
       <r>   -0.1805    0.9648 </r>
       <r>    0.0637    0.0501 </r>
       <r>    0.4138    0.0000 </r>
       <r>    1.3386    0.0000 </r>
       <r>    1.4849    0.0000 </r>
       <r>    1.5564    0.0000 </r>
       <r>    1.5748    0.0000 </r>
       <r>    1.6227    0.0000 </r>
       <r>    1.8358    0.0000 </r>
       <r>    2.0614    0.0000 </r>
       <r>    2.2289    0.0000 </r>
       <r>    2.2876    0.0000 </r>
       <r>    2.5114    0.0000 </r>
       <r>    2.5459    0.0000 </r>
      </set>
      <set comment="kpoint 15">
       <r>  -13.8421    1.0000 </r>
       <r>  -11.4711    1.0000 </r>
       <r>  -11.4445    1.0000 </r>
       <r>  -11.3359    1.0000 </r>
       <r>  -11.0774    1.0000 </r>
       <r>  -11.0105    1.0000 </r>
       <r>  -10.8622    1.0000 </r>
       <r>  -10.7460    1.0000 </r>
       <r>  -10.6921    1.0000 </r>
       <r>  -10.6392    1.0000 </r>
       <r>  -10.5523    1.0000 </r>
       <r>  -10.0504    1.0000 </r>
       <r>   -9.2466    1.0000 </r>
       <r>   -8.6956    1.0000 </r>
       <r>   -8.5101    1.0000 </r>
       <r>   -8.4129    1.0000 </r>
       <r>   -8.3621    1.0000 </r>
       <r>   -7.8939    1.0000 </r>
       <r>   -7.8736    1.0000 </r>
       <r>   -7.5612    1.0000 </r>
       <r>   -7.5286    1.0000 </r>
       <r>   -7.2181    1.0000 </r>
       <r>   -7.1574    1.0000 </r>
       <r>   -6.5376    1.0000 </r>
       <r>   -5.5583    1.0000 </r>
       <r>   -4.9126    1.0000 </r>
       <r>   -4.6733    1.0000 </r>
       <r>   -4.5744    1.0000 </r>
       <r>   -4.5169    1.0000 </r>
       <r>   -4.3453    1.0000 </r>
       <r>   -4.2256    1.0000 </r>
       <r>   -4.0002    1.0000 </r>
       <r>   -3.9338    1.0000 </r>
       <r>   -3.8692    1.0000 </r>
       <r>   -3.8216    1.0000 </r>
       <r>   -3.6338    1.0000 </r>
       <r>   -3.5843    1.0000 </r>
       <r>   -3.5068    1.0000 </r>
       <r>   -3.2956    1.0000 </r>
       <r>   -3.2629    1.0000 </r>
       <r>   -2.9800    1.0000 </r>
       <r>   -2.8137    1.0000 </r>
       <r>   -2.7254    1.0000 </r>
       <r>   -2.6189    1.0000 </r>
       <r>   -2.3459    1.0000 </r>
       <r>   -2.1577    1.0000 </r>
       <r>   -2.0853    1.0000 </r>
       <r>   -1.9798    1.0000 </r>
       <r>   -1.8976    1.0000 </r>
       <r>   -1.7275    1.0000 </r>
       <r>   -1.5822    1.0000 </r>
       <r>   -1.4055    1.0000 </r>
       <r>   -0.5767    1.0000 </r>
       <r>   -0.2236    0.9922 </r>
       <r>   -0.0307    0.3784 </r>
       <r>    0.0739    0.0369 </r>
       <r>    0.4085    0.0000 </r>
       <r>    1.2927    0.0000 </r>
       <r>    1.4089    0.0000 </r>
       <r>    1.5687    0.0000 </r>
       <r>    1.7271    0.0000 </r>
       <r>    1.8256    0.0000 </r>
       <r>    1.8537    0.0000 </r>
       <r>    2.2307    0.0000 </r>
       <r>    2.2938    0.0000 </r>
       <r>    2.4242    0.0000 </r>
       <r>    2.4408    0.0000 </r>
       <r>    2.5408    0.0000 </r>
      </set>
      <set comment="kpoint 16">
       <r>  -14.0511    1.0000 </r>
       <r>  -12.0373    1.0000 </r>
       <r>  -11.8666    1.0000 </r>
       <r>  -11.6345    1.0000 </r>
       <r>  -11.4242    1.0000 </r>
       <r>  -11.1747    1.0000 </r>
       <r>  -10.9779    1.0000 </r>
       <r>  -10.8661    1.0000 </r>
       <r>  -10.5922    1.0000 </r>
       <r>  -10.5673    1.0000 </r>
       <r>  -10.3867    1.0000 </r>
       <r>  -10.1331    1.0000 </r>
       <r>   -9.0091    1.0000 </r>
       <r>   -8.6795    1.0000 </r>
       <r>   -8.5341    1.0000 </r>
       <r>   -8.4238    1.0000 </r>
       <r>   -8.2190    1.0000 </r>
       <r>   -7.6964    1.0000 </r>
       <r>   -7.3741    1.0000 </r>
       <r>   -7.2647    1.0000 </r>
       <r>   -7.0245    1.0000 </r>
       <r>   -6.7512    1.0000 </r>
       <r>   -6.5988    1.0000 </r>
       <r>   -6.3038    1.0000 </r>
       <r>   -5.7147    1.0000 </r>
       <r>   -4.9929    1.0000 </r>
       <r>   -4.8336    1.0000 </r>
       <r>   -4.7615    1.0000 </r>
       <r>   -4.3702    1.0000 </r>
       <r>   -4.3286    1.0000 </r>
       <r>   -4.2373    1.0000 </r>
       <r>   -4.2188    1.0000 </r>
       <r>   -4.0721    1.0000 </r>
       <r>   -3.9845    1.0000 </r>
       <r>   -3.8355    1.0000 </r>
       <r>   -3.6566    1.0000 </r>
       <r>   -3.5297    1.0000 </r>
       <r>   -3.3421    1.0000 </r>
       <r>   -3.2792    1.0000 </r>
       <r>   -3.1010    1.0000 </r>
       <r>   -2.7843    1.0000 </r>
       <r>   -2.6776    1.0000 </r>
       <r>   -2.6115    1.0000 </r>
       <r>   -2.4612    1.0000 </r>
       <r>   -2.1992    1.0000 </r>
       <r>   -2.0957    1.0000 </r>
       <r>   -1.9642    1.0000 </r>
       <r>   -1.8833    1.0000 </r>
       <r>   -1.8433    1.0000 </r>
       <r>   -1.7154    1.0000 </r>
       <r>   -1.5674    1.0000 </r>
       <r>   -1.2847    1.0000 </r>
       <r>   -0.5831    1.0000 </r>
       <r>   -0.1675    0.9480 </r>
       <r>   -0.0921    0.7121 </r>
       <r>    0.2943    0.0000 </r>
       <r>    0.5127    0.0000 </r>
       <r>    1.3469    0.0000 </r>
       <r>    1.4420    0.0000 </r>
       <r>    1.7639    0.0000 </r>
       <r>    1.8428    0.0000 </r>
       <r>    1.9585    0.0000 </r>
       <r>    2.1831    0.0000 </r>
       <r>    2.3135    0.0000 </r>
       <r>    2.3526    0.0000 </r>
       <r>    2.4853    0.0000 </r>
       <r>    2.6314    0.0000 </r>
       <r>    2.6852    0.0000 </r>
      </set>
      <set comment="kpoint 17">
       <r>  -14.3539    1.0000 </r>
       <r>  -12.5313    1.0000 </r>
       <r>  -12.3152    1.0000 </r>
       <r>  -12.0099    1.0000 </r>
       <r>  -11.8859    1.0000 </r>
       <r>  -11.5745    1.0000 </r>
       <r>  -11.1820    1.0000 </r>
       <r>  -11.1460    1.0000 </r>
       <r>  -10.7312    1.0000 </r>
       <r>  -10.7077    1.0000 </r>
       <r>  -10.3585    1.0000 </r>
       <r>  -10.2270    1.0000 </r>
       <r>   -8.8109    1.0000 </r>
       <r>   -8.4969    1.0000 </r>
       <r>   -8.4452    1.0000 </r>
       <r>   -8.1212    1.0000 </r>
       <r>   -7.7872    1.0000 </r>
       <r>   -7.2788    1.0000 </r>
       <r>   -6.9341    1.0000 </r>
       <r>   -6.8073    1.0000 </r>
       <r>   -6.4970    1.0000 </r>
       <r>   -6.0972    1.0000 </r>
       <r>   -5.9061    1.0000 </r>
       <r>   -5.8427    1.0000 </r>
       <r>   -5.5555    1.0000 </r>
       <r>   -5.0915    1.0000 </r>
       <r>   -4.9808    1.0000 </r>
       <r>   -4.8147    1.0000 </r>
       <r>   -4.5815    1.0000 </r>
       <r>   -4.3884    1.0000 </r>
       <r>   -4.2567    1.0000 </r>
       <r>   -4.2114    1.0000 </r>
       <r>   -4.1592    1.0000 </r>
       <r>   -3.9028    1.0000 </r>
       <r>   -3.7807    1.0000 </r>
       <r>   -3.5172    1.0000 </r>
       <r>   -3.3902    1.0000 </r>
       <r>   -3.1737    1.0000 </r>
       <r>   -3.0205    1.0000 </r>
       <r>   -2.8764    1.0000 </r>
       <r>   -2.7003    1.0000 </r>
       <r>   -2.5468    1.0000 </r>
       <r>   -2.4989    1.0000 </r>
       <r>   -2.3357    1.0000 </r>
       <r>   -1.9703    1.0000 </r>
       <r>   -1.8827    1.0000 </r>
       <r>   -1.8251    1.0000 </r>
       <r>   -1.8129    1.0000 </r>
       <r>   -1.6619    1.0000 </r>
       <r>   -1.6124    1.0000 </r>
       <r>   -1.4694    1.0000 </r>
       <r>   -1.1585    1.0000 </r>
       <r>   -0.6982    1.0000 </r>
       <r>   -0.2173    0.9901 </r>
       <r>    0.0642    0.0494 </r>
       <r>    0.4024    0.0000 </r>
       <r>    0.8983    0.0000 </r>
       <r>    1.5389    0.0000 </r>
       <r>    1.6885    0.0000 </r>
       <r>    1.9128    0.0000 </r>
       <r>    2.0293    0.0000 </r>
       <r>    2.0589    0.0000 </r>
       <r>    2.3125    0.0000 </r>
       <r>    2.4169    0.0000 </r>
       <r>    2.4574    0.0000 </r>
       <r>    2.7144    0.0000 </r>
       <r>    2.8032    0.0000 </r>
       <r>    2.8757    0.0000 </r>
      </set>
      <set comment="kpoint 18">
       <r>  -14.6500    1.0000 </r>
       <r>  -12.9266    1.0000 </r>
       <r>  -12.7072    1.0000 </r>
       <r>  -12.3381    1.0000 </r>
       <r>  -12.2900    1.0000 </r>
       <r>  -11.9268    1.0000 </r>
       <r>  -11.4770    1.0000 </r>
       <r>  -11.4278    1.0000 </r>
       <r>  -10.9753    1.0000 </r>
       <r>  -10.9597    1.0000 </r>
       <r>  -10.5374    1.0000 </r>
       <r>  -10.3102    1.0000 </r>
       <r>   -8.7459    1.0000 </r>
       <r>   -8.5005    1.0000 </r>
       <r>   -8.3325    1.0000 </r>
       <r>   -7.7153    1.0000 </r>
       <r>   -7.0591    1.0000 </r>
       <r>   -6.8871    1.0000 </r>
       <r>   -6.6262    1.0000 </r>
       <r>   -6.5716    1.0000 </r>
       <r>   -6.0323    1.0000 </r>
       <r>   -5.6792    1.0000 </r>
       <r>   -5.4365    1.0000 </r>
       <r>   -5.2704    1.0000 </r>
       <r>   -5.1765    1.0000 </r>
       <r>   -4.9768    1.0000 </r>
       <r>   -4.7657    1.0000 </r>
       <r>   -4.5354    1.0000 </r>
       <r>   -4.4535    1.0000 </r>
       <r>   -4.3589    1.0000 </r>
       <r>   -4.1311    1.0000 </r>
       <r>   -3.9957    1.0000 </r>
       <r>   -3.8928    1.0000 </r>
       <r>   -3.7044    1.0000 </r>
       <r>   -3.6629    1.0000 </r>
       <r>   -3.3859    1.0000 </r>
       <r>   -3.1734    1.0000 </r>
       <r>   -2.9796    1.0000 </r>
       <r>   -2.9250    1.0000 </r>
       <r>   -2.7517    1.0000 </r>
       <r>   -2.5613    1.0000 </r>
       <r>   -2.5384    1.0000 </r>
       <r>   -2.3803    1.0000 </r>
       <r>   -1.9575    1.0000 </r>
       <r>   -1.9221    1.0000 </r>
       <r>   -1.8251    1.0000 </r>
       <r>   -1.7515    1.0000 </r>
       <r>   -1.6556    1.0000 </r>
       <r>   -1.4142    1.0000 </r>
       <r>   -1.3286    1.0000 </r>
       <r>   -1.1020    1.0000 </r>
       <r>   -0.9429    1.0000 </r>
       <r>   -0.7850    1.0000 </r>
       <r>   -0.2911    0.9996 </r>
       <r>    0.2567    0.0000 </r>
       <r>    0.6236    0.0000 </r>
       <r>    1.1751    0.0000 </r>
       <r>    1.6990    0.0000 </r>
       <r>    1.9002    0.0000 </r>
       <r>    2.0339    0.0000 </r>
       <r>    2.2043    0.0000 </r>
       <r>    2.2919    0.0000 </r>
       <r>    2.4402    0.0000 </r>
       <r>    2.6225    0.0000 </r>
       <r>    2.7485    0.0000 </r>
       <r>    2.8570    0.0000 </r>
       <r>    2.9789    0.0000 </r>
       <r>    3.0275    0.0000 </r>
      </set>
      <set comment="kpoint 19">
       <r>  -14.8854    1.0000 </r>
       <r>  -13.2103    1.0000 </r>
       <r>  -13.0079    1.0000 </r>
       <r>  -12.6054    1.0000 </r>
       <r>  -12.5732    1.0000 </r>
[...]
       <r>    2.7148    0.0000 </r>
      </set>
      <set comment="kpoint 54">
       <r>  -13.8419    1.0000 </r>
       <r>  -11.4653    1.0000 </r>
       <r>  -11.4250    1.0000 </r>
       <r>  -11.2953    1.0000 </r>
       <r>  -11.1166    1.0000 </r>
       <r>  -11.1079    1.0000 </r>
       <r>  -10.8786    1.0000 </r>
       <r>  -10.7860    1.0000 </r>
       <r>  -10.6612    1.0000 </r>
       <r>  -10.5566    1.0000 </r>
       <r>  -10.5127    1.0000 </r>
       <r>  -10.0737    1.0000 </r>
       <r>   -9.2615    1.0000 </r>
       <r>   -8.6040    1.0000 </r>
       <r>   -8.5004    1.0000 </r>
       <r>   -8.3830    1.0000 </r>
       <r>   -8.3384    1.0000 </r>
       <r>   -8.0547    1.0000 </r>
       <r>   -7.8953    1.0000 </r>
       <r>   -7.6170    1.0000 </r>
       <r>   -7.4933    1.0000 </r>
       <r>   -7.2242    1.0000 </r>
       <r>   -7.1115    1.0000 </r>
       <r>   -6.5416    1.0000 </r>
       <r>   -5.5290    1.0000 </r>
       <r>   -4.9115    1.0000 </r>
       <r>   -4.8755    1.0000 </r>
       <r>   -4.6284    1.0000 </r>
       <r>   -4.4252    1.0000 </r>
       <r>   -4.3232    1.0000 </r>
       <r>   -4.1534    1.0000 </r>
       <r>   -4.0329    1.0000 </r>
       <r>   -3.9789    1.0000 </r>
       <r>   -3.8671    1.0000 </r>
       <r>   -3.7089    1.0000 </r>
       <r>   -3.5442    1.0000 </r>
       <r>   -3.4955    1.0000 </r>
       <r>   -3.4569    1.0000 </r>
       <r>   -3.3334    1.0000 </r>
       <r>   -3.1981    1.0000 </r>
       <r>   -2.9757    1.0000 </r>
       <r>   -2.9432    1.0000 </r>
       <r>   -2.6651    1.0000 </r>
       <r>   -2.6109    1.0000 </r>
       <r>   -2.3337    1.0000 </r>
       <r>   -2.1981    1.0000 </r>
       <r>   -2.0702    1.0000 </r>
       <r>   -2.0095    1.0000 </r>
       <r>   -1.9409    1.0000 </r>
       <r>   -1.7659    1.0000 </r>
       <r>   -1.5942    1.0000 </r>
       <r>   -1.4311    1.0000 </r>
       <r>   -0.5563    1.0000 </r>
       <r>   -0.2358    0.9952 </r>
       <r>   -0.1113    0.7968 </r>
       <r>    0.0906    0.0215 </r>
       <r>    0.3865    0.0000 </r>
       <r>    1.2942    0.0000 </r>
       <r>    1.4208    0.0000 </r>
       <r>    1.5656    0.0000 </r>
       <r>    1.6603    0.0000 </r>
       <r>    1.7540    0.0000 </r>
       <r>    1.9254    0.0000 </r>
       <r>    2.0395    0.0000 </r>
       <r>    2.1415    0.0000 </r>
       <r>    2.3766    0.0000 </r>
       <r>    2.4275    0.0000 </r>
       <r>    2.5442    0.0000 </r>
      </set>
     </set>
    </set>
   </array>
  </eigenvalues>
  <separator name="orbital magnetization" >
   <v name="MAGDIPOLOUT">      0.00000000      0.00000000      0.00000000</v>
  </separator>
  <dos>
   <i name="efermi">     -0.05257542 </i>
   <total>
    <array>
     <dimension dim="1">gridpoints</dimension>
     <dimension dim="2">spin</dimension>
     <field>energy</field>
     <field>total</field>
     <field>integrated</field>
     <set>
      <set comment="spin 1">
       <r>   -16.0865     0.0000     0.0000 </r>
       <r>   -16.0191     0.0000     0.0000 </r>
       <r>   -15.9517     0.0000     0.0000 </r>
       <r>   -15.8843     0.0000     0.0000 </r>
       <r>   -15.8168     0.0000     0.0000 </r>
       <r>   -15.7494     0.0000     0.0000 </r>
       <r>   -15.6820     0.0000     0.0000 </r>
       <r>   -15.6145     0.0000     0.0000 </r>
       <r>   -15.5471     0.0000     0.0000 </r>
       <r>   -15.4797     0.0000     0.0000 </r>
       <r>   -15.4123     0.0000     0.0000 </r>
       <r>   -15.3448     0.0003     0.0000 </r>
       <r>   -15.2774     0.0082     0.0006 </r>
       <r>   -15.2100     0.1062     0.0077 </r>
       <r>   -15.1426     0.6335     0.0504 </r>
       <r>   -15.0751     1.7932     0.1714 </r>
       <r>   -15.0077     2.5373     0.3424 </r>
       <r>   -14.9403     2.2706     0.4955 </r>
       <r>   -14.8728     2.0210     0.6318 </r>
       <r>   -14.8054     1.4937     0.7325 </r>
       <r>   -14.7380     0.9300     0.7952 </r>
       <r>   -14.6706     1.3400     0.8856 </r>
       <r>   -14.6031     1.6564     0.9973 </r>
       <r>   -14.5357     0.9532     1.0616 </r>
       <r>   -14.4683     0.4379     1.0911 </r>
       <r>   -14.4009     0.9241     1.1534 </r>
       <r>   -14.3334     1.6422     1.2641 </r>
       <r>   -14.2660     1.2921     1.3512 </r>
       <r>   -14.1986     0.5113     1.3857 </r>
       <r>   -14.1311     0.5595     1.4234 </r>
       <r>   -14.0637     1.3711     1.5159 </r>
       <r>   -13.9963     1.6710     1.6286 </r>
       <r>   -13.9289     1.2498     1.7128 </r>
       <r>   -13.8614     1.4638     1.8115 </r>
       <r>   -13.7940     1.6579     1.9233 </r>
       <r>   -13.7266     0.9026     1.9842 </r>
       <r>   -13.6592     0.2159     1.9987 </r>
       <r>   -13.5917     0.0647     2.0031 </r>
       <r>   -13.5243     0.2779     2.0218 </r>
       <r>   -13.4569     0.9569     2.0864 </r>
       <r>   -13.3894     1.9668     2.2190 </r>
       <r>   -13.3220     2.8715     2.4126 </r>
       <r>   -13.2546     3.5720     2.6534 </r>
       <r>   -13.1872     3.8483     2.9129 </r>
       <r>   -13.1197     3.6969     3.1622 </r>
       <r>   -13.0523     3.3754     3.3898 </r>
       <r>   -12.9849     3.1184     3.6001 </r>
       <r>   -12.9175     3.5469     3.8392 </r>
       <r>   -12.8500     4.4041     4.1362 </r>
       <r>   -12.7826     4.8242     4.4615 </r>
       <r>   -12.7152     4.6051     4.7720 </r>
       <r>   -12.6477     4.1592     5.0524 </r>
       <r>   -12.5803     3.8921     5.3148 </r>
       <r>   -12.5129     4.3724     5.6097 </r>
       <r>   -12.4455     5.4921     5.9800 </r>
       <r>   -12.3780     6.7092     6.4324 </r>
       <r>   -12.3106     6.6636     6.8817 </r>
       <r>   -12.2432     5.2416     7.2351 </r>
       <r>   -12.1758     4.3284     7.5269 </r>
       <r>   -12.1083     4.1950     7.8098 </r>
       <r>   -12.0409     4.8805     8.1389 </r>
       <r>   -11.9735     6.9633     8.6084 </r>
       <r>   -11.9060     8.2562     9.1651 </r>
       <r>   -11.8386     6.9603     9.6344 </r>
       <r>   -11.7712     5.4347    10.0008 </r>
       <r>   -11.7038     5.3362    10.3606 </r>
       <r>   -11.6363     5.7052    10.7453 </r>
       <r>   -11.5689     6.4050    11.1772 </r>
       <r>   -11.5015     7.9613    11.7140 </r>
       <r>   -11.4341    10.0386    12.3909 </r>
       <r>   -11.3666    10.4851    13.0979 </r>
       <r>   -11.2992     9.3587    13.7289 </r>
       <r>   -11.2318     9.6281    14.3781 </r>
       <r>   -11.1644    10.8354    15.1087 </r>
       <r>   -11.0969    10.0495    15.7863 </r>
       <r>   -11.0295     8.3200    16.3473 </r>
       <r>   -10.9621     8.1697    16.8982 </r>
       <r>   -10.8946     8.7468    17.4879 </r>
       <r>   -10.8272     8.5271    18.0629 </r>
       <r>   -10.7598     8.8061    18.6567 </r>
       <r>   -10.6924     9.5966    19.3037 </r>
       <r>   -10.6249     9.5444    19.9473 </r>
       <r>   -10.5575    10.1698    20.6330 </r>
       <r>   -10.4901    10.2391    21.3234 </r>
       <r>   -10.4227     8.5866    21.9024 </r>
       <r>   -10.3552     7.2563    22.3916 </r>
       <r>   -10.2878     5.8136    22.7836 </r>
       <r>   -10.2204     4.2682    23.0714 </r>
       <r>   -10.1529     4.0420    23.3440 </r>
       <r>   -10.0855     4.4844    23.6463 </r>
       <r>   -10.0181     3.4902    23.8817 </r>
       <r>    -9.9507     1.4408    23.9788 </r>
       <r>    -9.8832     0.2865    23.9981 </r>
       <r>    -9.8158     0.0263    23.9999 </r>
       <r>    -9.7484     0.0011    24.0000 </r>
       <r>    -9.6810     0.0000    24.0000 </r>
       <r>    -9.6135     0.0000    24.0000 </r>
       <r>    -9.5461     0.0001    24.0000 </r>
       <r>    -9.4787     0.0048    24.0003 </r>
       <r>    -9.4112     0.0729    24.0052 </r>
       <r>    -9.3438     0.4844    24.0379 </r>
       <r>    -9.2764     1.4409    24.1351 </r>
       <r>    -9.2090     2.0744    24.2749 </r>
       <r>    -9.1415     1.9263    24.4048 </r>
       <r>    -9.0741     2.2883    24.5591 </r>
       <r>    -9.0067     3.5391    24.7978 </r>
       <r>    -8.9393     4.5950    25.1076 </r>
       <r>    -8.8718     5.3728    25.4699 </r>
       <r>    -8.8044     6.0756    25.8795 </r>
       <r>    -8.7370     6.3470    26.3075 </r>
       <r>    -8.6695     6.6285    26.7544 </r>
       <r>    -8.6021     8.3391    27.3167 </r>
       <r>    -8.5347    11.8682    28.1169 </r>
       <r>    -8.4673    12.8951    28.9864 </r>
       <r>    -8.3998     9.9188    29.6552 </r>
       <r>    -8.3324     7.5603    30.1650 </r>
       <r>    -8.2650     6.3012    30.5899 </r>
       <r>    -8.1976     4.4695    30.8912 </r>
       <r>    -8.1301     2.9468    31.0899 </r>
       <r>    -8.0627     2.7534    31.2756 </r>
       <r>    -7.9953     3.0702    31.4826 </r>
       <r>    -7.9278     3.1649    31.6960 </r>
       <r>    -7.8604     3.4541    31.9289 </r>
       <r>    -7.7930     4.2196    32.2134 </r>
       <r>    -7.7256     5.5168    32.5854 </r>
       <r>    -7.6581     6.1281    32.9986 </r>
       <r>    -7.5907     5.2453    33.3523 </r>
       <r>    -7.5233     4.0797    33.6273 </r>
       <r>    -7.4559     3.5438    33.8663 </r>
       <r>    -7.3884     3.8977    34.1291 </r>
       <r>    -7.3210     5.6356    34.5091 </r>
       <r>    -7.2536     7.4816    35.0136 </r>
       <r>    -7.1861     7.4682    35.5171 </r>
       <r>    -7.1187     6.4525    35.9522 </r>
       <r>    -7.0513     5.8859    36.3491 </r>
       <r>    -6.9839     5.1180    36.6942 </r>
       <r>    -6.9164     4.7082    37.0116 </r>
       <r>    -6.8490     5.7324    37.3981 </r>
       <r>    -6.7816     7.4523    37.9006 </r>
       <r>    -6.7142     8.6069    38.4810 </r>
       <r>    -6.6467     9.8300    39.1438 </r>
       <r>    -6.5793    11.7829    39.9382 </r>
       <r>    -6.5119    11.0684    40.6846 </r>
       <r>    -6.4444     7.4955    41.1900 </r>
       <r>    -6.3770     4.4475    41.4898 </r>
       <r>    -6.3096     3.2823    41.7112 </r>
       <r>    -6.2422     2.9213    41.9081 </r>
       <r>    -6.1747     3.1639    42.1215 </r>
       <r>    -6.1073     4.2861    42.4105 </r>
       <r>    -6.0399     4.9338    42.7431 </r>
       <r>    -5.9725     4.9642    43.0779 </r>
       <r>    -5.9050     5.5645    43.4531 </r>
       <r>    -5.8376     6.5809    43.8968 </r>
       <r>    -5.7702     6.5315    44.3372 </r>
       <r>    -5.7027     6.1427    44.7514 </r>
       <r>    -5.6353     6.5526    45.1932 </r>
       <r>    -5.5679     7.3542    45.6891 </r>
       <r>    -5.5005     8.1332    46.2375 </r>
       <r>    -5.4330     7.1965    46.7227 </r>
       <r>    -5.3656     5.0191    47.0611 </r>
       <r>    -5.2982     4.6946    47.3777 </r>
       <r>    -5.2308     5.7528    47.7656 </r>
       <r>    -5.1633     5.5492    48.1397 </r>
       <r>    -5.0959     4.5755    48.4482 </r>
       <r>    -5.0285     5.6562    48.8296 </r>
       <r>    -4.9610    10.0604    49.5080 </r>
       <r>    -4.8936    13.5525    50.4218 </r>
       <r>    -4.8262    13.1355    51.3075 </r>
       <r>    -4.7588    10.7281    52.0308 </r>
       <r>    -4.6913     9.1123    52.6453 </r>
       <r>    -4.6239     9.9215    53.3142 </r>
       <r>    -4.5565    11.0582    54.0599 </r>
       <r>    -4.4891    10.7400    54.7840 </r>
       <r>    -4.4216    10.9580    55.5229 </r>
       <r>    -4.3542    11.6161    56.3061 </r>
       <r>    -4.2868    11.9472    57.1117 </r>
       <r>    -4.2193    12.1533    57.9312 </r>
       <r>    -4.1519    12.1638    58.7513 </r>
       <r>    -4.0845    12.2763    59.5791 </r>
       <r>    -4.0171    13.1494    60.4657 </r>
       <r>    -3.9496    13.9399    61.4056 </r>
       <r>    -3.8822    12.9293    62.2774 </r>
       <r>    -3.8148    10.6867    62.9980 </r>
       <r>    -3.7474     9.9394    63.6682 </r>
       <r>    -3.6799    11.8067    64.4643 </r>
       <r>    -3.6125    13.5687    65.3792 </r>
       <r>    -3.5451    14.3404    66.3461 </r>
       <r>    -3.4777    14.0526    67.2936 </r>
       <r>    -3.4102    12.7482    68.1532 </r>
       <r>    -3.3428    12.6187    69.0041 </r>
       <r>    -3.2754    13.6753    69.9261 </r>
       <r>    -3.2079    14.3202    70.8917 </r>
       <r>    -3.1405    14.7007    71.8829 </r>
       <r>    -3.0731    15.5715    72.9329 </r>
       <r>    -3.0057    17.1359    74.0883 </r>
       <r>    -2.9382    17.7101    75.2825 </r>
       <r>    -2.8708    15.5123    76.3284 </r>
       <r>    -2.8034    12.4940    77.1708 </r>
       <r>    -2.7360    12.2315    77.9956 </r>
       <r>    -2.6685    15.0472    79.0102 </r>
       <r>    -2.6011    17.1379    80.1657 </r>
       <r>    -2.5337    16.6610    81.2891 </r>
       <r>    -2.4662    15.3394    82.3234 </r>
       <r>    -2.3988    13.9555    83.2644 </r>
       <r>    -2.3314    13.3834    84.1668 </r>
       <r>    -2.2640    12.8886    85.0359 </r>
       <r>    -2.1965    11.9755    85.8433 </r>
       <r>    -2.1291    12.3391    86.6753 </r>
       <r>    -2.0617    14.4139    87.6472 </r>
       <r>    -1.9943    18.4141    88.8888 </r>
       <r>    -1.9268    21.9449    90.3685 </r>
       <r>    -1.8594    21.9714    91.8500 </r>
       <r>    -1.7920    20.0917    93.2047 </r>
       <r>    -1.7245    18.1052    94.4255 </r>
       <r>    -1.6571    16.4209    95.5327 </r>
       <r>    -1.5897    15.1109    96.5516 </r>
       <r>    -1.5223    12.4939    97.3940 </r>
       <r>    -1.4548     9.7458    98.0511 </r>
       <r>    -1.3874     9.2835    98.6771 </r>
       <r>    -1.3200     9.1933    99.2970 </r>
       <r>    -1.2526     8.9806    99.9025 </r>
       <r>    -1.1851     9.5367   100.5455 </r>
       <r>    -1.1177     9.0467   101.1555 </r>
       <r>    -1.0503     7.2920   101.6472 </r>
       <r>    -0.9828     6.4488   102.0820 </r>
       <r>    -0.9154     7.0381   102.5566 </r>
       <r>    -0.8480     7.2765   103.0472 </r>
       <r>    -0.7806     6.2143   103.4662 </r>
       <r>    -0.7131     5.0966   103.8099 </r>
       <r>    -0.6457     4.9616   104.1444 </r>
       <r>    -0.5783     5.5262   104.5171 </r>
       <r>    -0.5109     5.6241   104.8963 </r>
       <r>    -0.4434     5.0031   105.2336 </r>
       <r>    -0.3760     5.1361   105.5799 </r>
       <r>    -0.3086     6.9134   106.0461 </r>
       <r>    -0.2411     9.2507   106.6698 </r>
       <r>    -0.1737     9.1084   107.2840 </r>
       <r>    -0.1063     6.6630   107.7333 </r>
       <r>    -0.0389     4.9133   108.0645 </r>
       <r>     0.0286     5.4239   108.4303 </r>
       <r>     0.0960     7.3369   108.9250 </r>
       <r>     0.1634     7.6734   109.4424 </r>
       <r>     0.2308     6.6101   109.8881 </r>
       <r>     0.2983     6.0697   110.2973 </r>
       <r>     0.3657     6.6012   110.7424 </r>
       <r>     0.4331     6.7728   111.1991 </r>
       <r>     0.5006     5.0725   111.5411 </r>
       <r>     0.5680     3.4052   111.7707 </r>
       <r>     0.6354     3.4643   112.0043 </r>
       <r>     0.7028     3.6638   112.2514 </r>
       <r>     0.7703     3.2197   112.4684 </r>
       <r>     0.8377     3.2930   112.6905 </r>
       <r>     0.9051     3.3174   112.9142 </r>
       <r>     0.9725     2.7841   113.1019 </r>
       <r>     1.0400     2.4039   113.2640 </r>
       <r>     1.1074     2.8359   113.4552 </r>
       <r>     1.1748     4.3922   113.7514 </r>
       <r>     1.2423     6.2110   114.1701 </r>
       <r>     1.3097     7.3839   114.6680 </r>
       <r>     1.3771     8.0991   115.2141 </r>
       <r>     1.4445     9.0246   115.8226 </r>
       <r>     1.5120     9.7873   116.4826 </r>
       <r>     1.5794    10.3376   117.1796 </r>
       <r>     1.6468    11.4380   117.9508 </r>
       <r>     1.7142    12.1894   118.7727 </r>
       <r>     1.7817    13.5168   119.6841 </r>
       <r>     1.8491    15.6827   120.7416 </r>
       <r>     1.9165    15.6578   121.7973 </r>
       <r>     1.9840    13.8282   122.7297 </r>
       <r>     2.0514    13.2193   123.6211 </r>
       <r>     2.1188    13.2067   124.5116 </r>
       <r>     2.1862    13.4056   125.4155 </r>
       <r>     2.2537    14.8891   126.4194 </r>
       <r>     2.3211    15.6224   127.4728 </r>
       <r>     2.3885    14.5499   128.4538 </r>
       <r>     2.4559    13.5775   129.3693 </r>
       <r>     2.5234    12.4758   130.2105 </r>
       <r>     2.5908    10.7671   130.9365 </r>
       <r>     2.6582    10.7172   131.6592 </r>
       <r>     2.7257    12.3738   132.4935 </r>
       <r>     2.7931    12.4985   133.3362 </r>
       <r>     2.8605    10.5951   134.0506 </r>
       <r>     2.9279     8.3075   134.6108 </r>
       <r>     2.9954     6.5386   135.0517 </r>
       <r>     3.0628     5.5497   135.4259 </r>
       <r>     3.1302     4.6295   135.7380 </r>
       <r>     3.1976     2.7956   135.9265 </r>
       <r>     3.2651     0.9300   135.9892 </r>
       <r>     3.3325     0.1488   135.9993 </r>
       <r>     3.3999     0.0108   136.0000 </r>
       <r>     3.4673     0.0003   136.0000 </r>
       <r>     3.5348     0.0000   136.0000 </r>
       <r>     3.6022     0.0000   136.0000 </r>
       <r>     3.6696     0.0000   136.0000 </r>
       <r>     3.7371     0.0000   136.0000 </r>
       <r>     3.8045     0.0000   136.0000 </r>
       <r>     3.8719     0.0000   136.0000 </r>
       <r>     3.9393     0.0000   136.0000 </r>
       <r>     4.0068     0.0000   136.0000 </r>
       <r>     4.0742     0.0000   136.0000 </r>
       <r>     4.1416     0.0000   136.0000 </r>
      </set>
     </set>
    </array>
   </total>
  </dos>
 </calculation>
 <structure name="finalpos" >
  <crystal>
   <varray name="basis" >
    <v>       3.54040000       0.00000000       0.00000000 </v>
    <v>      -1.77020000      10.29434800       0.00000000 </v>
    <v>       0.00000000       0.00000000      27.50142900 </v>
   </varray>
   <i name="volume">   1002.32009712 </i>
   <varray name="rec_basis" >
    <v>       0.28245396       0.04857034       0.00000000 </v>
    <v>       0.00000000       0.09714068       0.00000000 </v>
    <v>       0.00000000       0.00000000       0.03636175 </v>
   </varray>
  </crystal>
  <varray name="positions" >
   <v>       0.11402300       0.22804500       0.23316207 </v>
   <v>       0.91402300       0.82804500       0.51499159 </v>
   <v>       0.45808900       0.91617900       0.20939482 </v>
   <v>       0.25808900       0.51617900       0.49122434 </v>
   <v>       0.31085400       0.62170900       0.08414979 </v>
   <v>       0.31085400       0.62170900       0.36597930 </v>
   <v>       0.99923000       0.99846000       0.08631254 </v>
   <v>       0.99923000       0.99846000       0.36814206 </v>
   <v>       0.65492700       0.30985400       0.06041748 </v>
   <v>       0.65492700       0.30985400       0.34224700 </v>
   <v>       0.76973800       0.53947500       0.20725292 </v>
   <v>       0.56973800       0.13947500       0.48908244 </v>
   <v>       0.93971600       0.87943300       0.15783749 </v>
   <v>       0.73971600       0.47943300       0.43966701 </v>
   <v>       0.20515200       0.41030300       0.18578822 </v>
   <v>       0.00515200       0.01030300       0.46761774 </v>
   <v>       0.20184900       0.40369900       0.09969156 </v>
   <v>       0.20184900       0.40369900       0.38152107 </v>
   <v>       0.56380500       0.12761000       0.10779021 </v>
   <v>       0.56380500       0.12761000       0.38961973 </v>
   <v>       0.56710600       0.13421200       0.19387616 </v>
   <v>       0.36710600       0.73421200       0.47570568 </v>
   <v>       0.82923400       0.65846800       0.13571444 </v>
   <v>       0.62923400       0.25846800       0.41754396 </v>
  </varray>
 </structure>
</modeling>
