  24  24   0   0
  0.4176334E+02  0.3540400E-09  0.1044544E-08  0.2750143E-08  0.5000000E-15
  1.000000000000000E-004
  CAR 
 unknown system                          
      4.14912338    -15.29348541  301     -0.17710202      1.00000000
    -15.293  0.0000E+00  0.0000E+00
    -15.229  0.0000E+00  0.0000E+00
    -15.164  0.0000E+00  0.0000E+00
    -15.099  0.0000E+00  0.0000E+00
    -15.034  0.0000E+00  0.0000E+00
    -14.969  0.0000E+00  0.0000E+00
    -14.905  0.0000E+00  0.0000E+00
    -14.840  0.7248E-14  0.4697E-15
    -14.775  0.6762E-11  0.4387E-12
    -14.710  0.2783E-08  0.1808E-09
    -14.645  0.5075E-06  0.3307E-07
    -14.581  0.4139E-04  0.2716E-05
    -14.516  0.1533E-02  0.1021E-03
    -14.451  0.2641E-01  0.1814E-02
    -14.386  0.2192E+00  0.1602E-01
    -14.321  0.9154E+00  0.7535E-01
    -14.257  0.1993E+01  0.2045E+00
    -14.192  0.2328E+01  0.3554E+00
    -14.127  0.1759E+01  0.4694E+00
    -14.062  0.1655E+01  0.5767E+00
    -13.997  0.1702E+01  0.6870E+00
    -13.933  0.9884E+00  0.7510E+00
    -13.868  0.4052E+00  0.7773E+00
    -13.803  0.7228E+00  0.8241E+00
    -13.738  0.1518E+01  0.9225E+00
    -13.673  0.1540E+01  0.1022E+01
    -13.608  0.8375E+00  0.1077E+01
    -13.544  0.7222E+00  0.1123E+01
    -13.479  0.1423E+01  0.1216E+01
    -13.414  0.2327E+01  0.1366E+01
    -13.349  0.3179E+01  0.1572E+01
    -13.284  0.3564E+01  0.1803E+01
    -13.220  0.2881E+01  0.1990E+01
    -13.155  0.1965E+01  0.2117E+01
    -13.090  0.1584E+01  0.2220E+01
    -13.025  0.2029E+01  0.2352E+01
    -12.960  0.3586E+01  0.2584E+01
    -12.896  0.5412E+01  0.2935E+01
    -12.831  0.6222E+01  0.3338E+01
    -12.766  0.5617E+01  0.3702E+01
    -12.701  0.4313E+01  0.3982E+01
    -12.636  0.3553E+01  0.4212E+01
    -12.572  0.3756E+01  0.4455E+01
    -12.507  0.4520E+01  0.4748E+01
    -12.442  0.5298E+01  0.5091E+01
    -12.377  0.5291E+01  0.5434E+01
    -12.312  0.5179E+01  0.5770E+01
    -12.247  0.5986E+01  0.6158E+01
    -12.183  0.6423E+01  0.6574E+01
    -12.118  0.6382E+01  0.6988E+01
    -12.053  0.7602E+01  0.7481E+01
    -11.988  0.9297E+01  0.8083E+01
    -11.923  0.8389E+01  0.8627E+01
    -11.859  0.5966E+01  0.9013E+01
    -11.794  0.5167E+01  0.9348E+01
    -11.729  0.5961E+01  0.9735E+01
    -11.664  0.6913E+01  0.1018E+02
    -11.599  0.7524E+01  0.1067E+02
    -11.535  0.7809E+01  0.1118E+02
    -11.470  0.8100E+01  0.1170E+02
    -11.405  0.7734E+01  0.1220E+02
    -11.340  0.6848E+01  0.1265E+02
    -11.275  0.7957E+01  0.1316E+02
    -11.211  0.1053E+02  0.1384E+02
    -11.146  0.1139E+02  0.1458E+02
    -11.081  0.1079E+02  0.1528E+02
    -11.016  0.1075E+02  0.1598E+02
    -10.951  0.1123E+02  0.1671E+02
    -10.886  0.1128E+02  0.1744E+02
    -10.822  0.1137E+02  0.1817E+02
    -10.757  0.1073E+02  0.1887E+02
    -10.692  0.8543E+01  0.1942E+02
    -10.627  0.7286E+01  0.1990E+02
    -10.562  0.7341E+01  0.2037E+02
    -10.498  0.6854E+01  0.2082E+02
    -10.433  0.7004E+01  0.2127E+02
    -10.368  0.7420E+01  0.2175E+02
    -10.303  0.6361E+01  0.2216E+02
    -10.238  0.4561E+01  0.2246E+02
    -10.174  0.3301E+01  0.2267E+02
    -10.109  0.3200E+01  0.2288E+02
    -10.044  0.3497E+01  0.2311E+02
     -9.979  0.3542E+01  0.2334E+02
     -9.914  0.4077E+01  0.2360E+02
     -9.850  0.4932E+01  0.2392E+02
     -9.785  0.4418E+01  0.2421E+02
     -9.720  0.3042E+01  0.2440E+02
     -9.655  0.2022E+01  0.2453E+02
     -9.590  0.1013E+01  0.2460E+02
     -9.526  0.5128E+00  0.2463E+02
     -9.461  0.9813E+00  0.2470E+02
     -9.396  0.1612E+01  0.2480E+02
     -9.331  0.1293E+01  0.2488E+02
     -9.266  0.4923E+00  0.2492E+02
     -9.201  0.8886E-01  0.2492E+02
     -9.137  0.2094E-01  0.2492E+02
     -9.072  0.1307E+00  0.2493E+02
     -9.007  0.6035E+00  0.2497E+02
     -8.942  0.1422E+01  0.2506E+02
     -8.877  0.2028E+01  0.2520E+02
     -8.813  0.2788E+01  0.2538E+02
     -8.748  0.4471E+01  0.2567E+02
     -8.683  0.5565E+01  0.2603E+02
     -8.618  0.4924E+01  0.2635E+02
     -8.553  0.4320E+01  0.2663E+02
     -8.489  0.4975E+01  0.2695E+02
     -8.424  0.6270E+01  0.2735E+02
     -8.359  0.6862E+01  0.2780E+02
     -8.294  0.5648E+01  0.2816E+02
     -8.229  0.3872E+01  0.2842E+02
     -8.165  0.3646E+01  0.2865E+02
     -8.100  0.4942E+01  0.2897E+02
     -8.035  0.6042E+01  0.2936E+02
     -7.970  0.6346E+01  0.2978E+02
     -7.905  0.7226E+01  0.3024E+02
     -7.840  0.8230E+01  0.3078E+02
     -7.776  0.7833E+01  0.3128E+02
     -7.711  0.6400E+01  0.3170E+02
     -7.646  0.4962E+01  0.3202E+02
     -7.581  0.4353E+01  0.3230E+02
     -7.516  0.4474E+01  0.3259E+02
     -7.452  0.5299E+01  0.3294E+02
     -7.387  0.7000E+01  0.3339E+02
     -7.322  0.8043E+01  0.3391E+02
     -7.257  0.7438E+01  0.3439E+02
     -7.192  0.5966E+01  0.3478E+02
     -7.128  0.5346E+01  0.3513E+02
     -7.063  0.6515E+01  0.3555E+02
     -6.998  0.7973E+01  0.3607E+02
     -6.933  0.8096E+01  0.3659E+02
     -6.868  0.7713E+01  0.3709E+02
     -6.804  0.8097E+01  0.3761E+02
     -6.739  0.9494E+01  0.3823E+02
     -6.674  0.1175E+02  0.3899E+02
     -6.609  0.1268E+02  0.3981E+02
     -6.544  0.1176E+02  0.4058E+02
     -6.480  0.1037E+02  0.4125E+02
     -6.415  0.7627E+01  0.4174E+02
     -6.350  0.4643E+01  0.4204E+02
     -6.285  0.3501E+01  0.4227E+02
     -6.220  0.4075E+01  0.4253E+02
     -6.155  0.4362E+01  0.4282E+02
     -6.091  0.3094E+01  0.4302E+02
     -6.026  0.2184E+01  0.4316E+02
     -5.961  0.2989E+01  0.4335E+02
     -5.896  0.3584E+01  0.4358E+02
     -5.831  0.3610E+01  0.4382E+02
     -5.767  0.4939E+01  0.4414E+02
     -5.702  0.6823E+01  0.4458E+02
     -5.637  0.7145E+01  0.4504E+02
     -5.572  0.5802E+01  0.4542E+02
     -5.507  0.3707E+01  0.4566E+02
     -5.443  0.2502E+01  0.4582E+02
     -5.378  0.3105E+01  0.4602E+02
     -5.313  0.3873E+01  0.4627E+02
     -5.248  0.4096E+01  0.4654E+02
     -5.183  0.4977E+01  0.4686E+02
     -5.119  0.5785E+01  0.4724E+02
     -5.054  0.5845E+01  0.4762E+02
     -4.989  0.6382E+01  0.4803E+02
     -4.924  0.7548E+01  0.4852E+02
     -4.859  0.8819E+01  0.4909E+02
     -4.794  0.1006E+02  0.4974E+02
     -4.730  0.1150E+02  0.5049E+02
     -4.665  0.1330E+02  0.5135E+02
     -4.600  0.1411E+02  0.5226E+02
     -4.535  0.1273E+02  0.5309E+02
     -4.470  0.1083E+02  0.5379E+02
     -4.406  0.1104E+02  0.5451E+02
     -4.341  0.1327E+02  0.5537E+02
     -4.276  0.1443E+02  0.5630E+02
     -4.211  0.1340E+02  0.5717E+02
     -4.146  0.1288E+02  0.5800E+02
     -4.082  0.1394E+02  0.5891E+02
     -4.017  0.1440E+02  0.5984E+02
     -3.952  0.1284E+02  0.6067E+02
     -3.887  0.1051E+02  0.6135E+02
     -3.822  0.1000E+02  0.6200E+02
     -3.758  0.1171E+02  0.6276E+02
     -3.693  0.1313E+02  0.6361E+02
     -3.628  0.1316E+02  0.6446E+02
     -3.563  0.1310E+02  0.6531E+02
     -3.498  0.1445E+02  0.6625E+02
     -3.433  0.1578E+02  0.6727E+02
     -3.369  0.1473E+02  0.6823E+02
     -3.304  0.1306E+02  0.6907E+02
     -3.239  0.1340E+02  0.6994E+02
     -3.174  0.1543E+02  0.7094E+02
     -3.109  0.1739E+02  0.7207E+02
     -3.045  0.1822E+02  0.7325E+02
     -2.980  0.1788E+02  0.7441E+02
     -2.915  0.1662E+02  0.7549E+02
     -2.850  0.1469E+02  0.7644E+02
     -2.785  0.1310E+02  0.7729E+02
     -2.721  0.1379E+02  0.7818E+02
     -2.656  0.1552E+02  0.7919E+02
     -2.591  0.1583E+02  0.8021E+02
     -2.526  0.1476E+02  0.8117E+02
     -2.461  0.1395E+02  0.8207E+02
     -2.397  0.1506E+02  0.8305E+02
     -2.332  0.1624E+02  0.8410E+02
     -2.267  0.1593E+02  0.8514E+02
     -2.202  0.1500E+02  0.8611E+02
     -2.137  0.1474E+02  0.8706E+02
     -2.073  0.1543E+02  0.8806E+02
     -2.008  0.1656E+02  0.8914E+02
     -1.943  0.1783E+02  0.9029E+02
     -1.878  0.1897E+02  0.9152E+02
     -1.813  0.1975E+02  0.9280E+02
     -1.748  0.1917E+02  0.9404E+02
     -1.684  0.1772E+02  0.9519E+02
     -1.619  0.1520E+02  0.9618E+02
     -1.554  0.1206E+02  0.9696E+02
     -1.489  0.1091E+02  0.9767E+02
     -1.424  0.1118E+02  0.9839E+02
     -1.360  0.1086E+02  0.9909E+02
     -1.295  0.9502E+01  0.9971E+02
     -1.230  0.8608E+01  0.1003E+03
     -1.165  0.9308E+01  0.1009E+03
     -1.100  0.1032E+02  0.1015E+03
     -1.036  0.1013E+02  0.1022E+03
     -0.971  0.9062E+01  0.1028E+03
     -0.906  0.8495E+01  0.1033E+03
     -0.841  0.7963E+01  0.1038E+03
     -0.776  0.6389E+01  0.1043E+03
     -0.712  0.4983E+01  0.1046E+03
     -0.647  0.5105E+01  0.1049E+03
     -0.582  0.5976E+01  0.1053E+03
     -0.517  0.5774E+01  0.1057E+03
     -0.452  0.5202E+01  0.1060E+03
     -0.387  0.5910E+01  0.1064E+03
     -0.323  0.7638E+01  0.1069E+03
     -0.258  0.8553E+01  0.1074E+03
     -0.193  0.7090E+01  0.1079E+03
     -0.128  0.5411E+01  0.1083E+03
     -0.063  0.5652E+01  0.1086E+03
      0.001  0.6163E+01  0.1090E+03
      0.066  0.4754E+01  0.1093E+03
      0.131  0.2693E+01  0.1095E+03
      0.196  0.2107E+01  0.1096E+03
      0.261  0.2496E+01  0.1098E+03
      0.325  0.2328E+01  0.1100E+03
      0.390  0.1685E+01  0.1101E+03
      0.455  0.1617E+01  0.1102E+03
      0.520  0.2450E+01  0.1103E+03
      0.585  0.3618E+01  0.1106E+03
      0.649  0.4522E+01  0.1109E+03
      0.714  0.5121E+01  0.1112E+03
      0.779  0.5297E+01  0.1115E+03
      0.844  0.5018E+01  0.1119E+03
      0.909  0.4261E+01  0.1121E+03
      0.973  0.3392E+01  0.1124E+03
      1.038  0.2772E+01  0.1125E+03
      1.103  0.2440E+01  0.1127E+03
      1.168  0.3248E+01  0.1129E+03
      1.233  0.5506E+01  0.1133E+03
      1.298  0.7783E+01  0.1138E+03
      1.362  0.9184E+01  0.1144E+03
      1.427  0.9547E+01  0.1150E+03
      1.492  0.8900E+01  0.1156E+03
      1.557  0.9000E+01  0.1161E+03
      1.622  0.1096E+02  0.1168E+03
      1.686  0.1271E+02  0.1177E+03
      1.751  0.1334E+02  0.1185E+03
      1.816  0.1401E+02  0.1194E+03
      1.881  0.1422E+02  0.1204E+03
      1.946  0.1359E+02  0.1212E+03
      2.010  0.1320E+02  0.1221E+03
      2.075  0.1333E+02  0.1230E+03
      2.140  0.1441E+02  0.1239E+03
      2.205  0.1612E+02  0.1249E+03
      2.270  0.1711E+02  0.1261E+03
      2.334  0.1619E+02  0.1271E+03
      2.399  0.1454E+02  0.1280E+03
      2.464  0.1407E+02  0.1290E+03
      2.529  0.1427E+02  0.1299E+03
      2.594  0.1418E+02  0.1308E+03
      2.659  0.1433E+02  0.1317E+03
      2.723  0.1426E+02  0.1327E+03
      2.788  0.1276E+02  0.1335E+03
      2.853  0.1043E+02  0.1342E+03
      2.918  0.8533E+01  0.1347E+03
      2.983  0.6829E+01  0.1352E+03
      3.047  0.5282E+01  0.1355E+03
      3.112  0.4127E+01  0.1358E+03
      3.177  0.2545E+01  0.1359E+03
      3.242  0.9421E+00  0.1360E+03
      3.307  0.1900E+00  0.1360E+03
      3.371  0.2020E-01  0.1360E+03
      3.436  0.1091E-02  0.1360E+03
      3.501  0.2860E-04  0.1360E+03
      3.566  0.3503E-06  0.1360E+03
      3.631  0.1951E-08  0.1360E+03
      3.695  0.4853E-11  0.1360E+03
      3.760  0.5271E-14  0.1360E+03
      3.825  0.0000E+00  0.1360E+03
      3.890  0.0000E+00  0.1360E+03
      3.955  0.0000E+00  0.1360E+03
      4.020  0.0000E+00  0.1360E+03
      4.084  0.0000E+00  0.1360E+03
      4.149  0.0000E+00  0.1360E+03
