 running on    8 total cores
 distrk:  each k-point on    8 cores,    1 groups
 distr:  one band on    2 cores,    4 groups
 using from now: INCAR     
 vasp.5.3.5 31Mar14 (build Oct 29 2014 16:16:03) complex                        
  
 POSCAR found type information on POSCAR  P  Si
 POSCAR found :  2 types and      24 ions
 scaLAPACK will be used

 ----------------------------------------------------------------------------- 
|                                                                             |
|  ADVICE TO THIS USER RUNNING 'VASP/VAMP'   (HEAR YOUR MASTER'S VOICE ...):  |
|                                                                             |
|      You have switched on vdW-DFT.                                          |
|      This routine was written and supplied by Jiri Klimes.                  |
|      We recommed that you carefully read and cite the following             |
|      publication                                                            |
|      J. Klimes, D.R. Bowler, A. Michelides                                  |
|        J. Phys.: Cond Matt. 22 022201 (2010)                                |
|      J. Klimes, D.R. Bowler, A. Michelides                                  |
|        Phys. Rev. B. 83, 195131 (2011)                                      |
|      and references therein.                                                |
|                                                                             |
 ----------------------------------------------------------------------------- 


 ----------------------------------------------------------------------------- 
|                                                                             |
|  ADVICE TO THIS USER RUNNING 'VASP/VAMP'   (HEAR YOUR MASTER'S VOICE ...):  |
|                                                                             |
|      You enforced a specific xc-type in the INCAR file,                     |
|      a different type was found on the POTCAR file                          |
|          I HOPE YOU KNOW, WHAT YOU ARE  DOING                               |
|                                                                             |
 ----------------------------------------------------------------------------- 

 LDA part: xc-table for Pade appr. of Perdew

 ----------------------------------------------------------------------------- 
|                                                                             |
|           W    W    AA    RRRRR   N    N  II  N    N   GGGG   !!!           |
|           W    W   A  A   R    R  NN   N  II  NN   N  G    G  !!!           |
|           W    W  A    A  R    R  N N  N  II  N N  N  G       !!!           |
|           W WW W  AAAAAA  RRRRR   N  N N  II  N  N N  G  GGG   !            |
|           WW  WW  A    A  R   R   N   NN  II  N   NN  G    G                |
|           W    W  A    A  R    R  N    N  II  N    N   GGGG   !!!           |
|                                                                             |
|      The distance between some ions is very small                           |
|      please check the nearest neigbor list in the OUTCAR file               |
|          I HOPE YOU KNOW, WHAT YOU ARE  DOING                               |
|                                                                             |
 ----------------------------------------------------------------------------- 



 VERY BAD NEWS! internal error in subroutine IBZKPT:
 Reciprocal lattice and k-lattice belong to different class of lattices. Often results are still useful...      96


 VERY BAD NEWS! internal error in subroutine IBZKPT:
 Reciprocal lattice and k-lattice belong to different class of lattices. Often results are still useful...      96


 VERY BAD NEWS! internal error in subroutine IBZKPT:
 Reciprocal lattice and k-lattice belong to different class of lattices. Often results are still useful...      96


 VERY BAD NEWS! internal error in subroutine IBZKPT:
 Reciprocal lattice and k-lattice belong to different class of lattices. Often results are still useful...      96
 POSCAR, INCAR and KPOINTS ok, starting setup


 VERY BAD NEWS! internal error in subroutine IBZKPT:
 Reciprocal lattice and k-lattice belong to different class of lattices. Often results are still useful...      96


 VERY BAD NEWS! internal error in subroutine IBZKPT:
 Reciprocal lattice and k-lattice belong to different class of lattices. Often results are still useful...      96


 VERY BAD NEWS! internal error in subroutine IBZKPT:
 Reciprocal lattice and k-lattice belong to different class of lattices. Often results are still useful...      96


 VERY BAD NEWS! internal error in subroutine IBZKPT:
 Reciprocal lattice and k-lattice belong to different class of lattices. Often results are still useful...      96
 WARNING: small aliasing (wrap around) errors must be expected
 FFT: planning ...
 WAVECAR not read
 entering main loop
       N       E                     dE             d eps       ncg     rms          rms(c)
Total vdW correction in eV:     15.9409185
DAV:   1     0.501122323071E+03    0.50112E+03   -0.28649E+04  7360   0.790E+02
DAV:   2    -0.580842581057E+02   -0.55921E+03   -0.54417E+03  9764   0.189E+02
DAV:   3    -0.115102538011E+03   -0.57018E+02   -0.56202E+02  8824   0.624E+01
DAV:   4    -0.117801753383E+03   -0.26992E+01   -0.26813E+01 11352   0.145E+01
DAV:   5    -0.117855364429E+03   -0.53611E-01   -0.53545E-01  9988   0.202E+00    0.119E+01
Total vdW correction in eV:     16.3445947
DAV:   6    -0.113765638657E+03    0.40897E+01   -0.14646E+01  9152   0.103E+01    0.623E+00
Total vdW correction in eV:     16.7211985
DAV:   7    -0.113934397901E+03   -0.16876E+00   -0.11901E+01  8784   0.753E+00    0.362E+00
Total vdW correction in eV:     16.8934691
DAV:   8    -0.113736609943E+03    0.19779E+00   -0.20671E+00  9192   0.353E+00    0.179E+00
Total vdW correction in eV:     17.0214671
DAV:   9    -0.113715509389E+03    0.21101E-01   -0.50831E-01  8784   0.194E+00    0.849E-01
Total vdW correction in eV:     17.0850100
DAV:  10    -0.113714239646E+03    0.12697E-02   -0.16222E-01  8944   0.120E+00    0.341E-01
Total vdW correction in eV:     17.1159614
DAV:  11    -0.113709877123E+03    0.43625E-02   -0.32970E-02  8896   0.544E-01    0.143E-01
Total vdW correction in eV:     17.1240853
DAV:  12    -0.113700416125E+03    0.94610E-02   -0.62918E-03  9104   0.228E-01    0.701E-02
Total vdW correction in eV:     17.1307662
DAV:  13    -0.113694139300E+03    0.62768E-02   -0.10997E-03  9136   0.106E-01    0.290E-02
Total vdW correction in eV:     17.1350131
DAV:  14    -0.113690991643E+03    0.31477E-02   -0.31756E-04  9368   0.464E-02    0.164E-02
Total vdW correction in eV:     17.1386791
DAV:  15    -0.113690440118E+03    0.55152E-03   -0.90441E-05  9088   0.264E-02    0.887E-03
Total vdW correction in eV:     17.1409850
DAV:  16    -0.113690135481E+03    0.30464E-03   -0.47130E-05  8040   0.184E-02    0.590E-03
Total vdW correction in eV:     17.1424631
DAV:  17    -0.113690583536E+03   -0.44805E-03   -0.99005E-05  8320   0.200E-02    0.312E-03
Total vdW correction in eV:     17.1427812
DAV:  18    -0.113690958907E+03   -0.37537E-03   -0.16566E-04  8288   0.198E-02    0.182E-03
Total vdW correction in eV:     17.1426055
DAV:  19    -0.113690998810E+03   -0.39903E-04   -0.15154E-05  7088   0.903E-03    0.110E-03
Total vdW correction in eV:     17.1423544
DAV:  20    -0.113691045269E+03   -0.46459E-04   -0.23034E-05  7040   0.919E-03    0.827E-04
Total vdW correction in eV:     17.1422280
DAV:  21    -0.113691015451E+03    0.29818E-04   -0.10196E-05  6904   0.793E-03    0.518E-04
Total vdW correction in eV:     17.1421125
DAV:  22    -0.113690933415E+03    0.82037E-04   -0.22959E-05  7124   0.110E-02    0.315E-04
Total vdW correction in eV:     17.1421090
DAV:  23    -0.113690904756E+03    0.28658E-04   -0.83134E-06  6256   0.893E-03    0.134E-04
Total vdW correction in eV:     17.1421052
DAV:  24    -0.113690874904E+03    0.29852E-04   -0.67018E-06  6920   0.785E-03    0.725E-05
Total vdW correction in eV:     17.1421071
DAV:  25    -0.113690872890E+03    0.20141E-05   -0.82401E-06  6616   0.844E-03    0.404E-05
Total vdW correction in eV:     17.1421065
DAV:  26    -0.113690870933E+03    0.19574E-05   -0.40594E-06  6224   0.640E-03    0.190E-05
Total vdW correction in eV:     17.1421053
DAV:  27    -0.113690873588E+03   -0.26551E-05   -0.30701E-06  5880   0.570E-03    0.130E-05
Total vdW correction in eV:     17.1421055
DAV:  28    -0.113690874947E+03   -0.13591E-05   -0.20731E-06  5508   0.471E-03    0.930E-06
Total vdW correction in eV:     17.1421057
DAV:  29    -0.113690875115E+03   -0.16762E-06   -0.12615E-06  6156   0.386E-03
Total vdW correction in eV:     17.1421060
Total vdW correction in eV:     17.1421060
   1 F= -.11369088E+03 E0= -.11367692E+03  d E =-.279063E-01
