 vasp.5.3.5 31Mar14 (build Oct 29 2014 16:16:03) complex                        
  
 executed on          Linux-UFHPC date 2016.02.09  17:25:17
 running on    8 total cores
 distrk:  each k-point on    8 cores,    1 groups
 distr:  one band on NCORES_PER_BAND=   2 cores,    4 groups


--------------------------------------------------------------------------------------------------------


 INCAR:
 POTCAR:    PAW_PBE P 17Jan2003                   
 POTCAR:   PAW_PBE Si 05Jan2001                   

 ----------------------------------------------------------------------------- 
|                                                                             |
|  ADVICE TO THIS USER RUNNING 'VASP/VAMP'   (HEAR YOUR MASTER'S VOICE ...):  |
|                                                                             |
|      You have switched on vdW-DFT.                                          |
|      This routine was written and supplied by Jiri Klimes.                  |
|      We recommed that you carefully read and cite the following             |
|      publication                                                            |
|      J. Klimes, D.R. Bowler, A. Michelides                                  |
|        J. Phys.: Cond Matt. 22 022201 (2010)                                |
|      J. Klimes, D.R. Bowler, A. Michelides                                  |
|        Phys. Rev. B. 83, 195131 (2011)                                      |
|      and references therein.                                                |
|                                                                             |
 ----------------------------------------------------------------------------- 

 POTCAR:    PAW_PBE P 17Jan2003                   
   VRHFIN =P : s2p3                                                             
   LEXCH  = PE                                                                  
   EATOM  =   176.0430 eV,   12.9388 Ry                                         
                                                                                
   TITEL  = PAW_PBE P 17Jan2003                                                 
   LULTRA =        F    use ultrasoft PP ?                                      
   IUNSCR =        1    unscreen: 0-lin 1-nonlin 2-no                           
   RPACOR =    1.500    partial core radius                                     
   POMASS =   30.974; ZVAL   =    5.000    mass and valenz                      
   RCORE  =    1.900    outmost cutoff radius                                   
   RWIGS  =    2.330; RWIGS  =    1.233    wigner-seitz radius (au A)           
   ENMAX  =  270.000; ENMIN  =  191.280 eV                                      
   ICORE  =        2    local potential                                         
   LCOR   =        T    correct aug charges                                     
   LPAW   =        T    paw PP                                                  
   EAUG   =  342.924                                                            
   DEXC   =    -.002                                                            
   RMAX   =    2.887    core radius for proj-oper                               
   RAUG   =    1.300    factor for augmentation sphere                          
   RDEP   =    1.931    radius for radial grids                                 
   QCUT   =   -4.330; QGAM   =    8.659    optimization parameters              
                                                                                
   Description                                                                  
     l     E      TYP  RCUT    TYP  RCUT                                        
     0   .000     23  1.900                                                     
     0   .000     23  1.900                                                     
     1   .000     23  1.900                                                     
     1   .000     23  1.900                                                     
     2   .000     23  1.900                                                     
  local pseudopotential read in
  partial core-charges read in
  atomic valenz-charges read in
  non local Contribution for L=           0  read in
    real space projection operators read in
  non local Contribution for L=           0  read in
    real space projection operators read in
  non local Contribution for L=           1  read in
    real space projection operators read in
  non local Contribution for L=           1  read in
    real space projection operators read in
    PAW grid and wavefunctions read in
 
   number of l-projection  operators is LMAX  =           4
   number of lm-projection operators is LMMAX =           8
 
 POTCAR:   PAW_PBE Si 05Jan2001                   
   VRHFIN =Si: s2p2                                                             
   LEXCH  = PE                                                                  
   EATOM  =   103.0669 eV,    7.5752 Ry                                         
                                                                                
   TITEL  = PAW_PBE Si 05Jan2001                                                
   LULTRA =        F    use ultrasoft PP ?                                      
   IUNSCR =        1    unscreen: 0-lin 1-nonlin 2-no                           
   RPACOR =    1.500    partial core radius                                     
   POMASS =   28.085; ZVAL   =    4.000    mass and valenz                      
   RCORE  =    1.900    outmost cutoff radius                                   
   RWIGS  =    2.480; RWIGS  =    1.312    wigner-seitz radius (au A)           
   ENMAX  =  245.345; ENMIN  =  184.009 eV                                      
   ICORE  =        2    local potential                                         
   LCOR   =        T    correct aug charges                                     
   LPAW   =        T    paw PP                                                  
   EAUG   =  322.069                                                            
   DEXC   =    -.007                                                            
   RMAX   =    2.944    core radius for proj-oper                               
   RAUG   =    1.300    factor for augmentation sphere                          
   RDEP   =    1.993    radius for radial grids                                 
   QCUT   =   -4.246; QGAM   =    8.493    optimization parameters              
                                                                                
   Description                                                                  
     l     E      TYP  RCUT    TYP  RCUT                                        
     0   .000     23  1.900                                                     
     0   .000     23  1.900                                                     
     1   .000     23  1.900                                                     
     1   .000     23  1.900                                                     
     2   .000      7  1.900                                                     
  local pseudopotential read in
  partial core-charges read in
  atomic valenz-charges read in
  non local Contribution for L=           0  read in
    real space projection operators read in
  non local Contribution for L=           0  read in
    real space projection operators read in
  non local Contribution for L=           1  read in
    real space projection operators read in
  non local Contribution for L=           1  read in
    real space projection operators read in
    PAW grid and wavefunctions read in
 
   number of l-projection  operators is LMAX  =           4
   number of lm-projection operators is LMMAX =           8
 
 Optimization of the real space projectors (new method)

 maximal supplied QI-value         = 19.84
 optimisation between [QCUT,QGAM] = [  8.73, 17.66] = [ 21.34, 87.33] Ry 
 Optimized for a Real-space Cutoff    1.50 Angstroem

   l    n(q)    QCUT    max X(q) W(low)/X(q) W(high)/X(q)  e(spline) 
   0      8     8.731     6.651    0.16E-04    0.15E-04    0.77E-08
   0      8     8.731    90.285    0.16E-03    0.90E-04    0.16E-06
   1      7     8.731     4.328    0.47E-04    0.36E-04    0.45E-07
   1      7     8.731    54.583    0.13E-03    0.39E-03    0.20E-06
 Optimization of the real space projectors (new method)

 maximal supplied QI-value         = 19.84
 optimisation between [QCUT,QGAM] = [  8.73, 17.66] = [ 21.34, 87.33] Ry 
 Optimized for a Real-space Cutoff    1.46 Angstroem

   l    n(q)    QCUT    max X(q) W(low)/X(q) W(high)/X(q)  e(spline) 
   0      8     8.731     8.708    0.16E-04    0.11E-04    0.68E-08
   0      8     8.731   106.241    0.24E-03    0.77E-04    0.13E-06
   1      7     8.731     5.901    0.34E-04    0.38E-04    0.36E-07
   1      7     8.731    73.241    0.12E-03    0.39E-03    0.15E-06

 ----------------------------------------------------------------------------- 
|                                                                             |
|  ADVICE TO THIS USER RUNNING 'VASP/VAMP'   (HEAR YOUR MASTER'S VOICE ...):  |
|                                                                             |
|      You enforced a specific xc-type in the INCAR file,                     |
|      a different type was found on the POTCAR file                          |
|          I HOPE YOU KNOW, WHAT YOU ARE  DOING                               |
|                                                                             |
 ----------------------------------------------------------------------------- 

  PAW_PBE P 17Jan2003                   :
 energy of atom  1       EATOM= -176.0430
 kinetic energy error for atom=    0.0040 (will be added to EATOM!!)
 PAW_PBE Si 05Jan2001                   :
 energy of atom  2       EATOM= -103.0669
 kinetic energy error for atom=    0.0021 (will be added to EATOM!!)
 
 
 POSCAR: Si12                                    
  positions in direct lattice
  No initial velocities read in
 exchange correlation table for  LEXCH =       42
   RHO(1)=    0.500       N(1)  =     2000
   RHO(2)=  100.500       N(2)  =     4000
 


--------------------------------------------------------------------------------------------------------


 ion  position               nearest neighbor table
   1  0.114  0.228  0.233-  15 2.28  21 2.29  21 2.29
   2  0.214  0.828  0.515-  16 2.28  22 2.29  22 2.29
   3  0.458  0.916  0.209-  21 2.28  13 2.30  13 2.30
   4  0.558  0.516  0.491-  22 2.28  14 2.30  14 2.30
   5  0.311  0.622  0.084-  17 2.28  23 2.30  23 2.30
   6  0.311  0.622  0.366-  18 2.28  14 2.60
   7  0.999  0.998  0.086-  19 2.29  19 2.29  13 2.32
   8  0.999  0.998  0.368-  20 2.29  20 2.29  16 2.94
   9  0.655  0.310  0.060-  19 2.28  17 2.29  17 2.29
  10  0.655  0.310  0.342-  20 2.28  18 2.29  18 2.29  24 2.39
  11  0.770  0.539  0.207-  15 2.29  15 2.29  23 2.32
  12  0.870  0.139  0.489-  16 2.29  16 2.29  24 2.32  20 2.94
  13  0.940  0.879  0.158-   3 2.30   3 2.30   7 2.32  23 2.35
  14  0.040  0.479  0.440-  18 1.91   4 2.30   4 2.30  24 2.35   6 2.60
  15  0.205  0.410  0.186-   1 2.28  11 2.29  11 2.29  17 2.37
  16  0.305  0.010  0.468-   2 2.28  12 2.29  12 2.29  20 2.56   8 2.94
  17  0.202  0.404  0.100-   5 2.28   9 2.29   9 2.29  15 2.37
  18  0.202  0.404  0.382-  14 1.91  24 1.93   6 2.28  10 2.29  10 2.29
  19  0.564  0.128  0.108-   9 2.28   7 2.29   7 2.29  21 2.37
  20  0.564  0.128  0.390-  24 1.88  10 2.28   8 2.29   8 2.29  16 2.56  24 2.92  12 2.94
  21  0.567  0.134  0.194-   3 2.28   1 2.29   1 2.29  19 2.37
  22  0.667  0.734  0.476-   4 2.28   2 2.29   2 2.29
  23  0.829  0.658  0.136-   5 2.30   5 2.30  11 2.32  13 2.35
  24  0.929  0.258  0.418-  20 1.88  18 1.93  12 2.32  14 2.35  10 2.39  20 2.92
 
  LATTYP: Found a base centered orthorhombic cell.
 ALAT       =     3.5404000000
 B/A-ratio  =     5.8153587165
 C/A-ratio  =     7.7678875268
  
  Lattice vectors:
  
 A1 = (   1.7702000000,  10.2943480000,   0.0000000000)
 A2 = (   1.7702000000, -10.2943480000,   0.0000000000)
 A3 = (   0.0000000000,   0.0000000000, -27.5014290000)


Analysis of symmetry for initial positions (statically):
=====================================================================
 Subroutine PRICEL returns:
 Original cell was already a primitive cell.
 

 Routine SETGRP: Setting up the symmetry group for a 
 base centered orthorhombic supercell.


 Subroutine GETGRP returns: Found  1 space group operations
 (whereof  1 operations were pure point group operations)
 out of a pool of  8 trial point group operations.


The static configuration has the point symmetry C_1 .


Analysis of symmetry for dynamics (positions and initial velocities):
=====================================================================
 Subroutine PRICEL returns:
 Original cell was already a primitive cell.
 

 Routine SETGRP: Setting up the symmetry group for a 
 base centered orthorhombic supercell.


 Subroutine GETGRP returns: Found  1 space group operations
 (whereof  1 operations were pure point group operations)
 out of a pool of  8 trial point group operations.


The dynamic configuration has the point symmetry C_1 .
 
 
 KPOINTS: pymatgen generated KPOINTS with grid den

Automatic generation of k-mesh.
Space group operators:
 irot       det(A)        alpha          n_x          n_y          n_z        tau_x        tau_y        tau_z
    1     1.000000     0.000000     1.000000     0.000000     0.000000     0.000000     0.000000     0.000000
 
 Subroutine IBZKPT returns following result:
 ===========================================
 
 Found     54 irreducible k-points:
 
 Following reciprocal coordinates:
            Coordinates               Weight
  0.000000  0.000000  0.000000      1.000000
  0.076923 -0.000000  0.000000      2.000000
  0.153846 -0.000000  0.000000      2.000000
  0.230769 -0.000000  0.000000      2.000000
  0.307692 -0.000000  0.000000      2.000000
  0.384615 -0.000000  0.000000      2.000000
  0.461538 -0.000000  0.000000      2.000000
  0.000000  0.250000  0.000000      2.000000
  0.076923  0.250000  0.000000      2.000000
  0.153846  0.250000  0.000000      2.000000
  0.230769  0.250000  0.000000      2.000000
  0.307692  0.250000  0.000000      2.000000
  0.384615  0.250000  0.000000      2.000000
  0.461538  0.250000  0.000000      2.000000
 -0.461538  0.250000  0.000000      2.000000
 -0.384615  0.250000  0.000000      2.000000
 -0.307692  0.250000  0.000000      2.000000
 -0.230769  0.250000  0.000000      2.000000
 -0.153846  0.250000  0.000000      2.000000
 -0.076923  0.250000  0.000000      2.000000
  0.000000  0.500000  0.000000      1.000000
  0.076923  0.500000  0.000000      2.000000
  0.153846  0.500000  0.000000      2.000000
  0.230769  0.500000  0.000000      2.000000
  0.307692  0.500000  0.000000      2.000000
  0.384615  0.500000  0.000000      2.000000
  0.461538  0.500000  0.000000      2.000000
  0.000000  0.000000  0.500000      1.000000
  0.076923 -0.000000  0.500000      2.000000
  0.153846 -0.000000  0.500000      2.000000
  0.230769 -0.000000  0.500000      2.000000
  0.307692 -0.000000  0.500000      2.000000
  0.384615 -0.000000  0.500000      2.000000
  0.461538 -0.000000  0.500000      2.000000
  0.000000  0.250000  0.500000      2.000000
  0.076923  0.250000  0.500000      2.000000
  0.153846  0.250000  0.500000      2.000000
  0.230769  0.250000  0.500000      2.000000
  0.307692  0.250000  0.500000      2.000000
  0.384615  0.250000  0.500000      2.000000
  0.461538  0.250000  0.500000      2.000000
 -0.461538  0.250000  0.500000      2.000000
 -0.384615  0.250000  0.500000      2.000000
 -0.307692  0.250000  0.500000      2.000000
 -0.230769  0.250000  0.500000      2.000000
 -0.153846  0.250000  0.500000      2.000000
 -0.076923  0.250000  0.500000      2.000000
  0.000000  0.500000  0.500000      1.000000
  0.076923  0.500000  0.500000      2.000000
  0.153846  0.500000  0.500000      2.000000
  0.230769  0.500000  0.500000      2.000000
  0.307692  0.500000  0.500000      2.000000
  0.384615  0.500000  0.500000      2.000000
  0.461538  0.500000  0.500000      2.000000
 
 Following cartesian coordinates:
            Coordinates               Weight
  0.000000  0.000000  0.000000      1.000000
  0.021727  0.003736  0.000000      2.000000
  0.043454  0.007472  0.000000      2.000000
  0.065182  0.011209  0.000000      2.000000
  0.086909  0.014945  0.000000      2.000000
  0.108636  0.018681  0.000000      2.000000
  0.130363  0.022417  0.000000      2.000000
  0.000000  0.024285  0.000000      2.000000
  0.021727  0.028021  0.000000      2.000000
  0.043454  0.031758  0.000000      2.000000
  0.065182  0.035494  0.000000      2.000000
  0.086909  0.039230  0.000000      2.000000
  0.108636  0.042966  0.000000      2.000000
  0.130363  0.046702  0.000000      2.000000
 -0.130363  0.001868  0.000000      2.000000
 -0.108636  0.005604  0.000000      2.000000
 -0.086909  0.009340  0.000000      2.000000
 -0.065182  0.013077  0.000000      2.000000
 -0.043454  0.016813  0.000000      2.000000
 -0.021727  0.020549  0.000000      2.000000
  0.000000  0.048570  0.000000      1.000000
  0.021727  0.052307  0.000000      2.000000
  0.043454  0.056043  0.000000      2.000000
  0.065182  0.059779  0.000000      2.000000
  0.086909  0.063515  0.000000      2.000000
  0.108636  0.067251  0.000000      2.000000
  0.130363  0.070987  0.000000      2.000000
  0.000000  0.000000  0.018181      1.000000
  0.021727  0.003736  0.018181      2.000000
  0.043454  0.007472  0.018181      2.000000
  0.065182  0.011209  0.018181      2.000000
  0.086909  0.014945  0.018181      2.000000
  0.108636  0.018681  0.018181      2.000000
  0.130363  0.022417  0.018181      2.000000
  0.000000  0.024285  0.018181      2.000000
  0.021727  0.028021  0.018181      2.000000
  0.043454  0.031758  0.018181      2.000000
  0.065182  0.035494  0.018181      2.000000
  0.086909  0.039230  0.018181      2.000000
  0.108636  0.042966  0.018181      2.000000
  0.130363  0.046702  0.018181      2.000000
 -0.130363  0.001868  0.018181      2.000000
 -0.108636  0.005604  0.018181      2.000000
 -0.086909  0.009340  0.018181      2.000000
 -0.065182  0.013077  0.018181      2.000000
 -0.043454  0.016813  0.018181      2.000000
 -0.021727  0.020549  0.018181      2.000000
  0.000000  0.048570  0.018181      1.000000
  0.021727  0.052307  0.018181      2.000000
  0.043454  0.056043  0.018181      2.000000
  0.065182  0.059779  0.018181      2.000000
  0.086909  0.063515  0.018181      2.000000
  0.108636  0.067251  0.018181      2.000000
  0.130363  0.070987  0.018181      2.000000
 


--------------------------------------------------------------------------------------------------------




 Dimension of arrays:
   k-points           NKPTS =     54   k-points in BZ     NKDIM =     54   number of bands    NBANDS=     68
   number of dos      NEDOS =    301   number of ions     NIONS =     24
   non local maximal  LDIM  =      4   non local SUM 2l+1 LMDIM =      8
   total plane-waves  NPLWV = 192000
   max r-space proj   IRMAX =   2772   max aug-charges    IRDMAX=   6603
   dimension x,y,z NGX =    20 NGY =   60 NGZ =  160
   dimension x,y,z NGXF=    40 NGYF=  120 NGZF=  320
   support grid    NGXF=    40 NGYF=  120 NGZF=  320
   ions per type =              12  12
 NGX,Y,Z   is equivalent  to a cutoff of   9.39,  9.55,  9.67 a.u.
 NGXF,Y,Z  is equivalent  to a cutoff of  18.78, 19.10, 19.34 a.u.


 I would recommend the setting:
   dimension x,y,z NGX =    20 NGY =   59 NGZ =  155
 SYSTEM =  unknown system                          
 POSCAR =  Si12                                    

 Startparameter for this run:
   NWRITE =      2    write-flag & timer
   PREC   = accura    normal or accurate (medium, high low for compatibility)
   ISTART =      0    job   : 0-new  1-cont  2-samecut
   ICHARG =      2    charge: 1-file 2-atom 10-const
   ISPIN  =      1    spin polarized calculation?
   LNONCOLLINEAR =      F non collinear calculations
   LSORBIT =      F    spin-orbit coupling
   INIWAV =      1    electr: 0-lowe 1-rand  2-diag
   LASPH  =      F    aspherical Exc in radial PAW
   METAGGA=      F    non-selfconsistent MetaGGA calc.

 Electronic Relaxation 1
   ENCUT  =  300.0 eV  22.05 Ry    4.70 a.u.   5.00 14.75 38.84*2*pi/ulx,y,z
   ENINI  =  300.0     initial cutoff
   ENAUG  =  342.9 eV  augmentation charge cutoff
   NELM   =     60;   NELMIN=  2; NELMDL= -5     # of ELM steps 
   EDIFF  = 0.1E-05   stopping-criterion for ELM
   LREAL  =      T    real-space projection
   NLSPLINE    = F    spline interpolate recip. space projectors
   LCOMPAT=      F    compatible to vasp.4.4
   GGA_COMPAT  = T    GGA compatible to vasp.4.4-vasp.4.6
   LMAXPAW     = -100 max onsite density
   LMAXMIX     =    2 max onsite mixed and CHGCAR
   VOSKOWN=      0    Vosko Wilk Nusair interpolation
   ROPT   =   -0.00025  -0.00025
 Ionic relaxation
   EDIFFG = 0.1E-04   stopping-criterion for IOM
   NSW    =      0    number of steps for IOM
   NBLOCK =      1;   KBLOCK =      1    inner block; outer block 
   IBRION =     -1    ionic relax: 0-MD 1-quasi-New 2-CG
   NFREE  =      1    steps in history (QN), initial steepest desc. (CG)
   ISIF   =      3    stress and relaxation
   IWAVPR =     10    prediction:  0-non 1-charg 2-wave 3-comb
   ISYM   =      2    0-nonsym 1-usesym 2-fastsym
   LCORR  =      T    Harris-Foulkes like correction to forces

   POTIM  = 0.5000    time-step for ionic-motion
   TEIN   =    0.0    initial temperature
   TEBEG  =    0.0;   TEEND  =   0.0 temperature during run
   SMASS  =  -3.00    Nose mass-parameter (am)
   estimated Nose-frequenzy (Omega)   =  0.10E-29 period in steps =****** mass=  -0.286E-27a.u.
   SCALEE = 1.0000    scale energy and forces
   NPACO  =    256;   APACO  = 16.0  distance and # of slots for P.C.
   PSTRESS=    0.0 pullay stress

  Mass of Ions in am
   POMASS =  30.97 28.09
  Ionic Valenz
   ZVAL   =   5.00  4.00
  Atomic Wigner-Seitz radii
   RWIGS  =  -1.00 -1.00
  virtual crystal weights 
   VCA    =   1.00  1.00
   NELECT =     108.0000    total number of electrons
   NUPDOWN=      -1.0000    fix difference up-down

 DOS related values:
   EMIN   =  10.00;   EMAX   =-10.00  energy-range for DOS
   EFERMI =   0.00
   ISMEAR =     0;   SIGMA  =   0.10  broadening in eV -4-tet -1-fermi 0-gaus

 Electronic relaxation 2 (details)
   IALGO  =     38    algorithm
   LDIAG  =      T    sub-space diagonalisation (order eigenvalues)
   LSUBROT=      F    optimize rotation matrix (better conditioning)
   TURBO    =      0    0=normal 1=particle mesh
   IRESTART =      0    0=no restart 2=restart with 2 vectors
   NREBOOT  =      0    no. of reboots
   NMIN     =      0    reboot dimension
   EREF     =   0.00    reference energy to select bands
   IMIX   =      4    mixing-type and parameters
     AMIX     =   0.40;   BMIX     =  1.00
     AMIX_MAG =   1.60;   BMIX_MAG =  1.00
     AMIN     =   0.10
     WC   =   100.;   INIMIX=   1;  MIXPRE=   1;  MAXMIX= -45

 Intra band minimization:
   WEIMIN = 0.0000     energy-eigenvalue tresh-hold
   EBREAK =  0.37E-08  absolut break condition
   DEPER  =   0.30     relativ break condition  

   TIME   =   0.40     timestep for ELM

  volume/ion in A,a.u.               =      41.76       281.83
  Fermi-wavevector in a.u.,A,eV,Ry     =   0.779018  1.472130  8.256946  0.606868
  Thomas-Fermi vector in A             =   1.882034
 
 Write flags
   LWAVE  =      F    write WAVECAR
   LCHARG =      F    write CHGCAR
   LVTOT  =      F    write LOCPOT, total local potential
   LVHAR  =      F    write LOCPOT, Hartree potential only
   LELF   =      F    write electronic localiz. function (ELF)
   LORBIT =      0    0 simple, 1 ext, 2 COOP (PROOUT)


 Dipole corrections
   LMONO  =      F    monopole corrections only (constant potential shift)
   LDIPOL =      F    correct potential (dipole corrections)
   IDIPOL =      0    1-x, 2-y, 3-z, 4-all directions 
   EPSILON=  1.0000000 bulk dielectric constant

 Exchange correlation treatment:
   GGA     =    BO    GGA type
   LEXCH   =    42    internal setting for exchange type
   VOSKOWN=      0    Vosko Wilk Nusair interpolation
   LHFCALC =     F    Hartree Fock is set to
   LHFONE  =     F    Hartree Fock one center treatment
   AEXX    =    0.0000 exact exchange contribution

 vdW DFT:
   LUSE_VDW   =     T    switch on vdW DFT
   Zab_VDW    =-.8491    correlation parameter
   PARAM1     =0.1833
   PARAM2     =0.2200
   PARAM3     =0.0000

 Linear response parameters
   LEPSILON=     F    determine dielectric tensor
   LRPA    =     F    only Hartree local field effects (RPA)
   LNABLA  =     F    use nabla operator in PAW spheres
   LVEL    =     F    velocity operator in full k-point grid
   LINTERFAST=   F  fast interpolation
   KINTER  =     0    interpolate to denser k-point grid
   CSHIFT  =0.1000    complex shift for real part using Kramers Kronig
   OMEGAMAX=  -1.0    maximum frequency
   DEG_THRESHOLD= 0.2000000E-02 threshold for treating states as degnerate
   RTIME   =    0.100 relaxation time in fs

 Orbital magnetization related:
   ORBITALMAG=     F  switch on orbital magnetization
   LCHIMAG   =     F  perturbation theory with respect to B field
   DQ        =  0.001000  dq finite difference perturbation B field



--------------------------------------------------------------------------------------------------------


 Static calculation
 charge density and potential will be updated during run
 non-spin polarized calculation
 Variant of blocked Davidson
 Davidson routine will perform the subspace rotation
 perform sub-space diagonalisation
    after iterative eigenvector-optimisation
 modified Broyden-mixing scheme, WC =      100.0
 initial mixing is a Kerker type mixing with AMIX =  0.4000 and BMIX =      1.0000
 Hartree-type preconditioning will be used
 using additional bands           14
 real space projection scheme for non local part
 use partial core corrections
 calculate Harris-corrections to forces 
   (improved forces if not selfconsistent)
 use gradient corrections 
 use of overlap-Matrix (Vanderbilt PP)
 Gauss-broadening in eV      SIGMA  =   0.10


--------------------------------------------------------------------------------------------------------


  energy-cutoff  :      300.00
  volume of cell :     1002.32
      direct lattice vectors                 reciprocal lattice vectors
     3.540400000  0.000000000  0.000000000     0.282453960  0.048570342  0.000000000
    -1.770200000 10.294348000  0.000000000     0.000000000  0.097140683  0.000000000
     0.000000000  0.000000000 27.501429000     0.000000000  0.000000000  0.036361747

  length of vectors
     3.540400000 10.445439617 27.501429000     0.286599577  0.097140683  0.036361747


 
 k-points in units of 2pi/SCALE and weight: pymatgen generated KPOINTS with grid den
   0.00000000  0.00000000  0.00000000       0.010
   0.02172723  0.00373618  0.00000000       0.019
   0.04345446  0.00747236  0.00000000       0.019
   0.06518168  0.01120854  0.00000000       0.019
   0.08690891  0.01494472  0.00000000       0.019
   0.10863614  0.01868090  0.00000000       0.019
   0.13036337  0.02241708  0.00000000       0.019
   0.00000000  0.02428517  0.00000000       0.019
   0.02172723  0.02802135  0.00000000       0.019
   0.04345446  0.03175753  0.00000000       0.019
   0.06518168  0.03549371  0.00000000       0.019
   0.08690891  0.03922989  0.00000000       0.019
   0.10863614  0.04296607  0.00000000       0.019
   0.13036337  0.04670225  0.00000000       0.019
  -0.13036337  0.00186809  0.00000000       0.019
  -0.10863614  0.00560427  0.00000000       0.019
  -0.08690891  0.00934045  0.00000000       0.019
  -0.06518168  0.01307663  0.00000000       0.019
  -0.04345446  0.01681281  0.00000000       0.019
  -0.02172723  0.02054899  0.00000000       0.019
   0.00000000  0.04857034  0.00000000       0.010
   0.02172723  0.05230652  0.00000000       0.019
   0.04345446  0.05604270  0.00000000       0.019
   0.06518168  0.05977888  0.00000000       0.019
   0.08690891  0.06351506  0.00000000       0.019
   0.10863614  0.06725124  0.00000000       0.019
   0.13036337  0.07098742  0.00000000       0.019
   0.00000000  0.00000000  0.01818087       0.010
   0.02172723  0.00373618  0.01818087       0.019
   0.04345446  0.00747236  0.01818087       0.019
   0.06518168  0.01120854  0.01818087       0.019
   0.08690891  0.01494472  0.01818087       0.019
   0.10863614  0.01868090  0.01818087       0.019
   0.13036337  0.02241708  0.01818087       0.019
   0.00000000  0.02428517  0.01818087       0.019
   0.02172723  0.02802135  0.01818087       0.019
   0.04345446  0.03175753  0.01818087       0.019
   0.06518168  0.03549371  0.01818087       0.019
   0.08690891  0.03922989  0.01818087       0.019
   0.10863614  0.04296607  0.01818087       0.019
   0.13036337  0.04670225  0.01818087       0.019
  -0.13036337  0.00186809  0.01818087       0.019
  -0.10863614  0.00560427  0.01818087       0.019
  -0.08690891  0.00934045  0.01818087       0.019
  -0.06518168  0.01307663  0.01818087       0.019
  -0.04345446  0.01681281  0.01818087       0.019
  -0.02172723  0.02054899  0.01818087       0.019
   0.00000000  0.04857034  0.01818087       0.010
   0.02172723  0.05230652  0.01818087       0.019
   0.04345446  0.05604270  0.01818087       0.019
   0.06518168  0.05977888  0.01818087       0.019
   0.08690891  0.06351506  0.01818087       0.019
   0.10863614  0.06725124  0.01818087       0.019
   0.13036337  0.07098742  0.01818087       0.019
 
 k-points in reciprocal lattice and weights: pymatgen generated KPOINTS with grid den
   0.00000000  0.00000000  0.00000000       0.010
   0.07692308 -0.00000000  0.00000000       0.019
   0.15384615 -0.00000000  0.00000000       0.019
   0.23076923 -0.00000000  0.00000000       0.019
   0.30769231 -0.00000000  0.00000000       0.019
   0.38461538 -0.00000000  0.00000000       0.019
   0.46153846 -0.00000000  0.00000000       0.019
   0.00000000  0.25000000  0.00000000       0.019
   0.07692308  0.25000000  0.00000000       0.019
   0.15384615  0.25000000  0.00000000       0.019
   0.23076923  0.25000000  0.00000000       0.019
   0.30769231  0.25000000  0.00000000       0.019
   0.38461538  0.25000000  0.00000000       0.019
   0.46153846  0.25000000  0.00000000       0.019
  -0.46153846  0.25000000  0.00000000       0.019
  -0.38461538  0.25000000  0.00000000       0.019
  -0.30769231  0.25000000  0.00000000       0.019
  -0.23076923  0.25000000  0.00000000       0.019
  -0.15384615  0.25000000  0.00000000       0.019
  -0.07692308  0.25000000  0.00000000       0.019
   0.00000000  0.50000000  0.00000000       0.010
   0.07692308  0.50000000  0.00000000       0.019
   0.15384615  0.50000000  0.00000000       0.019
   0.23076923  0.50000000  0.00000000       0.019
   0.30769231  0.50000000  0.00000000       0.019
   0.38461538  0.50000000  0.00000000       0.019
   0.46153846  0.50000000  0.00000000       0.019
   0.00000000  0.00000000  0.50000000       0.010
   0.07692308 -0.00000000  0.50000000       0.019
   0.15384615 -0.00000000  0.50000000       0.019
   0.23076923 -0.00000000  0.50000000       0.019
   0.30769231 -0.00000000  0.50000000       0.019
   0.38461538 -0.00000000  0.50000000       0.019
   0.46153846 -0.00000000  0.50000000       0.019
   0.00000000  0.25000000  0.50000000       0.019
   0.07692308  0.25000000  0.50000000       0.019
   0.15384615  0.25000000  0.50000000       0.019
   0.23076923  0.25000000  0.50000000       0.019
   0.30769231  0.25000000  0.50000000       0.019
   0.38461538  0.25000000  0.50000000       0.019
   0.46153846  0.25000000  0.50000000       0.019
  -0.46153846  0.25000000  0.50000000       0.019
  -0.38461538  0.25000000  0.50000000       0.019
  -0.30769231  0.25000000  0.50000000       0.019
  -0.23076923  0.25000000  0.50000000       0.019
  -0.15384615  0.25000000  0.50000000       0.019
  -0.07692308  0.25000000  0.50000000       0.019
   0.00000000  0.50000000  0.50000000       0.010
   0.07692308  0.50000000  0.50000000       0.019
   0.15384615  0.50000000  0.50000000       0.019
   0.23076923  0.50000000  0.50000000       0.019
   0.30769231  0.50000000  0.50000000       0.019
   0.38461538  0.50000000  0.50000000       0.019
   0.46153846  0.50000000  0.50000000       0.019
 
 position of ions in fractional coordinates (direct lattice) 
   0.11402300  0.22804500  0.23316207
   0.21402300  0.82804500  0.51499159
   0.45808900  0.91617900  0.20939482
   0.55808900  0.51617900  0.49122434
   0.31085400  0.62170900  0.08414979
   0.31085400  0.62170900  0.36597930
   0.99923000  0.99846000  0.08631254
   0.99923000  0.99846000  0.36814206
   0.65492700  0.30985400  0.06041748
   0.65492700  0.30985400  0.34224700
   0.76973800  0.53947500  0.20725292
   0.86973800  0.13947500  0.48908244
   0.93971600  0.87943300  0.15783749
   0.03971600  0.47943300  0.43966701
   0.20515200  0.41030300  0.18578822
   0.30515200  0.01030300  0.46761774
   0.20184900  0.40369900  0.09969156
   0.20184900  0.40369900  0.38152107
   0.56380500  0.12761000  0.10779021
   0.56380500  0.12761000  0.38961973
   0.56710600  0.13421200  0.19387616
   0.66710600  0.73421200  0.47570568
   0.82923400  0.65846800  0.13571444
   0.92923400  0.25846800  0.41754396
 
 position of ions in cartesian coordinates  (Angst):
   0.00000177  2.34757459  6.41229012
  -0.70807823  8.52418339 14.16300462
  -0.00000177  9.43146546  5.75865686
   1.06211823  5.31372626 13.50937136
  -0.00000177  6.40008880  2.31423934
  -0.00000177  6.40008880 10.06495384
   1.77020000 10.27849470  2.37371832
   1.77020000 10.27849470 10.12443282
   1.77020000  3.18974491  1.66156717
   1.77020000  3.18974491  9.41228167
   1.77020177  5.55354339  5.69975143
   2.83232177  1.43580419 13.45046593
   1.77019823  9.05318934  4.34075665
  -0.70808177  4.93545014 12.09147115
   0.00000177  4.22380187  5.10944151
   1.06212177  0.10606267 12.86015601
  -0.00000177  4.15581799  2.74166024
  -0.00000177  4.15581799 10.49237474
   1.77020000  1.31366175  2.96438477
   1.77020000  1.31366175 10.71509927
   1.77020000  1.38162503  5.33187152
   1.06212000  7.55823383 13.08258602
   1.77020000  6.77849874  3.73234107
   2.83232000  2.66075954 11.48305557
 


--------------------------------------------------------------------------------------------------------


 k-point  1 :   0.0000 0.0000 0.0000  plane waves:   11717
 k-point  2 :   0.0769-0.0000 0.0000  plane waves:   11762
 k-point  3 :   0.1538-0.0000 0.0000  plane waves:   11805
 k-point  4 :   0.2308-0.0000 0.0000  plane waves:   11824
 k-point  5 :   0.3077-0.0000 0.0000  plane waves:   11875
 k-point  6 :   0.3846-0.0000 0.0000  plane waves:   11864
 k-point  7 :   0.4615-0.0000 0.0000  plane waves:   11883
 k-point  8 :   0.0000 0.2500 0.0000  plane waves:   11683
 k-point  9 :   0.0769 0.2500 0.0000  plane waves:   11756
 k-point 10 :   0.1538 0.2500 0.0000  plane waves:   11807
 k-point 11 :   0.2308 0.2500 0.0000  plane waves:   11853
 k-point 12 :   0.3077 0.2500 0.0000  plane waves:   11866
 k-point 13 :   0.3846 0.2500 0.0000  plane waves:   11889
 k-point 14 :   0.4615 0.2500 0.0000  plane waves:   11885
 k-point 15 :  -0.4615 0.2500 0.0000  plane waves:   11886
 k-point 16 :  -0.3846 0.2500 0.0000  plane waves:   11867
 k-point 17 :  -0.3077 0.2500 0.0000  plane waves:   11849
 k-point 18 :  -0.2308 0.2500 0.0000  plane waves:   11827
 k-point 19 :  -0.1538 0.2500 0.0000  plane waves:   11801
 k-point 20 :  -0.0769 0.2500 0.0000  plane waves:   11757
 k-point 21 :   0.0000 0.5000 0.0000  plane waves:   11710
 k-point 22 :   0.0769 0.5000 0.0000  plane waves:   11762
 k-point 23 :   0.1538 0.5000 0.0000  plane waves:   11782
 k-point 24 :   0.2308 0.5000 0.0000  plane waves:   11841
 k-point 25 :   0.3077 0.5000 0.0000  plane waves:   11876
 k-point 26 :   0.3846 0.5000 0.0000  plane waves:   11889
 k-point 27 :   0.4615 0.5000 0.0000  plane waves:   11881
 k-point 28 :   0.0000 0.0000 0.5000  plane waves:   11698
 k-point 29 :   0.0769-0.0000 0.5000  plane waves:   11752
 k-point 30 :   0.1538-0.0000 0.5000  plane waves:   11800
 k-point 31 :   0.2308-0.0000 0.5000  plane waves:   11834
 k-point 32 :   0.3077-0.0000 0.5000  plane waves:   11850
 k-point 33 :   0.3846-0.0000 0.5000  plane waves:   11888
 k-point 34 :   0.4615-0.0000 0.5000  plane waves:   11896
 k-point 35 :   0.0000 0.2500 0.5000  plane waves:   11714
 k-point 36 :   0.0769 0.2500 0.5000  plane waves:   11754
 k-point 37 :   0.1538 0.2500 0.5000  plane waves:   11802
 k-point 38 :   0.2308 0.2500 0.5000  plane waves:   11840
 k-point 39 :   0.3077 0.2500 0.5000  plane waves:   11858
 k-point 40 :   0.3846 0.2500 0.5000  plane waves:   11896
 k-point 41 :   0.4615 0.2500 0.5000  plane waves:   11886
 k-point 42 :  -0.4615 0.2500 0.5000  plane waves:   11852
 k-point 43 :  -0.3846 0.2500 0.5000  plane waves:   11838
 k-point 44 :  -0.3077 0.2500 0.5000  plane waves:   11842
 k-point 45 :  -0.2308 0.2500 0.5000  plane waves:   11840
 k-point 46 :  -0.1538 0.2500 0.5000  plane waves:   11804
 k-point 47 :  -0.0769 0.2500 0.5000  plane waves:   11748
 k-point 48 :   0.0000 0.5000 0.5000  plane waves:   11724
 k-point 49 :   0.0769 0.5000 0.5000  plane waves:   11748
 k-point 50 :   0.1538 0.5000 0.5000  plane waves:   11814
 k-point 51 :   0.2308 0.5000 0.5000  plane waves:   11832
 k-point 52 :   0.3077 0.5000 0.5000  plane waves:   11868
 k-point 53 :   0.3846 0.5000 0.5000  plane waves:   11892
 k-point 54 :   0.4615 0.5000 0.5000  plane waves:   11878

 maximum and minimum number of plane-waves per node :      5964     5832

 maximum number of plane-waves:     11896
 maximum index in each direction: 
   IXMAX=    5   IYMAX=   14   IZMAX=   38
   IXMIN=   -5   IYMIN=  -15   IZMIN=  -39

 WARNING: aliasing errors must be expected set NGX to  22 to avoid them
 NGY is ok and might be reduce to  60
 NGZ is ok and might be reduce to 156
 aliasing errors are usually negligible using standard VASP settings
 and one can safely disregard these warnings

 real space projection operators:
  total allocation   :       3793.25 KBytes
  max/ min on nodes  :       1899.38       1893.88


 parallel 3D FFT for wavefunctions:
    minimum data exchange during FFTs selected (reduces bandwidth)
 parallel 3D FFT for charge:
    minimum data exchange during FFTs selected (reduces bandwidth)


 total amount of memory used by VASP on root node   146493. kBytes
========================================================================

   base      :      30000. kBytes
   nonlr-proj:       3452. kBytes
   fftplans  :       9347. kBytes
   grid      :      14649. kBytes
   one-center:         36. kBytes
   wavefun   :      89009. kBytes
 
     INWAV:  cpu time    0.00: real time    0.00
 Broyden mixing: mesh for mixing (old mesh)
   NGX =  9   NGY = 29   NGZ = 77
  (NGX  = 40   NGY  =120   NGZ  =320)
  gives a total of  20097 points

 initial charge density was supplied:
 charge density of overlapping atoms calculated
 number of electron     108.0000000 magnetization 
 keeping initial charge density in first step


--------------------------------------------------------------------------------------------------------


 Maximum index for non-local projection operator         1333
 Maximum index for augmentation-charges          822 (set IRDMAX)


--------------------------------------------------------------------------------------------------------


 First call to EWALD:  gamma=   0.177
 Maximum number of real-space cells 7x 3x 1
 Maximum number of reciprocal cells 1x 3x 7

 FEWALD executed in parallel
    FEWALD:  cpu time    0.00: real time    0.00


----------------------------------------- Iteration    1(   1)  ---------------------------------------


vdW kernel read from vdw_kernel.bindat
  0.0000  0.2424  0.5071  0.7962  1.1119  1.4567  1.8333  2.2446  2.6937  3.1842
  3.7199  4.3049  4.9438  5.6415  6.4036  7.2358  8.1446  9.1372 10.2212 11.4050
 12.6979 14.1099 15.6519 17.3360 19.1751 21.1837 23.3773 25.7729 28.3892 31.2465
 34.3669 37.7748 41.4965 45.5611 50.0000
 
    POTLOK:  cpu time   16.05: real time   16.05
    SETDIJ:  cpu time    0.01: real time    0.01
     EDDAV:  cpu time   64.61: real time   64.63
       DOS:  cpu time    0.01: real time    0.01
    --------------------------------------------
      LOOP:  cpu time   80.68: real time   80.71

 eigenvalue-minimisations  :  7352
 total energy-change (2. order) : 0.5008044E+03  (-0.2872809E+04)
 number of electron     108.0000000 magnetization 
 augmentation part      108.0000000 magnetization 

 Free energy of the ion-electron system (eV)
  ---------------------------------------------------
  alpha Z        PSCENC =        36.80884744
  Ewald energy   TEWEN  =     12026.08794482
  -Hartree energ DENC   =    -15057.91522963
  -exchange      EXHF   =         0.00000000
  -V(xc)+E(xc)   XCENC  =       -86.93713434
  PAW double counting   =      1056.43050070     -732.41190547
  entropy T*S    EENTRO =        -0.03983315
  eigenvalues    EBANDS =       -95.26008791
  atomic energy  EATOM  =      3354.04126044
  ---------------------------------------------------
  free energy    TOTEN  =       500.80436290 eV

  energy without entropy =      500.84419605  energy(sigma->0) =      500.82427948


--------------------------------------------------------------------------------------------------------




----------------------------------------- Iteration    1(   2)  ---------------------------------------


     EDDAV:  cpu time   80.80: real time   80.82
       DOS:  cpu time    0.01: real time    0.01
    --------------------------------------------
      LOOP:  cpu time   80.81: real time   80.83

 eigenvalue-minimisations  :  9776
 total energy-change (2. order) :-0.5644850E+03  (-0.5495271E+03)
 number of electron     108.0000000 magnetization 
 augmentation part      108.0000000 magnetization 

 Free energy of the ion-electron system (eV)
  ---------------------------------------------------
  alpha Z        PSCENC =        36.80884744
  Ewald energy   TEWEN  =     12026.08794482
  -Hartree energ DENC   =    -15057.91522963
  -exchange      EXHF   =         0.00000000
  -V(xc)+E(xc)   XCENC  =       -86.93713434
  PAW double counting   =      1056.43050070     -732.41190547
  entropy T*S    EENTRO =        -0.01121599
  eigenvalues    EBANDS =      -659.77368232
  atomic energy  EATOM  =      3354.04126044
  ---------------------------------------------------
  free energy    TOTEN  =       -63.68061435 eV

  energy without entropy =      -63.66939836  energy(sigma->0) =      -63.67500635


--------------------------------------------------------------------------------------------------------




----------------------------------------- Iteration    1(   3)  ---------------------------------------


     EDDAV:  cpu time   74.30: real time   74.31
       DOS:  cpu time    0.01: real time    0.01
    --------------------------------------------
      LOOP:  cpu time   74.31: real time   74.33

 eigenvalue-minimisations  :  8780
 total energy-change (2. order) :-0.5638443E+02  (-0.5555187E+02)
 number of electron     108.0000000 magnetization 
 augmentation part      108.0000000 magnetization 

 Free energy of the ion-electron system (eV)
  ---------------------------------------------------
  alpha Z        PSCENC =        36.80884744
  Ewald energy   TEWEN  =     12026.08794482
  -Hartree energ DENC   =    -15057.91522963
  -exchange      EXHF   =         0.00000000
  -V(xc)+E(xc)   XCENC  =       -86.93713434
  PAW double counting   =      1056.43050070     -732.41190547
  entropy T*S    EENTRO =        -0.01671384
  eigenvalues    EBANDS =      -716.15261697
  atomic energy  EATOM  =      3354.04126044
  ---------------------------------------------------
  free energy    TOTEN  =      -120.06504684 eV

  energy without entropy =     -120.04833300  energy(sigma->0) =     -120.05668992


--------------------------------------------------------------------------------------------------------




----------------------------------------- Iteration    1(   4)  ---------------------------------------


     EDDAV:  cpu time   88.43: real time   88.45
       DOS:  cpu time    0.01: real time    0.01
    --------------------------------------------
      LOOP:  cpu time   88.44: real time   88.46

 eigenvalue-minimisations  : 10864
 total energy-change (2. order) :-0.2545250E+01  (-0.2528480E+01)
 number of electron     108.0000000 magnetization 
 augmentation part      108.0000000 magnetization 

 Free energy of the ion-electron system (eV)
  ---------------------------------------------------
  alpha Z        PSCENC =        36.80884744
  Ewald energy   TEWEN  =     12026.08794482
  -Hartree energ DENC   =    -15057.91522963
  -exchange      EXHF   =         0.00000000
  -V(xc)+E(xc)   XCENC  =       -86.93713434
  PAW double counting   =      1056.43050070     -732.41190547
  entropy T*S    EENTRO =        -0.01964034
  eigenvalues    EBANDS =      -718.69494048
  atomic energy  EATOM  =      3354.04126044
  ---------------------------------------------------
  free energy    TOTEN  =      -122.61029685 eV

  energy without entropy =     -122.59065651  energy(sigma->0) =     -122.60047668


--------------------------------------------------------------------------------------------------------




----------------------------------------- Iteration    1(   5)  ---------------------------------------


     EDDAV:  cpu time   83.14: real time   83.16
       DOS:  cpu time    0.01: real time    0.01
    CHARGE:  cpu time    4.16: real time    4.16
    MIXING:  cpu time    0.01: real time    0.01
    --------------------------------------------
      LOOP:  cpu time   87.32: real time   87.34

 eigenvalue-minimisations  : 10024
 total energy-change (2. order) :-0.6402423E-01  (-0.6395617E-01)
 number of electron     107.9999995 magnetization 
 augmentation part       -9.5870416 magnetization 

 Broyden mixing:
  rms(total) = 0.10738E+01    rms(broyden)= 0.10736E+01
  rms(prec ) = 0.11746E+01
  weight for this iteration     100.00

 Free energy of the ion-electron system (eV)
  ---------------------------------------------------
  alpha Z        PSCENC =        36.80884744
  Ewald energy   TEWEN  =     12026.08794482
  -Hartree energ DENC   =    -15057.91522963
  -exchange      EXHF   =         0.00000000
  -V(xc)+E(xc)   XCENC  =       -86.93713434
  PAW double counting   =      1056.43050070     -732.41190547
  entropy T*S    EENTRO =        -0.01983047
  eigenvalues    EBANDS =      -718.75877458
  atomic energy  EATOM  =      3354.04126044
  ---------------------------------------------------
  free energy    TOTEN  =      -122.67432108 eV

  energy without entropy =     -122.65449061  energy(sigma->0) =     -122.66440584


--------------------------------------------------------------------------------------------------------




----------------------------------------- Iteration    1(   6)  ---------------------------------------


    POTLOK:  cpu time   14.58: real time   14.58
    SETDIJ:  cpu time    0.01: real time    0.01
     EDDAV:  cpu time   74.42: real time   74.43
       DOS:  cpu time    0.01: real time    0.01
    CHARGE:  cpu time    4.21: real time    4.21
    MIXING:  cpu time    0.01: real time    0.01
    --------------------------------------------
      LOOP:  cpu time   93.24: real time   93.26

 eigenvalue-minimisations  :  8768
 total energy-change (2. order) : 0.3271240E+01  (-0.9550104E+00)
 number of electron     107.9999995 magnetization 
 augmentation part       -9.4433777 magnetization 

 Broyden mixing:
  rms(total) = 0.57339E+00    rms(broyden)= 0.57337E+00
  rms(prec ) = 0.61234E+00
  weight for this iteration     100.00

 eigenvalues of (default mixing * dielectric matrix)
  average eigenvalue GAMMA=   1.6476
  1.6476

 Free energy of the ion-electron system (eV)
  ---------------------------------------------------
  alpha Z        PSCENC =        36.80884744
  Ewald energy   TEWEN  =     12026.08794482
  -Hartree energ DENC   =    -15109.54541711
  -exchange      EXHF   =         0.00000000
  -V(xc)+E(xc)   XCENC  =       -83.93095333
  PAW double counting   =      1116.44966777     -794.20402425
  entropy T*S    EENTRO =        -0.03134364
  eigenvalues    EBANDS =      -665.07906319
  atomic energy  EATOM  =      3354.04126044
  ---------------------------------------------------
  free energy    TOTEN  =      -119.40308104 eV

  energy without entropy =     -119.37173740  energy(sigma->0) =     -119.38740922


--------------------------------------------------------------------------------------------------------




----------------------------------------- Iteration    1(   7)  ---------------------------------------


    POTLOK:  cpu time   14.55: real time   14.56
    SETDIJ:  cpu time    0.01: real time    0.01
     EDDAV:  cpu time   74.65: real time   74.67
       DOS:  cpu time    0.01: real time    0.01
    CHARGE:  cpu time    4.20: real time    4.20
    MIXING:  cpu time    0.01: real time    0.01
    --------------------------------------------
      LOOP:  cpu time   93.44: real time   93.46

 eigenvalue-minimisations  :  8760
 total energy-change (2. order) : 0.1150841E+00  (-0.5737827E+00)
 number of electron     107.9999995 magnetization 
 augmentation part       -9.3745734 magnetization 

 Broyden mixing:
  rms(total) = 0.28305E+00    rms(broyden)= 0.28304E+00
  rms(prec ) = 0.31445E+00
  weight for this iteration     100.00

 eigenvalues of (default mixing * dielectric matrix)
  average eigenvalue GAMMA=   1.4021
  0.7568  2.0474

 Free energy of the ion-electron system (eV)
  ---------------------------------------------------
  alpha Z        PSCENC =        36.80884744
  Ewald energy   TEWEN  =     12026.08794482
  -Hartree energ DENC   =    -15125.14422236
  -exchange      EXHF   =         0.00000000
  -V(xc)+E(xc)   XCENC  =       -81.51149430
  PAW double counting   =      1154.86433668     -833.74874745
  entropy T*S    EENTRO =        -0.01456929
  eigenvalues    EBANDS =      -650.67135294
  atomic energy  EATOM  =      3354.04126044
  ---------------------------------------------------
  free energy    TOTEN  =      -119.28799695 eV

  energy without entropy =     -119.27342766  energy(sigma->0) =     -119.28071231


--------------------------------------------------------------------------------------------------------




----------------------------------------- Iteration    1(   8)  ---------------------------------------


    POTLOK:  cpu time   14.55: real time   14.56
    SETDIJ:  cpu time    0.01: real time    0.01
     EDDAV:  cpu time   76.00: real time   76.01
       DOS:  cpu time    0.01: real time    0.01
    CHARGE:  cpu time    4.20: real time    4.20
    MIXING:  cpu time    0.01: real time    0.01
    --------------------------------------------
      LOOP:  cpu time   94.78: real time   94.80

 eigenvalue-minimisations  :  9032
 total energy-change (2. order) : 0.1484608E-01  (-0.1431252E+00)
 number of electron     107.9999995 magnetization 
 augmentation part       -9.3458287 magnetization 

 Broyden mixing:
  rms(total) = 0.12070E+00    rms(broyden)= 0.12068E+00
  rms(prec ) = 0.13342E+00
  weight for this iteration     100.00

 eigenvalues of (default mixing * dielectric matrix)
  average eigenvalue GAMMA=   1.3582
  2.2155  1.1754  0.6838

 Free energy of the ion-electron system (eV)
  ---------------------------------------------------
  alpha Z        PSCENC =        36.80884744
  Ewald energy   TEWEN  =     12026.08794482
  -Hartree energ DENC   =    -15147.12388528
  -exchange      EXHF   =         0.00000000
  -V(xc)+E(xc)   XCENC  =       -80.05043018
  PAW double counting   =      1172.81407414     -852.22124671
  entropy T*S    EENTRO =        -0.02276014
  eigenvalues    EBANDS =      -629.60695540
  atomic energy  EATOM  =      3354.04126044
  ---------------------------------------------------
  free energy    TOTEN  =      -119.27315087 eV

  energy without entropy =     -119.25039073  energy(sigma->0) =     -119.26177080


--------------------------------------------------------------------------------------------------------




----------------------------------------- Iteration    1(   9)  ---------------------------------------


    POTLOK:  cpu time   14.57: real time   14.57
    SETDIJ:  cpu time    0.01: real time    0.01
     EDDAV:  cpu time   75.26: real time   75.27
       DOS:  cpu time    0.01: real time    0.01
    CHARGE:  cpu time    4.21: real time    4.21
    MIXING:  cpu time    0.01: real time    0.01
    --------------------------------------------
      LOOP:  cpu time   94.07: real time   94.09

 eigenvalue-minimisations  :  9000
 total energy-change (2. order) : 0.1200281E-01  (-0.2685733E-01)
 number of electron     107.9999995 magnetization 
 augmentation part       -9.3421146 magnetization 

 Broyden mixing:
  rms(total) = 0.60830E-01    rms(broyden)= 0.60826E-01
  rms(prec ) = 0.67123E-01
  weight for this iteration     100.00

 eigenvalues of (default mixing * dielectric matrix)
  average eigenvalue GAMMA=   1.3712
  2.4237  1.6307  0.7750  0.6554

 Free energy of the ion-electron system (eV)
  ---------------------------------------------------
  alpha Z        PSCENC =        36.80884744
  Ewald energy   TEWEN  =     12026.08794482
  -Hartree energ DENC   =    -15148.29839835
  -exchange      EXHF   =         0.00000000
  -V(xc)+E(xc)   XCENC  =       -79.67166077
  PAW double counting   =      1173.11456056     -852.55189662
  entropy T*S    EENTRO =        -0.02257937
  eigenvalues    EBANDS =      -628.76922623
  atomic energy  EATOM  =      3354.04126044
  ---------------------------------------------------
  free energy    TOTEN  =      -119.26114806 eV

  energy without entropy =     -119.23856869  energy(sigma->0) =     -119.24985838


--------------------------------------------------------------------------------------------------------




----------------------------------------- Iteration    1(  10)  ---------------------------------------


    POTLOK:  cpu time   14.58: real time   14.59
    SETDIJ:  cpu time    0.01: real time    0.01
     EDDAV:  cpu time   75.37: real time   75.39
       DOS:  cpu time    0.01: real time    0.01
    CHARGE:  cpu time    4.20: real time    4.20
    MIXING:  cpu time    0.01: real time    0.01
    --------------------------------------------
      LOOP:  cpu time   94.19: real time   94.21

 eigenvalue-minimisations  :  8912
 total energy-change (2. order) : 0.1813830E-01  (-0.6772825E-02)
 number of electron     107.9999995 magnetization 
 augmentation part       -9.3466035 magnetization 

 Broyden mixing:
  rms(total) = 0.21680E-01    rms(broyden)= 0.21678E-01
  rms(prec ) = 0.23760E-01
  weight for this iteration     100.00

 eigenvalues of (default mixing * dielectric matrix)
  average eigenvalue GAMMA=   1.3590
  2.6023  1.6286  1.1630  0.7830  0.6181

 Free energy of the ion-electron system (eV)
  ---------------------------------------------------
  alpha Z        PSCENC =        36.80884744
  Ewald energy   TEWEN  =     12026.08794482
  -Hartree energ DENC   =    -15151.78168137
  -exchange      EXHF   =         0.00000000
  -V(xc)+E(xc)   XCENC  =       -79.47724251
  PAW double counting   =      1170.71580924     -850.09580798
  entropy T*S    EENTRO =        -0.02170298
  eigenvalues    EBANDS =      -625.52043686
  atomic energy  EATOM  =      3354.04126044
  ---------------------------------------------------
  free energy    TOTEN  =      -119.24300976 eV

  energy without entropy =     -119.22130677  energy(sigma->0) =     -119.23215827


--------------------------------------------------------------------------------------------------------




----------------------------------------- Iteration    1(  11)  ---------------------------------------


    POTLOK:  cpu time   14.57: real time   14.57
    SETDIJ:  cpu time    0.01: real time    0.02
     EDDAV:  cpu time   76.21: real time   76.23
       DOS:  cpu time    0.01: real time    0.01
    CHARGE:  cpu time    4.22: real time    4.22
    MIXING:  cpu time    0.01: real time    0.01
    --------------------------------------------
      LOOP:  cpu time   95.04: real time   95.05

 eigenvalue-minimisations  :  9024
 total energy-change (2. order) : 0.7313332E-02  (-0.1210741E-02)
 number of electron     107.9999995 magnetization 
 augmentation part       -9.3470215 magnetization 

 Broyden mixing:
  rms(total) = 0.96991E-02    rms(broyden)= 0.96980E-02
  rms(prec ) = 0.11178E-01
  weight for this iteration     100.00

 eigenvalues of (default mixing * dielectric matrix)
  average eigenvalue GAMMA=   1.3696
  2.6206  1.5968  1.5968  1.0061  0.7755  0.6218

 Free energy of the ion-electron system (eV)
  ---------------------------------------------------
  alpha Z        PSCENC =        36.80884744
  Ewald energy   TEWEN  =     12026.08794482
  -Hartree energ DENC   =    -15153.28935527
  -exchange      EXHF   =         0.00000000
  -V(xc)+E(xc)   XCENC  =       -79.40736830
  PAW double counting   =      1169.47704273     -848.82611223
  entropy T*S    EENTRO =        -0.02202903
  eigenvalues    EBANDS =      -624.10592703
  atomic energy  EATOM  =      3354.04126044
  ---------------------------------------------------
  free energy    TOTEN  =      -119.23569643 eV

  energy without entropy =     -119.21366740  energy(sigma->0) =     -119.22468191


--------------------------------------------------------------------------------------------------------




----------------------------------------- Iteration    1(  12)  ---------------------------------------


    POTLOK:  cpu time   14.60: real time   14.61
    SETDIJ:  cpu time    0.01: real time    0.01
     EDDAV:  cpu time   79.41: real time   79.42
       DOS:  cpu time    0.01: real time    0.01
    CHARGE:  cpu time    4.21: real time    4.21
    MIXING:  cpu time    0.01: real time    0.01
    --------------------------------------------
      LOOP:  cpu time   98.25: real time   98.27

 eigenvalue-minimisations  :  9504
 total energy-change (2. order) : 0.6428460E-02  (-0.2332731E-03)
 number of electron     107.9999995 magnetization 
 augmentation part       -9.3473190 magnetization 

 Broyden mixing:
  rms(total) = 0.43382E-02    rms(broyden)= 0.43377E-02
  rms(prec ) = 0.57644E-02
  weight for this iteration     100.00

 eigenvalues of (default mixing * dielectric matrix)
  average eigenvalue GAMMA=   1.3723
  2.6647  2.0418  1.3034  1.3034  0.6262  0.8882  0.7783

 Free energy of the ion-electron system (eV)
  ---------------------------------------------------
  alpha Z        PSCENC =        36.80884744
  Ewald energy   TEWEN  =     12026.08794482
  -Hartree energ DENC   =    -15154.35740890
  -exchange      EXHF   =         0.00000000
  -V(xc)+E(xc)   XCENC  =       -79.39579526
  PAW double counting   =      1168.59004057     -847.91577769
  entropy T*S    EENTRO =        -0.02190232
  eigenvalues    EBANDS =      -623.06647707
  atomic energy  EATOM  =      3354.04126044
  ---------------------------------------------------
  free energy    TOTEN  =      -119.22926797 eV

  energy without entropy =     -119.20736564  energy(sigma->0) =     -119.21831681


--------------------------------------------------------------------------------------------------------




----------------------------------------- Iteration    1(  13)  ---------------------------------------


    POTLOK:  cpu time   14.59: real time   14.59
    SETDIJ:  cpu time    0.01: real time    0.01
     EDDAV:  cpu time   77.21: real time   77.23
       DOS:  cpu time    0.01: real time    0.01
    CHARGE:  cpu time    4.20: real time    4.20
    MIXING:  cpu time    0.01: real time    0.01
    --------------------------------------------
      LOOP:  cpu time   96.03: real time   96.05

 eigenvalue-minimisations  :  9064
 total energy-change (2. order) : 0.4349201E-02  (-0.4808918E-04)
 number of electron     107.9999995 magnetization 
 augmentation part       -9.3476809 magnetization 

 Broyden mixing:
  rms(total) = 0.22455E-02    rms(broyden)= 0.22453E-02
  rms(prec ) = 0.34923E-02
  weight for this iteration     100.00

 eigenvalues of (default mixing * dielectric matrix)
  average eigenvalue GAMMA=   1.4083
  2.7452  2.2674  1.3816  1.2439  1.2439  0.6270  0.7781  0.9792

 Free energy of the ion-electron system (eV)
  ---------------------------------------------------
  alpha Z        PSCENC =        36.80884744
  Ewald energy   TEWEN  =     12026.08794482
  -Hartree energ DENC   =    -15155.31817132
  -exchange      EXHF   =         0.00000000
  -V(xc)+E(xc)   XCENC  =       -79.39262379
  PAW double counting   =      1167.95536574     -847.26465131
  entropy T*S    EENTRO =        -0.02192764
  eigenvalues    EBANDS =      -622.12096316
  atomic energy  EATOM  =      3354.04126044
  ---------------------------------------------------
  free energy    TOTEN  =      -119.22491877 eV

  energy without entropy =     -119.20299113  energy(sigma->0) =     -119.21395495


--------------------------------------------------------------------------------------------------------




----------------------------------------- Iteration    1(  14)  ---------------------------------------


    POTLOK:  cpu time   14.54: real time   14.55
    SETDIJ:  cpu time    0.01: real time    0.01
     EDDAV:  cpu time   79.46: real time   79.48
       DOS:  cpu time    0.01: real time    0.01
    CHARGE:  cpu time    4.20: real time    4.20
    MIXING:  cpu time    0.01: real time    0.01
    --------------------------------------------
      LOOP:  cpu time   98.25: real time   98.27

 eigenvalue-minimisations  :  9464
 total energy-change (2. order) : 0.2119868E-02  (-0.1389618E-04)
 number of electron     107.9999995 magnetization 
 augmentation part       -9.3473952 magnetization 

 Broyden mixing:
  rms(total) = 0.12102E-02    rms(broyden)= 0.12101E-02
  rms(prec ) = 0.21606E-02
  weight for this iteration     100.00

 eigenvalues of (default mixing * dielectric matrix)
  average eigenvalue GAMMA=   1.4746
  2.9744  2.5258  1.8348  1.2799  1.2799  0.6274  0.7797  0.9846  0.9846

 Free energy of the ion-electron system (eV)
  ---------------------------------------------------
  alpha Z        PSCENC =        36.80884744
  Ewald energy   TEWEN  =     12026.08794482
  -Hartree energ DENC   =    -15156.27815744
  -exchange      EXHF   =         0.00000000
  -V(xc)+E(xc)   XCENC  =       -79.38640914
  PAW double counting   =      1167.69698294     -847.00003530
  entropy T*S    EENTRO =        -0.02195346
  eigenvalues    EBANDS =      -621.17127920
  atomic energy  EATOM  =      3354.04126044
  ---------------------------------------------------
  free energy    TOTEN  =      -119.22279890 eV

  energy without entropy =     -119.20084543  energy(sigma->0) =     -119.21182217


--------------------------------------------------------------------------------------------------------




----------------------------------------- Iteration    1(  15)  ---------------------------------------


    POTLOK:  cpu time   14.59: real time   14.59
    SETDIJ:  cpu time    0.01: real time    0.01
     EDDAV:  cpu time   73.63: real time   73.65
       DOS:  cpu time    0.01: real time    0.01
    CHARGE:  cpu time    4.20: real time    4.20
    MIXING:  cpu time    0.01: real time    0.01
    --------------------------------------------
      LOOP:  cpu time   92.46: real time   92.48

 eigenvalue-minimisations  :  8776
 total energy-change (2. order) : 0.6705680E-03  (-0.7375356E-05)
 number of electron     107.9999995 magnetization 
 augmentation part       -9.3471491 magnetization 

 Broyden mixing:
  rms(total) = 0.74870E-03    rms(broyden)= 0.74865E-03
  rms(prec ) = 0.13125E-02
  weight for this iteration     100.00

 eigenvalues of (default mixing * dielectric matrix)
  average eigenvalue GAMMA=   1.5727
  3.4689  2.6635  1.8702  1.8702  1.2541  1.2541  0.6276  0.7769  0.9705  0.9705

 Free energy of the ion-electron system (eV)
  ---------------------------------------------------
  alpha Z        PSCENC =        36.80884744
  Ewald energy   TEWEN  =     12026.08794482
  -Hartree energ DENC   =    -15157.21203408
  -exchange      EXHF   =         0.00000000
  -V(xc)+E(xc)   XCENC  =       -79.38076288
  PAW double counting   =      1167.60178806     -846.90272127
  entropy T*S    EENTRO =        -0.02195202
  eigenvalues    EBANDS =      -620.24449885
  atomic energy  EATOM  =      3354.04126044
  ---------------------------------------------------
  free energy    TOTEN  =      -119.22212833 eV

  energy without entropy =     -119.20017630  energy(sigma->0) =     -119.21115232


--------------------------------------------------------------------------------------------------------




----------------------------------------- Iteration    1(  16)  ---------------------------------------


    POTLOK:  cpu time   14.56: real time   14.56
    SETDIJ:  cpu time    0.01: real time    0.01
     EDDAV:  cpu time   69.91: real time   69.93
       DOS:  cpu time    0.01: real time    0.01
    CHARGE:  cpu time    4.20: real time    4.20
    MIXING:  cpu time    0.01: real time    0.01
    --------------------------------------------
      LOOP:  cpu time   88.71: real time   88.73

 eigenvalue-minimisations  :  8160
 total energy-change (2. order) :-0.3162094E-03  (-0.9044000E-05)
 number of electron     107.9999995 magnetization 
 augmentation part       -9.3471038 magnetization 

 Broyden mixing:
  rms(total) = 0.40967E-03    rms(broyden)= 0.40965E-03
  rms(prec ) = 0.70859E-03
  weight for this iteration     100.00

 eigenvalues of (default mixing * dielectric matrix)
  average eigenvalue GAMMA=   1.6642
  4.4663  2.7405  2.3207  1.4289  1.4289  1.2777  1.2777  0.6276  0.7761  0.9809
  0.9809

 Free energy of the ion-electron system (eV)
  ---------------------------------------------------
  alpha Z        PSCENC =        36.80884744
  Ewald energy   TEWEN  =     12026.08794482
  -Hartree energ DENC   =    -15157.94388658
  -exchange      EXHF   =         0.00000000
  -V(xc)+E(xc)   XCENC  =       -79.37697910
  PAW double counting   =      1167.58778134     -846.88839567
  entropy T*S    EENTRO =        -0.02194227
  eigenvalues    EBANDS =      -619.51707497
  atomic energy  EATOM  =      3354.04126044
  ---------------------------------------------------
  free energy    TOTEN  =      -119.22244454 eV

  energy without entropy =     -119.20050227  energy(sigma->0) =     -119.21147340


--------------------------------------------------------------------------------------------------------




----------------------------------------- Iteration    1(  17)  ---------------------------------------


    POTLOK:  cpu time   14.59: real time   14.60
    SETDIJ:  cpu time    0.01: real time    0.01
     EDDAV:  cpu time   71.65: real time   71.66
       DOS:  cpu time    0.01: real time    0.01
    CHARGE:  cpu time    4.20: real time    4.21
    MIXING:  cpu time    0.01: real time    0.01
    --------------------------------------------
      LOOP:  cpu time   90.48: real time   90.50

 eigenvalue-minimisations  :  8368
 total energy-change (2. order) :-0.5201077E-03  (-0.1355754E-04)
 number of electron     107.9999995 magnetization 
 augmentation part       -9.3470271 magnetization 

 Broyden mixing:
  rms(total) = 0.24798E-03    rms(broyden)= 0.24796E-03
  rms(prec ) = 0.42545E-03
  weight for this iteration     100.00

 eigenvalues of (default mixing * dielectric matrix)
  average eigenvalue GAMMA=   1.7675
  5.5767  2.8284  2.3377  1.7764  1.7764  1.2583  1.2583  0.6276  0.7751  1.0818
  0.9569  0.9569

 Free energy of the ion-electron system (eV)
  ---------------------------------------------------
  alpha Z        PSCENC =        36.80884744
  Ewald energy   TEWEN  =     12026.08794482
  -Hartree energ DENC   =    -15158.36827804
  -exchange      EXHF   =         0.00000000
  -V(xc)+E(xc)   XCENC  =       -79.37456133
  PAW double counting   =      1167.62870976     -846.93030493
  entropy T*S    EENTRO =        -0.02195212
  eigenvalues    EBANDS =      -619.09463070
  atomic energy  EATOM  =      3354.04126044
  ---------------------------------------------------
  free energy    TOTEN  =      -119.22296465 eV

  energy without entropy =     -119.20101253  energy(sigma->0) =     -119.21198859


--------------------------------------------------------------------------------------------------------




----------------------------------------- Iteration    1(  18)  ---------------------------------------


    POTLOK:  cpu time   14.57: real time   14.57
    SETDIJ:  cpu time    0.01: real time    0.01
     EDDAV:  cpu time   67.85: real time   67.87
       DOS:  cpu time    0.01: real time    0.01
    CHARGE:  cpu time    4.18: real time    4.18
    MIXING:  cpu time    0.01: real time    0.01
    --------------------------------------------
      LOOP:  cpu time   86.64: real time   86.65

 eigenvalue-minimisations  :  7600
 total energy-change (2. order) :-0.1215965E-03  (-0.5715088E-05)
 number of electron     107.9999995 magnetization 
 augmentation part       -9.3470216 magnetization 

 Broyden mixing:
  rms(total) = 0.13999E-03    rms(broyden)= 0.13997E-03
  rms(prec ) = 0.26047E-03
  weight for this iteration     100.00

 eigenvalues of (default mixing * dielectric matrix)
  average eigenvalue GAMMA=   1.7975
  6.1849  2.9342  2.5904  2.0560  1.2704  1.2704  1.3538  1.3538  0.6276  0.7742
  0.9446  0.9446  1.0627

 Free energy of the ion-electron system (eV)
  ---------------------------------------------------
  alpha Z        PSCENC =        36.80884744
  Ewald energy   TEWEN  =     12026.08794482
  -Hartree energ DENC   =    -15158.59051237
  -exchange      EXHF   =         0.00000000
  -V(xc)+E(xc)   XCENC  =       -79.37388213
  PAW double counting   =      1167.63084149     -846.93235620
  entropy T*S    EENTRO =        -0.02194511
  eigenvalues    EBANDS =      -618.87328464
  atomic energy  EATOM  =      3354.04126044
  ---------------------------------------------------
  free energy    TOTEN  =      -119.22308624 eV

  energy without entropy =     -119.20114113  energy(sigma->0) =     -119.21211369


--------------------------------------------------------------------------------------------------------




----------------------------------------- Iteration    1(  19)  ---------------------------------------


    POTLOK:  cpu time   14.55: real time   14.55
    SETDIJ:  cpu time    0.01: real time    0.01
     EDDAV:  cpu time   61.37: real time   61.38
       DOS:  cpu time    0.01: real time    0.01
    CHARGE:  cpu time    4.11: real time    4.12
    MIXING:  cpu time    0.02: real time    0.02
    --------------------------------------------
      LOOP:  cpu time   80.08: real time   80.09

 eigenvalue-minimisations  :  6792
 total energy-change (2. order) :-0.6533029E-04  (-0.1560662E-05)
 number of electron     107.9999995 magnetization 
 augmentation part       -9.3470261 magnetization 

 Broyden mixing:
  rms(total) = 0.10109E-03    rms(broyden)= 0.10108E-03
  rms(prec ) = 0.18248E-03
  weight for this iteration     100.00

 eigenvalues of (default mixing * dielectric matrix)
  average eigenvalue GAMMA=   1.8496
  6.5813  3.0948  2.6163  2.0271  2.0271  1.4568  1.2608  1.2608  0.6276  0.7741
  0.9376  0.9376  1.1937  1.0987

 Free energy of the ion-electron system (eV)
  ---------------------------------------------------
  alpha Z        PSCENC =        36.80884744
  Ewald energy   TEWEN  =     12026.08794482
  -Hartree energ DENC   =    -15158.68872152
  -exchange      EXHF   =         0.00000000
  -V(xc)+E(xc)   XCENC  =       -79.37354785
  PAW double counting   =      1167.63354003     -846.93508212
  entropy T*S    EENTRO =        -0.02194961
  eigenvalues    EBANDS =      -618.77544322
  atomic energy  EATOM  =      3354.04126044
  ---------------------------------------------------
  free energy    TOTEN  =      -119.22315157 eV

  energy without entropy =     -119.20120197  energy(sigma->0) =     -119.21217677


--------------------------------------------------------------------------------------------------------




----------------------------------------- Iteration    1(  20)  ---------------------------------------


    POTLOK:  cpu time   14.56: real time   14.56
    SETDIJ:  cpu time    0.01: real time    0.01
     EDDAV:  cpu time   63.56: real time   63.58
       DOS:  cpu time    0.01: real time    0.01
    CHARGE:  cpu time    4.13: real time    4.13
    MIXING:  cpu time    0.02: real time    0.02
    --------------------------------------------
      LOOP:  cpu time   82.29: real time   82.31

 eigenvalue-minimisations  :  7136
 total energy-change (2. order) :-0.2811697E-04  (-0.2190171E-05)
 number of electron     107.9999995 magnetization 
 augmentation part       -9.3470234 magnetization 

 Broyden mixing:
  rms(total) = 0.65562E-04    rms(broyden)= 0.65559E-04
  rms(prec ) = 0.10843E-03
  weight for this iteration     100.00

 eigenvalues of (default mixing * dielectric matrix)
  average eigenvalue GAMMA=   1.8753
  6.8231  3.5213  2.7595  2.3901  1.8868  0.6276  1.3683  1.3683  1.2610  1.2610
  0.7740  0.9399  0.9399  1.1332  1.0754

 Free energy of the ion-electron system (eV)
  ---------------------------------------------------
  alpha Z        PSCENC =        36.80884744
  Ewald energy   TEWEN  =     12026.08794482
  -Hartree energ DENC   =    -15158.74798260
  -exchange      EXHF   =         0.00000000
  -V(xc)+E(xc)   XCENC  =       -79.37357248
  PAW double counting   =      1167.63148969     -846.93299353
  entropy T*S    EENTRO =        -0.02194556
  eigenvalues    EBANDS =      -618.71622792
  atomic energy  EATOM  =      3354.04126044
  ---------------------------------------------------
  free energy    TOTEN  =      -119.22317969 eV

  energy without entropy =     -119.20123413  energy(sigma->0) =     -119.21220691


--------------------------------------------------------------------------------------------------------




----------------------------------------- Iteration    1(  21)  ---------------------------------------


    POTLOK:  cpu time   14.57: real time   14.57
    SETDIJ:  cpu time    0.01: real time    0.01
     EDDAV:  cpu time   63.52: real time   63.53
       DOS:  cpu time    0.01: real time    0.01
    CHARGE:  cpu time    4.15: real time    4.15
    MIXING:  cpu time    0.01: real time    0.01
    --------------------------------------------
      LOOP:  cpu time   82.28: real time   82.30

 eigenvalue-minimisations  :  7128
 total energy-change (2. order) : 0.3844808E-04  (-0.2591310E-05)
 number of electron     107.9999995 magnetization 
 augmentation part       -9.3470201 magnetization 

 Broyden mixing:
  rms(total) = 0.47984E-04    rms(broyden)= 0.47981E-04
  rms(prec ) = 0.69056E-04
  weight for this iteration     100.00

 eigenvalues of (default mixing * dielectric matrix)
  average eigenvalue GAMMA=   1.9312
  7.1602  4.2533  2.8048  2.5465  1.8245  1.8245  1.3258  1.3258  1.2711  1.2711
  0.6276  0.7739  1.0241  1.0241  0.9206  0.9206

 Free energy of the ion-electron system (eV)
  ---------------------------------------------------
  alpha Z        PSCENC =        36.80884744
  Ewald energy   TEWEN  =     12026.08794482
  -Hartree energ DENC   =    -15158.78018640
  -exchange      EXHF   =         0.00000000
  -V(xc)+E(xc)   XCENC  =       -79.37359224
  PAW double counting   =      1167.62879225     -846.93023238
  entropy T*S    EENTRO =        -0.02195031
  eigenvalues    EBANDS =      -618.68402488
  atomic energy  EATOM  =      3354.04126044
  ---------------------------------------------------
  free energy    TOTEN  =      -119.22314124 eV

  energy without entropy =     -119.20119093  energy(sigma->0) =     -119.21216609


--------------------------------------------------------------------------------------------------------




----------------------------------------- Iteration    1(  22)  ---------------------------------------


    POTLOK:  cpu time   14.58: real time   14.59
    SETDIJ:  cpu time    0.01: real time    0.01
     EDDAV:  cpu time   61.29: real time   61.30
       DOS:  cpu time    0.01: real time    0.01
    CHARGE:  cpu time    4.21: real time    4.21
    MIXING:  cpu time    0.02: real time    0.02
    --------------------------------------------
      LOOP:  cpu time   80.12: real time   80.14

 eigenvalue-minimisations  :  6704
 total energy-change (2. order) : 0.4801547E-04  (-0.1769617E-05)
 number of electron     107.9999995 magnetization 
 augmentation part       -9.3470234 magnetization 

 Broyden mixing:
  rms(total) = 0.23884E-04    rms(broyden)= 0.23882E-04
  rms(prec ) = 0.34445E-04
  weight for this iteration     100.00

 eigenvalues of (default mixing * dielectric matrix)
  average eigenvalue GAMMA=   2.0592
  7.7497  6.0453  2.9755  2.6392  2.2017  1.8113  1.3117  1.3117  1.3054  1.3054
  0.6276  1.1573  0.7736  0.9368  0.9368  0.9588  0.9588

 Free energy of the ion-electron system (eV)
  ---------------------------------------------------
  alpha Z        PSCENC =        36.80884744
  Ewald energy   TEWEN  =     12026.08794482
  -Hartree energ DENC   =    -15158.78541729
  -exchange      EXHF   =         0.00000000
  -V(xc)+E(xc)   XCENC  =       -79.37370884
  PAW double counting   =      1167.62671923     -846.92812055
  entropy T*S    EENTRO =        -0.02194761
  eigenvalues    EBANDS =      -618.67867087
  atomic energy  EATOM  =      3354.04126044
  ---------------------------------------------------
  free energy    TOTEN  =      -119.22309323 eV

  energy without entropy =     -119.20114561  energy(sigma->0) =     -119.21211942


--------------------------------------------------------------------------------------------------------




----------------------------------------- Iteration    1(  23)  ---------------------------------------


    POTLOK:  cpu time   14.58: real time   14.58
    SETDIJ:  cpu time    0.01: real time    0.01
     EDDAV:  cpu time   59.50: real time   59.51
       DOS:  cpu time    0.01: real time    0.01
    CHARGE:  cpu time    4.21: real time    4.21
    MIXING:  cpu time    0.02: real time    0.02
    --------------------------------------------
      LOOP:  cpu time   78.33: real time   78.34

 eigenvalue-minimisations  :  6536
 total energy-change (2. order) : 0.6354970E-04  (-0.8171951E-06)
 number of electron     107.9999995 magnetization 
 augmentation part       -9.3470229 magnetization 

 Broyden mixing:
  rms(total) = 0.13492E-04    rms(broyden)= 0.13488E-04
  rms(prec ) = 0.16979E-04
  weight for this iteration     100.00

 eigenvalues of (default mixing * dielectric matrix)
  average eigenvalue GAMMA=   2.0858
  8.1072  6.4304  3.0307  2.6834  2.3037  1.7536  1.7536  1.3544  1.3544  1.2678
  1.2678  0.6276  0.7736  1.0245  1.0245  0.9311  0.9311  0.9255

 Free energy of the ion-electron system (eV)
  ---------------------------------------------------
  alpha Z        PSCENC =        36.80884744
  Ewald energy   TEWEN  =     12026.08794482
  -Hartree energ DENC   =    -15158.79234850
  -exchange      EXHF   =         0.00000000
  -V(xc)+E(xc)   XCENC  =       -79.37370663
  PAW double counting   =      1167.62664441     -846.92805325
  entropy T*S    EENTRO =        -0.02194821
  eigenvalues    EBANDS =      -618.67167020
  atomic energy  EATOM  =      3354.04126044
  ---------------------------------------------------
  free energy    TOTEN  =      -119.22302968 eV

  energy without entropy =     -119.20108146  energy(sigma->0) =     -119.21205557


[...]
     31      -4.2603      2.00000
     32      -3.9934      2.00000
     33      -3.7520      2.00000
     34      -3.6996      2.00000
     35      -3.4897      2.00000
     36      -3.2500      2.00000
     37      -3.2108      2.00000
     38      -3.0589      2.00000
     39      -2.9050      2.00000
     40      -2.7579      2.00000
     41      -2.6407      2.00000
     42      -2.5551      2.00000
     43      -2.5204      2.00000
     44      -2.1572      2.00000
     45      -2.0006      2.00000
     46      -1.8926      2.00000
     47      -1.7697      2.00000
     48      -1.4331      2.00000
     49      -1.3666      2.00000
     50      -1.2318      2.00000
     51      -1.0672      2.00000
     52      -0.5889      2.00000
     53      -0.4800      2.00000
     54      -0.1561      1.91587
     55       0.1874      0.00175
     56       0.9074      0.00000
     57       1.0730      0.00000
     58       1.4110      0.00000
     59       1.5515      0.00000
     60       1.6667      0.00000
     61       1.9450      0.00000
     62       2.2212      0.00000
     63       2.4223      0.00000
     64       2.6003      0.00000
     65       2.6980      0.00000
     66       2.9022      0.00000
     67       3.0383      0.00000
     68       3.1664      0.00000

 k-point    52 :       0.3077    0.5000    0.5000
  band No.  band energies     occupation 
      1     -13.9749      2.00000
      2     -12.5046      2.00000
      3     -12.3873      2.00000
      4     -12.1606      2.00000
      5     -11.7664      2.00000
      6     -11.6341      2.00000
      7     -11.3194      2.00000
      8     -11.0133      2.00000
      9     -10.8054      2.00000
     10     -10.5987      2.00000
     11     -10.3906      2.00000
     12     -10.2438      2.00000
     13      -9.3405      2.00000
     14      -8.9184      2.00000
     15      -8.2857      2.00000
     16      -7.7704      2.00000
     17      -7.5093      2.00000
     18      -7.0610      2.00000
     19      -6.9968      2.00000
     20      -6.9559      2.00000
     21      -6.4118      2.00000
     22      -6.1841      2.00000
     23      -5.9212      2.00000
     24      -5.7576      2.00000
     25      -5.3973      2.00000
     26      -5.3514      2.00000
     27      -4.8966      2.00000
     28      -4.7353      2.00000
     29      -4.4843      2.00000
     30      -4.4533      2.00000
     31      -4.3080      2.00000
     32      -4.2575      2.00000
     33      -4.0772      2.00000
     34      -3.8972      2.00000
     35      -3.6122      2.00000
     36      -3.3843      2.00000
     37      -3.2469      2.00000
     38      -3.0886      2.00000
     39      -3.0317      2.00000
     40      -2.8969      2.00000
     41      -2.7177      2.00000
     42      -2.5809      2.00000
     43      -2.5248      2.00000
     44      -2.3242      2.00000
     45      -2.2343      2.00000
     46      -1.9560      2.00000
     47      -1.8817      2.00000
     48      -1.7428      2.00000
     49      -1.5847      2.00000
     50      -1.3637      2.00000
     51      -1.2527      2.00000
     52      -0.8291      2.00000
     53      -0.6639      2.00000
     54      -0.2201      1.99151
     55      -0.0158      0.79700
     56       0.6365      0.00000
     57       0.8499      0.00000
     58       1.2878      0.00000
     59       1.3267      0.00000
     60       1.4240      0.00000
     61       1.7458      0.00000
     62       2.1525      0.00000
     63       2.2450      0.00000
     64       2.3284      0.00000
     65       2.4708      0.00000
     66       2.5517      0.00000
     67       2.7070      0.00000
     68       2.9504      0.00000

 k-point    53 :       0.3846    0.5000    0.5000
  band No.  band energies     occupation 
      1     -13.5986      2.00000
      2     -12.0286      2.00000
      3     -11.9592      2.00000
      4     -11.6637      2.00000
      5     -11.5292      2.00000
      6     -11.2412      2.00000
      7     -11.0346      2.00000
      8     -10.7686      2.00000
      9     -10.6656      2.00000
     10     -10.6137      2.00000
     11     -10.4573      2.00000
     12     -10.1318      2.00000
     13      -9.2893      2.00000
     14      -8.9029      2.00000
     15      -8.5838      2.00000
     16      -8.2460      2.00000
     17      -7.9268      2.00000
     18      -7.6108      2.00000
     19      -7.3818      2.00000
     20      -7.2824      2.00000
     21      -6.9715      2.00000
     22      -6.7164      2.00000
     23      -6.6547      2.00000
     24      -6.0808      2.00000
     25      -5.6467      2.00000
     26      -5.2944      2.00000
     27      -4.6826      2.00000
     28      -4.6329      2.00000
     29      -4.5587      2.00000
     30      -4.4476      2.00000
     31      -4.2419      2.00000
     32      -4.1233      2.00000
     33      -4.0812      2.00000
     34      -4.0222      2.00000
     35      -3.6585      2.00000
     36      -3.5277      2.00000
     37      -3.4560      2.00000
     38      -3.1871      2.00000
     39      -3.1270      2.00000
     40      -3.0172      2.00000
     41      -2.8752      2.00000
     42      -2.6286      2.00000
     43      -2.5500      2.00000
     44      -2.4273      2.00000
     45      -2.2955      2.00000
     46      -2.1369      2.00000
     47      -2.0625      2.00000
     48      -1.8656      2.00000
     49      -1.7153      2.00000
     50      -1.5490      2.00000
     51      -1.4253      2.00000
     52      -1.0612      2.00000
     53      -0.7436      2.00000
     54      -0.2508      1.99784
     55      -0.2164      1.99014
     56       0.4854      0.00000
     57       0.7694      0.00000
     58       1.1776      0.00000
     59       1.2767      0.00000
     60       1.4979      0.00000
     61       1.6725      0.00000
     62       1.8735      0.00000
     63       2.0733      0.00000
     64       2.1691      0.00000
     65       2.2327      0.00000
     66       2.3725      0.00000
     67       2.5260      0.00000
     68       2.6580      0.00000

 k-point    54 :       0.4615    0.5000    0.5000
  band No.  band energies     occupation 
      1     -13.3051      2.00000
      2     -11.7506      2.00000
      3     -11.4851      2.00000
      4     -11.2602      2.00000
      5     -11.1654      2.00000
      6     -10.9464      2.00000
      7     -10.9327      2.00000
      8     -10.8440      2.00000
      9     -10.7844      2.00000
     10     -10.7186      2.00000
     11     -10.6161      2.00000
     12     -10.0522      2.00000
     13      -9.2561      2.00000
     14      -8.7826      2.00000
     15      -8.6604      2.00000
     16      -8.4361      2.00000
     17      -8.1155      2.00000
     18      -8.0717      2.00000
     19      -7.6958      2.00000
     20      -7.5561      2.00000
     21      -7.2942      2.00000
     22      -7.2819      2.00000
     23      -7.1667      2.00000
     24      -6.1428      2.00000
     25      -5.5838      2.00000
     26      -4.9553      2.00000
     27      -4.8924      2.00000
     28      -4.6904      2.00000
     29      -4.4721      2.00000
     30      -4.2745      2.00000
     31      -4.1130      2.00000
     32      -4.0542      2.00000
     33      -3.9614      2.00000
     34      -3.9239      2.00000
     35      -3.7640      2.00000
     36      -3.6530      2.00000
     37      -3.5553      2.00000
     38      -3.3300      2.00000
     39      -3.2538      2.00000
     40      -3.1144      2.00000
     41      -3.0116      2.00000
     42      -2.7878      2.00000
     43      -2.6897      2.00000
     44      -2.4461      2.00000
     45      -2.3543      2.00000
     46      -2.1937      2.00000
     47      -2.1024      2.00000
     48      -1.8255      2.00000
     49      -1.7640      2.00000
     50      -1.6848      2.00000
     51      -1.5264      2.00000
     52      -1.1538      2.00000
     53      -0.7929      2.00000
     54      -0.3731      2.00000
     55      -0.2464      1.99734
     56       0.4198      0.00000
     57       0.7830      0.00000
     58       1.1083      0.00000
     59       1.3514      0.00000
     60       1.5198      0.00000
     61       1.6330      0.00000
     62       1.7833      0.00000
     63       1.9423      0.00000
     64       2.0665      0.00000
     65       2.2803      0.00000
     66       2.3834      0.00000
     67       2.4318      0.00000
     68       2.4749      0.00000


--------------------------------------------------------------------------------------------------------


 soft charge-density along one line, spin component           1
         0         1         2         3         4         5         6         7         8         9
 total charge-density along one line
 
 pseudopotential strength for first ion, spin component:           1
 29.775   0.008  -0.001  -0.023  -0.000  -0.000  -0.001  -0.000
  0.008   0.009  -0.000  -0.000   0.000   0.000   0.000  -0.000
 -0.001  -0.000   6.548  -0.001   0.000  -0.003   0.000  -0.000
 -0.023  -0.000  -0.001   6.543  -0.000   0.000  -0.002   0.000
 -0.000   0.000   0.000  -0.000   6.549  -0.000   0.000  -0.003
 -0.000   0.000  -0.003   0.000  -0.000   0.015  -0.000   0.000
 -0.001   0.000   0.000  -0.002   0.000  -0.000   0.015   0.000
 -0.000  -0.000  -0.000   0.000  -0.003   0.000   0.000   0.015
 total augmentation occupancy for first ion, spin component:           1
  1.815  -0.354   0.006   0.255   0.000   0.004   0.114  -0.001
 -0.354   1.290   0.023   0.859   0.000   0.003  -0.434  -0.000
  0.006   0.023   1.142   0.011   0.000  -0.503   0.014  -0.000
  0.255   0.859   0.011   1.289   0.002   0.014  -0.418  -0.001
  0.000   0.000   0.000   0.002   1.144  -0.000  -0.001  -0.527
  0.004   0.003  -0.503   0.014  -0.000   0.291  -0.015   0.000
  0.114  -0.434   0.014  -0.418  -0.001  -0.015   0.227   0.000
 -0.001  -0.000  -0.000  -0.001  -0.527   0.000   0.000   0.325


------------------------ aborting loop because EDIFF is reached ----------------------------------------


    CHARGE:  cpu time    4.23: real time    4.24
    FORLOC:  cpu time    0.05: real time    0.05
    FORNL :  cpu time   18.46: real time   18.46
    STRESS:  cpu time   55.61: real time   55.89
    FORCOR:  cpu time   14.58: real time   14.58
    FORHAR:  cpu time    0.13: real time    0.13
    MIXING:  cpu time    0.02: real time    0.02
    OFIELD:  cpu time    0.00: real time    0.00

  FORCE on cell =-STRESS in cart. coord.  units (eV):
  Direction    XX          YY          ZZ          XY          YZ          ZX
  --------------------------------------------------------------------------------------
  Alpha Z    36.80885    36.80885    36.80885
  Ewald   14477.82287 13938.30539-16390.04777    41.13384    -8.94809    -0.35790
  Hartree 14995.08356 14562.21994-14398.50766     4.52567    -4.02080     3.93686
  E(xc)    -358.47091  -358.39669  -356.73119    -0.18053    -0.36724     0.13744
  Local  -31030.11169-30058.82922 29204.36836   -39.34084    10.35235    -3.28607
  n-local  1158.87218  1169.24064  1147.46868     8.38816     4.99142    -3.81381
  augment  -202.23962  -203.25668  -204.63107     0.12018    -0.67410     0.41064
  Kinetic   932.41049   934.44095   985.20301    -7.30652     5.55701    -2.14600
  Fock        0.00000     0.00000     0.00000     0.00000     0.00000     0.00000
  -------------------------------------------------------------------------------------
  Total      10.17573    20.53318    23.93121     7.33997     6.89054    -5.11883
  in kB      16.26558    32.82165    38.25329    11.73271    11.01432    -8.18230
  external pressure =       29.11 kB  Pullay stress =        0.00 kB


 VOLUME and BASIS-vectors are now :
 -----------------------------------------------------------------------------
  energy-cutoff  :      300.00
  volume of cell :     1002.32
      direct lattice vectors                 reciprocal lattice vectors
     3.540400000  0.000000000  0.000000000     0.282453960  0.048570342  0.000000000
    -1.770200000 10.294348000  0.000000000     0.000000000  0.097140683  0.000000000
     0.000000000  0.000000000 27.501429000     0.000000000  0.000000000  0.036361747

  length of vectors
     3.540400000 10.445439617 27.501429000     0.286599577  0.097140683  0.036361747


 FORCES acting on ions
    electron-ion (+dipol)            ewald-force                    non-local-force                 convergence-correction
 -----------------------------------------------------------------------------------------------
   0.650E-01 0.101E+02 0.337E+02   0.300E-01 -.990E+01 -.291E+02   -.625E-01 -.179E+00 -.457E+01   0.232E-06 -.175E-05 -.596E-05
   -.345E-01 0.511E+01 -.546E+03   -.323E-01 -.522E+01 0.549E+03   0.439E-01 0.241E-02 -.364E+01   0.157E-06 -.308E-05 0.141E-04
   0.399E-02 0.661E+02 0.463E+02   -.952E-03 -.676E+02 -.421E+02   -.903E-03 0.152E+01 -.413E+01   -.133E-07 0.248E-05 -.530E-05
   -.826E+00 0.138E+02 -.537E+03   0.133E+01 -.154E+02 0.541E+03   -.389E+00 0.147E+01 -.380E+01   0.193E-06 0.507E-05 0.164E-05
   0.851E-03 -.576E+02 0.526E+03   0.940E-04 0.592E+02 -.530E+03   -.958E-04 -.154E+01 0.428E+01   0.429E-07 -.308E-05 -.280E-05
   -.309E+01 -.116E+03 -.701E+02   0.268E+01 0.117E+03 0.684E+02   -.170E+00 -.172E+01 0.311E+01   -.452E-06 0.221E-05 -.896E-06
   0.670E-02 0.543E+02 0.526E+03   0.224E-04 -.563E+02 -.530E+03   -.824E-03 0.191E+01 0.416E+01   -.432E-07 0.160E-05 -.449E-06
   0.112E+01 0.127E+03 -.750E+02   -.300E+00 -.130E+03 0.721E+02   -.259E+00 0.303E+01 0.332E+01   0.165E-05 -.300E-05 -.226E-05
   0.334E-03 0.172E+01 0.573E+03   -.909E-04 -.192E+01 -.577E+03   0.100E-02 0.203E+00 0.477E+01   0.631E-07 0.335E-05 -.101E-04
   0.794E+01 -.207E+02 0.189E+02   -.851E+01 0.210E+02 -.220E+02   0.102E+01 0.487E+00 0.101E+01   0.885E-06 -.420E-06 -.376E-05
   -.723E-02 -.678E+02 0.588E+02   -.396E-02 0.697E+02 -.547E+02   0.922E-02 -.194E+01 -.405E+01   -.500E-07 -.164E-05 -.755E-05
   -.157E+01 -.221E+02 -.551E+03   0.173E+01 0.240E+02 0.555E+03   0.515E+00 -.172E+01 -.284E+01   0.386E-06 -.348E-05 -.551E-06
   -.552E-03 0.316E+02 0.208E+03   0.210E-04 -.337E+02 -.208E+03   0.252E-02 0.214E+01 0.351E+00   -.202E-07 0.174E-05 0.633E-07
   0.167E+02 -.517E+02 -.304E+03   -.158E+02 0.489E+02 0.302E+03   -.419E+01 0.836E+01 0.985E+01   0.936E-07 0.356E-05 -.528E-05
   0.529E-02 -.138E+02 0.140E+03   0.195E-02 0.140E+02 -.143E+03   -.557E-02 -.236E+00 0.252E+01   0.382E-07 0.420E-07 -.570E-05
   0.840E+00 0.404E+02 -.321E+03   -.999E+00 -.388E+02 0.322E+03   -.825E+00 -.141E+01 -.359E+00   -.344E-06 -.459E-05 -.688E-06
   -.596E-02 -.552E+01 0.346E+03   0.992E-04 0.600E+01 -.344E+03   0.357E-02 -.472E+00 -.254E+01   -.171E-07 0.799E-06 -.229E-05
   -.263E+02 -.593E+02 -.901E+02   0.251E+02 0.567E+02 0.919E+02   0.759E+01 0.470E+01 -.144E+02   -.219E-06 0.541E-05 -.117E-05
   0.749E-02 0.102E+02 0.335E+03   -.386E-04 -.105E+02 -.333E+03   -.258E-02 0.229E+00 -.252E+01   0.282E-07 0.306E-05 0.462E-06
   0.223E+02 0.768E+02 -.126E+03   -.183E+02 -.732E+02 0.128E+03   -.969E+01 -.113E+02 -.831E+01   -.432E-06 -.219E-05 -.384E-05
   -.693E-01 0.131E+02 0.128E+03   -.233E-02 -.135E+02 -.131E+03   0.662E-01 0.368E+00 0.254E+01   -.604E-07 -.283E-06 -.346E-05
   -.712E+00 -.917E+01 -.294E+03   0.840E+00 0.972E+01 0.294E+03   -.244E+00 -.703E+00 0.214E+00   0.337E-07 0.513E-06 0.216E-05
   0.458E-03 -.320E+02 0.253E+03   -.138E-03 0.341E+02 -.253E+03   0.145E-02 -.210E+01 -.386E+00   -.184E-07 -.416E-05 -.334E-05
   -.107E+02 0.568E+00 -.277E+03   0.123E+02 -.419E+01 0.272E+03   0.950E+00 0.376E+01 0.137E+02   0.433E-06 0.141E-05 -.274E-05
 -----------------------------------------------------------------------------------------------
   0.565E+01 -.490E+01 0.175E+01   -.888E-14 0.160E-13 0.171E-12   -.564E+01 0.490E+01 -.175E+01   0.257E-05 0.359E-05 -.497E-04
 
 
 POSITION                                       TOTAL-FORCE (eV/Angst)
 -----------------------------------------------------------------------------------
      0.00000      2.34757      6.41229         0.032312     -0.021976      0.035051
     -0.70808      8.52418     14.16300        -0.023160     -0.107724     -0.419224
     -0.00000      9.43147      5.75866         0.001942     -0.010713      0.076835
      1.06212      5.31373     13.50937         0.117051     -0.068795      0.557168
     -0.00000      6.40009      2.31424         0.000651     -0.000895      0.001540
     -0.00000      6.40009     10.06495        -0.579977     -0.788385      1.331262
      1.77020     10.27849      2.37372         0.005702     -0.002811      0.001645
      1.77020     10.27849     10.12443         0.560866     -0.138331      0.475553
      1.77020      3.18974      1.66157         0.001049     -0.002925      0.010585
      1.77020      3.18974      9.41228         0.443341      0.817320     -2.119055
      1.77020      5.55354      5.69975        -0.002164      0.009388      0.089818
      2.83232      1.43580     13.45047         0.679850      0.118747      1.724706
      1.77020      9.05319      4.34076         0.001790     -0.006437      0.004821
     -0.70808      4.93545     12.09147        -3.325148      5.562876      7.839667
      0.00000      4.22380      5.10944         0.001469      0.017425      0.055289
      1.06212      0.10606     12.86016        -0.983575      0.190675      0.142971
     -0.00000      4.15582      2.74166        -0.002487      0.003733     -0.016913
     -0.00000      4.15582     10.49237         6.450584      2.096595    -12.578403
      1.77020      1.31366      2.96438         0.004669     -0.009522     -0.017125
      1.77020      1.31366     10.71510        -5.754177     -7.617966     -5.701282
      1.77020      1.38163      5.33187        -0.005633     -0.022739      0.015972
      1.06212      7.55823     13.08259        -0.116496     -0.154489     -0.383941
      1.77020      6.77850      3.73234         0.001569      0.001781     -0.002723
      2.83232      2.66076     11.48306         2.489970      0.135168      8.875783
 -----------------------------------------------------------------------------------
    total drift:                                0.004742     -0.000274      0.003398


--------------------------------------------------------------------------------------------------------



  FREE ENERGIE OF THE ION-ELECTRON SYSTEM (eV)
  ---------------------------------------------------
  free  energy   TOTEN  =      -119.22300168 eV

  energy  without entropy=     -119.20105342  energy(sigma->0) =     -119.21202755
 


--------------------------------------------------------------------------------------------------------


    POTLOK:  cpu time   14.55: real time   14.56


--------------------------------------------------------------------------------------------------------


     LOOP+:  cpu time 2506.54: real time 2507.37
    4ORBIT:  cpu time    0.00: real time    0.00

 total amount of memory used by VASP on root node   146493. kBytes
========================================================================

   base      :      30000. kBytes
   nonlr-proj:       3452. kBytes
   fftplans  :       9347. kBytes
   grid      :      14649. kBytes
   one-center:         36. kBytes
   wavefun   :      89009. kBytes
 
  
  
 General timing and accounting informations for this job:
 ========================================================
  
                  Total CPU time used (sec):     2522.031
                            User time (sec):     2483.057
                          System time (sec):       38.975
                         Elapsed time (sec):     2523.783
  
                   Maximum memory used (kb):      334988.
                   Average memory used (kb):           0.
  
                          Minor page faults:      8178064
                          Major page faults:           11
                 Voluntary context switches:         1519
