  24  24   0   0
  0.4176334E+02  0.3540400E-09  0.1044544E-08  0.2750143E-08  0.5000000E-15
  1.000000000000000E-004
  CAR 
 unknown system                          
      4.15468709    -15.78742208  301      0.38725175      1.00000000
    -15.787  0.0000E+00  0.0000E+00
    -15.721  0.0000E+00  0.0000E+00
    -15.654  0.0000E+00  0.0000E+00
    -15.588  0.0000E+00  0.0000E+00
    -15.522  0.0000E+00  0.0000E+00
    -15.455  0.0000E+00  0.0000E+00
    -15.389  0.0000E+00  0.0000E+00
    -15.322  0.3538E-13  0.2352E-14
    -15.256  0.3264E-10  0.2172E-11
    -15.189  0.1272E-07  0.8478E-09
    -15.123  0.2111E-05  0.1412E-06
    -15.056  0.1510E-03  0.1018E-04
    -14.990  0.4754E-02  0.3262E-03
    -14.923  0.6778E-01  0.4832E-02
    -14.857  0.4535E+00  0.3497E-01
    -14.790  0.1473E+01  0.1329E+00
    -14.724  0.2401E+01  0.2925E+00
    -14.657  0.2224E+01  0.4403E+00
    -14.591  0.1907E+01  0.5671E+00
    -14.524  0.1776E+01  0.6852E+00
    -14.458  0.1048E+01  0.7548E+00
    -14.391  0.6751E+00  0.7997E+00
    -14.325  0.1289E+01  0.8854E+00
    -14.259  0.1656E+01  0.9954E+00
    -14.192  0.9572E+00  0.1059E+01
    -14.126  0.2727E+00  0.1077E+01
    -14.059  0.2912E+00  0.1097E+01
    -13.993  0.1002E+01  0.1163E+01
    -13.926  0.1664E+01  0.1274E+01
    -13.860  0.1219E+01  0.1355E+01
    -13.793  0.4150E+00  0.1382E+01
    -13.727  0.2504E+00  0.1399E+01
    -13.660  0.9174E+00  0.1460E+01
    -13.594  0.2445E+01  0.1623E+01
    -13.527  0.3653E+01  0.1865E+01
    -13.461  0.3252E+01  0.2082E+01
    -13.394  0.2434E+01  0.2243E+01
    -13.328  0.2632E+01  0.2418E+01
    -13.261  0.4060E+01  0.2688E+01
    -13.195  0.5412E+01  0.3048E+01
    -13.128  0.5313E+01  0.3401E+01
    -13.062  0.5033E+01  0.3736E+01
    -12.996  0.4753E+01  0.4052E+01
    -12.929  0.3468E+01  0.4282E+01
    -12.863  0.2419E+01  0.4443E+01
    -12.796  0.2823E+01  0.4631E+01
    -12.730  0.3975E+01  0.4895E+01
    -12.663  0.4703E+01  0.5207E+01
    -12.597  0.5080E+01  0.5545E+01
    -12.530  0.5461E+01  0.5908E+01
    -12.464  0.6033E+01  0.6309E+01
    -12.397  0.6603E+01  0.6748E+01
    -12.331  0.5806E+01  0.7134E+01
    -12.264  0.4410E+01  0.7427E+01
    -12.198  0.4639E+01  0.7735E+01
    -12.131  0.6609E+01  0.8175E+01
    -12.065  0.8275E+01  0.8725E+01
    -11.998  0.8362E+01  0.9281E+01
    -11.932  0.7545E+01  0.9782E+01
    -11.865  0.6509E+01  0.1021E+02
    -11.799  0.6294E+01  0.1063E+02
    -11.733  0.7006E+01  0.1110E+02
    -11.666  0.7786E+01  0.1162E+02
    -11.600  0.7844E+01  0.1214E+02
    -11.533  0.7182E+01  0.1262E+02
    -11.467  0.7096E+01  0.1309E+02
    -11.400  0.8288E+01  0.1364E+02
    -11.334  0.9536E+01  0.1427E+02
    -11.267  0.9109E+01  0.1488E+02
    -11.201  0.8329E+01  0.1543E+02
    -11.134  0.9006E+01  0.1603E+02
    -11.068  0.1015E+02  0.1670E+02
    -11.001  0.1054E+02  0.1741E+02
    -10.935  0.1047E+02  0.1810E+02
    -10.868  0.1035E+02  0.1879E+02
    -10.802  0.1010E+02  0.1946E+02
    -10.735  0.1006E+02  0.2013E+02
    -10.669  0.9692E+01  0.2077E+02
    -10.602  0.7962E+01  0.2130E+02
    -10.536  0.5677E+01  0.2168E+02
    -10.470  0.3308E+01  0.2190E+02
    -10.403  0.1289E+01  0.2199E+02
    -10.337  0.7528E+00  0.2204E+02
    -10.270  0.2346E+01  0.2219E+02
    -10.204  0.5447E+01  0.2255E+02
    -10.137  0.7092E+01  0.2303E+02
    -10.071  0.5760E+01  0.2341E+02
    -10.004  0.3167E+01  0.2362E+02
     -9.938  0.1496E+01  0.2372E+02
     -9.871  0.1491E+01  0.2382E+02
     -9.805  0.1639E+01  0.2393E+02
     -9.738  0.1089E+01  0.2400E+02
     -9.672  0.1107E+01  0.2407E+02
     -9.605  0.1957E+01  0.2420E+02
     -9.539  0.2769E+01  0.2439E+02
     -9.472  0.4156E+01  0.2466E+02
     -9.406  0.6553E+01  0.2510E+02
     -9.339  0.7881E+01  0.2562E+02
     -9.273  0.6704E+01  0.2607E+02
     -9.207  0.4645E+01  0.2638E+02
     -9.140  0.3062E+01  0.2658E+02
     -9.074  0.2278E+01  0.2673E+02
     -9.007  0.2119E+01  0.2687E+02
     -8.941  0.2414E+01  0.2703E+02
     -8.874  0.3657E+01  0.2728E+02
     -8.808  0.5070E+01  0.2761E+02
     -8.741  0.5169E+01  0.2796E+02
     -8.675  0.4197E+01  0.2824E+02
     -8.608  0.3768E+01  0.2849E+02
     -8.542  0.4203E+01  0.2877E+02
     -8.475  0.4120E+01  0.2904E+02
     -8.409  0.2883E+01  0.2923E+02
     -8.342  0.1983E+01  0.2936E+02
     -8.276  0.2521E+01  0.2953E+02
     -8.209  0.3831E+01  0.2978E+02
     -8.143  0.4009E+01  0.3005E+02
     -8.076  0.2591E+01  0.3022E+02
     -8.010  0.1730E+01  0.3034E+02
     -7.944  0.2842E+01  0.3053E+02
     -7.877  0.4474E+01  0.3082E+02
     -7.811  0.4061E+01  0.3109E+02
     -7.744  0.3010E+01  0.3129E+02
     -7.678  0.3600E+01  0.3153E+02
     -7.611  0.5017E+01  0.3187E+02
     -7.545  0.6669E+01  0.3231E+02
     -7.478  0.8324E+01  0.3286E+02
     -7.412  0.8752E+01  0.3345E+02
     -7.345  0.7959E+01  0.3398E+02
     -7.279  0.7556E+01  0.3448E+02
     -7.212  0.8045E+01  0.3501E+02
     -7.146  0.8192E+01  0.3556E+02
     -7.079  0.7757E+01  0.3607E+02
     -7.013  0.8726E+01  0.3665E+02
     -6.946  0.1115E+02  0.3739E+02
     -6.880  0.1236E+02  0.3822E+02
     -6.813  0.1349E+02  0.3911E+02
     -6.747  0.1417E+02  0.4005E+02
     -6.681  0.1179E+02  0.4084E+02
     -6.614  0.8692E+01  0.4142E+02
     -6.548  0.6832E+01  0.4187E+02
     -6.481  0.5709E+01  0.4225E+02
     -6.415  0.4614E+01  0.4256E+02
     -6.348  0.3899E+01  0.4282E+02
     -6.282  0.4641E+01  0.4312E+02
     -6.215  0.5684E+01  0.4350E+02
     -6.149  0.5404E+01  0.4386E+02
     -6.082  0.4937E+01  0.4419E+02
     -6.016  0.4735E+01  0.4450E+02
     -5.949  0.4467E+01  0.4480E+02
     -5.883  0.4762E+01  0.4512E+02
     -5.816  0.5296E+01  0.4547E+02
     -5.750  0.4986E+01  0.4580E+02
     -5.683  0.4244E+01  0.4608E+02
     -5.617  0.4115E+01  0.4636E+02
     -5.550  0.4596E+01  0.4666E+02
     -5.484  0.5764E+01  0.4704E+02
     -5.418  0.7033E+01  0.4751E+02
     -5.351  0.6924E+01  0.4797E+02
     -5.285  0.6090E+01  0.4838E+02
     -5.218  0.5807E+01  0.4876E+02
     -5.152  0.6647E+01  0.4921E+02
     -5.085  0.7988E+01  0.4974E+02
     -5.019  0.8994E+01  0.5033E+02
     -4.952  0.9291E+01  0.5095E+02
     -4.886  0.8985E+01  0.5155E+02
     -4.819  0.8714E+01  0.5213E+02
     -4.753  0.8140E+01  0.5267E+02
     -4.686  0.7592E+01  0.5317E+02
     -4.620  0.8522E+01  0.5374E+02
     -4.553  0.1013E+02  0.5441E+02
     -4.487  0.1034E+02  0.5510E+02
     -4.420  0.1021E+02  0.5578E+02
     -4.354  0.1153E+02  0.5655E+02
     -4.287  0.1335E+02  0.5743E+02
     -4.221  0.1468E+02  0.5841E+02
     -4.155  0.1529E+02  0.5943E+02
     -4.088  0.1436E+02  0.6038E+02
     -4.022  0.1154E+02  0.6115E+02
     -3.955  0.8991E+01  0.6174E+02
     -3.889  0.8910E+01  0.6234E+02
     -3.822  0.1075E+02  0.6305E+02
     -3.756  0.1200E+02  0.6385E+02
     -3.689  0.1221E+02  0.6466E+02
     -3.623  0.1243E+02  0.6549E+02
     -3.556  0.1309E+02  0.6636E+02
     -3.490  0.1355E+02  0.6726E+02
     -3.423  0.1361E+02  0.6816E+02
     -3.357  0.1432E+02  0.6912E+02
     -3.290  0.1536E+02  0.7014E+02
     -3.224  0.1576E+02  0.7118E+02
     -3.157  0.1547E+02  0.7221E+02
     -3.091  0.1488E+02  0.7320E+02
     -3.024  0.1371E+02  0.7411E+02
     -2.958  0.1364E+02  0.7502E+02
     -2.892  0.1557E+02  0.7605E+02
     -2.825  0.1721E+02  0.7720E+02
     -2.759  0.1712E+02  0.7834E+02
     -2.692  0.1638E+02  0.7942E+02
     -2.626  0.1643E+02  0.8052E+02
     -2.559  0.1707E+02  0.8165E+02
     -2.493  0.1825E+02  0.8286E+02
     -2.426  0.1886E+02  0.8412E+02
     -2.360  0.1759E+02  0.8529E+02
     -2.293  0.1635E+02  0.8637E+02
     -2.227  0.1624E+02  0.8745E+02
     -2.160  0.1526E+02  0.8847E+02
     -2.094  0.1387E+02  0.8939E+02
     -2.027  0.1412E+02  0.9033E+02
     -1.961  0.1522E+02  0.9134E+02
     -1.894  0.1520E+02  0.9235E+02
     -1.828  0.1364E+02  0.9326E+02
     -1.761  0.1050E+02  0.9396E+02
     -1.695  0.8339E+01  0.9451E+02
     -1.629  0.9474E+01  0.9514E+02
     -1.562  0.1226E+02  0.9595E+02
     -1.496  0.1395E+02  0.9688E+02
     -1.429  0.1282E+02  0.9773E+02
     -1.363  0.9607E+01  0.9837E+02
     -1.296  0.7970E+01  0.9890E+02
     -1.230  0.8152E+01  0.9944E+02
     -1.163  0.8576E+01  0.1000E+03
     -1.097  0.1072E+02  0.1007E+03
     -1.030  0.1261E+02  0.1016E+03
     -0.964  0.9961E+01  0.1022E+03
     -0.897  0.5086E+01  0.1026E+03
     -0.831  0.2975E+01  0.1028E+03
     -0.764  0.3891E+01  0.1030E+03
     -0.698  0.4816E+01  0.1033E+03
     -0.631  0.4317E+01  0.1036E+03
     -0.565  0.3390E+01  0.1039E+03
     -0.498  0.2784E+01  0.1040E+03
     -0.432  0.2379E+01  0.1042E+03
     -0.366  0.2344E+01  0.1044E+03
     -0.299  0.3023E+01  0.1046E+03
     -0.233  0.3480E+01  0.1048E+03
     -0.166  0.3339E+01  0.1050E+03
     -0.100  0.3619E+01  0.1052E+03
     -0.033  0.4188E+01  0.1055E+03
      0.033  0.4505E+01  0.1058E+03
      0.100  0.4467E+01  0.1061E+03
      0.166  0.4157E+01  0.1064E+03
      0.233  0.4718E+01  0.1067E+03
      0.299  0.7039E+01  0.1072E+03
      0.366  0.9197E+01  0.1078E+03
      0.432  0.9369E+01  0.1084E+03
      0.499  0.8208E+01  0.1090E+03
      0.565  0.7062E+01  0.1094E+03
      0.632  0.6104E+01  0.1098E+03
      0.698  0.4932E+01  0.1102E+03
      0.765  0.4042E+01  0.1104E+03
      0.831  0.3879E+01  0.1107E+03
      0.897  0.3890E+01  0.1109E+03
      0.964  0.5078E+01  0.1113E+03
      1.030  0.8098E+01  0.1118E+03
      1.097  0.1146E+02  0.1126E+03
      1.163  0.1302E+02  0.1135E+03
      1.230  0.1368E+02  0.1144E+03
      1.296  0.1382E+02  0.1153E+03
      1.363  0.1250E+02  0.1161E+03
      1.429  0.1238E+02  0.1169E+03
      1.496  0.1416E+02  0.1179E+03
      1.562  0.1539E+02  0.1189E+03
      1.629  0.1529E+02  0.1199E+03
      1.695  0.1470E+02  0.1209E+03
      1.762  0.1318E+02  0.1218E+03
      1.828  0.1113E+02  0.1225E+03
      1.895  0.1009E+02  0.1232E+03
      1.961  0.1044E+02  0.1239E+03
      2.028  0.1186E+02  0.1247E+03
      2.094  0.1308E+02  0.1255E+03
      2.160  0.1346E+02  0.1264E+03
      2.227  0.1283E+02  0.1273E+03
      2.293  0.1194E+02  0.1281E+03
      2.360  0.1191E+02  0.1289E+03
      2.426  0.1214E+02  0.1297E+03
      2.493  0.1313E+02  0.1305E+03
      2.559  0.1495E+02  0.1315E+03
      2.626  0.1530E+02  0.1326E+03
      2.692  0.1313E+02  0.1334E+03
      2.759  0.1023E+02  0.1341E+03
      2.825  0.8068E+01  0.1346E+03
      2.892  0.6651E+01  0.1351E+03
      2.958  0.5265E+01  0.1354E+03
      3.025  0.3675E+01  0.1357E+03
      3.091  0.2298E+01  0.1358E+03
      3.158  0.1421E+01  0.1359E+03
      3.224  0.7728E+00  0.1360E+03
      3.291  0.2539E+00  0.1360E+03
      3.357  0.4032E-01  0.1360E+03
      3.423  0.2878E-02  0.1360E+03
      3.490  0.9010E-04  0.1360E+03
      3.556  0.1222E-05  0.1360E+03
      3.623  0.7115E-08  0.1360E+03
      3.689  0.1767E-10  0.1360E+03
      3.756  0.1869E-13  0.1360E+03
      3.822  0.0000E+00  0.1360E+03
      3.889  0.0000E+00  0.1360E+03
      3.955  0.0000E+00  0.1360E+03
      4.022  0.0000E+00  0.1360E+03
      4.088  0.0000E+00  0.1360E+03
      4.155  0.0000E+00  0.1360E+03
