unknown system                          
           1
     3.540400    0.000000    0.000000
    -1.770200   10.294348    0.000000
     0.000000    0.000000   27.501429
   P    Si
  12  12
unknown system                          
           1
     3.540400    0.000000    0.000000
    -1.770200   10.294348    0.000000
     0.000000    0.000000   27.501429
   P    Si
  12  12
Direct configuration=     1
   0.11402300  0.22804500  0.23316207
   0.91402300  0.62804500  0.51499159
   0.45808900  0.91617900  0.20939482
   0.25808900  0.31617900  0.49122434
   0.31085400  0.62170900  0.08414979
   0.31085400  0.62170900  0.36597930
   0.99923000  0.99846000  0.08631254
   0.99923000  0.99846000  0.36814206
   0.65492700  0.30985400  0.06041748
   0.65492700  0.30985400  0.34224700
   0.76973800  0.53947500  0.20725292
   0.56973800  0.93947500  0.48908244
   0.93971600  0.87943300  0.15783749
   0.73971600  0.27943300  0.43966701
   0.20515200  0.41030300  0.18578822
   0.00515200  0.81030300  0.46761774
   0.20184900  0.40369900  0.09969156
   0.20184900  0.40369900  0.38152107
   0.56380500  0.12761000  0.10779021
   0.56380500  0.12761000  0.38961973
   0.56710600  0.13421200  0.19387616
   0.36710600  0.53421200  0.47570568
   0.82923400  0.65846800  0.13571444
   0.62923400  0.05846800  0.41754396
