   24   24    1    1
  0.4176334E+02  0.3540400E-09  0.1044544E-08  0.2750143E-08  0.5000000E-15
  1.000000000000000E-004
  CAR 
 unknown system                          
    108     54     68
 
  0.0000000E+00  0.0000000E+00  0.0000000E+00  0.9615385E-02
    1      -14.986562
    2      -13.482602
    3      -13.127016
    4      -12.925513
    5      -12.745601
    6      -12.420398
    7      -12.030243
    8      -11.759066
    9      -11.412952
   10      -11.373664
   11      -10.935916
   12      -10.560620
   13       -8.879010
   14       -8.634145
   15       -7.971554
   16       -7.769148
   17       -6.782573
   18       -6.726848
   19       -6.435197
   20       -6.043679
   21       -5.769447
   22       -5.429729
   23       -4.950728
   24       -4.769552
   25       -4.602516
   26       -4.108561
   27       -3.657658
   28       -3.552608
   29       -3.255999
   30       -3.086975
   31       -3.015632
   32       -2.996112
   33       -2.937372
   34       -2.790323
   35       -2.425057
   36       -2.395846
   37       -2.329159
   38       -2.322529
   39       -2.228661
   40       -2.166158
   41       -1.936172
   42       -1.816590
   43       -1.676508
   44       -1.639834
   45       -1.583385
   46       -1.529792
   47       -1.489514
   48       -1.375422
   49       -1.213286
   50       -1.105808
   51       -0.946514
   52       -0.870971
   53       -0.399406
   54        0.154254
   55        0.481965
   56        0.641176
   57        1.100168
   58        1.200316
   59        1.372953
   60        1.426240
   61        1.764166
   62        1.828417
   63        1.909685
   64        2.008413
   65        2.067217
   66        2.187406
   67        2.357554
   68        2.481571
 
  0.7692308E-01 -0.1387779E-16  0.0000000E+00  0.1923077E-01
    1      -14.934760
    2      -13.421241
    3      -13.075285
    4      -12.860928
    5      -12.693457
    6      -12.364796
    7      -11.967988
    8      -11.717397
    9      -11.355453
   10      -11.324214
   11      -10.887492
   12      -10.528440
   13       -8.848924
   14       -8.620987
   15       -8.009419
   16       -7.731317
   17       -6.759565
   18       -6.717332
   19       -6.429373
   20       -6.017930
   21       -5.735974
   22       -5.459103
   23       -4.965444
   24       -4.820189
   25       -4.680391
   26       -4.383853
   27       -3.700934
   28       -3.620251
   29       -3.563355
   30       -3.366840
   31       -3.210239
   32       -3.123355
   33       -3.078851
   34       -2.986326
   35       -2.812841
   36       -2.673443
   37       -2.552042
   38       -2.429968
   39       -2.329944
   40       -2.176614
   41       -2.119363
   42       -1.956704
   43       -1.909837
   44       -1.861094
   45       -1.755461
   46       -1.713217
   47       -1.509785
   48       -1.458777
   49       -1.188522
   50       -1.070530
   51       -0.911584
   52       -0.602039
   53       -0.355920
   54        0.057952
   55        0.479283
   56        0.778696
   57        1.074848
   58        1.513631
   59        1.656794
   60        1.809377
   61        1.895686
   62        2.049293
   63        2.172451
   64        2.242449
   65        2.267554
   66        2.336504
   67        2.528057
   68        2.665971
 
  0.1538462E+00 -0.2775558E-16  0.0000000E+00  0.1923077E-01
    1      -14.782543
    2      -13.238228
    3      -12.918828
    4      -12.672589
    5      -12.537745
    6      -12.200028
    7      -11.785539
    8      -11.593799
    9      -11.194468
   10      -11.177335
   11      -10.748539
   12      -10.441054
   13       -8.768554
   14       -8.601249
   15       -8.107222
   16       -7.688855
   17       -6.778131
   18       -6.660357
   19       -6.441324
   20       -6.056757
   21       -5.846231
   22       -5.660144
   23       -5.119718
   24       -4.975178
   25       -4.814978
   26       -4.556189
   27       -4.222907
   28       -4.137819
   29       -4.023283
   30       -3.913149
   31       -3.691314
   32       -3.595319
   33       -3.463132
   34       -3.278601
   35       -3.126389
   36       -3.038726
   37       -2.934103
   38       -2.905512
   39       -2.799968
   40       -2.628843
   41       -2.336895
   42       -2.252358
   43       -2.118980
   44       -2.041479
   45       -1.835395
   46       -1.750181
   47       -1.595735
   48       -1.558581
   49       -1.255583
   50       -1.127293
   51       -0.943622
   52       -0.593907
   53       -0.421247
   54       -0.167703
   55        0.451521
   56        0.950349
   57        1.199069
   58        1.702358
   59        1.889676
   60        2.050948
   61        2.268229
   62        2.321521
   63        2.489402
   64        2.675867
   65        2.718998
   66        2.868748
   67        2.970677
   68        3.040068
 
  0.2307692E+00 -0.4163336E-16  0.0000000E+00  0.1923077E-01
    1      -14.541173
    2      -12.937140
    3      -12.657602
    4      -12.375324
    5      -12.281554
    6      -11.933343
    7      -11.498234
    8      -11.397706
    9      -10.970843
   10      -10.937598
   11      -10.545154
   12      -10.330156
   13       -8.683971
   14       -8.623957
   15       -8.299470
   16       -7.763617
   17       -6.998624
   18       -6.743633
   19       -6.634412
   20       -6.573444
   21       -6.030071
   22       -5.682666
   23       -5.409455
   24       -5.280291
   25       -5.059962
   26       -4.976398
   27       -4.750682
   28       -4.549064
   29       -4.454465
   30       -4.366838
   31       -4.140607
   32       -4.001919
   33       -3.886122
   34       -3.733618
   35       -3.664979
   36       -3.410949
   37       -3.094169
   38       -2.988554
   39       -2.935342
   40       -2.740070
   41       -2.539005
   42       -2.481096
   43       -2.386289
   44       -2.050366
   45       -1.874887
   46       -1.824383
   47       -1.748101
   48       -1.647609
   49       -1.427284
   50       -1.396299
   51       -1.066013
   52       -0.810448
   53       -0.741550
   54       -0.282942
   55        0.336271
   56        0.754014
   57        1.201841
   58        1.615720
   59        1.909324
   60        2.039584
   61        2.209646
   62        2.302269
   63        2.427872
   64        2.627433
   65        2.725524
   66        2.817686
   67        2.946441
   68        3.021927
 
  0.3076923E+00 -0.5551115E-16  0.0000000E+00  0.1923077E-01
    1      -14.235902
    2      -12.525281
    3      -12.298677
    4      -11.997846
    5      -11.933394
    6      -11.581666
    7      -11.174222
    8      -11.132063
    9      -10.726160
   10      -10.675043
   11      -10.358655
   12      -10.253534
   13       -8.787868
   14       -8.620060
   15       -8.587633
   16       -8.025542
   17       -7.567659
   18       -7.232990
   19       -6.935532
   20       -6.842018
   21       -6.456929
   22       -6.109834
   23       -5.903666
   24       -5.865671
   25       -5.473939
   26       -5.154616
   27       -4.905941
   28       -4.728638
   29       -4.642700
   30       -4.458915
   31       -4.257436
   32       -4.197665
   33       -4.156770
   34       -3.897759
   35       -3.788752
   36       -3.435084
   37       -3.331423
   38       -3.102870
   39       -3.022779
   40       -2.873994
   41       -2.682794
   42       -2.537780
   43       -2.488039
   44       -2.295527
   45       -2.032585
   46       -1.943290
   47       -1.837916
   48       -1.793829
   49       -1.699762
   50       -1.652767
   51       -1.303958
   52       -1.036957
   53       -0.751189
   54       -0.274654
   55        0.112894
   56        0.531392
   57        0.908407
   58        1.406828
   59        1.646947
   60        1.820661
   61        1.997045
   62        2.087176
   63        2.265148
   64        2.360780
   65        2.436402
   66        2.707620
   67        2.789984
   68        2.877002
 
  0.3846154E+00 -0.8326673E-16  0.0000000E+00  0.1923077E-01
    1      -13.920334
    2      -12.016860
    3      -11.863807
    4      -11.609479
    5      -11.514536
    6      -11.184179
    7      -11.011281
    8      -10.792299
    9      -10.571552
   10      -10.507010
   11      -10.397604
   12      -10.247331
   13       -8.976937
   14       -8.773712
   15       -8.595121
   16       -8.318666
   17       -8.100683
   18       -7.597548
   19       -7.401431
   20       -7.354445
   21       -7.006462
   22       -6.706693
   23       -6.602068
   24       -6.317665
   25       -5.615195
   26       -5.155045
   27       -4.749629
   28       -4.597129
   29       -4.488911
   30       -4.456658
   31       -4.198261
   32       -4.174945
   33       -4.080267
   34       -4.005445
   35       -3.744081
   36       -3.598975
   37       -3.510881
   38       -3.217199
   39       -3.188321
   40       -3.092700
   41       -2.751418
   42       -2.672973
   43       -2.487021
   44       -2.407822
   45       -2.262789
   46       -2.149419
   47       -1.991895
   48       -1.965190
   49       -1.862964
   50       -1.770046
   51       -1.421913
   52       -1.241557
   53       -0.686397
   54       -0.245565
   55       -0.070994
   56        0.376317
   57        0.576431
   58        1.236340
   59        1.467096
   60        1.726819
   61        1.771019
   62        1.904930
   63        2.112473
   64        2.178952
   65        2.323079
   66        2.385725
   67        2.582053
   68        2.749022
 
  0.4615385E+00 -0.8326673E-16  0.0000000E+00  0.1923077E-01
    1      -13.699151
    2      -11.444669
    3      -11.427076
    4      -11.356094
    5      -11.092780
    6      -11.071242
    7      -10.881990
    8      -10.786717
    9      -10.673639
   10      -10.576306
   11      -10.478666
   12      -10.241597
   13       -9.155340
   14       -8.633903
   15       -8.553215
   16       -8.381657
   17       -8.256389
   18       -8.021189
   19       -7.819876
   20       -7.571940
   21       -7.508813
   22       -7.226709
   23       -7.126925
   24       -6.497281
   25       -5.494247
   26       -4.890271
   27       -4.850611
   28       -4.612460
   29       -4.444176
   30       -4.264179
   31       -4.121955
   32       -4.035657
   33       -3.971477
   34       -3.874249
   35       -3.775750
   36       -3.580659
   37       -3.522168
   38       -3.467764
   39       -3.332989
   40       -3.200895
   41       -2.968120
   42       -2.942608
   43       -2.643177
   44       -2.452346
   45       -2.313208
   46       -2.179445
   47       -2.108469
   48       -1.994236
   49       -1.923767
   50       -1.695727
   51       -1.534163
   52       -1.393294
   53       -0.662482
   54       -0.348879
   55       -0.017461
   56        0.177044
   57        0.509046
   58        1.195566
   59        1.424849
   60        1.565980
   61        1.673067
   62        1.777218
   63        1.909738
   64        2.045824
   65        2.172692
   66        2.450435
   67        2.512011
   68        2.591377
 
  0.0000000E+00  0.2500000E+00  0.0000000E+00  0.1923077E-01
    1      -14.983766
    2      -13.426857
    3      -13.254166
    4      -12.919493
    5      -12.712626
    6      -12.418467
    7      -11.979269
    8      -11.815563
    9      -11.421363
   10      -11.277492
   11      -10.944193
   12      -10.502527
   13       -9.067848
   14       -8.546540
   15       -8.456146
   16       -7.321089
   17       -6.771906
   18       -6.613499
   19       -6.544211
   20       -5.947973
   21       -5.693653
   22       -5.431166
   23       -4.960674
   24       -4.612321
   25       -4.418755
   26       -4.110394
   27       -3.956720
   28       -3.590324
   29       -3.382375
   30       -3.210791
   31       -3.069430
   32       -3.062455
   33       -2.952264
   34       -2.654192
   35       -2.604298
   36       -2.413153
   37       -2.329291
   38       -2.303527
   39       -2.146066
   40       -2.086087
   41       -2.004791
   42       -1.851973
   43       -1.827869
   44       -1.695764
   45       -1.569378
   46       -1.543109
   47       -1.360731
   48       -1.307064
   49       -1.230909
   50       -1.068117
   51       -0.926098
   52       -0.861451
   53       -0.322407
   54        0.124207
   55        0.496661
   56        0.752107
   57        1.111993
   58        1.236361
   59        1.385465
   60        1.452365
   61        1.699812
   62        1.784676
   63        1.863892
   64        1.914547
   65        2.241490
   66        2.311316
   67        2.388895
   68        2.580415
 
  0.7692308E-01  0.2500000E+00  0.0000000E+00  0.1923077E-01
    1      -14.931474
    2      -13.349851
    3      -13.214005
    4      -12.900503
    5      -12.611788
    6      -12.361174
    7      -11.975956
    8      -11.716147
    9      -11.379919
   10      -11.207794
   11      -10.899749
   12      -10.455920
   13       -9.062700
   14       -8.533865
   15       -8.511596
   16       -7.272479
   17       -6.764755
   18       -6.621663
   19       -6.473522
   20       -5.899685
   21       -5.646568
   22       -5.480695
   23       -4.986155
   24       -4.660436
   25       -4.611248
   26       -4.294935
   27       -4.016736
   28       -3.688627
   29       -3.560282
   30       -3.378151
   31       -3.333281
   32       -3.196188
   33       -3.087877
   34       -2.977373
   35       -2.956410
   36       -2.637209
   37       -2.458044
   38       -2.423503
   39       -2.324482
   40       -2.246581
   41       -2.136026
   42       -2.030776
   43       -1.979540
   44       -1.873052
   45       -1.763020
   46       -1.694129
   47       -1.557610
   48       -1.298786
   49       -1.209415
   50       -1.008992
   51       -0.848847
   52       -0.657016
   53       -0.298094
   54        0.109990
   55        0.376524
   56        0.944462
   57        1.070723
   58        1.561011
   59        1.697659
   60        1.794250
   61        1.877925
   62        1.976904
   63        2.007926
   64        2.194931
   65        2.273860
   66        2.576152
   67        2.692845
   68        2.734892
 
  0.1538462E+00  0.2500000E+00  0.0000000E+00  0.1923077E-01
    1      -14.779160
    2      -13.153106
    3      -13.055116
    4      -12.764167
    5      -12.404296
    6      -12.194597
    7      -11.869885
    8      -11.518266
    9      -11.240398
   10      -11.052380
   11      -10.758349
   12      -10.358470
   13       -8.987282
   14       -8.582776
   15       -8.511454
   16       -7.243233
   17       -6.787232
   18       -6.598985
   19       -6.441808
   20       -5.960550
   21       -5.838741
   22       -5.597114
   23       -5.126260
   24       -4.945973
   25       -4.788472
   26       -4.538490
   27       -4.321962
   28       -4.229158
   29       -4.034675
   30       -3.914042
   31       -3.788943
   32       -3.565773
   33       -3.536628
   34       -3.246481
   35       -3.096411
   36       -2.987836
   37       -2.906022
   38       -2.839702
   39       -2.698617
   40       -2.551508
   41       -2.518633
   42       -2.476886
   43       -2.266144
   44       -2.005219
   45       -1.865574
   46       -1.774113
   47       -1.580712
   48       -1.428440
   49       -1.222247
   50       -1.063476
   51       -0.898904
   52       -0.637591
   53       -0.415712
   54       -0.108390
   55        0.297316
   56        0.911401
   57        1.246012
   58        1.632354
   59        1.828050
   60        1.971057
   61        2.160592
   62        2.298194
   63        2.429522
   64        2.745337
   65        2.798103
   66        2.913292
   67        3.014843
   68        3.129809
 
  0.2307692E+00  0.2500000E+00  0.0000000E+00  0.1923077E-01
    1      -14.538146
    2      -12.841518
    3      -12.781726
    4      -12.513025
    5      -12.104191
    6      -11.926738
    7      -11.669420
    8      -11.241571
    9      -11.018556
   10      -10.840534
   11      -10.540841
   12      -10.242544
   13       -8.871171
   14       -8.713303
   15       -8.545542
   16       -7.332860
   17       -7.029275
   18       -6.702509
   19       -6.636007
   20       -6.584747
   21       -5.983162
   22       -5.768045
   23       -5.341597
   24       -5.194436
   25       -5.138359
   26       -4.987820
   27       -4.847550
   28       -4.606533
   29       -4.536240
   30       -4.487877
   31       -4.130428
   32       -3.960780
   33       -3.709926
   34       -3.622031
   35       -3.529995
   36       -3.219245
   37       -3.154971
   38       -3.036214
   39       -2.923506
   40       -2.720021
   41       -2.600674
   42       -2.518590
   43       -2.469138
   44       -2.043777
   45       -1.915616
   46       -1.858641
   47       -1.746380
   48       -1.708019
   49       -1.352060
   50       -1.309327
   51       -1.067950
   52       -0.825071
   53       -0.791955
   54       -0.285082
   55        0.210962
   56        0.576537
   57        1.249674
   58        1.467147
   59        1.604825
   60        1.734728
   61        2.116926
   62        2.263542
   63        2.488855
   64        2.636742
   65        2.740089
   66        2.840548
   67        3.085400
   68        3.141788
 
  0.3076923E+00  0.2500000E+00  0.0000000E+00  0.1923077E-01
    1      -14.233616
    2      -12.425006
    3      -12.403759
    4      -12.154274
    5      -11.744856
    6      -11.575875
    7      -11.401934
    8      -10.927793
    9      -10.754944
   10      -10.640185
   11      -10.334944
   12      -10.167636
   13       -8.913647
   14       -8.802274
   15       -8.634377
   16       -7.649389
   17       -7.631987
   18       -7.185441
   19       -7.055658
   20       -6.900882
   21       -6.471222
   22       -6.137742
   23       -5.859066
   24       -5.821615
   25       -5.482602
   26       -5.325160
   27       -4.886318
   28       -4.859064
   29       -4.716941
   30       -4.365961
   31       -4.266710
   32       -4.174718
   33       -3.958282
   34       -3.868951
   35       -3.674500
   36       -3.303616
   37       -3.270581
   38       -2.958665
   39       -2.933288
   40       -2.813901
   41       -2.691122
   42       -2.618459
   43       -2.436050
   44       -2.331750
   45       -2.223260
   46       -1.963343
   47       -1.896030
   48       -1.829286
   49       -1.706346
   50       -1.635996
   51       -1.325537
   52       -1.112093
   53       -0.743961
   54       -0.306774
   55        0.076337
   56        0.331468
   57        0.822631
   58        1.254700
   59        1.321049
   60        1.506718
   61        2.008983
   62        2.131179
   63        2.221519
   64        2.398951
   65        2.503282
   66        2.662184
   67        2.728771
   68        2.972914
 
  0.3846154E+00  0.2500000E+00  0.0000000E+00  0.1923077E-01
    1      -13.919100
    2      -11.947067
    3      -11.919666
    4      -11.704595
    5      -11.415242
    6      -11.185855
    7      -11.151856
    8      -10.669876
    9      -10.546672
   10      -10.524047
   11      -10.410614
   12      -10.187968
   13       -8.952561
   14       -8.903678
   15       -8.604142
   16       -8.123072
   17       -8.050397
   18       -7.723816
   19       -7.558335
   20       -7.295499
   21       -7.100023
   22       -6.637146
   23       -6.606383
   24       -6.302500
   25       -5.584989
   26       -5.288303
   27       -4.759696
   28       -4.721330
   29       -4.615674
   30       -4.398059
   31       -4.266740
   32       -4.063047
   33       -4.043027
   34       -3.802954
   35       -3.650655
   36       -3.344611
   37       -3.295648
   38       -3.224234
   39       -3.075647
   40       -3.033723
   41       -2.884076
   42       -2.740661
   43       -2.596834
   44       -2.418863
   45       -2.254610
   46       -2.163574
   47       -2.040110
   48       -2.004031
   49       -1.905022
   50       -1.784653
   51       -1.474212
   52       -1.319432
   53       -0.676714
   54       -0.316788
   55       -0.048391
   56        0.276954
   57        0.486022
   58        1.189662
   59        1.316919
   60        1.396207
   61        1.810079
   62        1.897012
   63        1.987813
   64        2.128546
   65        2.265176
   66        2.420429
   67        2.662087
   68        2.712197
 
  0.4615385E+00  0.2500000E+00  0.0000000E+00  0.1923077E-01
    1      -13.698776
    2      -11.476727
    3      -11.370709
    4      -11.290731
    5      -11.209889
    6      -11.097847
    7      -10.895632
    8      -10.806320
    9      -10.645007
   10      -10.521617
   11      -10.437885
   12      -10.273591
   13       -9.158809
   14       -8.564662
   15       -8.497312
   16       -8.344367
   17       -8.270036
   18       -8.184126
   19       -7.852871
   20       -7.616642
   21       -7.456401
   22       -7.254934
   23       -7.087491
   24       -6.479911
   25       -5.502544
   26       -4.965965
   27       -4.878162
   28       -4.653338
   29       -4.422189
   30       -4.255265
   31       -4.103524
   32       -4.044352
   33       -3.995020
   34       -3.872969
   35       -3.608516
   36       -3.518799
   37       -3.446924
   38       -3.393890
   39       -3.282472
   40       -3.203318
   41       -2.965079
   42       -2.933023
   43       -2.619269
   44       -2.553568
   45       -2.482640
   46       -2.205243
   47       -2.096820
   48       -2.040297
   49       -1.920031
   50       -1.684953
   51       -1.534951
   52       -1.390611
   53       -0.680720
   54       -0.324812
   55       -0.070105
   56        0.156606
   57        0.550021
   58        1.169572
   59        1.475470
   60        1.549652
   61        1.580190
   62        1.633268
   63        1.838064
   64        2.073349
   65        2.191604
   66        2.364196
   67        2.498090
   68        2.540813
 
 -0.4615385E+00  0.2500000E+00  0.0000000E+00  0.1923077E-01
    1      -13.699219
    2      -11.477476
    3      -11.452578
    4      -11.332694
    5      -11.050505
    6      -11.016404
    7      -10.868572
    8      -10.752425
    9      -10.698113
   10      -10.645944
   11      -10.533331
   12      -10.205833
   13       -9.136998
   14       -8.701842
   15       -8.543902
   16       -8.375057
   17       -8.327915
   18       -7.887535
   19       -7.845344
   20       -7.548788
   21       -7.495181
   22       -7.224217
   23       -7.163384
   24       -6.453991
   25       -5.563112
   26       -4.901745
   27       -4.676761
   28       -4.569520
   29       -4.520795
   30       -4.320597
   31       -4.158733
   32       -3.992590
   33       -3.941793
   34       -3.870118
   35       -3.827037
   36       -3.624864
   37       -3.581672
   38       -3.473307
   39       -3.301440
   40       -3.253914
   41       -2.975951
   42       -2.781113
   43       -2.673607
   44       -2.610332
   45       -2.356536
   46       -2.222007
   47       -2.099831
   48       -2.046335
   49       -1.837539
   50       -1.659314
   51       -1.485108
   52       -1.321120
   53       -0.683408
   54       -0.290133
   55       -0.060707
   56        0.209256
   57        0.609999
   58        1.143866
   59        1.410391
   60        1.528092
   61        1.720690
   62        1.816104
   63        1.850197
   64        2.277937
   65        2.325030
   66        2.407287
   67        2.435022
   68        2.608814
 
 -0.3846154E+00  0.2500000E+00  0.0000000E+00  0.1923077E-01
    1      -13.920640
    2      -12.043548
    3      -11.831234
    4      -11.661708
    5      -11.430286
    6      -11.181294
    7      -10.966915
    8      -10.872052
    9      -10.574886
   10      -10.540017
   11      -10.393091
   12      -10.235873
   13       -9.005398
   14       -8.685661
   15       -8.607405
   16       -8.430719
   17       -8.015020
   18       -7.665372
   19       -7.380428
   20       -7.271129
   21       -7.001246
   22       -6.756992
   23       -6.605230
   24       -6.234122
   25       -5.716373
   26       -4.995345
   27       -4.805199
   28       -4.727585
   29       -4.371978
   30       -4.322432
   31       -4.245231
   32       -4.203431
   33       -4.079528
   34       -4.005342
   35       -3.735543
   36       -3.659256
   37       -3.529294
   38       -3.347971
   39       -3.293215
   40       -3.105021
   41       -2.783119
   42       -2.681788
   43       -2.504245
   44       -2.469225
   45       -2.211594
   46       -2.143666
   47       -1.995989
   48       -1.889181
   49       -1.794318
   50       -1.743934
   51       -1.408316
   52       -1.199313
   53       -0.674252
   54       -0.196926
   55       -0.113197
   56        0.460278
   57        0.628645
   58        1.228585
   59        1.434626
   60        1.708830
   61        1.829364
   62        1.954508
   63        2.178937
   64        2.324768
   65        2.437533
   66        2.520609
   67        2.603773
   68        2.678640
 
 -0.3076923E+00  0.2500000E+00  0.0000000E+00  0.1923077E-01
    1      -14.236101
    2      -12.537639
    3      -12.281551
    4      -12.027181
    5      -11.891962
    6      -11.581016
    7      -11.186748
    8      -11.138695
    9      -10.717888
   10      -10.666301
   11      -10.364854
   12      -10.286295
   13       -8.851939
   14       -8.526595
   15       -8.490638
   16       -8.127495
   17       -7.583697
   18       -7.211836
   19       -6.940206
   20       -6.813603
   21       -6.516075
   22       -6.103102
   23       -5.912577
   24       -5.766357
   25       -5.574082
   26       -5.093497
   27       -4.893726
   28       -4.810463
   29       -4.587747
   30       -4.358028
   31       -4.265257
   32       -4.217156
   33       -4.160071
   34       -3.906767
   35       -3.755111
   36       -3.502419
   37       -3.395269
   38       -3.186989
   39       -3.026514
   40       -2.883232
   41       -2.714516
   42       -2.558624
   43       -2.506895
   44       -2.254971
   45       -1.972688
   46       -1.882335
   47       -1.828070
   48       -1.797037
   49       -1.673775
   50       -1.631594
   51       -1.328101
   52       -1.086166
   53       -0.742126
   54       -0.242584
   55        0.102480
   56        0.585238
   57        0.901851
   58        1.432916
   59        1.679982
   60        1.908856
   61        2.013056
   62        2.041746
   63        2.308863
   64        2.434831
   65        2.562558
   66        2.708613
   67        2.792684
   68        2.888676
 
 -0.2307692E+00  0.2500000E+00  0.0000000E+00  0.1923077E-01
    1      -14.540841
    2      -12.932869
    3      -12.676740
    4      -12.347925
    5      -12.296126
    6      -11.933305
    7      -11.481933
    8      -11.417500
    9      -10.973564
   10      -10.917973
   11      -10.543731
   12      -10.337048
   13       -8.787152
   14       -8.511722
   15       -8.339066
   16       -7.721668
   17       -7.039952
   18       -6.713321
   19       -6.626562
   20       -6.577841
   21       -6.047497
   22       -5.685468
   23       -5.369389
   24       -5.275581
   25       -5.100359
   26       -4.999984
   27       -4.772433
   28       -4.541144
   29       -4.459157
   30       -4.318097
   31       -4.137238
   32       -3.961912
   33       -3.866597
   34       -3.713868
   35       -3.671143
   36       -3.392543
   37       -3.207682
   38       -2.982011
   39       -2.932525
   40       -2.757827
   41       -2.567668
   42       -2.530204
   43       -2.383171
   44       -1.954519
   45       -1.857688
   46       -1.811631
   47       -1.751999
   48       -1.650768
   49       -1.419748
   50       -1.334471
   51       -1.081421
   52       -0.859374
   53       -0.771202
   54       -0.279105
   55        0.310204
   56        0.780883
   57        1.145250
   58        1.638991
   59        1.889076
   60        2.028783
   61        2.214774
   62        2.290600
   63        2.433300
   64        2.677596
   65        2.757057
   66        2.888511
   67        2.972083
   68        3.008343
 
 -0.1538462E+00  0.2500000E+00  0.0000000E+00  0.1923077E-01
    1      -14.781378
    2      -13.216603
    3      -12.980096
    4      -12.611582
    5      -12.577745
    6      -12.199886
    7      -11.705432
    8      -11.674201
    9      -11.205363
   10      -11.127266
   11      -10.746329
   12      -10.422660
   13       -8.879160
   14       -8.523032
   15       -8.319175
   16       -7.475008
   17       -6.795956
   18       -6.610402
   19       -6.494269
   20       -6.077324
   21       -5.741202
   22       -5.637404
   23       -5.176177
   24       -4.963982
   25       -4.794162
   26       -4.549906
   27       -4.232496
   28       -4.151928
   29       -4.096586
   30       -3.866173
   31       -3.689496
   32       -3.602676
   33       -3.456253
   34       -3.281601
   35       -3.145410
   36       -3.019198
   37       -2.960996
   38       -2.860548
   39       -2.826185
   40       -2.657105
   41       -2.453021
   42       -2.263124
   43       -2.130862
   44       -1.970645
   45       -1.827592
   46       -1.718975
   47       -1.636164
   48       -1.533429
   49       -1.218988
   50       -1.084867
   51       -0.915142
   52       -0.584125
   53       -0.406792
   54       -0.235775
   55        0.380368
   56        1.048854
   57        1.092577
   58        1.669004
   59        1.893918
   60        1.984233
   61        2.245813
   62        2.299837
   63        2.517747
   64        2.728667
   65        2.803185
   66        2.843181
   67        2.984500
   68        3.136582
 
 -0.7692308E-01  0.2500000E+00  0.0000000E+00  0.1923077E-01
    1      -14.932718
    2      -13.382282
    3      -13.175183
    4      -12.821871
    5      -12.701371