 running on    8 total cores
 distrk:  each k-point on    8 cores,    1 groups
 distr:  one band on    2 cores,    4 groups
 using from now: INCAR     
 vasp.5.3.5 31Mar14 (build Oct 29 2014 16:16:03) complex                        
  
 POSCAR found type information on POSCAR  P  Si
 POSCAR found :  2 types and      24 ions
 scaLAPACK will be used

 ----------------------------------------------------------------------------- 
|                                                                             |
|  ADVICE TO THIS USER RUNNING 'VASP/VAMP'   (HEAR YOUR MASTER'S VOICE ...):  |
|                                                                             |
|      You have switched on vdW-DFT.                                          |
|      This routine was written and supplied by Jiri Klimes.                  |
|      We recommed that you carefully read and cite the following             |
|      publication                                                            |
|      J. Klimes, D.R. Bowler, A. Michelides                                  |
|        J. Phys.: Cond Matt. 22 022201 (2010)                                |
|      J. Klimes, D.R. Bowler, A. Michelides                                  |
|        Phys. Rev. B. 83, 195131 (2011)                                      |
|      and references therein.                                                |
|                                                                             |
 ----------------------------------------------------------------------------- 


 ----------------------------------------------------------------------------- 
|                                                                             |
|  ADVICE TO THIS USER RUNNING 'VASP/VAMP'   (HEAR YOUR MASTER'S VOICE ...):  |
|                                                                             |
|      You enforced a specific xc-type in the INCAR file,                     |
|      a different type was found on the POTCAR file                          |
|          I HOPE YOU KNOW, WHAT YOU ARE  DOING                               |
|                                                                             |
 ----------------------------------------------------------------------------- 

 LDA part: xc-table for Pade appr. of Perdew


 VERY BAD NEWS! internal error in subroutine IBZKPT:
 Reciprocal lattice and k-lattice belong to different class of lattices. Often results are still useful...      96


 VERY BAD NEWS! internal error in subroutine IBZKPT:
 Reciprocal lattice and k-lattice belong to different class of lattices. Often results are still useful...      96


 VERY BAD NEWS! internal error in subroutine IBZKPT:
 Reciprocal lattice and k-lattice belong to different class of lattices. Often results are still useful...      96


 VERY BAD NEWS! internal error in subroutine IBZKPT:
 Reciprocal lattice and k-lattice belong to different class of lattices. Often results are still useful...      96


 VERY BAD NEWS! internal error in subroutine IBZKPT:
 Reciprocal lattice and k-lattice belong to different class of lattices. Often results are still useful...      96


 VERY BAD NEWS! internal error in subroutine IBZKPT:
 Reciprocal lattice and k-lattice belong to different class of lattices. Often results are still useful...      96


 VERY BAD NEWS! internal error in subroutine IBZKPT:
 Reciprocal lattice and k-lattice belong to different class of lattices. Often results are still useful...      96


 VERY BAD NEWS! internal error in subroutine IBZKPT:
 Reciprocal lattice and k-lattice belong to different class of lattices. Often results are still useful...      96
 POSCAR, INCAR and KPOINTS ok, starting setup
 WARNING: small aliasing (wrap around) errors must be expected
 FFT: planning ...
 WAVECAR not read
 entering main loop
       N       E                     dE             d eps       ncg     rms          rms(c)
Total vdW correction in eV:     15.8971013
DAV:   1     0.503156824078E+03    0.50316E+03   -0.28737E+04  7376   0.790E+02
DAV:   2    -0.612329990556E+02   -0.56439E+03   -0.54993E+03  9800   0.190E+02
DAV:   3    -0.117931882630E+03   -0.56699E+02   -0.55886E+02  8804   0.625E+01
DAV:   4    -0.120521973449E+03   -0.25901E+01   -0.25726E+01 11088   0.142E+01
DAV:   5    -0.120581362008E+03   -0.59389E-01   -0.59310E-01 10072   0.210E+00    0.116E+01
Total vdW correction in eV:     16.2576281
DAV:   6    -0.116607472961E+03    0.39739E+01   -0.16023E+01  8912   0.107E+01    0.589E+00
Total vdW correction in eV:     16.5799436
DAV:   7    -0.116503160876E+03    0.10431E+00   -0.82298E+00  8808   0.685E+00    0.315E+00
Total vdW correction in eV:     16.8259355
DAV:   8    -0.116494319909E+03    0.88410E-02   -0.11911E+00  8744   0.307E+00    0.127E+00
Total vdW correction in eV:     16.9279949
DAV:   9    -0.116485766830E+03    0.85531E-02   -0.25583E-01  9328   0.165E+00    0.597E-01
Total vdW correction in eV:     16.9629377
DAV:  10    -0.116474778706E+03    0.10988E-01   -0.10797E-01  9064   0.969E-01    0.266E-01
Total vdW correction in eV:     16.9841361
DAV:  11    -0.116467509719E+03    0.72690E-02   -0.19083E-02  8968   0.392E-01    0.124E-01
Total vdW correction in eV:     16.9945203
DAV:  12    -0.116462420064E+03    0.50897E-02   -0.38400E-03  9032   0.180E-01    0.569E-02
Total vdW correction in eV:     17.0005858
DAV:  13    -0.116456836616E+03    0.55834E-02   -0.75849E-04  8936   0.818E-02    0.240E-02
Total vdW correction in eV:     17.0047168
DAV:  14    -0.116454933195E+03    0.19034E-02   -0.15449E-04  9600   0.355E-02    0.145E-02
Total vdW correction in eV:     17.0083872
DAV:  15    -0.116454006580E+03    0.92662E-03   -0.66947E-05  8792   0.222E-02    0.884E-03
Total vdW correction in eV:     17.0112598
DAV:  16    -0.116453890621E+03    0.11596E-03   -0.56506E-05  8224   0.189E-02    0.544E-03
Total vdW correction in eV:     17.0127905
DAV:  17    -0.116454404839E+03   -0.51422E-03   -0.16121E-04  8312   0.241E-02    0.302E-03
Total vdW correction in eV:     17.0127996
DAV:  18    -0.116454648375E+03   -0.24354E-03   -0.92461E-05  7664   0.158E-02    0.172E-03
Total vdW correction in eV:     17.0125347
DAV:  19    -0.116454709998E+03   -0.61622E-04   -0.17290E-05  7184   0.951E-03    0.110E-03
Total vdW correction in eV:     17.0123321
DAV:  20    -0.116454763199E+03   -0.53201E-04   -0.12165E-05  6896   0.740E-03    0.740E-04
Total vdW correction in eV:     17.0121701
DAV:  21    -0.116454757335E+03    0.58633E-05   -0.33452E-05  7264   0.112E-02    0.513E-04
Total vdW correction in eV:     17.0120799
DAV:  22    -0.116454705421E+03    0.51914E-04   -0.16763E-05  6624   0.114E-02    0.286E-04
Total vdW correction in eV:     17.0120739
DAV:  23    -0.116454629891E+03    0.75530E-04   -0.76163E-06  6448   0.846E-03    0.126E-04
Total vdW correction in eV:     17.0120716
DAV:  24    -0.116454625331E+03    0.45600E-05   -0.74314E-06  6688   0.843E-03    0.657E-05
Total vdW correction in eV:     17.0120736
DAV:  25    -0.116454611793E+03    0.13538E-04   -0.53885E-06  7000   0.780E-03    0.394E-05
Total vdW correction in eV:     17.0120748
DAV:  26    -0.116454615263E+03   -0.34705E-05   -0.38233E-06  6016   0.664E-03    0.221E-05
Total vdW correction in eV:     17.0120732
DAV:  27    -0.116454611654E+03    0.36092E-05   -0.16191E-06  5704   0.510E-03    0.123E-05
Total vdW correction in eV:     17.0120734
DAV:  28    -0.116454612272E+03   -0.61766E-06   -0.13258E-06  6044   0.434E-03
Total vdW correction in eV:     17.0120725
Total vdW correction in eV:     17.0120732
   1 F= -.11645461E+03 E0= -.11644378E+03  d E =-.216693E-01
