 vasp.5.3.5 31Mar14 (build Oct 29 2014 16:16:03) complex                        
  
 executed on          Linux-UFHPC date 2016.02.09  18:26:10
 running on    8 total cores
 distrk:  each k-point on    8 cores,    1 groups
 distr:  one band on NCORES_PER_BAND=   2 cores,    4 groups


--------------------------------------------------------------------------------------------------------


 INCAR:
 POTCAR:    PAW_PBE P 17Jan2003                   
 POTCAR:   PAW_PBE Si 05Jan2001                   

 ----------------------------------------------------------------------------- 
|                                                                             |
|  ADVICE TO THIS USER RUNNING 'VASP/VAMP'   (HEAR YOUR MASTER'S VOICE ...):  |
|                                                                             |
|      You have switched on vdW-DFT.                                          |
|      This routine was written and supplied by Jiri Klimes.                  |
|      We recommed that you carefully read and cite the following             |
|      publication                                                            |
|      J. Klimes, D.R. Bowler, A. Michelides                                  |
|        J. Phys.: Cond Matt. 22 022201 (2010)                                |
|      J. Klimes, D.R. Bowler, A. Michelides                                  |
|        Phys. Rev. B. 83, 195131 (2011)                                      |
|      and references therein.                                                |
|                                                                             |
 ----------------------------------------------------------------------------- 

 POTCAR:    PAW_PBE P 17Jan2003                   
   VRHFIN =P : s2p3                                                             
   LEXCH  = PE                                                                  
   EATOM  =   176.0430 eV,   12.9388 Ry                                         
                                                                                
   TITEL  = PAW_PBE P 17Jan2003                                                 
   LULTRA =        F    use ultrasoft PP ?                                      
   IUNSCR =        1    unscreen: 0-lin 1-nonlin 2-no                           
   RPACOR =    1.500    partial core radius                                     
   POMASS =   30.974; ZVAL   =    5.000    mass and valenz                      
   RCORE  =    1.900    outmost cutoff radius                                   
   RWIGS  =    2.330; RWIGS  =    1.233    wigner-seitz radius (au A)           
   ENMAX  =  270.000; ENMIN  =  191.280 eV                                      
   ICORE  =        2    local potential                                         
   LCOR   =        T    correct aug charges                                     
   LPAW   =        T    paw PP                                                  
   EAUG   =  342.924                                                            
   DEXC   =    -.002                                                            
   RMAX   =    2.887    core radius for proj-oper                               
   RAUG   =    1.300    factor for augmentation sphere                          
   RDEP   =    1.931    radius for radial grids                                 
   QCUT   =   -4.330; QGAM   =    8.659    optimization parameters              
                                                                                
   Description                                                                  
     l     E      TYP  RCUT    TYP  RCUT                                        
     0   .000     23  1.900                                                     
     0   .000     23  1.900                                                     
     1   .000     23  1.900                                                     
     1   .000     23  1.900                                                     
     2   .000     23  1.900                                                     
  local pseudopotential read in
  partial core-charges read in
  atomic valenz-charges read in
  non local Contribution for L=           0  read in
    real space projection operators read in
  non local Contribution for L=           0  read in
    real space projection operators read in
  non local Contribution for L=           1  read in
    real space projection operators read in
  non local Contribution for L=           1  read in
    real space projection operators read in
    PAW grid and wavefunctions read in
 
   number of l-projection  operators is LMAX  =           4
   number of lm-projection operators is LMMAX =           8
 
 POTCAR:   PAW_PBE Si 05Jan2001                   
   VRHFIN =Si: s2p2                                                             
   LEXCH  = PE                                                                  
   EATOM  =   103.0669 eV,    7.5752 Ry                                         
                                                                                
   TITEL  = PAW_PBE Si 05Jan2001                                                
   LULTRA =        F    use ultrasoft PP ?                                      
   IUNSCR =        1    unscreen: 0-lin 1-nonlin 2-no                           
   RPACOR =    1.500    partial core radius                                     
   POMASS =   28.085; ZVAL   =    4.000    mass and valenz                      
   RCORE  =    1.900    outmost cutoff radius                                   
   RWIGS  =    2.480; RWIGS  =    1.312    wigner-seitz radius (au A)           
   ENMAX  =  245.345; ENMIN  =  184.009 eV                                      
   ICORE  =        2    local potential                                         
   LCOR   =        T    correct aug charges                                     
   LPAW   =        T    paw PP                                                  
   EAUG   =  322.069                                                            
   DEXC   =    -.007                                                            
   RMAX   =    2.944    core radius for proj-oper                               
   RAUG   =    1.300    factor for augmentation sphere                          
   RDEP   =    1.993    radius for radial grids                                 
   QCUT   =   -4.246; QGAM   =    8.493    optimization parameters              
                                                                                
   Description                                                                  
     l     E      TYP  RCUT    TYP  RCUT                                        
     0   .000     23  1.900                                                     
     0   .000     23  1.900                                                     
     1   .000     23  1.900                                                     
     1   .000     23  1.900                                                     
     2   .000      7  1.900                                                     
  local pseudopotential read in
  partial core-charges read in
  atomic valenz-charges read in
  non local Contribution for L=           0  read in
    real space projection operators read in
  non local Contribution for L=           0  read in
    real space projection operators read in
  non local Contribution for L=           1  read in
    real space projection operators read in
  non local Contribution for L=           1  read in
    real space projection operators read in
    PAW grid and wavefunctions read in
 
   number of l-projection  operators is LMAX  =           4
   number of lm-projection operators is LMMAX =           8
 
 Optimization of the real space projectors (new method)

 maximal supplied QI-value         = 19.84
 optimisation between [QCUT,QGAM] = [  8.73, 17.66] = [ 21.34, 87.33] Ry 
 Optimized for a Real-space Cutoff    1.50 Angstroem

   l    n(q)    QCUT    max X(q) W(low)/X(q) W(high)/X(q)  e(spline) 
   0      8     8.731     6.651    0.16E-04    0.15E-04    0.77E-08
   0      8     8.731    90.285    0.16E-03    0.90E-04    0.16E-06
   1      7     8.731     4.328    0.47E-04    0.36E-04    0.45E-07
   1      7     8.731    54.583    0.13E-03    0.39E-03    0.20E-06
 Optimization of the real space projectors (new method)

 maximal supplied QI-value         = 19.84
 optimisation between [QCUT,QGAM] = [  8.73, 17.66] = [ 21.34, 87.33] Ry 
 Optimized for a Real-space Cutoff    1.46 Angstroem

   l    n(q)    QCUT    max X(q) W(low)/X(q) W(high)/X(q)  e(spline) 
   0      8     8.731     8.708    0.16E-04    0.11E-04    0.68E-08
   0      8     8.731   106.241    0.24E-03    0.77E-04    0.13E-06
   1      7     8.731     5.901    0.34E-04    0.38E-04    0.36E-07
   1      7     8.731    73.241    0.12E-03    0.39E-03    0.15E-06

 ----------------------------------------------------------------------------- 
|                                                                             |
|  ADVICE TO THIS USER RUNNING 'VASP/VAMP'   (HEAR YOUR MASTER'S VOICE ...):  |
|                                                                             |
|      You enforced a specific xc-type in the INCAR file,                     |
|      a different type was found on the POTCAR file                          |
|          I HOPE YOU KNOW, WHAT YOU ARE  DOING                               |
|                                                                             |
 ----------------------------------------------------------------------------- 

  PAW_PBE P 17Jan2003                   :
 energy of atom  1       EATOM= -176.0430
 kinetic energy error for atom=    0.0040 (will be added to EATOM!!)
 PAW_PBE Si 05Jan2001                   :
 energy of atom  2       EATOM= -103.0669
 kinetic energy error for atom=    0.0021 (will be added to EATOM!!)
 
 
 POSCAR: Si12                                    
  positions in direct lattice
  No initial velocities read in
 exchange correlation table for  LEXCH =       42
   RHO(1)=    0.500       N(1)  =     2000
   RHO(2)=  100.500       N(2)  =     4000
 


--------------------------------------------------------------------------------------------------------


 ion  position               nearest neighbor table
   1  0.114  0.228  0.233-  15 2.28  21 2.29  21 2.29
   2  0.814  0.828  0.515-  16 2.28  22 2.29  22 2.29
   3  0.458  0.916  0.209-  21 2.28  13 2.30  13 2.30
   4  0.158  0.516  0.491-  22 2.28  14 2.30  14 2.30
   5  0.311  0.622  0.084-  17 2.28  23 2.30  23 2.30
   6  0.311  0.622  0.366-  18 2.28  14 2.87
   7  0.999  0.998  0.086-  19 2.29  19 2.29  13 2.32
   8  0.999  0.998  0.368-  20 2.29  20 2.29  16 2.76
   9  0.655  0.310  0.060-  19 2.28  17 2.29  17 2.29
  10  0.655  0.310  0.342-  24 2.17  20 2.28  18 2.29  18 2.29
  11  0.770  0.539  0.207-  15 2.29  15 2.29  23 2.32
  12  0.470  0.139  0.489-  16 2.29  16 2.29  24 2.32  20 2.76
  13  0.940  0.879  0.158-   3 2.30   3 2.30   7 2.32  23 2.35
  14  0.640  0.479  0.440-  18 2.27   4 2.30   4 2.30  24 2.35  18 2.77   6 2.87
  15  0.205  0.410  0.186-   1 2.28  11 2.29  11 2.29  17 2.37
  16  0.905  0.010  0.468-   2 2.28  12 2.29  12 2.29   8 2.76  20 2.84
  17  0.202  0.404  0.100-   5 2.28   9 2.29   9 2.29  15 2.37
  18  0.202  0.404  0.382-  14 2.27   6 2.28  24 2.29  10 2.29  10 2.29  14 2.77  24 2.78
  19  0.564  0.128  0.108-   9 2.28   7 2.29   7 2.29  21 2.37
  20  0.564  0.128  0.390-  24 1.59  10 2.28   8 2.29   8 2.29  12 2.76  16 2.84
  21  0.567  0.134  0.194-   3 2.28   1 2.29   1 2.29  19 2.37
  22  0.267  0.734  0.476-   4 2.28   2 2.29   2 2.29
  23  0.829  0.658  0.136-   5 2.30   5 2.30  11 2.32  13 2.35
  24  0.529  0.258  0.418-  20 1.59  10 2.17  18 2.29  12 2.32  14 2.35  18 2.78
 
  LATTYP: Found a base centered orthorhombic cell.
 ALAT       =     3.5404000000
 B/A-ratio  =     5.8153587165
 C/A-ratio  =     7.7678875268
  
  Lattice vectors:
  
 A1 = (   1.7702000000,  10.2943480000,   0.0000000000)
 A2 = (   1.7702000000, -10.2943480000,   0.0000000000)
 A3 = (   0.0000000000,   0.0000000000, -27.5014290000)


Analysis of symmetry for initial positions (statically):
=====================================================================
 Subroutine PRICEL returns:
 Original cell was already a primitive cell.
 

 Routine SETGRP: Setting up the symmetry group for a 
 base centered orthorhombic supercell.


 Subroutine GETGRP returns: Found  1 space group operations
 (whereof  1 operations were pure point group operations)
 out of a pool of  8 trial point group operations.


The static configuration has the point symmetry C_1 .


Analysis of symmetry for dynamics (positions and initial velocities):
=====================================================================
 Subroutine PRICEL returns:
 Original cell was already a primitive cell.
 

 Routine SETGRP: Setting up the symmetry group for a 
 base centered orthorhombic supercell.


 Subroutine GETGRP returns: Found  1 space group operations
 (whereof  1 operations were pure point group operations)
 out of a pool of  8 trial point group operations.


The dynamic configuration has the point symmetry C_1 .
 
 
 KPOINTS: pymatgen generated KPOINTS with grid den

Automatic generation of k-mesh.
Space group operators:
 irot       det(A)        alpha          n_x          n_y          n_z        tau_x        tau_y        tau_z
    1     1.000000     0.000000     1.000000     0.000000     0.000000     0.000000     0.000000     0.000000
 
 Subroutine IBZKPT returns following result:
 ===========================================
 
 Found     54 irreducible k-points:
 
 Following reciprocal coordinates:
            Coordinates               Weight
  0.000000  0.000000  0.000000      1.000000
  0.076923 -0.000000  0.000000      2.000000
  0.153846 -0.000000  0.000000      2.000000
  0.230769 -0.000000  0.000000      2.000000
  0.307692 -0.000000  0.000000      2.000000
  0.384615 -0.000000  0.000000      2.000000
  0.461538 -0.000000  0.000000      2.000000
  0.000000  0.250000  0.000000      2.000000
  0.076923  0.250000  0.000000      2.000000
  0.153846  0.250000  0.000000      2.000000
  0.230769  0.250000  0.000000      2.000000
  0.307692  0.250000  0.000000      2.000000
  0.384615  0.250000  0.000000      2.000000
  0.461538  0.250000  0.000000      2.000000
 -0.461538  0.250000  0.000000      2.000000
 -0.384615  0.250000  0.000000      2.000000
 -0.307692  0.250000  0.000000      2.000000
 -0.230769  0.250000  0.000000      2.000000
 -0.153846  0.250000  0.000000      2.000000
 -0.076923  0.250000  0.000000      2.000000
  0.000000  0.500000  0.000000      1.000000
  0.076923  0.500000  0.000000      2.000000
  0.153846  0.500000  0.000000      2.000000
  0.230769  0.500000  0.000000      2.000000
  0.307692  0.500000  0.000000      2.000000
  0.384615  0.500000  0.000000      2.000000
  0.461538  0.500000  0.000000      2.000000
  0.000000  0.000000  0.500000      1.000000
  0.076923 -0.000000  0.500000      2.000000
  0.153846 -0.000000  0.500000      2.000000
  0.230769 -0.000000  0.500000      2.000000
  0.307692 -0.000000  0.500000      2.000000
  0.384615 -0.000000  0.500000      2.000000
  0.461538 -0.000000  0.500000      2.000000
  0.000000  0.250000  0.500000      2.000000
  0.076923  0.250000  0.500000      2.000000
  0.153846  0.250000  0.500000      2.000000
  0.230769  0.250000  0.500000      2.000000
  0.307692  0.250000  0.500000      2.000000
  0.384615  0.250000  0.500000      2.000000
  0.461538  0.250000  0.500000      2.000000
 -0.461538  0.250000  0.500000      2.000000
 -0.384615  0.250000  0.500000      2.000000
 -0.307692  0.250000  0.500000      2.000000
 -0.230769  0.250000  0.500000      2.000000
 -0.153846  0.250000  0.500000      2.000000
 -0.076923  0.250000  0.500000      2.000000
  0.000000  0.500000  0.500000      1.000000
  0.076923  0.500000  0.500000      2.000000
  0.153846  0.500000  0.500000      2.000000
  0.230769  0.500000  0.500000      2.000000
  0.307692  0.500000  0.500000      2.000000
  0.384615  0.500000  0.500000      2.000000
  0.461538  0.500000  0.500000      2.000000
 
 Following cartesian coordinates:
            Coordinates               Weight
  0.000000  0.000000  0.000000      1.000000
  0.021727  0.003736  0.000000      2.000000
  0.043454  0.007472  0.000000      2.000000
  0.065182  0.011209  0.000000      2.000000
  0.086909  0.014945  0.000000      2.000000
  0.108636  0.018681  0.000000      2.000000
  0.130363  0.022417  0.000000      2.000000
  0.000000  0.024285  0.000000      2.000000
  0.021727  0.028021  0.000000      2.000000
  0.043454  0.031758  0.000000      2.000000
  0.065182  0.035494  0.000000      2.000000
  0.086909  0.039230  0.000000      2.000000
  0.108636  0.042966  0.000000      2.000000
  0.130363  0.046702  0.000000      2.000000
 -0.130363  0.001868  0.000000      2.000000
 -0.108636  0.005604  0.000000      2.000000
 -0.086909  0.009340  0.000000      2.000000
 -0.065182  0.013077  0.000000      2.000000
 -0.043454  0.016813  0.000000      2.000000
 -0.021727  0.020549  0.000000      2.000000
  0.000000  0.048570  0.000000      1.000000
  0.021727  0.052307  0.000000      2.000000
  0.043454  0.056043  0.000000      2.000000
  0.065182  0.059779  0.000000      2.000000
  0.086909  0.063515  0.000000      2.000000
  0.108636  0.067251  0.000000      2.000000
  0.130363  0.070987  0.000000      2.000000
  0.000000  0.000000  0.018181      1.000000
  0.021727  0.003736  0.018181      2.000000
  0.043454  0.007472  0.018181      2.000000
  0.065182  0.011209  0.018181      2.000000
  0.086909  0.014945  0.018181      2.000000
  0.108636  0.018681  0.018181      2.000000
  0.130363  0.022417  0.018181      2.000000
  0.000000  0.024285  0.018181      2.000000
  0.021727  0.028021  0.018181      2.000000
  0.043454  0.031758  0.018181      2.000000
  0.065182  0.035494  0.018181      2.000000
  0.086909  0.039230  0.018181      2.000000
  0.108636  0.042966  0.018181      2.000000
  0.130363  0.046702  0.018181      2.000000
 -0.130363  0.001868  0.018181      2.000000
 -0.108636  0.005604  0.018181      2.000000
 -0.086909  0.009340  0.018181      2.000000
 -0.065182  0.013077  0.018181      2.000000
 -0.043454  0.016813  0.018181      2.000000
 -0.021727  0.020549  0.018181      2.000000
  0.000000  0.048570  0.018181      1.000000
  0.021727  0.052307  0.018181      2.000000
  0.043454  0.056043  0.018181      2.000000
  0.065182  0.059779  0.018181      2.000000
  0.086909  0.063515  0.018181      2.000000
  0.108636  0.067251  0.018181      2.000000
  0.130363  0.070987  0.018181      2.000000
 


--------------------------------------------------------------------------------------------------------




 Dimension of arrays:
   k-points           NKPTS =     54   k-points in BZ     NKDIM =     54   number of bands    NBANDS=     68
   number of dos      NEDOS =    301   number of ions     NIONS =     24
   non local maximal  LDIM  =      4   non local SUM 2l+1 LMDIM =      8
   total plane-waves  NPLWV = 192000
   max r-space proj   IRMAX =   2772   max aug-charges    IRDMAX=   6603
   dimension x,y,z NGX =    20 NGY =   60 NGZ =  160
   dimension x,y,z NGXF=    40 NGYF=  120 NGZF=  320
   support grid    NGXF=    40 NGYF=  120 NGZF=  320
   ions per type =              12  12
 NGX,Y,Z   is equivalent  to a cutoff of   9.39,  9.55,  9.67 a.u.
 NGXF,Y,Z  is equivalent  to a cutoff of  18.78, 19.10, 19.34 a.u.


 I would recommend the setting:
   dimension x,y,z NGX =    20 NGY =   59 NGZ =  155
 SYSTEM =  unknown system                          
 POSCAR =  Si12                                    

 Startparameter for this run:
   NWRITE =      2    write-flag & timer
   PREC   = accura    normal or accurate (medium, high low for compatibility)
   ISTART =      0    job   : 0-new  1-cont  2-samecut
   ICHARG =      2    charge: 1-file 2-atom 10-const
   ISPIN  =      1    spin polarized calculation?
   LNONCOLLINEAR =      F non collinear calculations
   LSORBIT =      F    spin-orbit coupling
   INIWAV =      1    electr: 0-lowe 1-rand  2-diag
   LASPH  =      F    aspherical Exc in radial PAW
   METAGGA=      F    non-selfconsistent MetaGGA calc.

 Electronic Relaxation 1
   ENCUT  =  300.0 eV  22.05 Ry    4.70 a.u.   5.00 14.75 38.84*2*pi/ulx,y,z
   ENINI  =  300.0     initial cutoff
   ENAUG  =  342.9 eV  augmentation charge cutoff
   NELM   =     60;   NELMIN=  2; NELMDL= -5     # of ELM steps 
   EDIFF  = 0.1E-05   stopping-criterion for ELM
   LREAL  =      T    real-space projection
   NLSPLINE    = F    spline interpolate recip. space projectors
   LCOMPAT=      F    compatible to vasp.4.4
   GGA_COMPAT  = T    GGA compatible to vasp.4.4-vasp.4.6
   LMAXPAW     = -100 max onsite density
   LMAXMIX     =    2 max onsite mixed and CHGCAR
   VOSKOWN=      0    Vosko Wilk Nusair interpolation
   ROPT   =   -0.00025  -0.00025
 Ionic relaxation
   EDIFFG = 0.1E-04   stopping-criterion for IOM
   NSW    =      0    number of steps for IOM
   NBLOCK =      1;   KBLOCK =      1    inner block; outer block 
   IBRION =     -1    ionic relax: 0-MD 1-quasi-New 2-CG
   NFREE  =      1    steps in history (QN), initial steepest desc. (CG)
   ISIF   =      3    stress and relaxation
   IWAVPR =     10    prediction:  0-non 1-charg 2-wave 3-comb
   ISYM   =      2    0-nonsym 1-usesym 2-fastsym
   LCORR  =      T    Harris-Foulkes like correction to forces

   POTIM  = 0.5000    time-step for ionic-motion
   TEIN   =    0.0    initial temperature
   TEBEG  =    0.0;   TEEND  =   0.0 temperature during run
   SMASS  =  -3.00    Nose mass-parameter (am)
   estimated Nose-frequenzy (Omega)   =  0.10E-29 period in steps =****** mass=  -0.286E-27a.u.
   SCALEE = 1.0000    scale energy and forces
   NPACO  =    256;   APACO  = 16.0  distance and # of slots for P.C.
   PSTRESS=    0.0 pullay stress

  Mass of Ions in am
   POMASS =  30.97 28.09
  Ionic Valenz
   ZVAL   =   5.00  4.00
  Atomic Wigner-Seitz radii
   RWIGS  =  -1.00 -1.00
  virtual crystal weights 
   VCA    =   1.00  1.00
   NELECT =     108.0000    total number of electrons
   NUPDOWN=      -1.0000    fix difference up-down

 DOS related values:
   EMIN   =  10.00;   EMAX   =-10.00  energy-range for DOS
   EFERMI =   0.00
   ISMEAR =     0;   SIGMA  =   0.10  broadening in eV -4-tet -1-fermi 0-gaus

 Electronic relaxation 2 (details)
   IALGO  =     38    algorithm
   LDIAG  =      T    sub-space diagonalisation (order eigenvalues)
   LSUBROT=      F    optimize rotation matrix (better conditioning)
   TURBO    =      0    0=normal 1=particle mesh
   IRESTART =      0    0=no restart 2=restart with 2 vectors
   NREBOOT  =      0    no. of reboots
   NMIN     =      0    reboot dimension
   EREF     =   0.00    reference energy to select bands
   IMIX   =      4    mixing-type and parameters
     AMIX     =   0.40;   BMIX     =  1.00
     AMIX_MAG =   1.60;   BMIX_MAG =  1.00
     AMIN     =   0.10
     WC   =   100.;   INIMIX=   1;  MIXPRE=   1;  MAXMIX= -45

 Intra band minimization:
   WEIMIN = 0.0000     energy-eigenvalue tresh-hold
   EBREAK =  0.37E-08  absolut break condition
   DEPER  =   0.30     relativ break condition  

   TIME   =   0.40     timestep for ELM

  volume/ion in A,a.u.               =      41.76       281.83
  Fermi-wavevector in a.u.,A,eV,Ry     =   0.779018  1.472130  8.256946  0.606868
  Thomas-Fermi vector in A             =   1.882034
 
 Write flags
   LWAVE  =      F    write WAVECAR
   LCHARG =      F    write CHGCAR
   LVTOT  =      F    write LOCPOT, total local potential
   LVHAR  =      F    write LOCPOT, Hartree potential only
   LELF   =      F    write electronic localiz. function (ELF)
   LORBIT =      0    0 simple, 1 ext, 2 COOP (PROOUT)


 Dipole corrections
   LMONO  =      F    monopole corrections only (constant potential shift)
   LDIPOL =      F    correct potential (dipole corrections)
   IDIPOL =      0    1-x, 2-y, 3-z, 4-all directions 
   EPSILON=  1.0000000 bulk dielectric constant

 Exchange correlation treatment:
   GGA     =    BO    GGA type
   LEXCH   =    42    internal setting for exchange type
   VOSKOWN=      0    Vosko Wilk Nusair interpolation
   LHFCALC =     F    Hartree Fock is set to
   LHFONE  =     F    Hartree Fock one center treatment
   AEXX    =    0.0000 exact exchange contribution

 vdW DFT:
   LUSE_VDW   =     T    switch on vdW DFT
   Zab_VDW    =-.8491    correlation parameter
   PARAM1     =0.1833
   PARAM2     =0.2200
   PARAM3     =0.0000

 Linear response parameters
   LEPSILON=     F    determine dielectric tensor
   LRPA    =     F    only Hartree local field effects (RPA)
   LNABLA  =     F    use nabla operator in PAW spheres
   LVEL    =     F    velocity operator in full k-point grid
   LINTERFAST=   F  fast interpolation
   KINTER  =     0    interpolate to denser k-point grid
   CSHIFT  =0.1000    complex shift for real part using Kramers Kronig
   OMEGAMAX=  -1.0    maximum frequency
   DEG_THRESHOLD= 0.2000000E-02 threshold for treating states as degnerate
   RTIME   =    0.100 relaxation time in fs

 Orbital magnetization related:
   ORBITALMAG=     F  switch on orbital magnetization
   LCHIMAG   =     F  perturbation theory with respect to B field
   DQ        =  0.001000  dq finite difference perturbation B field



--------------------------------------------------------------------------------------------------------


 Static calculation
 charge density and potential will be updated during run
 non-spin polarized calculation
 Variant of blocked Davidson
 Davidson routine will perform the subspace rotation
 perform sub-space diagonalisation
    after iterative eigenvector-optimisation
 modified Broyden-mixing scheme, WC =      100.0
 initial mixing is a Kerker type mixing with AMIX =  0.4000 and BMIX =      1.0000
 Hartree-type preconditioning will be used
 using additional bands           14
 real space projection scheme for non local part
 use partial core corrections
 calculate Harris-corrections to forces 
   (improved forces if not selfconsistent)
 use gradient corrections 
 use of overlap-Matrix (Vanderbilt PP)
 Gauss-broadening in eV      SIGMA  =   0.10


--------------------------------------------------------------------------------------------------------


  energy-cutoff  :      300.00
  volume of cell :     1002.32
      direct lattice vectors                 reciprocal lattice vectors
     3.540400000  0.000000000  0.000000000     0.282453960  0.048570342  0.000000000
    -1.770200000 10.294348000  0.000000000     0.000000000  0.097140683  0.000000000
     0.000000000  0.000000000 27.501429000     0.000000000  0.000000000  0.036361747

  length of vectors
     3.540400000 10.445439617 27.501429000     0.286599577  0.097140683  0.036361747


 
 k-points in units of 2pi/SCALE and weight: pymatgen generated KPOINTS with grid den
   0.00000000  0.00000000  0.00000000       0.010
   0.02172723  0.00373618  0.00000000       0.019
   0.04345446  0.00747236  0.00000000       0.019
   0.06518168  0.01120854  0.00000000       0.019
   0.08690891  0.01494472  0.00000000       0.019
   0.10863614  0.01868090  0.00000000       0.019
   0.13036337  0.02241708  0.00000000       0.019
   0.00000000  0.02428517  0.00000000       0.019
   0.02172723  0.02802135  0.00000000       0.019
   0.04345446  0.03175753  0.00000000       0.019
   0.06518168  0.03549371  0.00000000       0.019
   0.08690891  0.03922989  0.00000000       0.019
   0.10863614  0.04296607  0.00000000       0.019
   0.13036337  0.04670225  0.00000000       0.019
  -0.13036337  0.00186809  0.00000000       0.019
  -0.10863614  0.00560427  0.00000000       0.019
  -0.08690891  0.00934045  0.00000000       0.019
  -0.06518168  0.01307663  0.00000000       0.019
  -0.04345446  0.01681281  0.00000000       0.019
  -0.02172723  0.02054899  0.00000000       0.019
   0.00000000  0.04857034  0.00000000       0.010
   0.02172723  0.05230652  0.00000000       0.019
   0.04345446  0.05604270  0.00000000       0.019
   0.06518168  0.05977888  0.00000000       0.019
   0.08690891  0.06351506  0.00000000       0.019
   0.10863614  0.06725124  0.00000000       0.019
   0.13036337  0.07098742  0.00000000       0.019
   0.00000000  0.00000000  0.01818087       0.010
   0.02172723  0.00373618  0.01818087       0.019
   0.04345446  0.00747236  0.01818087       0.019
   0.06518168  0.01120854  0.01818087       0.019
   0.08690891  0.01494472  0.01818087       0.019
   0.10863614  0.01868090  0.01818087       0.019
   0.13036337  0.02241708  0.01818087       0.019
   0.00000000  0.02428517  0.01818087       0.019
   0.02172723  0.02802135  0.01818087       0.019
   0.04345446  0.03175753  0.01818087       0.019
   0.06518168  0.03549371  0.01818087       0.019
   0.08690891  0.03922989  0.01818087       0.019
   0.10863614  0.04296607  0.01818087       0.019
   0.13036337  0.04670225  0.01818087       0.019
  -0.13036337  0.00186809  0.01818087       0.019
  -0.10863614  0.00560427  0.01818087       0.019
  -0.08690891  0.00934045  0.01818087       0.019
  -0.06518168  0.01307663  0.01818087       0.019
  -0.04345446  0.01681281  0.01818087       0.019
  -0.02172723  0.02054899  0.01818087       0.019
   0.00000000  0.04857034  0.01818087       0.010
   0.02172723  0.05230652  0.01818087       0.019
   0.04345446  0.05604270  0.01818087       0.019
   0.06518168  0.05977888  0.01818087       0.019
   0.08690891  0.06351506  0.01818087       0.019
   0.10863614  0.06725124  0.01818087       0.019
   0.13036337  0.07098742  0.01818087       0.019
 
 k-points in reciprocal lattice and weights: pymatgen generated KPOINTS with grid den
   0.00000000  0.00000000  0.00000000       0.010
   0.07692308 -0.00000000  0.00000000       0.019
   0.15384615 -0.00000000  0.00000000       0.019
   0.23076923 -0.00000000  0.00000000       0.019
   0.30769231 -0.00000000  0.00000000       0.019
   0.38461538 -0.00000000  0.00000000       0.019
   0.46153846 -0.00000000  0.00000000       0.019
   0.00000000  0.25000000  0.00000000       0.019
   0.07692308  0.25000000  0.00000000       0.019
   0.15384615  0.25000000  0.00000000       0.019
   0.23076923  0.25000000  0.00000000       0.019
   0.30769231  0.25000000  0.00000000       0.019
   0.38461538  0.25000000  0.00000000       0.019
   0.46153846  0.25000000  0.00000000       0.019
  -0.46153846  0.25000000  0.00000000       0.019
  -0.38461538  0.25000000  0.00000000       0.019
  -0.30769231  0.25000000  0.00000000       0.019
  -0.23076923  0.25000000  0.00000000       0.019
  -0.15384615  0.25000000  0.00000000       0.019
  -0.07692308  0.25000000  0.00000000       0.019
   0.00000000  0.50000000  0.00000000       0.010
   0.07692308  0.50000000  0.00000000       0.019
   0.15384615  0.50000000  0.00000000       0.019
   0.23076923  0.50000000  0.00000000       0.019
   0.30769231  0.50000000  0.00000000       0.019
   0.38461538  0.50000000  0.00000000       0.019
   0.46153846  0.50000000  0.00000000       0.019
   0.00000000  0.00000000  0.50000000       0.010
   0.07692308 -0.00000000  0.50000000       0.019
   0.15384615 -0.00000000  0.50000000       0.019
   0.23076923 -0.00000000  0.50000000       0.019
   0.30769231 -0.00000000  0.50000000       0.019
   0.38461538 -0.00000000  0.50000000       0.019
   0.46153846 -0.00000000  0.50000000       0.019
   0.00000000  0.25000000  0.50000000       0.019
   0.07692308  0.25000000  0.50000000       0.019
   0.15384615  0.25000000  0.50000000       0.019
   0.23076923  0.25000000  0.50000000       0.019
   0.30769231  0.25000000  0.50000000       0.019
   0.38461538  0.25000000  0.50000000       0.019
   0.46153846  0.25000000  0.50000000       0.019
  -0.46153846  0.25000000  0.50000000       0.019
  -0.38461538  0.25000000  0.50000000       0.019
  -0.30769231  0.25000000  0.50000000       0.019
  -0.23076923  0.25000000  0.50000000       0.019
  -0.15384615  0.25000000  0.50000000       0.019
  -0.07692308  0.25000000  0.50000000       0.019
   0.00000000  0.50000000  0.50000000       0.010
   0.07692308  0.50000000  0.50000000       0.019
   0.15384615  0.50000000  0.50000000       0.019
   0.23076923  0.50000000  0.50000000       0.019
   0.30769231  0.50000000  0.50000000       0.019
   0.38461538  0.50000000  0.50000000       0.019
   0.46153846  0.50000000  0.50000000       0.019
 
 position of ions in fractional coordinates (direct lattice) 
   0.11402300  0.22804500  0.23316207
   0.81402300  0.82804500  0.51499159
   0.45808900  0.91617900  0.20939482
   0.15808900  0.51617900  0.49122434
   0.31085400  0.62170900  0.08414979
   0.31085400  0.62170900  0.36597930
   0.99923000  0.99846000  0.08631254
   0.99923000  0.99846000  0.36814206
   0.65492700  0.30985400  0.06041748
   0.65492700  0.30985400  0.34224700
   0.76973800  0.53947500  0.20725292
   0.46973800  0.13947500  0.48908244
   0.93971600  0.87943300  0.15783749
   0.63971600  0.47943300  0.43966701
   0.20515200  0.41030300  0.18578822
   0.90515200  0.01030300  0.46761774
   0.20184900  0.40369900  0.09969156
   0.20184900  0.40369900  0.38152107
   0.56380500  0.12761000  0.10779021
   0.56380500  0.12761000  0.38961973
   0.56710600  0.13421200  0.19387616
   0.26710600  0.73421200  0.47570568
   0.82923400  0.65846800  0.13571444
   0.52923400  0.25846800  0.41754396
 
 position of ions in cartesian coordinates  (Angst):
   0.00000177  2.34757459  6.41229012
   1.41616177  8.52418339 14.16300462
  -0.00000177  9.43146546  5.75865686
  -0.35404177  5.31372626 13.50937136
  -0.00000177  6.40008880  2.31423934
  -0.00000177  6.40008880 10.06495384
   1.77020000 10.27849470  2.37371832
   1.77020000 10.27849470 10.12443282
   1.77020000  3.18974491  1.66156717
   1.77020000  3.18974491  9.41228167
   1.77020177  5.55354339  5.69975143
   1.41616177  1.43580419 13.45046593
   1.77019823  9.05318934  4.34075665
   1.41615823  4.93545014 12.09147115
   0.00000177  4.22380187  5.10944151
   3.18636177  0.10606267 12.86015601
  -0.00000177  4.15581799  2.74166024
  -0.00000177  4.15581799 10.49237474
   1.77020000  1.31366175  2.96438477
   1.77020000  1.31366175 10.71509927
   1.77020000  1.38162503  5.33187152
  -0.35404000  7.55823383 13.08258602
   1.77020000  6.77849874  3.73234107
   1.41616000  2.66075954 11.48305557
 


--------------------------------------------------------------------------------------------------------


 k-point  1 :   0.0000 0.0000 0.0000  plane waves:   11717
 k-point  2 :   0.0769-0.0000 0.0000  plane waves:   11762
 k-point  3 :   0.1538-0.0000 0.0000  plane waves:   11805
 k-point  4 :   0.2308-0.0000 0.0000  plane waves:   11824
 k-point  5 :   0.3077-0.0000 0.0000  plane waves:   11875
 k-point  6 :   0.3846-0.0000 0.0000  plane waves:   11864
 k-point  7 :   0.4615-0.0000 0.0000  plane waves:   11883
 k-point  8 :   0.0000 0.2500 0.0000  plane waves:   11683
 k-point  9 :   0.0769 0.2500 0.0000  plane waves:   11756
 k-point 10 :   0.1538 0.2500 0.0000  plane waves:   11807
 k-point 11 :   0.2308 0.2500 0.0000  plane waves:   11853
 k-point 12 :   0.3077 0.2500 0.0000  plane waves:   11866
 k-point 13 :   0.3846 0.2500 0.0000  plane waves:   11889
 k-point 14 :   0.4615 0.2500 0.0000  plane waves:   11885
 k-point 15 :  -0.4615 0.2500 0.0000  plane waves:   11886
 k-point 16 :  -0.3846 0.2500 0.0000  plane waves:   11867
 k-point 17 :  -0.3077 0.2500 0.0000  plane waves:   11849
 k-point 18 :  -0.2308 0.2500 0.0000  plane waves:   11827
 k-point 19 :  -0.1538 0.2500 0.0000  plane waves:   11801
 k-point 20 :  -0.0769 0.2500 0.0000  plane waves:   11757
 k-point 21 :   0.0000 0.5000 0.0000  plane waves:   11710
 k-point 22 :   0.0769 0.5000 0.0000  plane waves:   11762
 k-point 23 :   0.1538 0.5000 0.0000  plane waves:   11782
 k-point 24 :   0.2308 0.5000 0.0000  plane waves:   11841
 k-point 25 :   0.3077 0.5000 0.0000  plane waves:   11876
 k-point 26 :   0.3846 0.5000 0.0000  plane waves:   11889
 k-point 27 :   0.4615 0.5000 0.0000  plane waves:   11881
 k-point 28 :   0.0000 0.0000 0.5000  plane waves:   11698
 k-point 29 :   0.0769-0.0000 0.5000  plane waves:   11752
 k-point 30 :   0.1538-0.0000 0.5000  plane waves:   11800
 k-point 31 :   0.2308-0.0000 0.5000  plane waves:   11834
 k-point 32 :   0.3077-0.0000 0.5000  plane waves:   11850
 k-point 33 :   0.3846-0.0000 0.5000  plane waves:   11888
 k-point 34 :   0.4615-0.0000 0.5000  plane waves:   11896
 k-point 35 :   0.0000 0.2500 0.5000  plane waves:   11714
 k-point 36 :   0.0769 0.2500 0.5000  plane waves:   11754
 k-point 37 :   0.1538 0.2500 0.5000  plane waves:   11802
 k-point 38 :   0.2308 0.2500 0.5000  plane waves:   11840
 k-point 39 :   0.3077 0.2500 0.5000  plane waves:   11858
 k-point 40 :   0.3846 0.2500 0.5000  plane waves:   11896
 k-point 41 :   0.4615 0.2500 0.5000  plane waves:   11886
 k-point 42 :  -0.4615 0.2500 0.5000  plane waves:   11852
 k-point 43 :  -0.3846 0.2500 0.5000  plane waves:   11838
 k-point 44 :  -0.3077 0.2500 0.5000  plane waves:   11842
 k-point 45 :  -0.2308 0.2500 0.5000  plane waves:   11840
 k-point 46 :  -0.1538 0.2500 0.5000  plane waves:   11804
 k-point 47 :  -0.0769 0.2500 0.5000  plane waves:   11748
 k-point 48 :   0.0000 0.5000 0.5000  plane waves:   11724
 k-point 49 :   0.0769 0.5000 0.5000  plane waves:   11748
 k-point 50 :   0.1538 0.5000 0.5000  plane waves:   11814
 k-point 51 :   0.2308 0.5000 0.5000  plane waves:   11832
 k-point 52 :   0.3077 0.5000 0.5000  plane waves:   11868
 k-point 53 :   0.3846 0.5000 0.5000  plane waves:   11892
 k-point 54 :   0.4615 0.5000 0.5000  plane waves:   11878

 maximum and minimum number of plane-waves per node :      5964     5832

 maximum number of plane-waves:     11896
 maximum index in each direction: 
   IXMAX=    5   IYMAX=   14   IZMAX=   38
   IXMIN=   -5   IYMIN=  -15   IZMIN=  -39

 WARNING: aliasing errors must be expected set NGX to  22 to avoid them
 NGY is ok and might be reduce to  60
 NGZ is ok and might be reduce to 156
 aliasing errors are usually negligible using standard VASP settings
 and one can safely disregard these warnings

 real space projection operators:
  total allocation   :       3793.25 KBytes
  max/ min on nodes  :       1899.38       1893.88


 parallel 3D FFT for wavefunctions:
    minimum data exchange during FFTs selected (reduces bandwidth)
 parallel 3D FFT for charge:
    minimum data exchange during FFTs selected (reduces bandwidth)


 total amount of memory used by VASP on root node   146493. kBytes
========================================================================

   base      :      30000. kBytes
   nonlr-proj:       3452. kBytes
   fftplans  :       9347. kBytes
   grid      :      14649. kBytes
   one-center:         36. kBytes
   wavefun   :      89009. kBytes
 
     INWAV:  cpu time    0.00: real time    0.00
 Broyden mixing: mesh for mixing (old mesh)
   NGX =  9   NGY = 29   NGZ = 77
  (NGX  = 40   NGY  =120   NGZ  =320)
  gives a total of  20097 points

 initial charge density was supplied:
 charge density of overlapping atoms calculated
 number of electron     108.0000000 magnetization 
 keeping initial charge density in first step


--------------------------------------------------------------------------------------------------------


 Maximum index for non-local projection operator         1333
 Maximum index for augmentation-charges          822 (set IRDMAX)


--------------------------------------------------------------------------------------------------------


 First call to EWALD:  gamma=   0.177
 Maximum number of real-space cells 7x 3x 1
 Maximum number of reciprocal cells 1x 3x 7

 FEWALD executed in parallel
    FEWALD:  cpu time    0.00: real time    0.00


----------------------------------------- Iteration    1(   1)  ---------------------------------------


vdW kernel read from vdw_kernel.bindat
  0.0000  0.2424  0.5071  0.7962  1.1119  1.4567  1.8333  2.2446  2.6937  3.1842
  3.7199  4.3049  4.9438  5.6415  6.4036  7.2358  8.1446  9.1372 10.2212 11.4050
 12.6979 14.1099 15.6519 17.3360 19.1751 21.1837 23.3773 25.7729 28.3892 31.2465
 34.3669 37.7748 41.4965 45.5611 50.0000
 
    POTLOK:  cpu time   16.79: real time   16.80
    SETDIJ:  cpu time    0.01: real time    0.01
     EDDAV:  cpu time   84.86: real time   84.95
       DOS:  cpu time    0.01: real time    0.01
    --------------------------------------------
      LOOP:  cpu time  101.67: real time  101.78

 eigenvalue-minimisations  :  7376
 total energy-change (2. order) : 0.5031568E+03  (-0.2873708E+04)
 number of electron     108.0000000 magnetization 
 augmentation part      108.0000000 magnetization 

 Free energy of the ion-electron system (eV)
  ---------------------------------------------------
  alpha Z        PSCENC =        36.80884744
  Ewald energy   TEWEN  =     12028.46983421
  -Hartree energ DENC   =    -15058.53678775
  -exchange      EXHF   =         0.00000000
  -V(xc)+E(xc)   XCENC  =       -87.01136579
  PAW double counting   =      1056.43050070     -732.41190547
  entropy T*S    EENTRO =        -0.04221086
  eigenvalues    EBANDS =       -94.59134886
  atomic energy  EATOM  =      3354.04126044
  ---------------------------------------------------
  free energy    TOTEN  =       503.15682408 eV

  energy without entropy =      503.19903493  energy(sigma->0) =      503.17792951


--------------------------------------------------------------------------------------------------------




----------------------------------------- Iteration    1(   2)  ---------------------------------------


     EDDAV:  cpu time  100.91: real time  101.00
       DOS:  cpu time    0.01: real time    0.01
    --------------------------------------------
      LOOP:  cpu time  100.92: real time  101.01

 eigenvalue-minimisations  :  9800
 total energy-change (2. order) :-0.5643898E+03  (-0.5499300E+03)
 number of electron     108.0000000 magnetization 
 augmentation part      108.0000000 magnetization 

 Free energy of the ion-electron system (eV)
  ---------------------------------------------------
  alpha Z        PSCENC =        36.80884744
  Ewald energy   TEWEN  =     12028.46983421
  -Hartree energ DENC   =    -15058.53678775
  -exchange      EXHF   =         0.00000000
  -V(xc)+E(xc)   XCENC  =       -87.01136579
  PAW double counting   =      1056.43050070     -732.41190547
  entropy T*S    EENTRO =        -0.02226356
  eigenvalues    EBANDS =      -659.00111928
  atomic energy  EATOM  =      3354.04126044
  ---------------------------------------------------
  free energy    TOTEN  =       -61.23299906 eV

  energy without entropy =      -61.21073549  energy(sigma->0) =      -61.22186727


--------------------------------------------------------------------------------------------------------




----------------------------------------- Iteration    1(   3)  ---------------------------------------


     EDDAV:  cpu time   88.83: real time   88.93
       DOS:  cpu time    0.01: real time    0.01
    --------------------------------------------
      LOOP:  cpu time   88.84: real time   88.94

 eigenvalue-minimisations  :  8804
 total energy-change (2. order) :-0.5669888E+02  (-0.5588562E+02)
 number of electron     108.0000000 magnetization 
 augmentation part      108.0000000 magnetization 

 Free energy of the ion-electron system (eV)
  ---------------------------------------------------
  alpha Z        PSCENC =        36.80884744
  Ewald energy   TEWEN  =     12028.46983421
  -Hartree energ DENC   =    -15058.53678775
  -exchange      EXHF   =         0.00000000
  -V(xc)+E(xc)   XCENC  =       -87.01136579
  PAW double counting   =      1056.43050070     -732.41190547
  entropy T*S    EENTRO =        -0.02922070
  eigenvalues    EBANDS =      -715.69304572
  atomic energy  EATOM  =      3354.04126044
  ---------------------------------------------------
  free energy    TOTEN  =      -117.93188263 eV

  energy without entropy =     -117.90266193  energy(sigma->0) =     -117.91727228


--------------------------------------------------------------------------------------------------------




----------------------------------------- Iteration    1(   4)  ---------------------------------------


     EDDAV:  cpu time  108.06: real time  108.20
       DOS:  cpu time    0.01: real time    0.01
    --------------------------------------------
      LOOP:  cpu time  108.07: real time  108.22

 eigenvalue-minimisations  : 11088
 total energy-change (2. order) :-0.2590091E+01  (-0.2572587E+01)
 number of electron     108.0000000 magnetization 
 augmentation part      108.0000000 magnetization 

 Free energy of the ion-electron system (eV)
  ---------------------------------------------------
  alpha Z        PSCENC =        36.80884744
  Ewald energy   TEWEN  =     12028.46983421
  -Hartree energ DENC   =    -15058.53678775
  -exchange      EXHF   =         0.00000000
  -V(xc)+E(xc)   XCENC  =       -87.01136579
  PAW double counting   =      1056.43050070     -732.41190547
  entropy T*S    EENTRO =        -0.03099216
  eigenvalues    EBANDS =      -718.28136508
  atomic energy  EATOM  =      3354.04126044
  ---------------------------------------------------
  free energy    TOTEN  =      -120.52197345 eV

  energy without entropy =     -120.49098129  energy(sigma->0) =     -120.50647737


--------------------------------------------------------------------------------------------------------




----------------------------------------- Iteration    1(   5)  ---------------------------------------


     EDDAV:  cpu time  102.14: real time  102.28
       DOS:  cpu time    0.01: real time    0.01
    CHARGE:  cpu time    5.03: real time    5.04
    MIXING:  cpu time    0.01: real time    0.01
    --------------------------------------------
      LOOP:  cpu time  107.20: real time  107.77

 eigenvalue-minimisations  : 10072
 total energy-change (2. order) :-0.5938856E-01  (-0.5930994E-01)
 number of electron     107.9999996 magnetization 
 augmentation part       -9.6273812 magnetization 

 Broyden mixing:
  rms(total) = 0.11608E+01    rms(broyden)= 0.11606E+01
  rms(prec ) = 0.12742E+01
  weight for this iteration     100.00

 Free energy of the ion-electron system (eV)
  ---------------------------------------------------
  alpha Z        PSCENC =        36.80884744
  Ewald energy   TEWEN  =     12028.46983421
  -Hartree energ DENC   =    -15058.53678775
  -exchange      EXHF   =         0.00000000
  -V(xc)+E(xc)   XCENC  =       -87.01136579
  PAW double counting   =      1056.43050070     -732.41190547
  entropy T*S    EENTRO =        -0.03095454
  eigenvalues    EBANDS =      -718.34079126
  atomic energy  EATOM  =      3354.04126044
  ---------------------------------------------------
  free energy    TOTEN  =      -120.58136201 eV

  energy without entropy =     -120.55040747  energy(sigma->0) =     -120.56588474


--------------------------------------------------------------------------------------------------------




----------------------------------------- Iteration    1(   6)  ---------------------------------------


    POTLOK:  cpu time   15.03: real time   15.03
    SETDIJ:  cpu time    0.01: real time    0.01
     EDDAV:  cpu time   90.46: real time   90.52
       DOS:  cpu time    0.01: real time    0.01
    CHARGE:  cpu time    4.90: real time    4.90
    MIXING:  cpu time    0.01: real time    0.01
    --------------------------------------------
      LOOP:  cpu time  110.42: real time  110.49

 eigenvalue-minimisations  :  8912
 total energy-change (2. order) : 0.3973889E+01  (-0.1602270E+01)
 number of electron     107.9999995 magnetization 
 augmentation part       -9.4770359 magnetization 

 Broyden mixing:
  rms(total) = 0.58901E+00    rms(broyden)= 0.58898E+00
  rms(prec ) = 0.63853E+00
  weight for this iteration     100.00

 eigenvalues of (default mixing * dielectric matrix)
  average eigenvalue GAMMA=   1.4269
  1.4269

 Free energy of the ion-electron system (eV)
  ---------------------------------------------------
  alpha Z        PSCENC =        36.80884744
  Ewald energy   TEWEN  =     12028.46983421
  -Hartree energ DENC   =    -15109.57989692
  -exchange      EXHF   =         0.00000000
  -V(xc)+E(xc)   XCENC  =       -83.93655478
  PAW double counting   =      1119.47566363     -797.31900552
  entropy T*S    EENTRO =        -0.03863141
  eigenvalues    EBANDS =      -664.52899004
  atomic energy  EATOM  =      3354.04126044
  ---------------------------------------------------
  free energy    TOTEN  =      -116.60747296 eV

  energy without entropy =     -116.56884155  energy(sigma->0) =     -116.58815725


--------------------------------------------------------------------------------------------------------




----------------------------------------- Iteration    1(   7)  ---------------------------------------


    POTLOK:  cpu time   14.98: real time   14.99
    SETDIJ:  cpu time    0.01: real time    0.01
     EDDAV:  cpu time   89.66: real time   89.70
       DOS:  cpu time    0.01: real time    0.01
    CHARGE:  cpu time    4.94: real time    4.95
    MIXING:  cpu time    0.01: real time    0.01
    --------------------------------------------
      LOOP:  cpu time  109.62: real time  109.68

 eigenvalue-minimisations  :  8808
 total energy-change (2. order) : 0.1043121E+00  (-0.8229785E+00)
 number of electron     107.9999995 magnetization 
 augmentation part       -9.4160626 magnetization 

 Broyden mixing:
  rms(total) = 0.31460E+00    rms(broyden)= 0.31458E+00
  rms(prec ) = 0.33851E+00
  weight for this iteration     100.00

 eigenvalues of (default mixing * dielectric matrix)
  average eigenvalue GAMMA=   1.3353
  0.7569  1.9137

 Free energy of the ion-electron system (eV)
  ---------------------------------------------------
  alpha Z        PSCENC =        36.80884744
  Ewald energy   TEWEN  =     12028.46983421
  -Hartree energ DENC   =    -15125.05486518
  -exchange      EXHF   =         0.00000000
  -V(xc)+E(xc)   XCENC  =       -81.83709513
  PAW double counting   =      1153.76910960     -832.60520893
  entropy T*S    EENTRO =        -0.01796119
  eigenvalues    EBANDS =      -650.07708215
  atomic energy  EATOM  =      3354.04126044
  ---------------------------------------------------
  free energy    TOTEN  =      -116.50316088 eV

  energy without entropy =     -116.48519969  energy(sigma->0) =     -116.49418028


--------------------------------------------------------------------------------------------------------




----------------------------------------- Iteration    1(   8)  ---------------------------------------


    POTLOK:  cpu time   15.01: real time   15.02
    SETDIJ:  cpu time    0.01: real time    0.01
     EDDAV:  cpu time   89.15: real time   89.25
       DOS:  cpu time    0.01: real time    0.01
    CHARGE:  cpu time    4.99: real time    5.03
    MIXING:  cpu time    0.01: real time    0.01
    --------------------------------------------
      LOOP:  cpu time  109.18: real time  109.33

 eigenvalue-minimisations  :  8744
 total energy-change (2. order) : 0.8840966E-02  (-0.1191107E+00)
 number of electron     107.9999995 magnetization 
 augmentation part       -9.3721464 magnetization 

 Broyden mixing:
  rms(total) = 0.12717E+00    rms(broyden)= 0.12717E+00
  rms(prec ) = 0.13768E+00
  weight for this iteration     100.00

 eigenvalues of (default mixing * dielectric matrix)
  average eigenvalue GAMMA=   1.4200
  2.2474  1.2647  0.7480

 Free energy of the ion-electron system (eV)
  ---------------------------------------------------
  alpha Z        PSCENC =        36.80884744
  Ewald energy   TEWEN  =     12028.46983421
  -Hartree energ DENC   =    -15141.20823262
  -exchange      EXHF   =         0.00000000
  -V(xc)+E(xc)   XCENC  =       -80.22421879
  PAW double counting   =      1175.24107926     -854.70735953
  entropy T*S    EENTRO =        -0.02088977
  eigenvalues    EBANDS =      -634.89464057
  atomic energy  EATOM  =      3354.04126044
  ---------------------------------------------------
  free energy    TOTEN  =      -116.49431991 eV

  energy without entropy =     -116.47343014  energy(sigma->0) =     -116.48387503


--------------------------------------------------------------------------------------------------------




----------------------------------------- Iteration    1(   9)  ---------------------------------------


    POTLOK:  cpu time   14.96: real time   15.03
    SETDIJ:  cpu time    0.01: real time    0.01
     EDDAV:  cpu time   93.91: real time   94.03
       DOS:  cpu time    0.01: real time    0.01
    CHARGE:  cpu time    4.89: real time    4.89
    MIXING:  cpu time    0.01: real time    0.01
    --------------------------------------------
      LOOP:  cpu time  113.80: real time  114.00

 eigenvalue-minimisations  :  9328
 total energy-change (2. order) : 0.8553079E-02  (-0.2558337E-01)
 number of electron     107.9999995 magnetization 
 augmentation part       -9.3745509 magnetization 

 Broyden mixing:
  rms(total) = 0.59736E-01    rms(broyden)= 0.59731E-01
  rms(prec ) = 0.70507E-01
  weight for this iteration     100.00

 eigenvalues of (default mixing * dielectric matrix)
  average eigenvalue GAMMA=   1.3600
  2.4158  1.5265  0.7488  0.7488

 Free energy of the ion-electron system (eV)
  ---------------------------------------------------
  alpha Z        PSCENC =        36.80884744
  Ewald energy   TEWEN  =     12028.46983421
  -Hartree energ DENC   =    -15150.48768668
  -exchange      EXHF   =         0.00000000
  -V(xc)+E(xc)   XCENC  =       -79.68016651
  PAW double counting   =      1176.59236959     -856.11518220
  entropy T*S    EENTRO =        -0.02387847
  eigenvalues    EBANDS =      -626.09116467
  atomic energy  EATOM  =      3354.04126044
  ---------------------------------------------------
  free energy    TOTEN  =      -116.48576683 eV

  energy without entropy =     -116.46188836  energy(sigma->0) =     -116.47382760


--------------------------------------------------------------------------------------------------------




----------------------------------------- Iteration    1(  10)  ---------------------------------------


    POTLOK:  cpu time   15.00: real time   15.01
    SETDIJ:  cpu time    0.01: real time    0.01
     EDDAV:  cpu time   91.72: real time   91.80
       DOS:  cpu time    0.01: real time    0.01
    CHARGE:  cpu time    4.92: real time    4.92
    MIXING:  cpu time    0.01: real time    0.01
    --------------------------------------------
      LOOP:  cpu time  111.68: real time  111.77

 eigenvalue-minimisations  :  9064
 total energy-change (2. order) : 0.1098812E-01  (-0.1079740E-01)
 number of electron     107.9999995 magnetization 
 augmentation part       -9.3766948 magnetization 

 Broyden mixing:
  rms(total) = 0.26552E-01    rms(broyden)= 0.26548E-01
  rms(prec ) = 0.29728E-01
  weight for this iteration     100.00

 eigenvalues of (default mixing * dielectric matrix)
  average eigenvalue GAMMA=   1.2949
  2.5536  1.5619  0.8664  0.8664  0.6263

 Free energy of the ion-electron system (eV)
  ---------------------------------------------------
  alpha Z        PSCENC =        36.80884744
  Ewald energy   TEWEN  =     12028.46983421
  -Hartree energ DENC   =    -15150.36229280
  -exchange      EXHF   =         0.00000000
  -V(xc)+E(xc)   XCENC  =       -79.52792206
  PAW double counting   =      1175.19292487     -854.68655653
  entropy T*S    EENTRO =        -0.02254704
  eigenvalues    EBANDS =      -626.38832725
  atomic energy  EATOM  =      3354.04126044
  ---------------------------------------------------
  free energy    TOTEN  =      -116.47477871 eV

  energy without entropy =     -116.45223167  energy(sigma->0) =     -116.46350519


--------------------------------------------------------------------------------------------------------




----------------------------------------- Iteration    1(  11)  ---------------------------------------


    POTLOK:  cpu time   15.04: real time   15.05
    SETDIJ:  cpu time    0.01: real time    0.01
     EDDAV:  cpu time   90.36: real time   90.41
       DOS:  cpu time    0.01: real time    0.01
    CHARGE:  cpu time    4.90: real time    4.90
    MIXING:  cpu time    0.01: real time    0.01
    --------------------------------------------
      LOOP:  cpu time  110.33: real time  110.40

 eigenvalue-minimisations  :  8968
 total energy-change (2. order) : 0.7268987E-02  (-0.1908338E-02)
 number of electron     107.9999995 magnetization 
 augmentation part       -9.3786353 magnetization 

 Broyden mixing:
  rms(total) = 0.12352E-01    rms(broyden)= 0.12351E-01
  rms(prec ) = 0.14068E-01
  weight for this iteration     100.00

 eigenvalues of (default mixing * dielectric matrix)
  average eigenvalue GAMMA=   1.3160
  2.6304  1.4781  1.4781  0.8534  0.8534  0.6024

 Free energy of the ion-electron system (eV)
  ---------------------------------------------------
  alpha Z        PSCENC =        36.80884744
  Ewald energy   TEWEN  =     12028.46983421
  -Hartree energ DENC   =    -15151.90585828
  -exchange      EXHF   =         0.00000000
  -V(xc)+E(xc)   XCENC  =       -79.45075061
  PAW double counting   =      1174.26498743     -853.73490533
  entropy T*S    EENTRO =        -0.02137440
  eigenvalues    EBANDS =      -624.93955062
  atomic energy  EATOM  =      3354.04126044
  ---------------------------------------------------
  free energy    TOTEN  =      -116.46750972 eV

  energy without entropy =     -116.44613532  energy(sigma->0) =     -116.45682252


--------------------------------------------------------------------------------------------------------




----------------------------------------- Iteration    1(  12)  ---------------------------------------


    POTLOK:  cpu time   15.00: real time   15.03
    SETDIJ:  cpu time    0.01: real time    0.01
     EDDAV:  cpu time   91.65: real time   91.76
       DOS:  cpu time    0.01: real time    0.01
    CHARGE:  cpu time    5.02: real time    5.02
    MIXING:  cpu time    0.02: real time    0.02
    --------------------------------------------
      LOOP:  cpu time  111.71: real time  111.86

 eigenvalue-minimisations  :  9032
 total energy-change (2. order) : 0.5089655E-02  (-0.3839978E-03)
 number of electron     107.9999995 magnetization 
 augmentation part       -9.3777245 magnetization 

 Broyden mixing:
  rms(total) = 0.56880E-02    rms(broyden)= 0.56874E-02
  rms(prec ) = 0.69561E-02
  weight for this iteration     100.00

 eigenvalues of (default mixing * dielectric matrix)
  average eigenvalue GAMMA=   1.3615
  2.6648  2.0311  1.2731  1.2731  0.8375  0.8375  0.6134

 Free energy of the ion-electron system (eV)
  ---------------------------------------------------
  alpha Z        PSCENC =        36.80884744
  Ewald energy   TEWEN  =     12028.46983421
  -Hartree energ DENC   =    -15153.29725569
  -exchange      EXHF   =         0.00000000
  -V(xc)+E(xc)   XCENC  =       -79.42203180
  PAW double counting   =      1173.63580012     -853.08971373
  entropy T*S    EENTRO =        -0.02172332
  eigenvalues    EBANDS =      -623.58743774
  atomic energy  EATOM  =      3354.04126044
  ---------------------------------------------------
  free energy    TOTEN  =      -116.46242006 eV

  energy without entropy =     -116.44069674  energy(sigma->0) =     -116.45155840


--------------------------------------------------------------------------------------------------------




----------------------------------------- Iteration    1(  13)  ---------------------------------------


    POTLOK:  cpu time   15.10: real time   15.10
    SETDIJ:  cpu time    0.01: real time    0.01
     EDDAV:  cpu time   92.58: real time   92.62
       DOS:  cpu time    0.01: real time    0.01
    CHARGE:  cpu time    4.90: real time    4.90
    MIXING:  cpu time    0.02: real time    0.02
    --------------------------------------------
      LOOP:  cpu time  112.61: real time  112.66

 eigenvalue-minimisations  :  8936
 total energy-change (2. order) : 0.5583448E-02  (-0.7584877E-04)
 number of electron     107.9999995 magnetization 
 augmentation part       -9.3783465 magnetization 

 Broyden mixing:
  rms(total) = 0.23957E-02    rms(broyden)= 0.23953E-02
  rms(prec ) = 0.36283E-02
  weight for this iteration     100.00

 eigenvalues of (default mixing * dielectric matrix)
  average eigenvalue GAMMA=   1.3624
  2.7380  2.2066  1.3377  1.3377  0.9850  0.8396  0.8396  0.6146

 Free energy of the ion-electron system (eV)
  ---------------------------------------------------
  alpha Z        PSCENC =        36.80884744
  Ewald energy   TEWEN  =     12028.46983421
  -Hartree energ DENC   =    -15154.23952190
  -exchange      EXHF   =         0.00000000
  -V(xc)+E(xc)   XCENC  =       -79.41981416
  PAW double counting   =      1172.72064632     -852.15053029
  entropy T*S    EENTRO =        -0.02160998
  eigenvalues    EBANDS =      -622.66594871
  atomic energy  EATOM  =      3354.04126044
  ---------------------------------------------------
  free energy    TOTEN  =      -116.45683662 eV

  energy without entropy =     -116.43522664  energy(sigma->0) =     -116.44603163


--------------------------------------------------------------------------------------------------------




----------------------------------------- Iteration    1(  14)  ---------------------------------------


    POTLOK:  cpu time   14.99: real time   15.02
    SETDIJ:  cpu time    0.01: real time    0.01
     EDDAV:  cpu time   95.75: real time   95.81
       DOS:  cpu time    0.01: real time    0.01
    CHARGE:  cpu time    4.98: real time    4.99
    MIXING:  cpu time    0.01: real time    0.01
    --------------------------------------------
      LOOP:  cpu time  115.77: real time  115.85

 eigenvalue-minimisations  :  9600
 total energy-change (2. order) : 0.1903421E-02  (-0.1544856E-04)
 number of electron     107.9999995 magnetization 
 augmentation part       -9.3781654 magnetization 

 Broyden mixing:
  rms(total) = 0.14523E-02    rms(broyden)= 0.14522E-02
  rms(prec ) = 0.24669E-02
  weight for this iteration     100.00

 eigenvalues of (default mixing * dielectric matrix)
  average eigenvalue GAMMA=   1.3939
  2.8141  2.3870  1.6249  1.2666  1.2666  0.6140  0.8235  0.8235  0.9249

 Free energy of the ion-electron system (eV)
  ---------------------------------------------------
  alpha Z        PSCENC =        36.80884744
  Ewald energy   TEWEN  =     12028.46983421
  -Hartree energ DENC   =    -15155.01032786
  -exchange      EXHF   =         0.00000000
  -V(xc)+E(xc)   XCENC  =       -79.41377893
  PAW double counting   =      1172.48181164     -851.90563548
  entropy T*S    EENTRO =        -0.02169782
  eigenvalues    EBANDS =      -621.90524683
  atomic energy  EATOM  =      3354.04126044
  ---------------------------------------------------
  free energy    TOTEN  =      -116.45493320 eV

  energy without entropy =     -116.43323538  energy(sigma->0) =     -116.44408429


--------------------------------------------------------------------------------------------------------




----------------------------------------- Iteration    1(  15)  ---------------------------------------


    POTLOK:  cpu time   15.25: real time   15.26
    SETDIJ:  cpu time    0.01: real time    0.01
     EDDAV:  cpu time   89.15: real time   89.18
       DOS:  cpu time    0.01: real time    0.01
    CHARGE:  cpu time    5.05: real time    5.05
    MIXING:  cpu time    0.01: real time    0.01
    --------------------------------------------
      LOOP:  cpu time  109.49: real time  109.53

 eigenvalue-minimisations  :  8792
 total energy-change (2. order) : 0.9266157E-03  (-0.6694736E-05)
 number of electron     107.9999995 magnetization 
 augmentation part       -9.3778860 magnetization 

 Broyden mixing:
  rms(total) = 0.88366E-03    rms(broyden)= 0.88362E-03
  rms(prec ) = 0.16132E-02
  weight for this iteration     100.00

 eigenvalues of (default mixing * dielectric matrix)
  average eigenvalue GAMMA=   1.4493
  3.1098  2.5992  1.7843  1.2618  1.2618  1.2265  0.6133  0.9799  0.8281  0.8281

 Free energy of the ion-electron system (eV)
  ---------------------------------------------------
  alpha Z        PSCENC =        36.80884744
  Ewald energy   TEWEN  =     12028.46983421
  -Hartree energ DENC   =    -15155.82525826
  -exchange      EXHF   =         0.00000000
  -V(xc)+E(xc)   XCENC  =       -79.40841793
  PAW double counting   =      1172.36424179     -851.78530104
  entropy T*S    EENTRO =        -0.02166670
  eigenvalues    EBANDS =      -621.09754654
  atomic energy  EATOM  =      3354.04126044
  ---------------------------------------------------
  free energy    TOTEN  =      -116.45400658 eV

  energy without entropy =     -116.43233988  energy(sigma->0) =     -116.44317323


--------------------------------------------------------------------------------------------------------




----------------------------------------- Iteration    1(  16)  ---------------------------------------


    POTLOK:  cpu time   15.10: real time   15.12
    SETDIJ:  cpu time    0.01: real time    0.01
     EDDAV:  cpu time   96.20: real time   96.24
       DOS:  cpu time    0.01: real time    0.01
    CHARGE:  cpu time    6.71: real time    6.71
    MIXING:  cpu time    0.02: real time    0.02
    --------------------------------------------
      LOOP:  cpu time  118.05: real time  118.12

 eigenvalue-minimisations  :  8224
 total energy-change (2. order) : 0.1159590E-03  (-0.5650569E-05)
 number of electron     107.9999995 magnetization 
 augmentation part       -9.3777704 magnetization 

 Broyden mixing:
  rms(total) = 0.54359E-03    rms(broyden)= 0.54357E-03
  rms(prec ) = 0.95367E-03
  weight for this iteration     100.00

 eigenvalues of (default mixing * dielectric matrix)
  average eigenvalue GAMMA=   1.5699
  3.9612  2.7231  2.1922  1.5734  1.2182  1.2182  1.1310  0.6133  0.9842  0.8272
  0.8272

 Free energy of the ion-electron system (eV)
  ---------------------------------------------------
  alpha Z        PSCENC =        36.80884744
  Ewald energy   TEWEN  =     12028.46983421
  -Hartree energ DENC   =    -15156.61352091
  -exchange      EXHF   =         0.00000000
  -V(xc)+E(xc)   XCENC  =       -79.40434060
  PAW double counting   =      1172.30906268     -851.72885558
  entropy T*S    EENTRO =        -0.02166141
  eigenvalues    EBANDS =      -620.31451691
  atomic energy  EATOM  =      3354.04126044
  ---------------------------------------------------
  free energy    TOTEN  =      -116.45389062 eV

  energy without entropy =     -116.43222921  energy(sigma->0) =     -116.44305992


--------------------------------------------------------------------------------------------------------




----------------------------------------- Iteration    1(  17)  ---------------------------------------


    POTLOK:  cpu time   15.82: real time   15.83
    SETDIJ:  cpu time    0.01: real time    0.01
     EDDAV:  cpu time  107.18: real time  107.24
       DOS:  cpu time    0.01: real time    0.01
    CHARGE:  cpu time    7.71: real time    7.72
    MIXING:  cpu time    0.02: real time    0.02
    --------------------------------------------
      LOOP:  cpu time  130.77: real time  130.85

 eigenvalue-minimisations  :  8312
 total energy-change (2. order) :-0.5142183E-03  (-0.1612068E-04)
 number of electron     107.9999995 magnetization 
 augmentation part       -9.3777007 magnetization 

 Broyden mixing:
  rms(total) = 0.30206E-03    rms(broyden)= 0.30205E-03
  rms(prec ) = 0.50344E-03
  weight for this iteration     100.00

 eigenvalues of (default mixing * dielectric matrix)
  average eigenvalue GAMMA=   1.6943
  5.2601  2.7850  2.3904  1.6722  1.4943  1.2299  1.2299  0.6132  0.8264  0.8264
  1.0022  1.0022

 Free energy of the ion-electron system (eV)
  ---------------------------------------------------
  alpha Z        PSCENC =        36.80884744
  Ewald energy   TEWEN  =     12028.46983421
  -Hartree energ DENC   =    -15157.23671977
  -exchange      EXHF   =         0.00000000
  -V(xc)+E(xc)   XCENC  =       -79.40100807
  PAW double counting   =      1172.33228564     -851.75266699
  entropy T*S    EENTRO =        -0.02166233
  eigenvalues    EBANDS =      -619.69457543
  atomic energy  EATOM  =      3354.04126044
  ---------------------------------------------------
  free energy    TOTEN  =      -116.45440484 eV

  energy without entropy =     -116.43274251  energy(sigma->0) =     -116.44357368


--------------------------------------------------------------------------------------------------------




----------------------------------------- Iteration    1(  18)  ---------------------------------------


    POTLOK:  cpu time   16.80: real time   16.86
    SETDIJ:  cpu time    0.01: real time    0.01
     EDDAV:  cpu time   94.69: real time   94.82
       DOS:  cpu time    0.01: real time    0.01
    CHARGE:  cpu time    5.10: real time    5.10
    MIXING:  cpu time    0.02: real time    0.02
    --------------------------------------------
      LOOP:  cpu time  116.63: real time  116.83

 eigenvalue-minimisations  :  7664
 total energy-change (2. order) :-0.2435362E-03  (-0.9246093E-05)
 number of electron     107.9999995 magnetization 
 augmentation part       -9.3776781 magnetization 

 Broyden mixing:
  rms(total) = 0.17173E-03    rms(broyden)= 0.17171E-03
  rms(prec ) = 0.30680E-03
  weight for this iteration     100.00

 eigenvalues of (default mixing * dielectric matrix)
  average eigenvalue GAMMA=   1.7582
  6.0095  2.8584  2.5399  2.0859  1.2351  1.2351  1.3473  1.3473  0.6132  0.8281
  0.8281  0.9641  0.9641

 Free energy of the ion-electron system (eV)
  ---------------------------------------------------
  alpha Z        PSCENC =        36.80884744
  Ewald energy   TEWEN  =     12028.46983421
  -Hartree energ DENC   =    -15157.51309097
  -exchange      EXHF   =         0.00000000
  -V(xc)+E(xc)   XCENC  =       -79.39985844
  PAW double counting   =      1172.34865089     -851.76934967
  entropy T*S    EENTRO =        -0.02167579
  eigenvalues    EBANDS =      -619.41926649
  atomic energy  EATOM  =      3354.04126044
  ---------------------------------------------------
  free energy    TOTEN  =      -116.45464838 eV

  energy without entropy =     -116.43297258  energy(sigma->0) =     -116.44381048


--------------------------------------------------------------------------------------------------------




----------------------------------------- Iteration    1(  19)  ---------------------------------------


    POTLOK:  cpu time   15.14: real time   15.15
    SETDIJ:  cpu time    0.01: real time    0.01
     EDDAV:  cpu time   80.92: real time   81.08
       DOS:  cpu time    0.01: real time    0.01
    CHARGE:  cpu time    5.09: real time    5.10
    MIXING:  cpu time    0.02: real time    0.02
    --------------------------------------------
      LOOP:  cpu time  101.19: real time  101.37

 eigenvalue-minimisations  :  7184
 total energy-change (2. order) :-0.6162248E-04  (-0.1729006E-05)
 number of electron     107.9999995 magnetization 
 augmentation part       -9.3776881 magnetization 

 Broyden mixing:
  rms(total) = 0.11038E-03    rms(broyden)= 0.11038E-03
  rms(prec ) = 0.19852E-03
  weight for this iteration     100.00

 eigenvalues of (default mixing * dielectric matrix)
  average eigenvalue GAMMA=   1.7848
  6.4242  3.0219  2.6063  1.9938  1.6615  1.4835  1.2494  1.2494  0.6132  0.8268
  0.8268  1.0483  1.0483  0.9343

 Free energy of the ion-electron system (eV)
  ---------------------------------------------------
  alpha Z        PSCENC =        36.80884744
  Ewald energy   TEWEN  =     12028.46983421
  -Hartree energ DENC   =    -15157.65783024
  -exchange      EXHF   =         0.00000000
  -V(xc)+E(xc)   XCENC  =       -79.39941355
  PAW double counting   =      1172.35135853     -851.77204675
  entropy T*S    EENTRO =        -0.02166694
  eigenvalues    EBANDS =      -619.27505315
  atomic energy  EATOM  =      3354.04126044
  ---------------------------------------------------
  free energy    TOTEN  =      -116.45471000 eV

  energy without entropy =     -116.43304306  energy(sigma->0) =     -116.44387653


--------------------------------------------------------------------------------------------------------




----------------------------------------- Iteration    1(  20)  ---------------------------------------


    POTLOK:  cpu time   15.27: real time   15.32
    SETDIJ:  cpu time    0.01: real time    0.01
     EDDAV:  cpu time   80.17: real time   80.24
       DOS:  cpu time    0.01: real time    0.01
    CHARGE:  cpu time    5.66: real time    5.66
    MIXING:  cpu time    0.02: real time    0.02
    --------------------------------------------
      LOOP:  cpu time  101.13: real time  101.26

 eigenvalue-minimisations  :  6896
 total energy-change (2. order) :-0.5320088E-04  (-0.1216520E-05)
 number of electron     107.9999995 magnetization 
 augmentation part       -9.3776821 magnetization 

 Broyden mixing:
  rms(total) = 0.74021E-04    rms(broyden)= 0.74017E-04
  rms(prec ) = 0.12999E-03
  weight for this iteration     100.00

 eigenvalues of (default mixing * dielectric matrix)
  average eigenvalue GAMMA=   1.8271
  6.8038  3.2467  2.7130  2.3471  1.7013  1.6539  1.2517  1.2517  0.6132  0.8273
  0.8273  1.0730  1.0730  1.0847  0.9387

 Free energy of the ion-electron system (eV)
  ---------------------------------------------------
  alpha Z        PSCENC =        36.80884744
  Ewald energy   TEWEN  =     12028.46983421
  -Hartree energ DENC   =    -15157.71824347
  -exchange      EXHF   =         0.00000000
  -V(xc)+E(xc)   XCENC  =       -79.39933841
  PAW double counting   =      1172.35394813     -851.77469842
  entropy T*S    EENTRO =        -0.02166862
  eigenvalues    EBANDS =      -619.21470452
  atomic energy  EATOM  =      3354.04126044
  ---------------------------------------------------
  free energy    TOTEN  =      -116.45476320 eV

  energy without entropy =     -116.43309458  energy(sigma->0) =     -116.44392889


--------------------------------------------------------------------------------------------------------




----------------------------------------- Iteration    1(  21)  ---------------------------------------


    POTLOK:  cpu time   15.39: real time   15.39
    SETDIJ:  cpu time    0.01: real time    0.01
     EDDAV:  cpu time  106.27: real time  106.37
       DOS:  cpu time    0.01: real time    0.01
    CHARGE:  cpu time    6.12: real time    6.12
    MIXING:  cpu time    0.02: real time    0.02
    --------------------------------------------
      LOOP:  cpu time  127.81: real time  127.92

 eigenvalue-minimisations  :  7264
 total energy-change (2. order) : 0.5863295E-05  (-0.3345164E-05)
 number of electron     107.9999995 magnetization 
 augmentation part       -9.3776829 magnetization 

 Broyden mixing:
  rms(total) = 0.51337E-04    rms(broyden)= 0.51334E-04
  rms(prec ) = 0.76751E-04
  weight for this iteration     100.00

 eigenvalues of (default mixing * dielectric matrix)
  average eigenvalue GAMMA=   1.9314
  7.1306  4.4492  2.8241  2.5217  1.7652  1.7652  1.5787  1.2481  1.2481  0.6132
  1.1063  1.1063  0.8276  0.8276  0.9451  0.9451

 Free energy of the ion-electron system (eV)
  ---------------------------------------------------
  alpha Z        PSCENC =        36.80884744
  Ewald energy   TEWEN  =     12028.46983421
  -Hartree energ DENC   =    -15157.76096861
  -exchange      EXHF   =         0.00000000
  -V(xc)+E(xc)   XCENC  =       -79.39940766
  PAW double counting   =      1172.34905145     -851.76968579
  entropy T*S    EENTRO =        -0.02166903
  eigenvalues    EBANDS =      -619.17201980
  atomic energy  EATOM  =      3354.04126044
  ---------------------------------------------------
  free energy    TOTEN  =      -116.45475734 eV

  energy without entropy =     -116.43308831  energy(sigma->0) =     -116.44392282


--------------------------------------------------------------------------------------------------------




----------------------------------------- Iteration    1(  22)  ---------------------------------------


    POTLOK:  cpu time   15.20: real time   15.22
    SETDIJ:  cpu time    0.01: real time    0.01
     EDDAV:  cpu time   81.64: real time   81.82
       DOS:  cpu time    0.01: real time    0.01
    CHARGE:  cpu time    6.25: real time    6.26
    MIXING:  cpu time    0.02: real time    0.02
    --------------------------------------------
      LOOP:  cpu time  103.14: real time  103.34

 eigenvalue-minimisations  :  6624
 total energy-change (2. order) : 0.5191396E-04  (-0.1676260E-05)
 number of electron     107.9999995 magnetization 
 augmentation part       -9.3776824 magnetization 

 Broyden mixing:
  rms(total) = 0.28556E-04    rms(broyden)= 0.28554E-04
  rms(prec ) = 0.38222E-04
  weight for this iteration     100.00

 eigenvalues of (default mixing * dielectric matrix)
  average eigenvalue GAMMA=   2.0714
  8.0297  5.9270  2.9683  2.6461  2.1731  1.5714  1.5313  1.5313  1.2509  1.2509
  0.6132  0.8273  0.8273  1.0726  1.0726  0.9601  0.9601

 Free energy of the ion-electron system (eV)
  ---------------------------------------------------
  alpha Z        PSCENC =        36.80884744
  Ewald energy   TEWEN  =     12028.46983421
  -Hartree energ DENC   =    -15157.77119654
  -exchange      EXHF   =         0.00000000
  -V(xc)+E(xc)   XCENC  =       -79.39949662
  PAW double counting   =      1172.34813806     -851.76876547
  entropy T*S    EENTRO =        -0.02166865
  eigenvalues    EBANDS =      -619.16165830
  atomic energy  EATOM  =      3354.04126044
  ---------------------------------------------------
  free energy    TOTEN  =      -116.45470542 eV

  energy without entropy =     -116.43303677  energy(sigma->0) =     -116.44387109


--------------------------------------------------------------------------------------------------------




----------------------------------------- Iteration    1(  23)  ---------------------------------------


    POTLOK:  cpu time   15.31: real time   15.33
    SETDIJ:  cpu time    0.01: real time    0.01
     EDDAV:  cpu time   79.85: real time   79.95
       DOS:  cpu time    0.01: real time    0.01
    CHARGE:  cpu time    5.58: real time    5.58
    MIXING:  cpu time    0.02: real time    0.02
    --------------------------------------------
      LOOP:  cpu time  100.79: real time  100.90

 eigenvalue-minimisations  :  6448
 total energy-change (2. order) : 0.7553023E-04  (-0.7616294E-06)
 number of electron     107.9999995 magnetization 
 augmentation part       -9.3776812 magnetization 

 Broyden mixing:
  rms(total) = 0.12580E-04    rms(broyden)= 0.12577E-04
  rms(prec ) = 0.15727E-04
  weight for this iteration     100.00

 eigenvalues of (default mixing * dielectric matrix)
  average eigenvalue GAMMA=   2.1015
  8.1088  6.6953  3.0040  2.6990  2.1583  1.9386  1.6637  1.6637  1.2444  1.2444
  0.6132  1.1154  1.1154  0.8273  0.8273  0.9869  0.9869  0.9348

 Free energy of the ion-electron system (eV)
  ---------------------------------------------------
  alpha Z        PSCENC =        36.80884744
  Ewald energy   TEWEN  =     12028.46983421
  -Hartree energ DENC   =    -15157.78370467
  -exchange      EXHF   =         0.00000000
  -V(xc)+E(xc)   XCENC  =       -79.39947903
  PAW double counting   =      1172.34705142     -851.76765905
  entropy T*S    EENTRO =        -0.02166920
  eigenvalues    EBANDS =      -619.14911146
  atomic energy  EATOM  =      3354.04126044
  ---------------------------------------------------
  free energy    TOTEN  =      -116.45462989 eV

  energy without entropy =     -116.43296069  energy(sigma->0) =     -116.44379529


[...]
     31      -4.1004      2.00000
     32      -3.9446      2.00000
     33      -3.6971      2.00000
     34      -3.5797      2.00000
     35      -3.4904      2.00000
     36      -3.3698      2.00000
     37      -3.1800      2.00000
     38      -3.0077      2.00000
     39      -2.9062      2.00000
     40      -2.7415      2.00000
     41      -2.6599      2.00000
     42      -2.5154      2.00000
     43      -2.4763      2.00000
     44      -1.9918      2.00000
     45      -1.9328      2.00000
     46      -1.8120      2.00000
     47      -1.7357      2.00000
     48      -1.6680      2.00000
     49      -1.3471      2.00000
     50      -1.2681      2.00000
     51      -1.1115      2.00000
     52      -0.9031      2.00000
     53      -0.7881      2.00000
     54      -0.2568      1.99860
     55       0.1794      0.00294
     56       0.5769      0.00000
     57       1.2134      0.00000
     58       1.4644      0.00000
     59       1.5952      0.00000
     60       1.7835      0.00000
     61       2.1016      0.00000
     62       2.2866      0.00000
     63       2.4533      0.00000
     64       2.6403      0.00000
     65       2.7508      0.00000
     66       2.8926      0.00000
     67       3.0829      0.00000
     68       3.2287      0.00000

 k-point    52 :       0.3077    0.5000    0.5000
  band No.  band energies     occupation 
      1     -14.2338      2.00000
      2     -12.4506      2.00000
      3     -12.3970      2.00000
      4     -12.1095      2.00000
      5     -11.7813      2.00000
      6     -11.5771      2.00000
      7     -11.3613      2.00000
      8     -10.9614      2.00000
      9     -10.7528      2.00000
     10     -10.6322      2.00000
     11     -10.3380      2.00000
     12     -10.1966      2.00000
     13      -8.8708      2.00000
     14      -8.8645      2.00000
     15      -8.5379      2.00000
     16      -7.7169      2.00000
     17      -7.6460      2.00000
     18      -7.1690      2.00000
     19      -7.0062      2.00000
     20      -6.9065      2.00000
     21      -6.5279      2.00000
     22      -6.1334      2.00000
     23      -5.8662      2.00000
     24      -5.7249      2.00000
     25      -5.5794      2.00000
     26      -5.3028      2.00000
     27      -4.8704      2.00000
     28      -4.8394      2.00000
     29      -4.6487      2.00000
     30      -4.4140      2.00000
     31      -4.2591      2.00000
     32      -4.1375      2.00000
     33      -4.0272      2.00000
     34      -3.8614      2.00000
     35      -3.6314      2.00000
     36      -3.4536      2.00000
     37      -3.1924      2.00000
     38      -3.0265      2.00000
     39      -2.9541      2.00000
     40      -2.8406      2.00000
     41      -2.7279      2.00000
     42      -2.6536      2.00000
     43      -2.4698      2.00000
     44      -2.2279      2.00000
     45      -2.1948      2.00000
     46      -1.9302      2.00000
     47      -1.8539      2.00000
     48      -1.8255      2.00000
     49      -1.7019      2.00000
     50      -1.6400      2.00000
     51      -1.3430      2.00000
     52      -1.1396      2.00000
     53      -0.7397      2.00000
     54      -0.2679      1.99920
     55       0.0423      0.30098
     56       0.3894      0.00000
     57       0.8355      0.00000
     58       1.3060      0.00000
     59       1.3906      0.00000
     60       1.5592      0.00000
     61       1.9509      0.00000
     62       2.2059      0.00000
     63       2.2465      0.00000
     64       2.3322      0.00000
     65       2.5114      0.00000
     66       2.6107      0.00000
     67       2.7406      0.00000
     68       3.0007      0.00000

 k-point    53 :       0.3846    0.5000    0.5000
  band No.  band energies     occupation 
      1     -13.9194      2.00000
      2     -11.9746      2.00000
      3     -11.9324      2.00000
      4     -11.6126      2.00000
      5     -11.4719      2.00000
      6     -11.1832      2.00000
      7     -11.0912      2.00000
      8     -10.7164      2.00000
      9     -10.5650      2.00000
     10     -10.5489      2.00000
     11     -10.4041      2.00000
     12     -10.1803      2.00000
     13      -8.9839      2.00000
     14      -8.8502      2.00000
     15      -8.6130      2.00000
     16      -8.1910      2.00000
     17      -8.0426      2.00000
     18      -7.6229      2.00000
     19      -7.5574      2.00000
     20      -7.3231      2.00000
     21      -7.0900      2.00000
     22      -6.6646      2.00000
     23      -6.6015      2.00000
     24      -6.2276      2.00000
     25      -5.6841      2.00000
     26      -5.2437      2.00000
     27      -4.7565      2.00000
     28      -4.6224      2.00000
     29      -4.5203      2.00000
     30      -4.4088      2.00000
     31      -4.2570      2.00000
     32      -4.0894      2.00000
     33      -4.0668      2.00000
     34      -3.9762      2.00000
     35      -3.5892      2.00000
     36      -3.4893      2.00000
     37      -3.4365      2.00000
     38      -3.1450      2.00000
     39      -3.0936      2.00000
     40      -3.0697      2.00000
     41      -2.8502      2.00000
     42      -2.7758      2.00000
     43      -2.5254      2.00000
     44      -2.4450      2.00000
     45      -2.2941      2.00000
     46      -2.1573      2.00000
     47      -2.0265      2.00000
     48      -2.0043      2.00000
     49      -1.8466      2.00000
     50      -1.7856      2.00000
     51      -1.4540      2.00000
     52      -1.2752      2.00000
     53      -0.6526      2.00000
     54      -0.2804      1.99958
     55      -0.0957      1.64029
     56       0.3684      0.00000
     57       0.5447      0.00000
     58       1.2036      0.00000
     59       1.3570      0.00000
     60       1.5746      0.00000
     61       1.7500      0.00000
     62       1.9076      0.00000
     63       2.1035      0.00000
     64       2.1446      0.00000
     65       2.2356      0.00000
     66       2.3790      0.00000
     67       2.5450      0.00000
     68       2.7357      0.00000

 k-point    54 :       0.4615    0.5000    0.5000
  band No.  band energies     occupation 
      1     -13.6988      2.00000
      2     -11.4890      2.00000
      3     -11.4314      2.00000
      4     -11.2804      2.00000
      5     -11.1146      2.00000
      6     -11.0772      2.00000
      7     -10.8852      2.00000
      8     -10.7923      2.00000
      9     -10.6671      2.00000
     10     -10.5629      2.00000
     11     -10.5015      2.00000
     12     -10.2271      2.00000
     13      -9.1402      2.00000
     14      -8.6105      2.00000
     15      -8.5612      2.00000
     16      -8.3805      2.00000
     17      -8.2569      2.00000
     18      -8.0611      2.00000
     19      -7.8836      2.00000
     20      -7.5391      2.00000
     21      -7.4976      2.00000
     22      -7.2306      2.00000
     23      -7.1172      2.00000
     24      -6.4333      2.00000
     25      -5.5811      2.00000
     26      -4.9128      2.00000
     27      -4.8811      2.00000
     28      -4.5978      2.00000
     29      -4.4254      2.00000
     30      -4.2642      2.00000
     31      -4.1061      2.00000
     32      -4.0266      2.00000
     33      -3.9537      2.00000
     34      -3.8694      2.00000
     35      -3.7154      2.00000
     36      -3.5566      2.00000
     37      -3.4937      2.00000
     38      -3.3922      2.00000
     39      -3.2696      2.00000
     40      -3.2040      2.00000
     41      -2.9771      2.00000
     42      -2.9045      2.00000
     43      -2.7267      2.00000
     44      -2.6267      2.00000
     45      -2.3602      2.00000
     46      -2.2930      2.00000
     47      -2.1107      2.00000
     48      -2.0524      2.00000
     49      -1.8405      2.00000
     50      -1.6776      2.00000
     51      -1.5076      2.00000
     52      -1.3263      2.00000
     53      -0.6728      2.00000
     54      -0.2821      1.99962
     55      -0.1092      1.73172
     56       0.2293      0.00023
     57       0.5979      0.00000
     58       1.1064      0.00000
     59       1.3989      0.00000
     60       1.5213      0.00000
     61       1.6455      0.00000
     62       1.7320      0.00000
     63       1.9285      0.00000
     64       2.0434      0.00000
     65       2.1334      0.00000
     66       2.4086      0.00000
     67       2.4927      0.00000
     68       2.6146      0.00000


--------------------------------------------------------------------------------------------------------


 soft charge-density along one line, spin component           1
         0         1         2         3         4         5         6         7         8         9
 total charge-density along one line
 
 pseudopotential strength for first ion, spin component:           1
 29.759   0.008  -0.001  -0.024   0.000  -0.000  -0.001   0.000
  0.008   0.009  -0.000  -0.000  -0.000   0.000   0.000   0.000
 -0.001  -0.000   6.545  -0.001   0.000  -0.003   0.000  -0.000
 -0.024  -0.000  -0.001   6.540   0.000   0.000  -0.002  -0.000
  0.000  -0.000   0.000   0.000   6.546  -0.000  -0.000  -0.003
 -0.000   0.000  -0.003   0.000  -0.000   0.015  -0.000  -0.000
 -0.001   0.000   0.000  -0.002  -0.000  -0.000   0.015  -0.000
  0.000   0.000  -0.000  -0.000  -0.003  -0.000  -0.000   0.015
 total augmentation occupancy for first ion, spin component:           1
  1.814  -0.358   0.007   0.258  -0.000   0.004   0.112   0.000
 -0.358   1.289   0.025   0.864  -0.001   0.003  -0.436   0.000
  0.007   0.025   1.140   0.013  -0.000  -0.505   0.014   0.000
  0.258   0.864   0.013   1.297  -0.001   0.014  -0.420   0.000
 -0.000  -0.001  -0.000  -0.001   1.143   0.000   0.000  -0.528
  0.004   0.003  -0.505   0.014   0.000   0.293  -0.015  -0.000
  0.112  -0.436   0.014  -0.420   0.000  -0.015   0.228  -0.000
  0.000   0.000   0.000   0.000  -0.528  -0.000  -0.000   0.327


------------------------ aborting loop because EDIFF is reached ----------------------------------------


    CHARGE:  cpu time    5.43: real time    5.44
    FORLOC:  cpu time    0.06: real time    0.06
    FORNL :  cpu time   21.96: real time   21.97
    STRESS:  cpu time   72.06: real time   72.19
    FORCOR:  cpu time   15.79: real time   15.80
    FORHAR:  cpu time    0.23: real time    0.23
    MIXING:  cpu time    0.03: real time    0.03
    OFIELD:  cpu time    0.00: real time    0.00

  FORCE on cell =-STRESS in cart. coord.  units (eV):
  Direction    XX          YY          ZZ          XY          YZ          ZX
  --------------------------------------------------------------------------------------
  Alpha Z    36.80885    36.80885    36.80885
  Ewald   14469.21951 13940.05189-16380.80908   -28.18818    19.76369    -5.87985
  Hartree 14989.78294 14557.31332-14389.31439    -2.86854    -2.80349    -2.65085
  E(xc)    -358.31143  -358.94838  -356.60103     0.14824    -0.65898     0.06233
  Local  -31016.86579-30050.60122 29180.74863    25.29082   -12.48832     7.43653
  n-local  1158.27689  1180.08181  1147.97580    -6.23193    14.60568    -0.67518
  augment  -202.56673  -203.81274  -205.56139    -0.13140    -0.62615     0.07768
  Kinetic   927.69814   935.52103   990.38252     4.28724     2.48899    -3.64236
  Fock        0.00000     0.00000     0.00000     0.00000     0.00000     0.00000
  -------------------------------------------------------------------------------------
  Total       4.04236    36.41456    23.62990    -7.69375    20.28143    -5.27170
  in kB       6.46159    58.20753    37.77166   -12.29821    32.41923    -8.42665
  external pressure =       34.15 kB  Pullay stress =        0.00 kB


 VOLUME and BASIS-vectors are now :
 -----------------------------------------------------------------------------
  energy-cutoff  :      300.00
  volume of cell :     1002.32
      direct lattice vectors                 reciprocal lattice vectors
     3.540400000  0.000000000  0.000000000     0.282453960  0.048570342  0.000000000
    -1.770200000 10.294348000  0.000000000     0.000000000  0.097140683  0.000000000
     0.000000000  0.000000000 27.501429000     0.000000000  0.000000000  0.036361747

  length of vectors
     3.540400000 10.445439617 27.501429000     0.286599577  0.097140683  0.036361747


 FORCES acting on ions
    electron-ion (+dipol)            ewald-force                    non-local-force                 convergence-correction
 -----------------------------------------------------------------------------------------------
   -.165E-01 0.101E+02 0.338E+02   -.187E-01 -.990E+01 -.291E+02   0.303E-01 -.215E+00 -.478E+01   -.732E-07 0.776E-06 -.546E-05
   0.266E-01 0.516E+01 -.546E+03   0.196E-01 -.529E+01 0.549E+03   -.833E-01 0.886E-01 -.386E+01   -.716E-07 0.140E-05 0.162E-04
   -.342E-02 0.661E+02 0.463E+02   0.575E-03 -.676E+02 -.421E+02   0.152E-02 0.150E+01 -.411E+01   0.915E-08 0.154E-05 -.768E-05
   0.351E+00 0.136E+02 -.539E+03   -.831E+00 -.152E+02 0.543E+03   0.422E+00 0.190E+01 -.287E+01   -.850E-07 0.289E-05 0.686E-05
   0.221E-03 -.576E+02 0.526E+03   0.821E-04 0.592E+02 -.530E+03   -.726E-03 -.154E+01 0.429E+01   -.563E-07 -.603E-05 -.528E-05
   0.177E+01 -.112E+03 -.726E+02   -.156E+01 0.113E+03 0.707E+02   0.382E+00 -.186E+01 0.288E+01   0.248E-06 -.130E-05 -.868E-06
   -.236E-02 0.543E+02 0.526E+03   0.111E-04 -.563E+02 -.530E+03   0.261E-03 0.191E+01 0.417E+01   0.327E-07 0.276E-05 -.707E-06
   -.553E+00 0.125E+03 -.732E+02   0.238E+00 -.128E+03 0.705E+02   0.274E-01 0.316E+01 0.392E+01   -.862E-06 0.194E-05 0.291E-05
   0.285E-03 0.172E+01 0.573E+03   -.839E-04 -.192E+01 -.577E+03   0.122E-02 0.202E+00 0.478E+01   -.158E-07 0.540E-05 -.835E-05
   -.557E+01 -.230E+02 0.304E+02   0.562E+01 0.230E+02 -.332E+02   0.455E+00 0.748E+00 -.133E+01   0.213E-06 0.655E-06 -.919E-05
   0.176E-02 -.678E+02 0.588E+02   0.246E-02 0.697E+02 -.547E+02   -.184E-02 -.193E+01 -.405E+01   0.806E-08 -.287E-05 -.823E-05
   0.883E+00 -.217E+02 -.555E+03   -.111E+01 0.240E+02 0.558E+03   -.277E+00 -.263E+01 -.140E+01   -.620E-06 -.706E-05 0.315E-05
   0.225E-04 0.316E+02 0.208E+03   -.540E-04 -.337E+02 -.208E+03   0.370E-02 0.214E+01 0.376E+00   0.148E-08 -.706E-07 -.369E-05
   -.978E+01 -.489E+02 -.285E+03   0.867E+01 0.456E+02 0.285E+03   0.172E+01 0.511E+01 0.182E+01   0.657E-07 0.853E-07 0.242E-05
   -.395E-02 -.138E+02 0.140E+03   -.117E-02 0.140E+02 -.143E+03   0.211E-02 -.247E+00 0.254E+01   -.152E-08 -.164E-05 -.691E-05
   -.377E+00 0.376E+02 -.320E+03   0.501E+00 -.367E+02 0.321E+03   0.432E+00 -.955E+00 -.133E+01   0.394E-06 0.117E-06 0.505E-05
   0.290E-02 -.553E+01 0.346E+03   0.553E-04 0.600E+01 -.344E+03   -.153E-02 -.465E+00 -.254E+01   -.517E-09 -.407E-06 -.719E-05
   0.143E+02 -.500E+02 -.115E+03   -.135E+02 0.501E+02 0.114E+03   -.232E+01 0.248E+00 -.170E+01   -.298E-06 0.679E-06 -.123E-05
   -.123E-02 0.102E+02 0.335E+03   0.152E-04 -.105E+02 -.333E+03   -.272E-02 0.223E+00 -.256E+01   -.116E-07 0.577E-05 -.337E-05
   -.149E+02 0.106E+03 -.111E+03   0.142E+02 -.102E+03 0.114E+03   0.770E+01 -.311E+02 -.203E+02   0.444E-06 -.541E-05 0.168E-05
   0.130E-01 0.131E+02 0.128E+03   0.161E-02 -.135E+02 -.131E+03   -.146E-01 0.355E+00 0.252E+01   0.198E-07 0.248E-05 -.423E-05
   0.461E+00 -.103E+02 -.294E+03   -.525E+00 0.103E+02 0.295E+03   0.123E+00 -.545E+00 -.741E+00   0.874E-07 0.375E-05 0.899E-05
   0.669E-03 -.320E+02 0.253E+03   -.595E-04 0.341E+02 -.253E+03   0.175E-02 -.211E+01 -.375E+00   0.165E-07 -.332E-05 -.658E-05
   0.121E+02 -.350E+02 -.290E+03   -.117E+02 0.311E+02 0.288E+03   -.726E+01 0.296E+02 0.201E+02   -.575E-06 -.266E-05 0.525E-05
 -----------------------------------------------------------------------------------------------
   -.134E+01 -.350E+01 0.458E+01   -.888E-14 0.533E-13 0.000E+00   0.135E+01 0.350E+01 -.457E+01   -.113E-05 -.516E-06 -.264E-04
 
 
 POSITION                                       TOTAL-FORCE (eV/Angst)
 -----------------------------------------------------------------------------------
      0.00000      2.34757      6.41229        -0.005138     -0.044894      0.002311
      1.41616      8.52418     14.16300        -0.037274     -0.035765     -0.494673
     -0.00000      9.43147      5.75866        -0.001591     -0.011286      0.074376
     -0.35404      5.31373     13.50937        -0.057605      0.255891      1.096464
     -0.00000      6.40009      2.31424        -0.000697     -0.000174      0.003028
     -0.00000      6.40009     10.06495         0.589107     -0.631495      0.988883
      1.77020     10.27849      2.37372        -0.002362     -0.006688     -0.001267
      1.77020     10.27849     10.12443        -0.287726     -0.044651      1.251828
      1.77020      3.18974      1.66157         0.001149     -0.001142      0.003665
      1.77020      3.18974      9.41228         0.507842      0.769659     -4.212427
      1.77020      5.55354      5.69975         0.002103      0.010384      0.091829
      1.41616      1.43580     13.45047        -0.504596     -0.347069      1.807341
      1.77020      9.05319      4.34076         0.003395     -0.004315      0.004392
      1.41616      4.93545     12.09147         0.600036      1.762758      1.925009
      0.00000      4.22380      5.10944        -0.003283      0.006952      0.046798
      3.18636      0.10606     12.86016         0.555310     -0.025233     -0.297969
     -0.00000      4.15582      2.74166         0.001149      0.000179     -0.012408
     -0.00000      4.15582     10.49237        -1.562548      0.317053     -2.671977
      1.77020      1.31366      2.96438        -0.004203     -0.011989     -0.001766
      1.77020      1.31366     10.71510         7.014622    -27.141840    -17.044321
      1.77020      1.38163      5.33187        -0.000244     -0.000284     -0.011805
     -0.35404      7.55823     13.08259         0.058627     -0.504944     -0.429514
      1.77020      6.77850      3.73234         0.002090      0.001093     -0.000780
      1.41616      2.66076     11.48306        -6.868163     25.687804     17.882982
 -----------------------------------------------------------------------------------
    total drift:                                0.006564     -0.001354      0.003213


--------------------------------------------------------------------------------------------------------



  FREE ENERGIE OF THE ION-ELECTRON SYSTEM (eV)
  ---------------------------------------------------
  free  energy   TOTEN  =      -116.45461227 eV

  energy  without entropy=     -116.43294299  energy(sigma->0) =     -116.44377763
 


--------------------------------------------------------------------------------------------------------


    POTLOK:  cpu time   15.98: real time   15.98


--------------------------------------------------------------------------------------------------------


     LOOP+:  cpu time 3195.26: real time 3199.05
    4ORBIT:  cpu time    0.00: real time    0.00

 total amount of memory used by VASP on root node   146493. kBytes
========================================================================

   base      :      30000. kBytes
   nonlr-proj:       3452. kBytes
   fftplans  :       9347. kBytes
   grid      :      14649. kBytes
   one-center:         36. kBytes
   wavefun   :      89009. kBytes
 
  
  
 General timing and accounting informations for this job:
 ========================================================
  
                  Total CPU time used (sec):     3212.473
                            User time (sec):     3167.782
                          System time (sec):       44.690
                         Elapsed time (sec):     3217.478
  
                   Maximum memory used (kb):      335464.
                   Average memory used (kb):           0.
  
                          Minor page faults:      8195343
                          Major page faults:            8
                 Voluntary context switches:         1438
