       N       E                     dE             d eps       ncg     rms          rms(c)
DAV:   1     0.530408145315E+03    0.53041E+03   -0.28740E+04  7352   0.790E+02
DAV:   2    -0.380321274546E+02   -0.56844E+03   -0.55327E+03  9792   0.191E+02
DAV:   3    -0.972946598529E+02   -0.59263E+02   -0.58409E+02  9024   0.635E+01
DAV:   4    -0.100301992525E+03   -0.30073E+01   -0.29834E+01 11680   0.152E+01
DAV:   5    -0.100352997284E+03   -0.51005E-01   -0.50929E-01 10240   0.206E+00    0.132E+01
DAV:   6    -0.949989224136E+02    0.53541E+01   -0.12567E+01  9088   0.118E+01    0.650E+00
DAV:   7    -0.953328061196E+02   -0.33388E+00   -0.13600E+01  8848   0.877E+00    0.332E+00
DAV:   8    -0.951977370957E+02    0.13507E+00   -0.20926E+00  8976   0.426E+00    0.199E+00
DAV:   9    -0.951994721316E+02   -0.17350E-02   -0.72010E-01  8872   0.213E+00    0.860E-01
DAV:  10    -0.952034549513E+02   -0.39828E-02   -0.12869E-01  8856   0.106E+00    0.353E-01
DAV:  11    -0.951980824796E+02    0.53725E-02   -0.36713E-02  8928   0.518E-01    0.163E-01
DAV:  12    -0.951851288287E+02    0.12954E-01   -0.75954E-03  8672   0.263E-01    0.633E-02
DAV:  13    -0.951804297764E+02    0.46991E-02   -0.11366E-03  9440   0.103E-01    0.297E-02
DAV:  14    -0.951776738595E+02    0.27559E-02   -0.22648E-04  9776   0.446E-02    0.165E-02
DAV:  15    -0.951762138848E+02    0.14600E-02   -0.81653E-05  9336   0.263E-02    0.969E-03
DAV:  16    -0.951760047097E+02    0.20918E-03   -0.46258E-05  8384   0.207E-02    0.603E-03
DAV:  17    -0.951767350368E+02   -0.73033E-03   -0.13475E-04  8288   0.246E-02    0.324E-03
DAV:  18    -0.951769988753E+02   -0.26384E-03   -0.11648E-04  7768   0.186E-02    0.199E-03
DAV:  19    -0.951770284777E+02   -0.29602E-04   -0.25719E-05  7488   0.107E-02    0.118E-03
DAV:  20    -0.951770526127E+02   -0.24135E-04   -0.24972E-05  6872   0.105E-02    0.910E-04
DAV:  21    -0.951770417986E+02    0.10814E-04   -0.11168E-05  6816   0.825E-03    0.506E-04
DAV:  22    -0.951770157354E+02    0.26063E-04   -0.25186E-05  7376   0.925E-03    0.400E-04
DAV:  23    -0.951769768721E+02    0.38863E-04   -0.14811E-05  6556   0.105E-02    0.180E-04
DAV:  24    -0.951769386952E+02    0.38177E-04   -0.65681E-06  6912   0.727E-03    0.106E-04
DAV:  25    -0.951769368475E+02    0.18477E-05   -0.70036E-06  6188   0.761E-03    0.491E-05
DAV:  26    -0.951769261536E+02    0.10694E-04   -0.28260E-06  6160   0.625E-03    0.291E-05
DAV:  27    -0.951769226851E+02    0.34685E-05   -0.20477E-06  5672   0.521E-03    0.142E-05
DAV:  28    -0.951769206176E+02    0.20675E-05   -0.16971E-06  5968   0.489E-03    0.830E-06
DAV:  29    -0.951769199943E+02    0.62333E-06   -0.96070E-07  5292   0.402E-03
   1 F= -.95176920E+02 E0= -.95164791E+02  d E =-.242571E-01
