<?xml version="1.0" encoding="ISO-8859-1"?>
<modeling>
 <generator>
  <i name="program" type="string">vasp </i>
  <i name="version" type="string">5.4.1  </i>
  <i name="subversion" type="string">24Jun15 (build May 10 2016 14:18:23) complex                          parallel </i>
  <i name="platform" type="string">IFC91_ompi </i>
  <i name="date" type="string">2016 12 09 </i>
  <i name="time" type="string">15:27:58 </i>
 </generator>
 <incar>
  <i type="string" name="PREC">accurate</i>
  <i type="string" name="ALGO"> Fast</i>
  <i type="int" name="ISPIN">     2</i>
  <i type="int" name="IBRION">     2</i>
  <i name="EDIFF">      0.00010000</i>
  <i type="int" name="NSW">     0</i>
  <i type="int" name="ISIF">     3</i>
  <i name="ENCUT">    500.00000000</i>
  <v name="MAGMOM">      6.00000000      0.50000000      0.50000000      6.00000000      0.50000000      0.50000000</v>
  <i type="string" name="LREAL"> Auto</i>
  <i type="int" name="ISMEAR">     1</i>
  <i name="SIGMA">      0.10000000</i>
  <i type="logical" name="LWAVE"> F  </i>
  <i type="logical" name="LCHARG"> F  </i>
  <i type="logical" name="LVTOT"> T  </i>
  <i type="logical" name="LVHAR"> T  </i>
  <i type="logical" name="LAECHG"> F  </i>
  <v type="int" name="KPOINT_BSE">    -1     0     0     0</v>
  <i type="string" name="GGA"> Bo</i>
  <i name="PARAM1">      0.18333333</i>
  <i name="PARAM2">      0.22000000</i>
  <i type="logical" name="LUSE_VDW"> T  </i>
  <i name="AGGAC">      0.00000000</i>
 </incar>
 <kpoints>
  <generation param="Gamma">
   <v type="int" name="divisions">      13       13        1 </v>
   <v name="usershift">      0.00000000       0.00000000       0.00000000 </v>
   <v name="genvec1">      0.07692308       0.00000000       0.00000000 </v>
   <v name="genvec2">      0.00000000       0.07692308       0.00000000 </v>
   <v name="genvec3">      0.00000000       0.00000000       1.00000000 </v>
   <v name="shift">      0.00000000       0.00000000       0.00000000 </v>
  </generation>
  <varray name="kpointlist" >
   <v>       0.00000000       0.00000000       0.00000000 </v>
   <v>       0.07692308      -0.00000000       0.00000000 </v>
   <v>       0.15384615       0.00000000       0.00000000 </v>
   <v>       0.23076923       0.00000000       0.00000000 </v>
   <v>       0.30769231      -0.00000000       0.00000000 </v>
   <v>       0.38461538       0.00000000       0.00000000 </v>
   <v>       0.46153846       0.00000000       0.00000000 </v>
   <v>       0.00000000       0.07692308       0.00000000 </v>
   <v>       0.07692308       0.07692308       0.00000000 </v>
   <v>       0.15384615       0.07692308       0.00000000 </v>
   <v>       0.23076923       0.07692308       0.00000000 </v>
   <v>       0.30769231       0.07692308       0.00000000 </v>
   <v>       0.38461538       0.07692308       0.00000000 </v>
   <v>       0.46153846       0.07692308       0.00000000 </v>
   <v>      -0.46153846       0.07692308       0.00000000 </v>
   <v>      -0.38461538       0.07692308       0.00000000 </v>
   <v>      -0.30769231       0.07692308       0.00000000 </v>
   <v>      -0.23076923       0.07692308       0.00000000 </v>
   <v>      -0.15384615       0.07692308       0.00000000 </v>
   <v>      -0.07692308       0.07692308       0.00000000 </v>
   <v>       0.00000000       0.15384615       0.00000000 </v>
   <v>       0.07692308       0.15384615       0.00000000 </v>
   <v>       0.15384615       0.15384615       0.00000000 </v>
   <v>       0.23076923       0.15384615       0.00000000 </v>
   <v>       0.30769231       0.15384615       0.00000000 </v>
   <v>       0.38461538       0.15384615       0.00000000 </v>
   <v>       0.46153846       0.15384615       0.00000000 </v>
   <v>      -0.46153846       0.15384615       0.00000000 </v>
   <v>      -0.38461538       0.15384615       0.00000000 </v>
   <v>      -0.30769231       0.15384615       0.00000000 </v>
   <v>      -0.23076923       0.15384615       0.00000000 </v>
   <v>      -0.15384615       0.15384615       0.00000000 </v>
   <v>      -0.07692308       0.15384615       0.00000000 </v>
   <v>       0.00000000       0.23076923       0.00000000 </v>
   <v>       0.07692308       0.23076923       0.00000000 </v>
   <v>       0.15384615       0.23076923       0.00000000 </v>
   <v>       0.23076923       0.23076923       0.00000000 </v>
   <v>       0.30769231       0.23076923       0.00000000 </v>
   <v>       0.38461538       0.23076923       0.00000000 </v>
   <v>       0.46153846       0.23076923       0.00000000 </v>
   <v>      -0.46153846       0.23076923       0.00000000 </v>
   <v>      -0.38461538       0.23076923       0.00000000 </v>
   <v>      -0.30769231       0.23076923       0.00000000 </v>
   <v>      -0.23076923       0.23076923       0.00000000 </v>
   <v>      -0.15384615       0.23076923       0.00000000 </v>
   <v>      -0.07692308       0.23076923       0.00000000 </v>
   <v>       0.00000000       0.30769231       0.00000000 </v>
   <v>       0.07692308       0.30769231       0.00000000 </v>
   <v>       0.15384615       0.30769231       0.00000000 </v>
   <v>       0.23076923       0.30769231       0.00000000 </v>
   <v>       0.30769231       0.30769231       0.00000000 </v>
   <v>       0.38461538       0.30769231       0.00000000 </v>
   <v>       0.46153846       0.30769231       0.00000000 </v>
   <v>      -0.46153846       0.30769231       0.00000000 </v>
   <v>      -0.38461538       0.30769231       0.00000000 </v>
   <v>      -0.30769231       0.30769231       0.00000000 </v>
   <v>      -0.23076923       0.30769231       0.00000000 </v>
   <v>      -0.15384615       0.30769231       0.00000000 </v>
   <v>      -0.07692308       0.30769231       0.00000000 </v>
   <v>       0.00000000       0.38461538       0.00000000 </v>
   <v>       0.07692308       0.38461538       0.00000000 </v>
   <v>       0.15384615       0.38461538       0.00000000 </v>
   <v>       0.23076923       0.38461538       0.00000000 </v>
   <v>       0.30769231       0.38461538       0.00000000 </v>
   <v>       0.38461538       0.38461538       0.00000000 </v>
   <v>       0.46153846       0.38461538       0.00000000 </v>
   <v>      -0.46153846       0.38461538       0.00000000 </v>
   <v>      -0.38461538       0.38461538       0.00000000 </v>
   <v>      -0.30769231       0.38461538       0.00000000 </v>
   <v>      -0.23076923       0.38461538       0.00000000 </v>
   <v>      -0.15384615       0.38461538       0.00000000 </v>
   <v>      -0.07692308       0.38461538       0.00000000 </v>
   <v>       0.00000000       0.46153846       0.00000000 </v>
   <v>       0.07692308       0.46153846       0.00000000 </v>
   <v>       0.15384615       0.46153846       0.00000000 </v>
   <v>       0.23076923       0.46153846       0.00000000 </v>
   <v>       0.30769231       0.46153846       0.00000000 </v>
   <v>       0.38461538       0.46153846       0.00000000 </v>
   <v>       0.46153846       0.46153846       0.00000000 </v>
   <v>      -0.46153846       0.46153846       0.00000000 </v>
   <v>      -0.38461538       0.46153846       0.00000000 </v>
   <v>      -0.30769231       0.46153846       0.00000000 </v>
   <v>      -0.23076923       0.46153846       0.00000000 </v>
   <v>      -0.15384615       0.46153846       0.00000000 </v>
   <v>      -0.07692308       0.46153846       0.00000000 </v>
  </varray>
  <varray name="weights" >
   <v>       0.00591716 </v>
   <v>       0.01183432 </v>
   <v>       0.01183432 </v>
   <v>       0.01183432 </v>
   <v>       0.01183432 </v>
   <v>       0.01183432 </v>
   <v>       0.01183432 </v>
   <v>       0.01183432 </v>
   <v>       0.01183432 </v>
   <v>       0.01183432 </v>
   <v>       0.01183432 </v>
   <v>       0.01183432 </v>
   <v>       0.01183432 </v>
   <v>       0.01183432 </v>
   <v>       0.01183432 </v>
   <v>       0.01183432 </v>
   <v>       0.01183432 </v>
   <v>       0.01183432 </v>
   <v>       0.01183432 </v>
   <v>       0.01183432 </v>
   <v>       0.01183432 </v>
   <v>       0.01183432 </v>
   <v>       0.01183432 </v>
   <v>       0.01183432 </v>
   <v>       0.01183432 </v>
   <v>       0.01183432 </v>
   <v>       0.01183432 </v>
   <v>       0.01183432 </v>
   <v>       0.01183432 </v>
   <v>       0.01183432 </v>
   <v>       0.01183432 </v>
   <v>       0.01183432 </v>
   <v>       0.01183432 </v>
   <v>       0.01183432 </v>
   <v>       0.01183432 </v>
   <v>       0.01183432 </v>
   <v>       0.01183432 </v>
   <v>       0.01183432 </v>
   <v>       0.01183432 </v>
   <v>       0.01183432 </v>
   <v>       0.01183432 </v>
   <v>       0.01183432 </v>
   <v>       0.01183432 </v>
   <v>       0.01183432 </v>
   <v>       0.01183432 </v>
   <v>       0.01183432 </v>
   <v>       0.01183432 </v>
   <v>       0.01183432 </v>
   <v>       0.01183432 </v>
   <v>       0.01183432 </v>
   <v>       0.01183432 </v>
   <v>       0.01183432 </v>
   <v>       0.01183432 </v>
   <v>       0.01183432 </v>
   <v>       0.01183432 </v>
   <v>       0.01183432 </v>
   <v>       0.01183432 </v>
   <v>       0.01183432 </v>
   <v>       0.01183432 </v>
   <v>       0.01183432 </v>
   <v>       0.01183432 </v>
   <v>       0.01183432 </v>
   <v>       0.01183432 </v>
   <v>       0.01183432 </v>
   <v>       0.01183432 </v>
   <v>       0.01183432 </v>
   <v>       0.01183432 </v>
   <v>       0.01183432 </v>
   <v>       0.01183432 </v>
   <v>       0.01183432 </v>
   <v>       0.01183432 </v>
   <v>       0.01183432 </v>
   <v>       0.01183432 </v>
   <v>       0.01183432 </v>
   <v>       0.01183432 </v>
   <v>       0.01183432 </v>
   <v>       0.01183432 </v>
   <v>       0.01183432 </v>
   <v>       0.01183432 </v>
   <v>       0.01183432 </v>
   <v>       0.01183432 </v>
   <v>       0.01183432 </v>
   <v>       0.01183432 </v>
   <v>       0.01183432 </v>
   <v>       0.01183432 </v>
  </varray>
 </kpoints>
 <parameters>
  <separator name="general" >
   <i type="string" name="SYSTEM">unknown system</i>
   <i type="logical" name="LCOMPAT"> F  </i>
  </separator>
  <separator name="electronic" >
   <i type="string" name="PREC">accura</i>
   <i name="ENMAX">    500.00000000</i>
   <i name="ENAUG">    392.42700000</i>
   <i name="EDIFF">      0.00010000</i>
   <i type="int" name="IALGO">    68</i>
   <i type="int" name="IWAVPR">    10</i>
   <i type="int" name="NBANDS">    36</i>
   <i name="NELECT">     48.00000000</i>
   <i type="int" name="TURBO">     0</i>
   <i type="int" name="IRESTART">     0</i>
   <i type="int" name="NREBOOT">     0</i>
   <i type="int" name="NMIN">     0</i>
   <i name="EREF">      0.00000000</i>
   <separator name="electronic smearing" >
    <i type="int" name="ISMEAR">     1</i>
    <i name="SIGMA">      0.10000000</i>
    <i name="KSPACING">      0.50000000</i>
    <i type="logical" name="KGAMMA"> T  </i>
   </separator>
   <separator name="electronic projectors" >
    <i type="logical" name="LREAL"> T  </i>
    <v name="ROPT">     -0.00025000     -0.00025000     -0.00025000     -0.00025000</v>
    <i type="int" name="LMAXPAW">  -100</i>
    <i type="int" name="LMAXMIX">     2</i>
    <i type="logical" name="NLSPLINE"> F  </i>
   </separator>
   <separator name="electronic startup" >
    <i type="int" name="ISTART">     0</i>
    <i type="int" name="ICHARG">     2</i>
    <i type="int" name="INIWAV">     1</i>
   </separator>
   <separator name="electronic spin" >
    <i type="int" name="ISPIN">     2</i>
    <i type="logical" name="LNONCOLLINEAR"> F  </i>
    <v name="MAGMOM">      6.00000000      0.50000000      0.50000000      6.00000000      0.50000000      0.50000000</v>
    <i name="NUPDOWN">     -1.00000000</i>
    <i type="logical" name="LSORBIT"> F  </i>
    <v name="SAXIS">      0.00000000      0.00000000      1.00000000</v>
    <i type="logical" name="LSPIRAL"> F  </i>
    <v name="QSPIRAL">      0.00000000      0.00000000      0.00000000</v>
    <i type="logical" name="LZEROZ"> F  </i>
   </separator>
   <separator name="electronic exchange-correlation" >
    <i type="logical" name="LASPH"> F  </i>
    <i type="logical" name="LMETAGGA"> F  </i>
   </separator>
   <separator name="electronic convergence" >
    <i type="int" name="NELM">    60</i>
    <i type="int" name="NELMDL">     0</i>
    <i type="int" name="NELMIN">     2</i>
    <i name="ENINI">    500.00000000</i>
    <separator name="electronic convergence detail" >
     <i type="logical" name="LDIAG"> T  </i>
     <i type="logical" name="LSUBROT"> F  </i>
     <i name="WEIMIN">      0.00000000</i>
     <i name="EBREAK">      0.00000069</i>
     <i name="DEPER">      0.30000000</i>
     <i type="int" name="NRMM">     4</i>
     <i name="TIME">      0.40000000</i>
    </separator>
   </separator>
   <separator name="electronic mixer" >
    <i name="AMIX">      0.40000000</i>
    <i name="BMIX">      1.00000000</i>
    <i name="AMIN">      0.10000000</i>
    <i name="AMIX_MAG">      1.60000000</i>
    <i name="BMIX_MAG">      1.00000000</i>
    <separator name="electronic mixer details" >
     <i type="int" name="IMIX">     4</i>
     <i type="logical" name="MIXFIRST"> F  </i>
     <i type="int" name="MAXMIX">   -45</i>
     <i name="WC">    100.00000000</i>
     <i type="int" name="INIMIX">     1</i>
     <i type="int" name="MIXPRE">     1</i>
     <i type="int" name="MREMOVE">     5</i>
    </separator>
   </separator>
   <separator name="electronic dipolcorrection" >
    <i type="logical" name="LDIPOL"> F  </i>
    <i type="logical" name="LMONO"> F  </i>
    <i type="int" name="IDIPOL">     0</i>
    <i name="EPSILON">      1.00000000</i>
    <v name="DIPOL">   -100.00000000   -100.00000000   -100.00000000</v>
    <i name="EFIELD">      0.00000000</i>
   </separator>
  </separator>
  <separator name="grids" >
   <i type="int" name="NGX">    24</i>
   <i type="int" name="NGY">    24</i>
   <i type="int" name="NGZ">   180</i>
   <i type="int" name="NGXF">    48</i>
   <i type="int" name="NGYF">    48</i>
   <i type="int" name="NGZF">   360</i>
   <i type="logical" name="ADDGRID"> F  </i>
  </separator>
  <separator name="ionic" >
   <i type="int" name="NSW">     0</i>
   <i type="int" name="IBRION">    -1</i>
   <i type="int" name="ISIF">     3</i>
   <i name="PSTRESS">      0.00000000</i>
   <i name="EDIFFG">      0.00100000</i>
   <i type="int" name="NFREE">     1</i>
   <i name="POTIM">      0.50000000</i>
   <i name="SMASS">     -3.00000000</i>
   <i name="SCALEE">      1.00000000</i>
  </separator>
  <separator name="ionic md" >
   <i name="TEBEG">      0.00010000</i>
   <i name="TEEND">      0.00010000</i>
   <i type="int" name="NBLOCK">     1</i>
   <i type="int" name="KBLOCK">     1</i>
   <i type="int" name="NPACO">   256</i>
   <i name="APACO">     16.00000000</i>
  </separator>
  <separator name="symmetry" >
   <i type="int" name="ISYM">     2</i>
   <i name="SYMPREC">      0.00001000</i>
  </separator>
  <separator name="dos" >
   <i type="logical" name="LORBIT"> F  </i>
   <v name="RWIGS">     -1.00000000     -1.00000000     -1.00000000     -1.00000000</v>
   <i type="int" name="NEDOS">   301</i>
   <i name="EMIN">     10.00000000</i>
   <i name="EMAX">    -10.00000000</i>
   <i name="EFERMI">      0.00000000</i>
  </separator>
  <separator name="writing" >
   <i type="int" name="NWRITE">     2</i>
   <i type="logical" name="LWAVE"> F  </i>
   <i type="logical" name="LCHARG"> F  </i>
   <i type="logical" name="LPARD"> F  </i>
   <i type="logical" name="LVTOT"> F  </i>
   <i type="logical" name="LVHAR"> T  </i>
   <i type="logical" name="LELF"> F  </i>
   <i type="logical" name="LOPTICS"> F  </i>
   <v name="STM">      0.00000000      0.00000000      0.00000000      0.00000000      0.00000000      0.00000000      0.00000000</v>
  </separator>
  <separator name="performance" >
   <i type="int" name="NPAR">     4</i>
   <i type="int" name="NSIM">     4</i>
   <i type="int" name="NBLK">    -1</i>
   <i type="logical" name="LPLANE"> T  </i>
   <i type="logical" name="LSCALAPACK"> T  </i>
   <i type="logical" name="LSCAAWARE"> F  </i>
   <i type="logical" name="LSCALU"> F  </i>
   <i type="logical" name="LASYNC"> F  </i>
   <i type="logical" name="LORBITALREAL"> F  </i>
  </separator>
  <separator name="miscellaneous" >
   <i type="int" name="IDIOT">     3</i>
   <i type="logical" name="LMUSIC"> F  </i>
   <v name="POMASS">     95.94000000     32.06600000     95.94000000     32.06600000</v>
   <v name="DARWINR">      0.00000000      0.00000000      0.00000000      0.00000000</v>
   <v name="DARWINV">      1.00000000      1.00000000      1.00000000      1.00000000</v>
   <i type="logical" name="LCORR"> T  </i>
  </separator>
  <i type="logical" name="GGA_COMPAT"> T  </i>
  <i type="logical" name="LBERRY"> F  </i>
  <i type="int" name="ICORELEVEL">     0</i>
  <i type="logical" name="LDAU"> F  </i>
  <i type="int" name="I_CONSTRAINED_M">     0</i>
  <separator name="electronic exchange-correlation" >
   <i type="string" name="GGA">BO</i>
   <i type="int" name="VOSKOWN">     0</i>
   <i type="logical" name="LHFCALC"> F  </i>
   <i type="string" name="PRECFOCK"></i>
   <i type="logical" name="LSYMGRAD"> F  </i>
   <i type="logical" name="LHFONE"> F  </i>
   <i type="logical" name="LRHFCALC"> F  </i>
   <i type="logical" name="LTHOMAS"> F  </i>
   <i type="logical" name="LMODELHF"> F  </i>
   <i name="ENCUT4O">     -1.00000000</i>
   <i type="int" name="EXXOEP">     0</i>
   <i type="int" name="FOURORBIT">     0</i>
   <i name="AEXX">      0.00000000</i>
   <i name="HFALPHA">      0.00000000</i>
   <i name="MCALPHA">      0.00000000</i>
   <i name="ALDAX">      1.00000000</i>
   <i name="AGGAX">      1.00000000</i>
   <i name="ALDAC">      1.00000000</i>
   <i name="AGGAC">      0.00000000</i>
   <i type="int" name="NKREDX">     1</i>
   <i type="int" name="NKREDY">     1</i>
   <i type="int" name="NKREDZ">     1</i>
   <i type="logical" name="SHIFTRED"> F  </i>
   <i type="logical" name="ODDONLY"> F  </i>
   <i type="logical" name="EVENONLY"> F  </i>
   <i type="int" name="LMAXFOCK">     0</i>
   <i type="int" name="NMAXFOCKAE">     0</i>
   <i type="logical" name="LFOCKAEDFT"> F  </i>
   <i name="HFSCREEN">      0.00000000</i>
   <i name="HFSCREENC">      0.00000000</i>
   <i type="int" name="NBANDSGWLOW">     0</i>
  </separator>
  <separator name="vdW DFT" >
   <i type="logical" name="LUSE_VDW"> T  </i>
   <i name="Zab_VDW">     -0.84910000</i>
   <i name="PARAM1">      0.18333333</i>
   <i name="PARAM2">      0.22000000</i>
   <i name="PARAM3">      0.00000000</i>
  </separator>
  <separator name="model GW" >
   <i type="int" name="MODEL_GW">     0</i>
   <i name="MODEL_EPS0">     20.39722663</i>
   <i name="MODEL_ALPHA">      1.00000000</i>
  </separator>
  <separator name="linear response parameters" >
   <i type="logical" name="LEPSILON"> F  </i>
   <i type="logical" name="LRPA"> F  </i>
   <i type="logical" name="LNABLA"> F  </i>
   <i type="logical" name="LVEL"> F  </i>
   <i type="int" name="KINTER">     0</i>
   <i name="CSHIFT">      0.10000000</i>
   <i name="OMEGAMAX">     -1.00000000</i>
   <i name="DEG_THRESHOLD">      0.00200000</i>
  </separator>
  <separator name="orbital magnetization" >
   <i type="logical" name="NUCIND"> F  </i>
   <v name="MAGPOS">      0.00000000      0.00000000      0.00000000</v>
   <i type="logical" name="LNICSALL"> T  </i>
   <i type="logical" name="ORBITALMAG"> F  </i>
   <i type="logical" name="LMAGBLOCH"> F  </i>
   <i type="logical" name="LCHIMAG"> F  </i>
   <i type="logical" name="LGAUGE"> T  </i>
   <i type="int" name="MAGATOM">     0</i>
   <v name="MAGDIPOL">      0.00000000      0.00000000      0.00000000</v>
   <v name="AVECCONST">      0.00000000      0.00000000      0.00000000</v>
  </separator>
  <separator name="response functions" >
   <i type="logical" name="LADDER"> F  </i>
   <i type="logical" name="LFXC"> F  </i>
   <i type="logical" name="LHARTREE"> T  </i>
   <i type="int" name="IBSE">     0</i>
   <v type="int" name="KPOINT">    -1     0     0     0</v>
   <i type="logical" name="LTCTE"> F  </i>
   <i type="logical" name="LTETE"> F  </i>
   <i type="logical" name="LTRIPLET"> F  </i>
   <i type="logical" name="LFXCEPS"> F  </i>
   <i type="logical" name="LFXHEG"> F  </i>
   <i type="int" name="NATURALO">     0</i>
   <i type="logical" name="L2ORDER"> F  </i>
   <i type="logical" name="LUSEW"> F  </i>
   <i name="ENCUTGW">     -2.00000000</i>
   <i name="ENCUTGWSOFT">     -2.00000000</i>
   <i name="ENCUTLF">     -1.00000000</i>
   <i type="int" name="LMAXMP2">    -1</i>
   <i name="SCISSOR">      0.00000000</i>
   <i type="int" name="NOMEGA">     0</i>
   <i type="int" name="NOMEGAR">     0</i>
   <i type="int" name="NBANDSGW">    -1</i>
   <i type="int" name="NBANDSO">    -1</i>
   <i type="int" name="NBANDSV">    -1</i>
   <i type="int" name="NELM">     1</i>
   <i type="int" name="NELMHF">     1</i>
   <i type="int" name="DIM">     3</i>
   <i type="int" name="ANTIRES">     0</i>
   <i name="OMEGAMAX">    -30.00000000</i>
   <i name="OMEGAMIN">    -30.00000000</i>
   <i name="OMEGATL">   -200.00000000</i>
   <i type="int" name="OMEGAGRID">     0</i>
   <i name="CSHIFT">     -0.10000000</i>
   <i type="logical" name="SELFENERGY"> F  </i>
   <i type="logical" name="LSPECTRAL"> F  </i>
   <i type="logical" name="LSPECTRALGW"> F  </i>
   <i type="logical" name="LSINGLES"> F  </i>
   <i type="logical" name="LFERMIGW"> F  </i>
   <i type="logical" name="ODDONLYGW"> F  </i>
   <i type="logical" name="EVENONLYGW"> F  </i>
   <i type="int" name="NKREDLFX">     1</i>
   <i type="int" name="NKREDLFY">     1</i>
   <i type="int" name="NKREDLFZ">     1</i>
   <i type="int" name="MAXMEM">  1800</i>
   <i type="int" name="TELESCOPE">     0</i>
   <i type="int" name="TAUPAR">     1</i>
   <i type="int" name="OMEGAPAR">    -1</i>
   <i name="LAMBDA">      1.00000000</i>
  </separator>
  <separator name="External order field" >
   <i name="OFIELD_KAPPA">      0.00000000</i>
   <v name="OFIELD_K">      0.00000000      0.00000000      0.00000000</v>
   <i name="OFIELD_Q6_NEAR">      0.00000000</i>
   <i name="OFIELD_Q6_FAR">      0.00000000</i>
   <i name="OFIELD_A">      0.00000000</i>
  </separator>
 </parameters>
 <atominfo>
  <atoms>       6 </atoms>
  <types>       4 </types>
  <array name="atoms" >
   <dimension dim="1">ion</dimension>
   <field type="string">element</field>
   <field type="int">atomtype</field>
   <set>
    <rc><c>Mo</c><c>   1</c></rc>
    <rc><c>S </c><c>   2</c></rc>
    <rc><c>S </c><c>   2</c></rc>
    <rc><c>Mo</c><c>   3</c></rc>
    <rc><c>S </c><c>   4</c></rc>
    <rc><c>S </c><c>   4</c></rc>
   </set>
  </array>
  <array name="atomtypes" >
   <dimension dim="1">type</dimension>
   <field type="int">atomspertype</field>
   <field type="string">element</field>
   <field>mass</field>
   <field>valence</field>
   <field type="string">pseudopotential</field>
   <set>
    <rc><c>   1</c><c>Mo</c><c>     95.94000000</c><c>     12.00000000</c><c> PAW_PBE Mo_pv 08Apr2002                </c></rc>
    <rc><c>   2</c><c>S </c><c>     32.06600000</c><c>      6.00000000</c><c>  PAW_PBE S 17Jan2003                   </c></rc>
    <rc><c>   1</c><c>Mo</c><c>     95.94000000</c><c>     12.00000000</c><c> PAW_PBE Mo_pv 08Apr2002                </c></rc>
    <rc><c>   2</c><c>S </c><c>     32.06600000</c><c>      6.00000000</c><c>  PAW_PBE S 17Jan2003                   </c></rc>
   </set>
  </array>
 </atominfo>
 <structure name="initialpos" >
  <crystal>
   <varray name="basis" >
    <v>       3.19031700       0.00000000       0.00000000 </v>
    <v>      -1.59515800       2.76289700       0.00000000 </v>
    <v>       0.00000000       0.00000000      23.14049200 </v>
   </varray>
   <i name="volume">    203.97226633 </i>
   <varray name="rec_basis" >
    <v>       0.31344848       0.18096941       0.00000000 </v>
    <v>       0.00000000       0.36193894       0.00000000 </v>
    <v>       0.00000000       0.00000000       0.04321429 </v>
   </varray>
  </crystal>
  <varray name="positions" >
   <v>       0.66666700       0.33333300       0.06785900 </v>
   <v>       0.33333300       0.66666700       0.00000000 </v>
   <v>       0.33333300       0.66666700       0.13571500 </v>
   <v>       0.52380986       0.90476157       0.35482300 </v>
   <v>       0.19047586       0.23809557       0.28696500 </v>
   <v>       0.19047586       0.23809557       0.42267900 </v>
  </varray>
 </structure>
 <calculation>
  <scstep>
   <time name="dav">  108.71  108.80</time>
   <time name="total">  128.26  128.44</time>
   <energy>
    <i name="alphaZ">    104.15310261 </i>
    <i name="ewald">   7699.04583314 </i>
    <i name="hartreedc"> -11109.09877540 </i>
    <i name="XCdc">    128.46409973 </i>
    <i name="pawpsdc">   2252.92270536 </i>
    <i name="pawaedc">  -2205.68654582 </i>
    <i name="eentropy">     -0.00085875 </i>
    <i name="bandstr">   -159.45941244 </i>
    <i name="atom">   3688.31848598 </i>
    <i name="e_fr_energy">    398.65863441 </i>
    <i name="e_wo_entrp">    398.65949316 </i>
    <i name="e_0_energy">    398.65892066 </i>
   </energy>
  </scstep>
  <scstep>
   <time name="dav">  117.59  117.68</time>
   <time name="total">  117.60  117.90</time>
   <energy>
    <i name="e_fr_energy">     -1.72245744 </i>
    <i name="e_wo_entrp">     -1.72296001 </i>
    <i name="e_0_energy">     -1.72262496 </i>
   </energy>
  </scstep>
  <scstep>
   <time name="dav">  121.35  121.45</time>
   <time name="total">  121.37  121.68</time>
   <energy>
    <i name="e_fr_energy">    -32.97700414 </i>
    <i name="e_wo_entrp">    -32.97793447 </i>
    <i name="e_0_energy">    -32.97731425 </i>
   </energy>
  </scstep>
  <scstep>
   <time name="dav">  117.27  117.36</time>
   <time name="total">  117.29  117.55</time>
   <energy>
    <i name="e_fr_energy">    -33.84578003 </i>
    <i name="e_wo_entrp">    -33.84699115 </i>
    <i name="e_0_energy">    -33.84618374 </i>
   </energy>
  </scstep>
  <scstep>
   <time name="dav">  119.38  119.47</time>
   <time name="total">  129.22  129.45</time>
   <energy>
    <i name="e_fr_energy">    -33.87259382 </i>
    <i name="e_wo_entrp">    -33.87382374 </i>
    <i name="e_0_energy">    -33.87300379 </i>
   </energy>
  </scstep>
  <scstep>
   <time name="diag">   21.93   21.95</time>
   <time name="diis">   79.44   79.50</time>
   <time name="orth">    0.73    0.73</time>
   <time name="total">  130.62  130.82</time>
   <energy>
    <i name="e_fr_energy">    -30.60394208 </i>
    <i name="e_wo_entrp">    -30.60355435 </i>
    <i name="e_0_energy">    -30.60381284 </i>
   </energy>
  </scstep>
  <scstep>
   <time name="diag">   22.16   22.18</time>
   <time name="diis">   77.46   77.52</time>
   <time name="orth">    0.73    0.73</time>
   <time name="total">  128.99  129.30</time>
   <energy>
    <i name="e_fr_energy">    -32.85791811 </i>
    <i name="e_wo_entrp">    -32.85809697 </i>
    <i name="e_0_energy">    -32.85797773 </i>
   </energy>
  </scstep>
  <scstep>
   <time name="diag">   21.94   21.96</time>
   <time name="diis">   81.68   81.75</time>
   <time name="orth">    0.73    0.73</time>
   <time name="total">  133.20  133.52</time>
   <energy>
    <i name="e_fr_energy">    -34.42774159 </i>
    <i name="e_wo_entrp">    -34.42790873 </i>
    <i name="e_0_energy">    -34.42779730 </i>
   </energy>
  </scstep>
  <scstep>
   <time name="diag">   22.09   22.11</time>
   <time name="diis">   73.81   73.87</time>
   <time name="orth">    0.72    0.72</time>
   <time name="total">  125.61  125.92</time>
   <energy>
    <i name="e_fr_energy">    -36.72163702 </i>
    <i name="e_wo_entrp">    -36.72180302 </i>
    <i name="e_0_energy">    -36.72169235 </i>
   </energy>
  </scstep>
  <scstep>
   <time name="diag">   21.90   21.91</time>
   <time name="diis">   72.06   72.12</time>
   <time name="orth">    0.73    0.73</time>
   <time name="total">  122.91  123.16</time>
   <energy>
    <i name="e_fr_energy">    -38.87221271 </i>
    <i name="e_wo_entrp">    -38.87238007 </i>
    <i name="e_0_energy">    -38.87226850 </i>
   </energy>
  </scstep>
  <scstep>
   <time name="diag">   22.23   22.25</time>
   <time name="diis">   75.62   75.67</time>
   <time name="orth">    0.72    0.72</time>
   <time name="total">  126.98  127.42</time>
   <energy>
    <i name="e_fr_energy">    -39.36333793 </i>
    <i name="e_wo_entrp">    -39.36366632 </i>
    <i name="e_0_energy">    -39.36344739 </i>
   </energy>
  </scstep>
  <scstep>
   <time name="diag">   22.21   22.22</time>
   <time name="diis">   77.85   77.91</time>
   <time name="orth">    0.72    0.72</time>
   <time name="total">  129.36  129.54</time>
   <energy>
    <i name="e_fr_energy">    -39.40110749 </i>
    <i name="e_wo_entrp">    -39.40144105 </i>
    <i name="e_0_energy">    -39.40121868 </i>
   </energy>
  </scstep>
  <scstep>
   <time name="diag">   22.02   22.04</time>
   <time name="diis">   82.24   82.31</time>
   <time name="orth">    0.73    0.73</time>
   <time name="total">  133.66  133.94</time>
   <energy>
    <i name="e_fr_energy">    -39.41686670 </i>
    <i name="e_wo_entrp">    -39.41719983 </i>
    <i name="e_0_energy">    -39.41697774 </i>
   </energy>
  </scstep>
  <scstep>
   <time name="diag">   21.97   21.98</time>
   <time name="diis">   76.50   76.56</time>
   <time name="orth">    0.73    0.73</time>
   <time name="total">  127.90  128.22</time>
   <energy>
    <i name="e_fr_energy">    -39.42029823 </i>
    <i name="e_wo_entrp">    -39.42063238 </i>
    <i name="e_0_energy">    -39.42040962 </i>
   </energy>
  </scstep>
  <scstep>
   <time name="diag">   22.04   22.06</time>
   <time name="diis">   72.97   73.02</time>
   <time name="orth">    0.72    0.73</time>
   <time name="total">  124.36  124.69</time>
   <energy>
    <i name="e_fr_energy">    -39.41999721 </i>
    <i name="e_wo_entrp">    -39.42033131 </i>
    <i name="e_0_energy">    -39.42010858 </i>
   </energy>
  </scstep>
  <scstep>
   <time name="diag">   21.91   21.93</time>
   <time name="diis">   56.64   56.68</time>
   <time name="orth">    0.73    0.73</time>
   <time name="total">  107.97  108.22</time>
   <energy>
    <i name="e_fr_energy">    -39.42013955 </i>
    <i name="e_wo_entrp">    -39.42047371 </i>
    <i name="e_0_energy">    -39.42025094 </i>
   </energy>
  </scstep>
  <scstep>
   <time name="diag">   22.03   22.05</time>
   <time name="diis">   55.06   55.10</time>
   <time name="orth">    0.73    0.73</time>
   <time name="total">  106.22  106.44</time>
   <energy>
    <i name="e_fr_energy">    -39.42036666 </i>
    <i name="e_wo_entrp">    -39.42070081 </i>
    <i name="e_0_energy">    -39.42047804 </i>
   </energy>
  </scstep>
  <scstep>
   <time name="diag">   21.98   22.00</time>
   <time name="diis">   52.68   52.72</time>
   <time name="orth">    0.73    0.73</time>
   <time name="total">  103.93  104.23</time>
   <energy>
    <i name="e_fr_energy">    -39.42068012 </i>
    <i name="e_wo_entrp">    -39.42101424 </i>
    <i name="e_0_energy">    -39.42079150 </i>
   </energy>
  </scstep>
  <scstep>
   <time name="diag">   22.15   22.17</time>
   <time name="diis">   51.50   51.54</time>
   <time name="orth">    0.73    0.73</time>
   <time name="total">  102.98  103.71</time>
   <energy>
    <i name="e_fr_energy">    -39.42116564 </i>
    <i name="e_wo_entrp">    -39.42149973 </i>
    <i name="e_0_energy">    -39.42127700 </i>
   </energy>
  </scstep>
  <scstep>
   <time name="diag">   22.07   22.09</time>
   <time name="diis">   52.81   52.85</time>
   <time name="orth">    0.73    0.73</time>
   <time name="total">  104.38  104.60</time>
   <energy>
    <i name="e_fr_energy">    -39.42140841 </i>
    <i name="e_wo_entrp">    -39.42174248 </i>
    <i name="e_0_energy">    -39.42151977 </i>
   </energy>
  </scstep>
  <scstep>
   <time name="diag">   22.32   22.36</time>
   <time name="diis">   51.33   51.37</time>
   <time name="orth">    0.73    0.73</time>
   <time name="total">   93.07   93.35</time>
   <energy>
    <i name="alphaZ">    104.15310261 </i>
    <i name="ewald">   7699.04583314 </i>
    <i name="hartreedc"> -11092.72003543 </i>
    <i name="XCdc">    122.66131740 </i>
    <i name="pawpsdc">   2399.31905148 </i>
    <i name="pawaedc">  -2361.50340538 </i>
    <i name="eentropy">      0.00033407 </i>
    <i name="bandstr">   -598.69612212 </i>
    <i name="atom">   3688.31848598 </i>
    <i name="e_fr_energy">    -39.42143826 </i>
    <i name="e_wo_entrp">    -39.42177232 </i>
    <i name="e_0_energy">    -39.42154961 </i>
   </energy>
  </scstep>
  <structure>
   <crystal>
    <varray name="basis" >
     <v>       3.19031700       0.00000000       0.00000000 </v>
     <v>      -1.59515800       2.76289700       0.00000000 </v>
     <v>       0.00000000       0.00000000      23.14049200 </v>
    </varray>
    <i name="volume">    203.97226633 </i>
    <varray name="rec_basis" >
     <v>       0.31344848       0.18096941       0.00000000 </v>
     <v>       0.00000000       0.36193894       0.00000000 </v>
     <v>       0.00000000       0.00000000       0.04321429 </v>
    </varray>
   </crystal>
   <varray name="positions" >
    <v>       0.66666700       0.33333300       0.06785900 </v>
    <v>       0.33333300       0.66666700       0.00000000 </v>
    <v>       0.33333300       0.66666700       0.13571500 </v>
    <v>       0.52380986       0.90476157       0.35482300 </v>
    <v>       0.19047586       0.23809557       0.28696500 </v>
    <v>       0.19047586       0.23809557       0.42267900 </v>
   </varray>
  </structure>
  <varray name="forces" >
   <v>      -0.00017693       0.00446139      -0.00299298 </v>
   <v>       0.00129623       0.00087092      -0.05493252 </v>
   <v>      -0.00310381       0.02645605       0.10809515 </v>
   <v>       0.00036893      -0.00377301       0.00828210 </v>
   <v>       0.00244092      -0.02855344      -0.11508055 </v>
   <v>      -0.00082536       0.00053810       0.05662879 </v>
  </varray>
  <varray name="stress" >
   <v>       3.29140954      -0.13956099       0.13321784 </v>
   <v>      -0.13956095       3.74870824      -0.91109371 </v>
   <v>       0.13321786      -0.91109365       0.31501044 </v>
  </varray>
  <energy>
   <i name="e_fr_energy">    -39.42143826 </i>
   <i name="e_wo_entrp">    -39.42154961 </i>
   <i name="e_0_energy">      0.00033407 </i>
  </energy>
  <time name="totalsc"> 2710.39 2716.96</time>
  <eigenvalues>
   <array>
    <dimension dim="1">band</dimension>
    <dimension dim="2">kpoint</dimension>
    <dimension dim="3">spin</dimension>
    <field>eigene</field>
    <field>occ</field>
    <set>
     <set comment="spin 1">
      <set comment="kpoint 1">
       <r>  -34.9959    1.0000 </r>
       <r>  -34.9860    1.0000 </r>
       <r>  -34.8051    1.0000 </r>
       <r>  -34.8049    1.0000 </r>
       <r>  -34.7951    1.0000 </r>
       <r>  -34.7950    1.0000 </r>
       <r>  -13.9754    1.0000 </r>
       <r>  -13.9191    1.0000 </r>
       <r>  -12.7095    1.0000 </r>
       <r>  -12.6158    1.0000 </r>
       <r>   -5.6867    1.0000 </r>
       <r>   -5.3979    1.0000 </r>
       <r>   -2.6253    1.0000 </r>
       <r>   -2.6252    1.0000 </r>
       <r>   -2.6152    1.0000 </r>
       <r>   -2.6150    1.0000 </r>
       <r>   -2.1774    1.0000 </r>
       <r>   -1.5326    1.0000 </r>
       <r>   -1.5316    1.0000 </r>
       <r>   -1.5214    1.0000 </r>
       <r>   -1.5211    1.0000 </r>
       <r>   -1.4736    1.0000 </r>
       <r>   -0.2236    1.0000 </r>
       <r>    0.2146    0.7957 </r>
       <r>    2.6914   -0.0000 </r>
       <r>    2.6972   -0.0000 </r>
       <r>    2.7120   -0.0000 </r>
       <r>    2.7165   -0.0000 </r>
       <r>    2.8722   -0.0000 </r>
       <r>    2.8789   -0.0000 </r>
       <r>    2.8960   -0.0000 </r>
       <r>    2.9041   -0.0000 </r>
       <r>    5.2920    0.0000 </r>
       <r>    5.4084    0.0000 </r>
       <r>    6.3869    0.0000 </r>
       <r>    6.5443    0.0000 </r>
      </set>
      <set comment="kpoint 2">
       <r>  -34.9918    1.0000 </r>
       <r>  -34.9818    1.0000 </r>
       <r>  -34.8262    1.0000 </r>
       <r>  -34.8164    1.0000 </r>
       <r>  -34.8099    1.0000 </r>
       <r>  -34.7999    1.0000 </r>
       <r>  -13.8888    1.0000 </r>
       <r>  -13.8326    1.0000 </r>
       <r>  -12.6729    1.0000 </r>
       <r>  -12.5814    1.0000 </r>
       <r>   -5.5876    1.0000 </r>
       <r>   -5.2989    1.0000 </r>
       <r>   -2.8124    1.0000 </r>
       <r>   -2.8017    1.0000 </r>
       <r>   -2.5348    1.0000 </r>
       <r>   -2.5243    1.0000 </r>
       <r>   -2.4620    1.0000 </r>
       <r>   -2.0726    1.0000 </r>
       <r>   -1.6699    1.0000 </r>
       <r>   -1.6581    1.0000 </r>
       <r>   -1.3660    1.0000 </r>
       <r>   -1.0671    1.0000 </r>
       <r>   -0.2453    1.0000 </r>
       <r>    0.1424    1.0326 </r>
       <r>    2.5727   -0.0000 </r>
       <r>    2.6064   -0.0000 </r>
       <r>    2.6339   -0.0000 </r>
       <r>    2.7209   -0.0000 </r>
       <r>    2.7754   -0.0000 </r>
       <r>    2.8069   -0.0000 </r>
       <r>    2.8427   -0.0000 </r>
       <r>    2.8663   -0.0000 </r>
       <r>    5.4305    0.0000 </r>
       <r>    5.5461    0.0000 </r>
       <r>    6.7505    0.0000 </r>
       <r>    6.9299    0.0000 </r>
      </set>
      <set comment="kpoint 3">
       <r>  -34.9804    1.0000 </r>
       <r>  -34.9705    1.0000 </r>
       <r>  -34.8847    1.0000 </r>
       <r>  -34.8748    1.0000 </r>
       <r>  -34.8233    1.0000 </r>
       <r>  -34.8133    1.0000 </r>
       <r>  -13.6404    1.0000 </r>
       <r>  -13.5847    1.0000 </r>
       <r>  -12.5681    1.0000 </r>
       <r>  -12.4828    1.0000 </r>
       <r>   -5.3276    1.0000 </r>
       <r>   -5.0447    1.0000 </r>
       <r>   -3.2652    1.0000 </r>
       <r>   -3.2472    1.0000 </r>
       <r>   -2.9613    1.0000 </r>
       <r>   -2.6884    1.0000 </r>
       <r>   -2.2793    1.0000 </r>
       <r>   -2.2684    1.0000 </r>
       <r>   -2.0052    1.0000 </r>
       <r>   -1.9930    1.0000 </r>
       <r>   -1.2882    1.0000 </r>
       <r>   -0.9319    1.0000 </r>
       <r>   -0.3777    1.0000 </r>
       <r>   -0.1259    1.0000 </r>
       <r>    2.1578   -0.0000 </r>
       <r>    2.3598   -0.0000 </r>
       <r>    2.4880   -0.0000 </r>
       <r>    2.5494   -0.0000 </r>
       <r>    2.5797   -0.0000 </r>
       <r>    2.6292   -0.0000 </r>
       <r>    3.1869    0.0000 </r>
       <r>    3.2154    0.0000 </r>
       <r>    5.7865    0.0000 </r>
       <r>    5.8958    0.0000 </r>
       <r>    7.4164    0.0000 </r>
       <r>    7.8326    0.0000 </r>
      </set>
      <set comment="kpoint 4">
       <r>  -34.9661    1.0000 </r>
       <r>  -34.9643    1.0000 </r>
       <r>  -34.9564    1.0000 </r>
       <r>  -34.9543    1.0000 </r>
       <r>  -34.8421    1.0000 </r>
       <r>  -34.8322    1.0000 </r>
       <r>  -13.2654    1.0000 </r>
       <r>  -13.2112    1.0000 </r>
       <r>  -12.4108    1.0000 </r>
       <r>  -12.3351    1.0000 </r>
       <r>   -5.0636    1.0000 </r>
       <r>   -4.8285    1.0000 </r>
       <r>   -3.7375    1.0000 </r>
       <r>   -3.6680    1.0000 </r>
       <r>   -3.4927    1.0000 </r>
       <r>   -3.3058    1.0000 </r>
       <r>   -2.4005    1.0000 </r>
       <r>   -2.3878    1.0000 </r>
       <r>   -1.9106    1.0000 </r>
       <r>   -1.8982    1.0000 </r>
       <r>   -1.4697    1.0000 </r>
       <r>   -1.1134    1.0000 </r>
       <r>   -0.6985    1.0000 </r>
       <r>   -0.5685    1.0000 </r>
       <r>    1.9320   -0.0000 </r>
       <r>    2.2346   -0.0000 </r>
       <r>    2.2998   -0.0000 </r>
       <r>    2.3302   -0.0000 </r>
       <r>    2.6844   -0.0000 </r>
       <r>    2.9037   -0.0000 </r>
       <r>    3.5669    0.0000 </r>
       <r>    3.6030    0.0000 </r>
       <r>    6.2993    0.0000 </r>
       <r>    6.4057    0.0000 </r>
       <r>    7.8732    0.0000 </r>
       <r>    8.2868    0.0000 </r>
      </set>
      <set comment="kpoint 5">
       <r>  -35.0514    1.0000 </r>
       <r>  -35.0416    1.0000 </r>
       <r>  -34.9472    1.0000 </r>
       <r>  -34.9372    1.0000 </r>
       <r>  -34.8620    1.0000 </r>
       <r>  -34.8521    1.0000 </r>
       <r>  -12.8256    1.0000 </r>
       <r>  -12.7744    1.0000 </r>
       <r>  -12.2292    1.0000 </r>
       <r>  -12.1650    1.0000 </r>
       <r>   -5.1174    1.0000 </r>
       <r>   -4.9975    1.0000 </r>
       <r>   -4.0696    1.0000 </r>
       <r>   -3.9235    1.0000 </r>
       <r>   -3.8857    1.0000 </r>
       <r>   -3.7304    1.0000 </r>
       <r>   -2.7559    1.0000 </r>
       <r>   -2.7428    1.0000 </r>
       <r>   -1.7496    1.0000 </r>
       <r>   -1.5158    1.0000 </r>
       <r>   -1.5013    1.0000 </r>
       <r>   -1.4016    1.0000 </r>
       <r>   -0.9911    1.0000 </r>
       <r>   -0.8937    1.0000 </r>
       <r>    2.0304   -0.0000 </r>
       <r>    2.1337   -0.0000 </r>
       <r>    2.1580   -0.0000 </r>
       <r>    2.3150   -0.0000 </r>
       <r>    3.0885    0.0000 </r>
       <r>    3.3538    0.0000 </r>
       <r>    3.8672    0.0000 </r>
       <r>    3.9132    0.0000 </r>
       <r>    6.9233    0.0000 </r>
       <r>    7.0163    0.0000 </r>
       <r>    7.8298    0.0000 </r>
       <r>    8.1293    0.0000 </r>
      </set>
      <set comment="kpoint 6">
       <r>  -35.1212    1.0000 </r>
       <r>  -35.1113    1.0000 </r>
       <r>  -34.9330    1.0000 </r>
       <r>  -34.9230    1.0000 </r>
       <r>  -34.8785    1.0000 </r>
       <r>  -34.8685    1.0000 </r>
       <r>  -12.4153    1.0000 </r>
       <r>  -12.3687    1.0000 </r>
       <r>  -12.0642    1.0000 </r>
       <r>  -12.0112    1.0000 </r>
       <r>   -5.4362    1.0000 </r>
       <r>   -5.3665    1.0000 </r>
       <r>   -4.4879    1.0000 </r>
       <r>   -4.3789    1.0000 </r>
       <r>   -3.9829    1.0000 </r>
       <r>   -3.7991    1.0000 </r>
       <r>   -3.0159    1.0000 </r>
       <r>   -3.0026    1.0000 </r>
       <r>   -1.9648    1.0000 </r>
       <r>   -1.6276    1.0000 </r>
       <r>   -1.2006    1.0000 </r>
       <r>   -1.1797    1.0000 </r>
       <r>   -0.9490    1.0000 </r>
       <r>   -0.8292    1.0000 </r>
       <r>    2.0914   -0.0000 </r>
       <r>    2.1087   -0.0000 </r>
       <r>    2.2976   -0.0000 </r>
       <r>    2.4896   -0.0000 </r>
       <r>    3.4699    0.0000 </r>
       <r>    3.7515    0.0000 </r>
       <r>    4.0535    0.0000 </r>
       <r>    4.1084    0.0000 </r>
       <r>    6.7576    0.0000 </r>
       <r>    7.1706    0.0000 </r>
       <r>    7.5598    0.0000 </r>
       <r>    7.8979    0.0000 </r>
      </set>
      <set comment="kpoint 7">
       <r>  -35.1602    1.0000 </r>
       <r>  -35.1504    1.0000 </r>
       <r>  -34.9249    1.0000 </r>
       <r>  -34.9149    1.0000 </r>
       <r>  -34.8877    1.0000 </r>
       <r>  -34.8778    1.0000 </r>
       <r>  -12.1586    1.0000 </r>
       <r>  -12.1158    1.0000 </r>
       <r>  -11.9634    1.0000 </r>
       <r>  -11.9179    1.0000 </r>
       <r>   -5.6777    1.0000 </r>
       <r>   -5.6174    1.0000 </r>
       <r>   -4.7397    1.0000 </r>
       <r>   -4.6445    1.0000 </r>
       <r>   -4.0853    1.0000 </r>
       <r>   -3.9113    1.0000 </r>
       <r>   -3.1519    1.0000 </r>
       <r>   -3.1384    1.0000 </r>
       <r>   -2.0698    1.0000 </r>
       <r>   -1.7395    1.0000 </r>
       <r>   -1.0352    1.0000 </r>
       <r>   -1.0100    1.0000 </r>
       <r>   -0.7339    1.0000 </r>
       <r>   -0.5946    1.0000 </r>
       <r>    2.1193   -0.0000 </r>
       <r>    2.1314   -0.0000 </r>
       <r>    2.5491   -0.0000 </r>
       <r>    2.6431   -0.0000 </r>
       <r>    3.6682    0.0000 </r>
       <r>    3.9596    0.0000 </r>
       <r>    4.1377    0.0000 </r>
       <r>    4.1977    0.0000 </r>
       <r>    5.9728    0.0000 </r>
       <r>    6.5449    0.0000 </r>
       <r>    7.9384    0.0000 </r>
       <r>    7.9854    0.0000 </r>
      </set>
      <set comment="kpoint 8">
       <r>  -34.9918    1.0000 </r>
       <r>  -34.9818    1.0000 </r>
       <r>  -34.8263    1.0000 </r>
       <r>  -34.8163    1.0000 </r>
       <r>  -34.8097    1.0000 </r>
       <r>  -34.8000    1.0000 </r>
       <r>  -13.8887    1.0000 </r>
       <r>  -13.8326    1.0000 </r>
       <r>  -12.6727    1.0000 </r>
       <r>  -12.5815    1.0000 </r>
       <r>   -5.5873    1.0000 </r>
       <r>   -5.2992    1.0000 </r>
       <r>   -2.8124    1.0000 </r>
       <r>   -2.8016    1.0000 </r>
       <r>   -2.5346    1.0000 </r>
       <r>   -2.5244    1.0000 </r>
       <r>   -2.4632    1.0000 </r>
       <r>   -2.0726    1.0000 </r>
       <r>   -1.6694    1.0000 </r>
       <r>   -1.6586    1.0000 </r>
       <r>   -1.3563    1.0000 </r>
       <r>   -1.0749    1.0000 </r>
       <r>   -0.2440    1.0000 </r>
       <r>    0.1360    1.0348 </r>
       <r>    2.5910   -0.0000 </r>
       <r>    2.6053   -0.0000 </r>
       <r>    2.6471   -0.0000 </r>
       <r>    2.6956   -0.0000 </r>
       <r>    2.7806   -0.0000 </r>
       <r>    2.8035   -0.0000 </r>
       <r>    2.8465   -0.0000 </r>
       <r>    2.8605   -0.0000 </r>
       <r>    5.4303    0.0000 </r>
       <r>    5.5458    0.0000 </r>
       <r>    6.7449    0.0000 </r>
       <r>    6.9276    0.0000 </r>
      </set>
      <set comment="kpoint 9">
       <r>  -34.9841    1.0000 </r>
       <r>  -34.9741    1.0000 </r>
       <r>  -34.8652    1.0000 </r>
       <r>  -34.8552    1.0000 </r>
       <r>  -34.8198    1.0000 </r>
       <r>  -34.8100    1.0000 </r>
       <r>  -13.7210    1.0000 </r>
       <r>  -13.6654    1.0000 </r>
       <r>  -12.6019    1.0000 </r>
       <r>  -12.5151    1.0000 </r>
       <r>   -5.4057    1.0000 </r>
       <r>   -5.1202    1.0000 </r>
       <r>   -3.1266    1.0000 </r>
       <r>   -3.1143    1.0000 </r>
       <r>   -2.8002    1.0000 </r>
       <r>   -2.4865    1.0000 </r>
       <r>   -2.3664    1.0000 </r>
       <r>   -2.3562    1.0000 </r>
       <r>   -1.9827    1.0000 </r>
       <r>   -1.9713    1.0000 </r>
       <r>   -1.2037    1.0000 </r>
       <r>   -0.8880    1.0000 </r>
       <r>   -0.3195    1.0000 </r>
       <r>   -0.0372    1.0002 </r>
       <r>    2.2881   -0.0000 </r>
       <r>    2.4171   -0.0000 </r>
       <r>    2.4543   -0.0000 </r>
       <r>    2.5444   -0.0000 </r>
       <r>    2.6200   -0.0000 </r>
       <r>    2.6400   -0.0000 </r>
       <r>    3.1255    0.0000 </r>
       <r>    3.1394    0.0000 </r>
       <r>    5.6764    0.0000 </r>
       <r>    5.7870    0.0000 </r>
       <r>    7.2678    0.0000 </r>
       <r>    7.5904    0.0000 </r>
      </set>
      <set comment="kpoint 10">
       <r>  -34.9703    1.0000 </r>
       <r>  -34.9604    1.0000 </r>
       <r>  -34.9328    1.0000 </r>
       <r>  -34.9228    1.0000 </r>
       <r>  -34.8384    1.0000 </r>
       <r>  -34.8285    1.0000 </r>
       <r>  -13.4087    1.0000 </r>
       <r>  -13.3542    1.0000 </r>
       <r>  -12.4701    1.0000 </r>
       <r>  -12.3914    1.0000 </r>
       <r>   -5.1265    1.0000 </r>
       <r>   -4.8617    1.0000 </r>
       <r>   -3.5735    1.0000 </r>
       <r>   -3.5408    1.0000 </r>
       <r>   -3.2351    1.0000 </r>
       <r>   -3.0067    1.0000 </r>
       <r>   -2.4691    1.0000 </r>
       <r>   -2.4449    1.0000 </r>
       <r>   -2.0824    1.0000 </r>
       <r>   -2.0714    1.0000 </r>
       <r>   -1.1917    1.0000 </r>
       <r>   -0.8878    1.0000 </r>
       <r>   -0.5526    1.0000 </r>
       <r>   -0.4006    1.0000 </r>
       <r>    1.9442   -0.0000 </r>
       <r>    2.1814   -0.0000 </r>
       <r>    2.3917   -0.0000 </r>
       <r>    2.4092   -0.0000 </r>
       <r>    2.4662   -0.0000 </r>
       <r>    2.6286   -0.0000 </r>
       <r>    3.5348    0.0000 </r>
       <r>    3.5526    0.0000 </r>
       <r>    6.1091    0.0000 </r>
       <r>    6.2178    0.0000 </r>
       <r>    7.7975    0.0000 </r>
       <r>    8.2524    0.0000 </r>
      </set>
      <set comment="kpoint 11">
       <r>  -35.0131    1.0000 </r>
       <r>  -35.0032    1.0000 </r>
       <r>  -34.9537    1.0000 </r>
       <r>  -34.9437    1.0000 </r>
       <r>  -34.8608    1.0000 </r>
       <r>  -34.8509    1.0000 </r>
       <r>  -12.9991    1.0000 </r>
       <r>  -12.9471    1.0000 </r>
       <r>  -12.2987    1.0000 </r>
       <r>  -12.2307    1.0000 </r>
       <r>   -5.0019    1.0000 </r>
       <r>   -4.8322    1.0000 </r>
       <r>   -3.8877    1.0000 </r>
       <r>   -3.7618    1.0000 </r>
       <r>   -3.7254    1.0000 </r>
       <r>   -3.5977    1.0000 </r>
       <r>   -2.8642    1.0000 </r>
       <r>   -2.8069    1.0000 </r>
       <r>   -1.8003    1.0000 </r>
       <r>   -1.7861    1.0000 </r>
       <r>   -1.4123    1.0000 </r>
       <r>   -1.1283    1.0000 </r>
       <r>   -0.8576    1.0000 </r>
       <r>   -0.7775    1.0000 </r>
       <r>    1.8452   -0.0000 </r>
       <r>    2.0552   -0.0000 </r>
       <r>    2.2766   -0.0000 </r>
       <r>    2.3636   -0.0000 </r>
       <r>    2.7453   -0.0000 </r>
       <r>    2.9428   -0.0000 </r>
       <r>    3.8879    0.0000 </r>
       <r>    3.9167    0.0000 </r>
       <r>    6.6981    0.0000 </r>
       <r>    6.7952    0.0000 </r>
       <r>    8.1845    0.0000 </r>
       <r>    8.5028    0.0000 </r>
      </set>
      <set comment="kpoint 12">
       <r>  -35.0877    1.0000 </r>
       <r>  -35.0778    1.0000 </r>
       <r>  -34.9380    1.0000 </r>
       <r>  -34.9281    1.0000 </r>
       <r>  -34.8818    1.0000 </r>
       <r>  -34.8719    1.0000 </r>
       <r>  -12.5688    1.0000 </r>
       <r>  -12.5209    1.0000 </r>
       <r>  -12.1216    1.0000 </r>
       <r>  -12.0651    1.0000 </r>
       <r>   -5.2245    1.0000 </r>
       <r>   -5.1399    1.0000 </r>
       <r>   -4.3011    1.0000 </r>
       <r>   -4.2021    1.0000 </r>
       <r>   -3.9035    1.0000 </r>
       <r>   -3.7206    1.0000 </r>
       <r>   -3.0780    1.0000 </r>
       <r>   -3.0192    1.0000 </r>
       <r>   -1.7256    1.0000 </r>
       <r>   -1.6365    1.0000 </r>
       <r>   -1.6184    1.0000 </r>
       <r>   -1.4303    1.0000 </r>
       <r>   -0.8794    1.0000 </r>
       <r>   -0.8174    1.0000 </r>
       <r>    1.9563   -0.0000 </r>
       <r>    2.0907   -0.0000 </r>
       <r>    2.3133   -0.0000 </r>
       <r>    2.4289   -0.0000 </r>
       <r>    3.1715    0.0000 </r>
       <r>    3.3588    0.0000 </r>
       <r>    4.0845    0.0000 </r>
       <r>    4.1382    0.0000 </r>
       <r>    7.2555    0.0000 </r>
       <r>    7.3840    0.0000 </r>
       <r>    7.5245    0.0000 </r>
       <r>    8.0554    0.0000 </r>
      </set>
      <set comment="kpoint 13">
       <r>  -35.1400    1.0000 </r>
       <r>  -35.1302    1.0000 </r>
       <r>  -34.9269    1.0000 </r>
       <r>  -34.9169    1.0000 </r>
       <r>  -34.8967    1.0000 </r>
       <r>  -34.8867    1.0000 </r>
       <r>  -12.2274    1.0000 </r>
       <r>  -12.1841    1.0000 </r>
       <r>  -11.9843    1.0000 </r>
       <r>  -11.9373    1.0000 </r>
       <r>   -5.5079    1.0000 </r>
       <r>   -5.4458    1.0000 </r>
       <r>   -4.6883    1.0000 </r>
       <r>   -4.6084    1.0000 </r>
       <r>   -4.0082    1.0000 </r>
       <r>   -3.8279    1.0000 </r>
       <r>   -3.1657    1.0000 </r>
       <r>   -3.1253    1.0000 </r>
       <r>   -1.9609    1.0000 </r>
       <r>   -1.6714    1.0000 </r>
       <r>   -1.4957    1.0000 </r>
       <r>   -1.4675    1.0000 </r>
       <r>   -0.6694    1.0000 </r>
       <r>   -0.5868    1.0000 </r>
       <r>    2.1002   -0.0000 </r>
       <r>    2.1601   -0.0000 </r>
       <r>    2.4881   -0.0000 </r>
       <r>    2.5897   -0.0000 </r>
       <r>    3.5681    0.0000 </r>
       <r>    3.7177    0.0000 </r>
       <r>    4.0798    0.0000 </r>
       <r>    4.1825    0.0000 </r>
       <r>    6.3828    0.0000 </r>
       <r>    6.9351    0.0000 </r>
       <r>    8.0033    0.0000 </r>
       <r>    8.2222    0.0000 </r>
      </set>
      <set comment="kpoint 14">
       <r>  -35.1588    1.0000 </r>
       <r>  -35.1490    1.0000 </r>
       <r>  -34.9228    1.0000 </r>
       <r>  -34.9129    1.0000 </r>
       <r>  -34.9020    1.0000 </r>
       <r>  -34.8921    1.0000 </r>
       <r>  -12.0949    1.0000 </r>
       <r>  -12.0535    1.0000 </r>
       <r>  -11.9316    1.0000 </r>
       <r>  -11.8884    1.0000 </r>
       <r>   -5.6261    1.0000 </r>
       <r>   -5.5670    1.0000 </r>
       <r>   -4.8314    1.0000 </r>
       <r>   -4.7553    1.0000 </r>
       <r>   -4.0766    1.0000 </r>
       <r>   -3.9028    1.0000 </r>
       <r>   -3.1853    1.0000 </r>
       <r>   -3.1570    1.0000 </r>
       <r>   -2.0518    1.0000 </r>
       <r>   -1.7532    1.0000 </r>
       <r>   -1.4365    1.0000 </r>
       <r>   -1.3914    1.0000 </r>
       <r>   -0.5391    1.0000 </r>
       <r>   -0.4407    1.0000 </r>
       <r>    2.1362   -0.0000 </r>
       <r>    2.1594   -0.0000 </r>
       <r>    2.6337   -0.0000 </r>
       <r>    2.7108   -0.0000 </r>
       <r>    3.8023    0.0000 </r>
       <r>    3.8980    0.0000 </r>
       <r>    3.9753    0.0000 </r>
       <r>    4.1174    0.0000 </r>
       <r>    5.9452    0.0000 </r>
       <r>    6.5602    0.0000 </r>
       <r>    8.3370    0.0000 </r>
       <r>    8.3771    0.0000 </r>
      </set>
      <set comment="kpoint 15">
       <r>  -35.1400    1.0000 </r>
       <r>  -35.1302    1.0000 </r>
       <r>  -34.9269    1.0000 </r>
       <r>  -34.9169    1.0000 </r>
       <r>  -34.8967    1.0000 </r>
       <r>  -34.8867    1.0000 </r>
       <r>  -12.2277    1.0000 </r>
       <r>  -12.1838    1.0000 </r>
       <r>  -11.9846    1.0000 </r>
       <r>  -11.9369    1.0000 </r>
       <r>   -5.5080    1.0000 </r>
       <r>   -5.4456    1.0000 </r>
       <r>   -4.6888    1.0000 </r>
       <r>   -4.6081    1.0000 </r>
       <r>   -4.0083    1.0000 </r>
       <r>   -3.8276    1.0000 </r>
       <r>   -3.1654    1.0000 </r>
       <r>   -3.1261    1.0000 </r>
       <r>   -1.9633    1.0000 </r>
       <r>   -1.6719    1.0000 </r>
       <r>   -1.5051    1.0000 </r>
       <r>   -1.4539    1.0000 </r>
       <r>   -0.6685    1.0000 </r>
       <r>   -0.5877    1.0000 </r>
       <r>    2.1023   -0.0000 </r>
       <r>    2.1573   -0.0000 </r>
       <r>    2.4871   -0.0000 </r>
       <r>    2.5908   -0.0000 </r>
       <r>    3.5566    0.0000 </r>
       <r>    3.7286    0.0000 </r>
       <r>    4.0859    0.0000 </r>
       <r>    4.1782    0.0000 </r>
       <r>    6.3824    0.0000 </r>
       <r>    6.9355    0.0000 </r>
       <r>    8.1080    0.0000 </r>
       <r>    8.2722    0.0000 </r>
      </set>
      <set comment="kpoint 16">
       <r>  -35.0876    1.0000 </r>
       <r>  -35.0779    1.0000 </r>
       <r>  -34.9380    1.0000 </r>
       <r>  -34.9281    1.0000 </r>
       <r>  -34.8818    1.0000 </r>
       <r>  -34.8719    1.0000 </r>
       <r>  -12.5692    1.0000 </r>
       <r>  -12.5206    1.0000 </r>
       <r>  -12.1221    1.0000 </r>
       <r>  -12.0646    1.0000 </r>
       <r>   -5.2246    1.0000 </r>
       <r>   -5.1397    1.0000 </r>
       <r>   -4.3019    1.0000 </r>
       <r>   -4.2017    1.0000 </r>
       <r>   -3.9041    1.0000 </r>
       <r>   -3.7195    1.0000 </r>
       <r>   -3.0785    1.0000 </r>
       <r>   -3.0196    1.0000 </r>
       <r>   -1.7337    1.0000 </r>
       <r>   -1.6350    1.0000 </r>
       <r>   -1.6166    1.0000 </r>
       <r>   -1.4239    1.0000 </r>
       <r>   -0.8791    1.0000 </r>
       <r>   -0.8172    1.0000 </r>
       <r>    1.9551   -0.0000 </r>
       <r>    2.0901   -0.0000 </r>
       <r>    2.3133   -0.0000 </r>
       <r>    2.4299   -0.0000 </r>
       <r>    3.1617    0.0000 </r>
       <r>    3.3696    0.0000 </r>
       <r>    4.0867    0.0000 </r>
       <r>    4.1354    0.0000 </r>
       <r>    7.2555    0.0000 </r>
       <r>    7.3868    0.0000 </r>
       <r>    7.5262    0.0000 </r>
       <r>    8.0588    0.0000 </r>
      </set>
      <set comment="kpoint 17">
       <r>  -35.0130    1.0000 </r>
       <r>  -35.0032    1.0000 </r>
       <r>  -34.9537    1.0000 </r>
       <r>  -34.9438    1.0000 </r>
       <r>  -34.8608    1.0000 </r>
       <r>  -34.8508    1.0000 </r>
       <r>  -12.9994    1.0000 </r>
       <r>  -12.9468    1.0000 </r>
       <r>  -12.2991    1.0000 </r>
       <r>  -12.2302    1.0000 </r>
       <r>   -5.0019    1.0000 </r>
       <r>   -4.8323    1.0000 </r>
       <r>   -3.8894    1.0000 </r>
       <r>   -3.7598    1.0000 </r>
       <r>   -3.7263    1.0000 </r>
       <r>   -3.5967    1.0000 </r>
       <r>   -2.8655    1.0000 </r>
       <r>   -2.8063    1.0000 </r>
       <r>   -1.7998    1.0000 </r>
       <r>   -1.7875    1.0000 </r>
       <r>   -1.4153    1.0000 </r>
       <r>   -1.1244    1.0000 </r>
       <r>   -0.8575    1.0000 </r>
       <r>   -0.7749    1.0000 </r>
       <r>    1.8426   -0.0000 </r>
       <r>    2.0569   -0.0000 </r>
       <r>    2.2767   -0.0000 </r>
       <r>    2.3643   -0.0000 </r>
       <r>    2.7384   -0.0000 </r>
       <r>    2.9493   -0.0000 </r>
       <r>    3.8897    0.0000 </r>
       <r>    3.9137    0.0000 </r>
       <r>    6.6993    0.0000 </r>
       <r>    6.7948    0.0000 </r>
       <r>    8.2776    0.0000 </r>
       <r>    8.5191    0.0000 </r>
      </set>
      <set comment="kpoint 18">
       <r>  -34.9703    1.0000 </r>
       <r>  -34.9604    1.0000 </r>
       <r>  -34.9327    1.0000 </r>
       <r>  -34.9229    1.0000 </r>
       <r>  -34.8385    1.0000 </r>
       <r>  -34.8285    1.0000 </r>
       <r>  -13.4089    1.0000 </r>
       <r>  -13.3540    1.0000 </r>
       <r>  -12.4705    1.0000 </r>
       <r>  -12.3910    1.0000 </r>
       <r>   -5.1269    1.0000 </r>
       <r>   -4.8614    1.0000 </r>
       <r>   -3.5739    1.0000 </r>
       <r>   -3.5405    1.0000 </r>
       <r>   -3.2344    1.0000 </r>
       <r>   -3.0073    1.0000 </r>
       <r>   -2.4705    1.0000 </r>
       <r>   -2.4439    1.0000 </r>
       <r>   -2.0824    1.0000 </r>
       <r>   -2.0715    1.0000 </r>
       <r>   -1.1971    1.0000 </r>
       <r>   -0.8838    1.0000 </r>
       <r>   -0.5541    1.0000 </r>
       <r>   -0.3940    1.0000 </r>
       <r>    1.9410   -0.0000 </r>
       <r>    2.1809   -0.0000 </r>
       <r>    2.3933   -0.0000 </r>
       <r>    2.4103   -0.0000 </r>
       <r>    2.4618   -0.0000 </r>
       <r>    2.6313   -0.0000 </r>
       <r>    3.5381    0.0000 </r>
       <r>    3.5484    0.0000 </r>
       <r>    6.1090    0.0000 </r>
       <r>    6.2179    0.0000 </r>
       <r>    7.7974    0.0000 </r>
       <r>    8.2475    0.0000 </r>
      </set>
      <set comment="kpoint 19">
       <r>  -34.9841    1.0000 </r>
       <r>  -34.9741    1.0000 </r>
       <r>  -34.8651    1.0000 </r>
       <r>  -34.8553    1.0000 </r>
       <r>  -34.8200    1.0000 </r>
       <r>  -34.8099    1.0000 </r>
       <r>  -13.7212    1.0000 </r>
       <r>  -13.6653    1.0000 </r>
       <r>  -12.6021    1.0000 </r>
       <r>  -12.5148    1.0000 </r>
       <r>   -5.4061    1.0000 </r>
       <r>   -5.1199    1.0000 </r>
       <r>   -3.1263    1.0000 </r>
       <r>   -3.1147    1.0000 </r>
       <r>   -2.7993    1.0000 </r>
       <r>   -2.4872    1.0000 </r>
       <r>   -2.3662    1.0000 </r>
       <r>   -2.3563    1.0000 </r>
       <r>   -1.9826    1.0000 </r>
       <r>   -1.9717    1.0000 </r>
       <r>   -1.2095    1.0000 </r>
       <r>   -0.8833    1.0000 </r>
       <r>   -0.3210    1.0000 </r>
       <r>   -0.0302    1.0002 </r>
       <r>    2.2785   -0.0000 </r>
       <r>    2.4161   -0.0000 </r>
       <r>    2.4516   -0.0000 </r>
       <r>    2.5527   -0.0000 </r>
       <r>    2.6230   -0.0000 </r>
       <r>    2.6375   -0.0000 </r>
       <r>    3.1258    0.0000 </r>
       <r>    3.1388    0.0000 </r>
       <r>    5.6785    0.0000 </r>
       <r>    5.7869    0.0000 </r>
       <r>    7.2644    0.0000 </r>
       <r>    7.6147    0.0000 </r>
      </set>
      <set comment="kpoint 20">
       <r>  -34.9918    1.0000 </r>
       <r>  -34.9818    1.0000 </r>
       <r>  -34.8262    1.0000 </r>
       <r>  -34.8164    1.0000 </r>
       <r>  -34.8099    1.0000 </r>
       <r>  -34.7999    1.0000 </r>
       <r>  -13.8887    1.0000 </r>
       <r>  -13.8326    1.0000 </r>
       <r>  -12.6728    1.0000 </r>
       <r>  -12.5815    1.0000 </r>
       <r>   -5.5874    1.0000 </r>
       <r>   -5.2991    1.0000 </r>
       <r>   -2.8124    1.0000 </r>
       <r>   -2.8017    1.0000 </r>
       <r>   -2.5344    1.0000 </r>
       <r>   -2.5246    1.0000 </r>
       <r>   -2.4626    1.0000 </r>
       <r>   -2.0726    1.0000 </r>
       <r>   -1.6691    1.0000 </r>
       <r>   -1.6590    1.0000 </r>
       <r>   -1.3606    1.0000 </r>
       <r>   -1.0714    1.0000 </r>
       <r>   -0.2446    1.0000 </r>
       <r>    0.1388    1.0341 </r>
       <r>    2.5840   -0.0000 </r>
       <r>    2.6045   -0.0000 </r>
       <r>    2.6390   -0.0000 </r>
       <r>    2.7062   -0.0000 </r>
       <r>    2.7880   -0.0000 </r>
       <r>    2.8007   -0.0000 </r>
       <r>    2.8472   -0.0000 </r>
       <r>    2.8583   -0.0000 </r>
       <r>    5.4320    0.0000 </r>
       <r>    5.5459    0.0000 </r>
       <r>    6.7431    0.0000 </r>
       <r>    6.9278    0.0000 </r>
      </set>
      <set comment="kpoint 21">
       <r>  -34.9804    1.0000 </r>
       <r>  -34.9705    1.0000 </r>
       <r>  -34.8848    1.0000 </r>
       <r>  -34.8748    1.0000 </r>
       <r>  -34.8231    1.0000 </r>
       <r>  -34.8134    1.0000 </r>
       <r>  -13.6399    1.0000 </r>
       <r>  -13.5851    1.0000 </r>
       <r>  -12.5674    1.0000 </r>
       <r>  -12.4836    1.0000 </r>
       <r>   -5.3265    1.0000 </r>
       <r>   -5.0456    1.0000 </r>
       <r>   -3.2628    1.0000 </r>
       <r>   -3.2494    1.0000 </r>
       <r>   -2.9623    1.0000 </r>
       <r>   -2.6888    1.0000 </r>
       <r>   -2.2793    1.0000 </r>
       <r>   -2.2684    1.0000 </r>
       <r>   -2.0053    1.0000 </r>
       <r>   -1.9928    1.0000 </r>
       <r>   -1.2623    1.0000 </r>
       <r>   -0.9520    1.0000 </r>
       <r>   -0.3717    1.0000 </r>
       <r>   -0.1499    1.0000 </r>
       <r>    2.1857   -0.0000 </r>
       <r>    2.3565   -0.0000 </r>
       <r>    2.4976   -0.0000 </r>
       <r>    2.5475   -0.0000 </r>
       <r>    2.5812   -0.0000 </r>
       <r>    2.6103   -0.0000 </r>
       <r>    3.1886    0.0000 </r>
       <r>    3.2137    0.0000 </r>
       <r>    5.7860    0.0000 </r>
       <r>    5.8942    0.0000 </r>
       <r>    7.4078    0.0000 </r>
       <r>    7.8180    0.0000 </r>
      </set>
      <set comment="kpoint 22">
       <r>  -34.9703    1.0000 </r>
       <r>  -34.9604    1.0000 </r>
       <r>  -34.9328    1.0000 </r>
       <r>  -34.9228    1.0000 </r>
       <r>  -34.8383    1.0000 </r>
       <r>  -34.8285    1.0000 </r>
       <r>  -13.4083    1.0000 </r>
       <r>  -13.3545    1.0000 </r>
       <r>  -12.4695    1.0000 </r>
       <r>  -12.3921    1.0000 </r>
       <r>   -5.1260    1.0000 </r>
       <r>   -4.8620    1.0000 </r>
       <r>   -3.5685    1.0000 </r>
       <r>   -3.5459    1.0000 </r>
       <r>   -3.2346    1.0000 </r>
       <r>   -3.0080    1.0000 </r>
       <r>   -2.4706    1.0000 </r>
       <r>   -2.4424    1.0000 </r>
       <r>   -2.0828    1.0000 </r>
       <r>   -2.0711    1.0000 </r>
       <r>   -1.1734    1.0000 </r>
       <r>   -0.9014    1.0000 </r>
       <r>   -0.5479    1.0000 </r>
       <r>   -0.4183    1.0000 </r>
       <r>    1.9543   -0.0000 </r>
       <r>    2.1815   -0.0000 </r>
       <r>    2.3856   -0.0000 </r>
       <r>    2.4245   -0.0000 </r>
       <r>    2.4606   -0.0000 </r>
       <r>    2.6250   -0.0000 </r>
       <r>    3.5250    0.0000 </r>
       <r>    3.5612    0.0000 </r>
       <r>    6.1099    0.0000 </r>
       <r>    6.2164    0.0000 </r>
       <r>    7.7997    0.0000 </r>
       <r>    8.2588    0.0000 </r>
      </set>
      <set comment="kpoint 23">
       <r>  -34.9949    1.0000 </r>
       <r>  -34.9849    1.0000 </r>
       <r>  -34.9561    1.0000 </r>
       <r>  -34.9461    1.0000 </r>
       <r>  -34.8647    1.0000 </r>
       <r>  -34.8549    1.0000 </r>
       <r>  -13.0596    1.0000 </r>
       <r>  -13.0082    1.0000 </r>
       <r>  -12.3220    1.0000 </r>
       <r>  -12.2540    1.0000 </r>
       <r>   -4.9537    1.0000 </r>
       <r>   -4.7563    1.0000 </r>
       <r>   -3.8186    1.0000 </r>
       <r>   -3.7346    1.0000 </r>
       <r>   -3.5258    1.0000 </r>
       <r>   -3.4016    1.0000 </r>
       <r>   -3.0994    1.0000 </r>
       <r>   -2.9980    1.0000 </r>
       <r>   -1.9531    1.0000 </r>
       <r>   -1.9379    1.0000 </r>
       <r>   -1.1569    1.0000 </r>
       <r>   -0.9341    1.0000 </r>
       <r>   -0.7881    1.0000 </r>
       <r>   -0.7263    1.0000 </r>
       <r>    1.7537   -0.0000 </r>
       <r>    1.9848   -0.0000 </r>
       <r>    2.3164   -0.0000 </r>
       <r>    2.3992   -0.0000 </r>
       <r>    2.5132   -0.0000 </r>
       <r>    2.7084   -0.0000 </r>
       <r>    3.9205    0.0000 </r>
       <r>    3.9811    0.0000 </r>
       <r>    6.6260    0.0000 </r>
       <r>    6.7230    0.0000 </r>
       <r>    8.3188    0.0000 </r>
       <r>    8.6063    0.0000 </r>
      </set>
      <set comment="kpoint 24">
       <r>  -35.0577    1.0000 </r>
       <r>  -35.0478    1.0000 </r>
       <r>  -34.9409    1.0000 </r>
       <r>  -34.9309    1.0000 </r>
       <r>  -34.8950    1.0000 </r>
       <r>  -34.8852    1.0000 </r>
       <r>  -12.6537    1.0000 </r>
       <r>  -12.6062    1.0000 </r>
       <r>  -12.1506    1.0000 </r>
       <r>  -12.0935    1.0000 </r>
       <r>   -5.0295    1.0000 </r>
       <r>   -4.9245    1.0000 </r>
       <r>   -4.1051    1.0000 </r>
       <r>   -4.0529    1.0000 </r>
       <r>   -3.8086    1.0000 </r>
       <r>   -3.6443    1.0000 </r>
       <r>   -3.3159    1.0000 </r>
       <r>   -3.1656    1.0000 </r>
       <r>   -2.0808    1.0000 </r>
       <r>   -2.0576    1.0000 </r>
       <r>   -1.3803    1.0000 </r>
       <r>   -1.1755    1.0000 </r>
       <r>   -0.8453    1.0000 </r>
       <r>   -0.8123    1.0000 </r>
       <r>    1.7830   -0.0000 </r>
       <r>    2.0384   -0.0000 </r>
       <r>    2.3842   -0.0000 </r>
       <r>    2.4411   -0.0000 </r>
       <r>    2.7816   -0.0000 </r>
       <r>    2.9557   -0.0000 </r>
       <r>    4.1727    0.0000 </r>
       <r>    4.2670    0.0000 </r>
       <r>    7.2647    0.0000 </r>
       <r>    7.3486    0.0000 </r>
       <r>    8.1168    0.0000 </r>
       <r>    8.6753    0.0000 </r>
      </set>
      <set comment="kpoint 25">
       <r>  -35.1083    1.0000 </r>
       <r>  -35.0984    1.0000 </r>
       <r>  -34.9283    1.0000 </r>
       <r>  -34.9210    1.0000 </r>
       <r>  -34.9183    1.0000 </r>
       <r>  -34.9111    1.0000 </r>
       <r>  -12.2801    1.0000 </r>
       <r>  -12.2375    1.0000 </r>
       <r>  -11.9937    1.0000 </r>
       <r>  -11.9468    1.0000 </r>
       <r>   -5.2303    1.0000 </r>
       <r>   -5.1621    1.0000 </r>
       <r>   -4.6475    1.0000 </r>
       <r>   -4.6046    1.0000 </r>
       <r>   -3.8435    1.0000 </r>
       <r>   -3.6575    1.0000 </r>
       <r>   -3.2873    1.0000 </r>
       <r>   -3.1616    1.0000 </r>
       <r>   -2.2138    1.0000 </r>
       <r>   -2.1789    1.0000 </r>
       <r>   -1.7225    1.0000 </r>
       <r>   -1.5101    1.0000 </r>
       <r>   -0.6724    1.0000 </r>
       <r>   -0.6365    1.0000 </r>
       <r>    2.0049   -0.0000 </r>
       <r>    2.2137   -0.0000 </r>
       <r>    2.5035   -0.0000 </r>
       <r>    2.5480   -0.0000 </r>
       <r>    3.1468    0.0000 </r>
       <r>    3.2569    0.0000 </r>
       <r>    4.2305    0.0000 </r>
       <r>    4.3835    0.0000 </r>
       <r>    7.0225    0.0000 </r>
       <r>    7.5023    0.0000 </r>
       <r>    8.0757    0.0000 </r>
       <r>    8.3357    0.0000 </r>
      </set>
      <set comment="kpoint 26">
       <r>  -35.1364    1.0000 </r>
       <r>  -35.1266    1.0000 </r>
       <r>  -34.9359    1.0000 </r>
       <r>  -34.9260    1.0000 </r>
       <r>  -34.9211    1.0000 </r>
       <r>  -34.9111    1.0000 </r>
       <r>  -12.0502    1.0000 </r>
       <r>  -12.0110    1.0000 </r>
       <r>  -11.8972    1.0000 </r>
       <r>  -11.8568    1.0000 </r>
       <r>   -5.3622    1.0000 </r>
       <r>   -5.3041    1.0000 </r>
       <r>   -4.9558    1.0000 </r>
       <r>   -4.9127    1.0000 </r>
       <r>   -3.9817    1.0000 </r>
       <r>   -3.8049    1.0000 </r>
       <r>   -3.1997    1.0000 </r>
       <r>   -3.1081    1.0000 </r>
       <r>   -2.2207    1.0000 </r>
       <r>   -2.1621    1.0000 </r>
       <r>   -1.9842    1.0000 </r>
       <r>   -1.7525    1.0000 </r>
       <r>   -0.4503    1.0000 </r>
       <r>   -0.3893    1.0000 </r>
       <r>    2.0538   -0.0000 </r>
       <r>    2.1098   -0.0000 </r>
       <r>    2.7485   -0.0000 </r>
       <r>    2.8647   -0.0000 </r>
       <r>    3.4206    0.0000 </r>
       <r>    3.4717    0.0000 </r>
       <r>    4.1560    0.0000 </r>
       <r>    4.3838    0.0000 </r>
       <r>    6.2838    0.0000 </r>
       <r>    6.9229    0.0000 </r>
       <r>    8.6977    0.0000 </r>
       <r>    8.8916    0.0000 </r>
      </set>
      <set comment="kpoint 27">
       <r>  -35.1364    1.0000 </r>
       <r>  -35.1266    1.0000 </r>
       <r>  -34.9360    1.0000 </r>
       <r>  -34.9260    1.0000 </r>
       <r>  -34.9211    1.0000 </r>
       <r>  -34.9111    1.0000 </r>
       <r>  -12.0507    1.0000 </r>
       <r>  -12.0107    1.0000 </r>
       <r>  -11.8975    1.0000 </r>
       <r>  -11.8563    1.0000 </r>
       <r>   -5.3623    1.0000 </r>
       <r>   -5.3039    1.0000 </r>
       <r>   -4.9560    1.0000 </r>
       <r>   -4.9126    1.0000 </r>
       <r>   -3.9818    1.0000 </r>
       <r>   -3.8049    1.0000 </r>
       <r>   -3.1994    1.0000 </r>
       <r>   -3.1088    1.0000 </r>
       <r>   -2.2289    1.0000 </r>
       <r>   -2.1570    1.0000 </r>
       <r>   -1.9814    1.0000 </r>
       <r>   -1.7510    1.0000 </r>
       <r>   -0.4504    1.0000 </r>
       <r>   -0.3896    1.0000 </r>
       <r>    2.0548   -0.0000 </r>
       <r>    2.1089   -0.0000 </r>
       <r>    2.7486   -0.0000 </r>
       <r>    2.8645   -0.0000 </r>
       <r>    3.3962    0.0000 </r>
       <r>    3.4973    0.0000 </r>
       <r>    4.1567    0.0000 </r>
       <r>    4.3832    0.0000 </r>
       <r>    6.2829    0.0000 </r>
       <r>    6.9229    0.0000 </r>
       <r>    8.6865    0.0000 </r>
       <r>    8.8436    0.0000 </r>
      </set>
      <set comment="kpoint 28">
       <r>  -35.1082    1.0000 </r>
       <r>  -35.0984    1.0000 </r>
       <r>  -34.9283    1.0000 </r>
       <r>  -34.9211    1.0000 </r>
       <r>  -34.9184    1.0000 </r>
       <r>  -34.9110    1.0000 </r>
       <r>  -12.2811    1.0000 </r>
       <r>  -12.2368    1.0000 </r>
       <r>  -11.9945    1.0000 </r>
       <r>  -11.9457    1.0000 </r>
       <r>   -5.2303    1.0000 </r>
       <r>   -5.1616    1.0000 </r>
       <r>   -4.6481    1.0000 </r>
       <r>   -4.6039    1.0000 </r>
       <r>   -3.8448    1.0000 </r>
       <r>   -3.6569    1.0000 </r>
       <r>   -3.2879    1.0000 </r>
       <r>   -3.1619    1.0000 </r>
       <r>   -2.2242    1.0000 </r>
       <r>   -2.1709    1.0000 </r>
       <r>   -1.7209    1.0000 </r>
       <r>   -1.5060    1.0000 </r>
       <r>   -0.6717    1.0000 </r>
       <r>   -0.6377    1.0000 </r>
       <r>    2.0066   -0.0000 </r>
       <r>    2.2107   -0.0000 </r>
       <r>    2.5022   -0.0000 </r>
       <r>    2.5503   -0.0000 </r>
       <r>    3.1265    0.0000 </r>
       <r>    3.2793    0.0000 </r>
       <r>    4.2313    0.0000 </r>
       <r>    4.3820    0.0000 </r>
       <r>    7.0226    0.0000 </r>
       <r>    7.5033    0.0000 </r>
       <r>    8.0750    0.0000 </r>
       <r>    8.4071    0.0000 </r>
      </set>
      <set comment="kpoint 29">
       <r>  -35.0576    1.0000 </r>
       <r>  -35.0478    1.0000 </r>
       <r>  -34.9409    1.0000 </r>
       <r>  -34.9309    1.0000 </r>
       <r>  -34.8951    1.0000 </r>
       <r>  -34.8851    1.0000 </r>
       <r>  -12.6547    1.0000 </r>
       <r>  -12.6055    1.0000 </r>
       <r>  -12.1516    1.0000 </r>
       <r>  -12.0923    1.0000 </r>
       <r>   -5.0292    1.0000 </r>
       <r>   -4.9246    1.0000 </r>
       <r>   -4.1057    1.0000 </r>
       <r>   -4.0510    1.0000 </r>
       <r>   -3.8143    1.0000 </r>
       <r>   -3.6412    1.0000 </r>
       <r>   -3.3171    1.0000 </r>
       <r>   -3.1646    1.0000 </r>
       <r>   -2.0787    1.0000 </r>
       <r>   -2.0603    1.0000 </r>
       <r>   -1.3845    1.0000 </r>
       <r>   -1.1676    1.0000 </r>
       <r>   -0.8406    1.0000 </r>
       <r>   -0.8161    1.0000 </r>
       <r>    1.7820   -0.0000 </r>
       <r>    2.0384   -0.0000 </r>
       <r>    2.3841   -0.0000 </r>
       <r>    2.4428   -0.0000 </r>
       <r>    2.7722   -0.0000 </r>
       <r>    2.9646   -0.0000 </r>
       <r>    4.1726    0.0000 </r>
       <r>    4.2660    0.0000 </r>
       <r>    7.2651    0.0000 </r>
       <r>    7.3485    0.0000 </r>
       <r>    8.1255    0.0000 </r>
       <r>    8.5616    0.0000 </r>
      </set>
      <set comment="kpoint 30">
       <r>  -34.9948    1.0000 </r>
       <r>  -34.9850    1.0000 </r>
       <r>  -34.9561    1.0000 </r>
       <r>  -34.9461    1.0000 </r>
       <r>  -34.8648    1.0000 </r>
       <r>  -34.8548    1.0000 </r>
       <r>  -13.0603    1.0000 </r>
       <r>  -13.0077    1.0000 </r>
       <r>  -12.3229    1.0000 </r>
       <r>  -12.2530    1.0000 </r>
       <r>   -4.9536    1.0000 </r>
       <r>   -4.7567    1.0000 </r>
       <r>   -3.8231    1.0000 </r>
       <r>   -3.7291    1.0000 </r>
       <r>   -3.5266    1.0000 </r>
       <r>   -3.4019    1.0000 </r>
       <r>   -3.1020    1.0000 </r>
       <r>   -2.9959    1.0000 </r>
       <r>   -1.9505    1.0000 </r>
       <r>   -1.9407    1.0000 </r>
       <r>   -1.1683    1.0000 </r>
       <r>   -0.9261    1.0000 </r>
       <r>   -0.7878    1.0000 </r>
       <r>   -0.7174    1.0000 </r>
       <r>    1.7510   -0.0000 </r>
       <r>    1.9855   -0.0000 </r>
       <r>    2.3160   -0.0000 </r>
       <r>    2.4002   -0.0000 </r>
       <r>    2.5088   -0.0000 </r>
       <r>    2.7105   -0.0000 </r>
       <r>    3.9236    0.0000 </r>
       <r>    3.9772    0.0000 </r>
       <r>    6.6256    0.0000 </r>
       <r>    6.7239    0.0000 </r>
       <r>    8.3177    0.0000 </r>
       <r>    8.6043    0.0000 </r>
      </set>
      <set comment="kpoint 31">
       <r>  -34.9703    1.0000 </r>
       <r>  -34.9604    1.0000 </r>
       <r>  -34.9327    1.0000 </r>
       <r>  -34.9229    1.0000 </r>
       <r>  -34.8385    1.0000 </r>
       <r>  -34.8284    1.0000 </r>
       <r>  -13.4087    1.0000 </r>
       <r>  -13.3542    1.0000 </r>
       <r>  -12.4701    1.0000 </r>
       <r>  -12.3914    1.0000 </r>
       <r>   -5.1266    1.0000 </r>
       <r>   -4.8616    1.0000 </r>
       <r>   -3.5712    1.0000 </r>
       <r>   -3.5432    1.0000 </r>
       <r>   -3.2341    1.0000 </r>
       <r>   -3.0080    1.0000 </r>
       <r>   -2.4709    1.0000 </r>
       <r>   -2.4430    1.0000 </r>
       <r>   -2.0820    1.0000 </r>
       <r>   -2.0720    1.0000 </r>
       <r>   -1.1875    1.0000 </r>
       <r>   -0.8907    1.0000 </r>
       <r>   -0.5517    1.0000 </r>
       <r>   -0.4037    1.0000 </r>
       <r>    1.9465   -0.0000 </r>
       <r>    2.1811   -0.0000 </r>
       <r>    2.3916   -0.0000 </r>
       <r>    2.4176   -0.0000 </r>
       <r>    2.4582   -0.0000 </r>
       <r>    2.6294   -0.0000 </r>
       <r>    3.5353    0.0000 </r>
       <r>    3.5504    0.0000 </r>
       <r>    6.1094    0.0000 </r>
       <r>    6.2172    0.0000 </r>
       <r>    7.8010    0.0000 </r>
       <r>    8.2707    0.0000 </r>
      </set>
      <set comment="kpoint 32">
       <r>  -34.9804    1.0000 </r>
       <r>  -34.9705    1.0000 </r>
       <r>  -34.8847    1.0000 </r>
       <r>  -34.8749    1.0000 </r>
       <r>  -34.8233    1.0000 </r>
       <r>  -34.8133    1.0000 </r>
       <r>  -13.6401    1.0000 </r>
       <r>  -13.5849    1.0000 </r>
       <r>  -12.5677    1.0000 </r>
       <r>  -12.4832    1.0000 </r>
       <r>   -5.3270    1.0000 </r>
       <r>   -5.0453    1.0000 </r>
       <r>   -3.2638    1.0000 </r>
       <r>   -3.2485    1.0000 </r>
       <r>   -2.9619    1.0000 </r>
       <r>   -2.6886    1.0000 </r>
       <r>   -2.2788    1.0000 </r>
       <r>   -2.2689    1.0000 </r>
       <r>   -2.0042    1.0000 </r>
       <r>   -1.9940    1.0000 </r>
       <r>   -1.2741    1.0000 </r>
       <r>   -0.9427    1.0000 </r>
       <r>   -0.3744    1.0000 </r>
       <r>   -0.1393    1.0000 </r>
       <r>    2.1730   -0.0000 </r>
       <r>    2.3581   -0.0000 </r>
       <r>    2.4920   -0.0000 </r>
       <r>    2.5585   -0.0000 </r>
       <r>    2.5709   -0.0000 </r>
       <r>    2.6199   -0.0000 </r>
       <r>    3.1948    0.0000 </r>
       <r>    3.2073    0.0000 </r>
       <r>    5.7824    0.0000 </r>
       <r>    5.8959    0.0000 </r>
       <r>    7.4072    0.0000 </r>
       <r>    7.8196    0.0000 </r>
      </set>
      <set comment="kpoint 33">
       <r>  -34.9841    1.0000 </r>
       <r>  -34.9741    1.0000 </r>
       <r>  -34.8652    1.0000 </r>
       <r>  -34.8553    1.0000 </r>
       <r>  -34.8198    1.0000 </r>
       <r>  -34.8100    1.0000 </r>
       <r>  -13.7209    1.0000 </r>
       <r>  -13.6656    1.0000 </r>
       <r>  -12.6016    1.0000 </r>
       <r>  -12.5154    1.0000 </r>
       <r>   -5.4052    1.0000 </r>
       <r>   -5.1206    1.0000 </r>
       <r>   -3.1270    1.0000 </r>
       <r>   -3.1137    1.0000 </r>
       <r>   -2.8012    1.0000 </r>
       <r>   -2.4855    1.0000 </r>
       <r>   -2.3664    1.0000 </r>
       <r>   -2.3562    1.0000 </r>
       <r>   -1.9829    1.0000 </r>
       <r>   -1.9709    1.0000 </r>
       <r>   -1.1958    1.0000 </r>
       <r>   -0.8944    1.0000 </r>
       <r>   -0.3173    1.0000 </r>
       <r>   -0.0463    1.0001 </r>
       <r>    2.3001   -0.0000 </r>
       <r>    2.4180   -0.0000 </r>
       <r>    2.4589   -0.0000 </r>
       <r>    2.5365   -0.0000 </r>
       <r>    2.6160   -0.0000 </r>
       <r>    2.6402   -0.0000 </r>
       <r>    3.1215    0.0000 </r>
       <r>    3.1435    0.0000 </r>
       <r>    5.6766    0.0000 </r>
       <r>    5.7866    0.0000 </r>
       <r>    7.2590    0.0000 </r>
       <r>    7.6104    0.0000 </r>
      </set>
      <set comment="kpoint 34">
       <r>  -34.9663    1.0000 </r>
       <r>  -34.9643    1.0000 </r>
       <r>  -34.9565    1.0000 </r>
       <r>  -34.9541    1.0000 </r>
       <r>  -34.8420    1.0000 </r>
       <r>  -34.8322    1.0000 </r>
       <r>  -13.2641    1.0000 </r>
       <r>  -13.2122    1.0000 </r>
       <r>  -12.4091    1.0000 </r>
       <r>  -12.3371    1.0000 </r>
       <r>   -5.0628    1.0000 </r>
       <r>   -4.8289    1.0000 </r>
       <r>   -3.7210    1.0000 </r>
       <r>   -3.6842    1.0000 </r>
       <r>   -3.4906    1.0000 </r>
       <r>   -3.3098    1.0000 </r>
       <r>   -2.4011    1.0000 </r>
       <r>   -2.3871    1.0000 </r>
       <r>   -1.9110    1.0000 </r>
       <r>   -1.8977    1.0000 </r>
       <r>   -1.4225    1.0000 </r>
       <r>   -1.1523    1.0000 </r>
       <r>   -0.6857    1.0000 </r>
       <r>   -0.6050    1.0000 </r>
       <r>    1.9508   -0.0000 </r>
       <r>    2.2338   -0.0000 </r>
       <r>    2.2963   -0.0000 </r>
       <r>    2.3333   -0.0000 </r>
       <r>    2.6944   -0.0000 </r>
[...]
       <r>    -2.2072     1.5883    18.4290 </r>
       <r>    -2.0451     3.1794    18.9442 </r>
       <r>    -1.8831     3.9647    19.5866 </r>
       <r>    -1.7210     3.1130    20.0911 </r>
       <r>    -1.5590     2.9785    20.5737 </r>
       <r>    -1.3970     3.3327    21.1138 </r>
       <r>    -1.2349     1.5543    21.3656 </r>
       <r>    -1.0729     2.2899    21.7367 </r>
       <r>    -0.9108     1.7267    22.0165 </r>
       <r>    -0.7488     3.6899    22.6144 </r>
       <r>    -0.5867     2.9238    23.0881 </r>
       <r>    -0.4247     2.1315    23.4335 </r>
       <r>    -0.2627     1.9189    23.7445 </r>
       <r>    -0.1006     1.0233    23.9103 </r>
       <r>     0.0614     0.3105    23.9606 </r>
       <r>     0.2235     0.2278    23.9975 </r>
       <r>     0.3855     0.0163    24.0002 </r>
       <r>     0.5475    -0.0010    24.0000 </r>
       <r>     0.7096    -0.0000    24.0000 </r>
       <r>     0.8716    -0.0000    24.0000 </r>
       <r>     1.0337    -0.0000    24.0000 </r>
       <r>     1.1957    -0.0000    24.0000 </r>
       <r>     1.3577    -0.0000    24.0000 </r>
       <r>     1.5198    -0.0104    23.9983 </r>
       <r>     1.6818     0.2012    24.0309 </r>
       <r>     1.8439     1.2751    24.2375 </r>
       <r>     2.0059     2.8371    24.6973 </r>
       <r>     2.1679     5.3109    25.5578 </r>
       <r>     2.3300     3.5440    26.1321 </r>
       <r>     2.4920     4.9641    26.9365 </r>
       <r>     2.6541     4.8865    27.7283 </r>
       <r>     2.8161     3.3169    28.2658 </r>
       <r>     2.9781     2.9097    28.7373 </r>
       <r>     3.1402     2.6514    29.1669 </r>
       <r>     3.3022     2.4651    29.5664 </r>
       <r>     3.4643     1.5989    29.8255 </r>
       <r>     3.6263     2.1284    30.1703 </r>
       <r>     3.7884     0.9141    30.3185 </r>
       <r>     3.9504     2.0077    30.6438 </r>
       <r>     4.1124     2.1053    30.9849 </r>
       <r>     4.2745     2.9457    31.4622 </r>
       <r>     4.4365     1.5228    31.7090 </r>
       <r>     4.5986     1.0636    31.8813 </r>
       <r>     4.7606     0.6499    31.9867 </r>
       <r>     4.9226     0.0871    32.0008 </r>
       <r>     5.0847    -0.0049    32.0000 </r>
       <r>     5.2467     0.0023    32.0003 </r>
       <r>     5.4088     0.1163    32.0192 </r>
       <r>     5.5708     0.3268    32.0721 </r>
       <r>     5.7328     0.3102    32.1224 </r>
       <r>     5.8949     0.5416    32.2102 </r>
       <r>     6.0569     0.3589    32.2683 </r>
       <r>     6.2190     0.8261    32.4022 </r>
       <r>     6.3810     0.9114    32.5499 </r>
       <r>     6.5430     0.9421    32.7025 </r>
       <r>     6.7051     0.9672    32.8593 </r>
       <r>     6.8671     1.7750    33.1469 </r>
       <r>     7.0292     1.6007    33.4063 </r>
       <r>     7.1912     0.8153    33.5384 </r>
       <r>     7.3533     2.0245    33.8664 </r>
       <r>     7.5153     1.5034    34.1100 </r>
       <r>     7.6773     1.0059    34.2730 </r>
       <r>     7.8394     0.9737    34.4308 </r>
       <r>     8.0014     1.3202    34.6447 </r>
       <r>     8.1635     2.2387    35.0075 </r>
       <r>     8.3255     2.3543    35.3890 </r>
       <r>     8.4875     1.1216    35.5708 </r>
       <r>     8.6496     1.4034    35.7982 </r>
       <r>     8.8116     0.9586    35.9535 </r>
       <r>     8.9737     0.2807    35.9990 </r>
       <r>     9.1357     0.0070    36.0001 </r>
       <r>     9.2977    -0.0007    36.0000 </r>
       <r>     9.4598    -0.0000    36.0000 </r>
       <r>     9.6218    -0.0000    36.0000 </r>
       <r>     9.7839     0.0000    36.0000 </r>
       <r>     9.9459     0.0000    36.0000 </r>
       <r>    10.1079     0.0000    36.0000 </r>
       <r>    10.2700     0.0000    36.0000 </r>
       <r>    10.4320     0.0000    36.0000 </r>
       <r>    10.5941     0.0000    36.0000 </r>
       <r>    10.7561     0.0000    36.0000 </r>
       <r>    10.9182     0.0000    36.0000 </r>
       <r>    11.0802     0.0000    36.0000 </r>
       <r>    11.2422     0.0000    36.0000 </r>
      </set>
      <set comment="spin 2">
       <r>   -37.3700     0.0000     0.0000 </r>
       <r>   -37.2080     0.0000     0.0000 </r>
       <r>   -37.0459     0.0000     0.0000 </r>
       <r>   -36.8839     0.0000     0.0000 </r>
       <r>   -36.7219     0.0000     0.0000 </r>
       <r>   -36.5598     0.0000     0.0000 </r>
       <r>   -36.3978     0.0000     0.0000 </r>
       <r>   -36.2357     0.0000     0.0000 </r>
       <r>   -36.0737    -0.0000    -0.0000 </r>
       <r>   -35.9116    -0.0000    -0.0000 </r>
       <r>   -35.7496    -0.0000    -0.0000 </r>
       <r>   -35.5876    -0.0000    -0.0000 </r>
       <r>   -35.4255    -0.0008    -0.0001 </r>
       <r>   -35.2635    -0.1848    -0.0301 </r>
       <r>   -35.1014     4.0518     0.6265 </r>
       <r>   -34.9394    15.0578     3.0665 </r>
       <r>   -34.7774    18.0764     5.9956 </r>
       <r>   -34.6153     0.0556     6.0046 </r>
       <r>   -34.4533    -0.0284     6.0000 </r>
       <r>   -34.2912    -0.0000     6.0000 </r>
       <r>   -34.1292    -0.0000     6.0000 </r>
       <r>   -33.9672     0.0000     6.0000 </r>
       <r>   -33.8051     0.0000     6.0000 </r>
       <r>   -33.6431     0.0000     6.0000 </r>
       <r>   -33.4810     0.0000     6.0000 </r>
       <r>   -33.3190     0.0000     6.0000 </r>
       <r>   -33.1570     0.0000     6.0000 </r>
       <r>   -32.9949     0.0000     6.0000 </r>
       <r>   -32.8329     0.0000     6.0000 </r>
       <r>   -32.6708     0.0000     6.0000 </r>
       <r>   -32.5088     0.0000     6.0000 </r>
       <r>   -32.3468     0.0000     6.0000 </r>
       <r>   -32.1847     0.0000     6.0000 </r>
       <r>   -32.0227     0.0000     6.0000 </r>
       <r>   -31.8606     0.0000     6.0000 </r>
       <r>   -31.6986     0.0000     6.0000 </r>
       <r>   -31.5365     0.0000     6.0000 </r>
       <r>   -31.3745     0.0000     6.0000 </r>
       <r>   -31.2125     0.0000     6.0000 </r>
       <r>   -31.0504     0.0000     6.0000 </r>
       <r>   -30.8884     0.0000     6.0000 </r>
       <r>   -30.7263     0.0000     6.0000 </r>
       <r>   -30.5643     0.0000     6.0000 </r>
       <r>   -30.4023     0.0000     6.0000 </r>
       <r>   -30.2402     0.0000     6.0000 </r>
       <r>   -30.0782     0.0000     6.0000 </r>
       <r>   -29.9161     0.0000     6.0000 </r>
       <r>   -29.7541     0.0000     6.0000 </r>
       <r>   -29.5921     0.0000     6.0000 </r>
       <r>   -29.4300     0.0000     6.0000 </r>
       <r>   -29.2680     0.0000     6.0000 </r>
       <r>   -29.1059     0.0000     6.0000 </r>
       <r>   -28.9439     0.0000     6.0000 </r>
       <r>   -28.7819     0.0000     6.0000 </r>
       <r>   -28.6198     0.0000     6.0000 </r>
       <r>   -28.4578     0.0000     6.0000 </r>
       <r>   -28.2957     0.0000     6.0000 </r>
       <r>   -28.1337     0.0000     6.0000 </r>
       <r>   -27.9716     0.0000     6.0000 </r>
       <r>   -27.8096     0.0000     6.0000 </r>
       <r>   -27.6476     0.0000     6.0000 </r>
       <r>   -27.4855     0.0000     6.0000 </r>
       <r>   -27.3235     0.0000     6.0000 </r>
       <r>   -27.1614     0.0000     6.0000 </r>
       <r>   -26.9994     0.0000     6.0000 </r>
       <r>   -26.8374     0.0000     6.0000 </r>
       <r>   -26.6753     0.0000     6.0000 </r>
       <r>   -26.5133     0.0000     6.0000 </r>
       <r>   -26.3512     0.0000     6.0000 </r>
       <r>   -26.1892     0.0000     6.0000 </r>
       <r>   -26.0272     0.0000     6.0000 </r>
       <r>   -25.8651     0.0000     6.0000 </r>
       <r>   -25.7031     0.0000     6.0000 </r>
       <r>   -25.5410     0.0000     6.0000 </r>
       <r>   -25.3790     0.0000     6.0000 </r>
       <r>   -25.2170     0.0000     6.0000 </r>
       <r>   -25.0549     0.0000     6.0000 </r>
       <r>   -24.8929     0.0000     6.0000 </r>
       <r>   -24.7308     0.0000     6.0000 </r>
       <r>   -24.5688     0.0000     6.0000 </r>
       <r>   -24.4067     0.0000     6.0000 </r>
       <r>   -24.2447     0.0000     6.0000 </r>
       <r>   -24.0827     0.0000     6.0000 </r>
       <r>   -23.9206     0.0000     6.0000 </r>
       <r>   -23.7586     0.0000     6.0000 </r>
       <r>   -23.5965     0.0000     6.0000 </r>
       <r>   -23.4345     0.0000     6.0000 </r>
       <r>   -23.2725     0.0000     6.0000 </r>
       <r>   -23.1104     0.0000     6.0000 </r>
       <r>   -22.9484     0.0000     6.0000 </r>
       <r>   -22.7863     0.0000     6.0000 </r>
       <r>   -22.6243     0.0000     6.0000 </r>
       <r>   -22.4623     0.0000     6.0000 </r>
       <r>   -22.3002     0.0000     6.0000 </r>
       <r>   -22.1382     0.0000     6.0000 </r>
       <r>   -21.9761     0.0000     6.0000 </r>
       <r>   -21.8141     0.0000     6.0000 </r>
       <r>   -21.6521     0.0000     6.0000 </r>
       <r>   -21.4900     0.0000     6.0000 </r>
       <r>   -21.3280     0.0000     6.0000 </r>
       <r>   -21.1659     0.0000     6.0000 </r>
       <r>   -21.0039     0.0000     6.0000 </r>
       <r>   -20.8419     0.0000     6.0000 </r>
       <r>   -20.6798     0.0000     6.0000 </r>
       <r>   -20.5178     0.0000     6.0000 </r>
       <r>   -20.3557     0.0000     6.0000 </r>
       <r>   -20.1937     0.0000     6.0000 </r>
       <r>   -20.0316     0.0000     6.0000 </r>
       <r>   -19.8696     0.0000     6.0000 </r>
       <r>   -19.7076     0.0000     6.0000 </r>
       <r>   -19.5455     0.0000     6.0000 </r>
       <r>   -19.3835     0.0000     6.0000 </r>
       <r>   -19.2214     0.0000     6.0000 </r>
       <r>   -19.0594     0.0000     6.0000 </r>
       <r>   -18.8974     0.0000     6.0000 </r>
       <r>   -18.7353     0.0000     6.0000 </r>
       <r>   -18.5733     0.0000     6.0000 </r>
       <r>   -18.4112     0.0000     6.0000 </r>
       <r>   -18.2492     0.0000     6.0000 </r>
       <r>   -18.0872     0.0000     6.0000 </r>
       <r>   -17.9251     0.0000     6.0000 </r>
       <r>   -17.7631     0.0000     6.0000 </r>
       <r>   -17.6010     0.0000     6.0000 </r>
       <r>   -17.4390     0.0000     6.0000 </r>
       <r>   -17.2770     0.0000     6.0000 </r>
       <r>   -17.1149     0.0000     6.0000 </r>
       <r>   -16.9529     0.0000     6.0000 </r>
       <r>   -16.7908     0.0000     6.0000 </r>
       <r>   -16.6288     0.0000     6.0000 </r>
       <r>   -16.4667     0.0000     6.0000 </r>
       <r>   -16.3047     0.0000     6.0000 </r>
       <r>   -16.1427     0.0000     6.0000 </r>
       <r>   -15.9806     0.0000     6.0000 </r>
       <r>   -15.8186     0.0000     6.0000 </r>
       <r>   -15.6565     0.0000     6.0000 </r>
       <r>   -15.4945     0.0000     6.0000 </r>
       <r>   -15.3325     0.0000     6.0000 </r>
       <r>   -15.1704     0.0000     6.0000 </r>
       <r>   -15.0084     0.0000     6.0000 </r>
       <r>   -14.8463    -0.0000     6.0000 </r>
       <r>   -14.6843    -0.0000     6.0000 </r>
       <r>   -14.5223    -0.0000     6.0000 </r>
       <r>   -14.3602    -0.0000     6.0000 </r>
       <r>   -14.1982    -0.0002     6.0000 </r>
       <r>   -14.0361    -0.0062     5.9990 </r>
       <r>   -13.8741     0.2428     6.0383 </r>
       <r>   -13.7121     0.4446     6.1104 </r>
       <r>   -13.5500     0.6539     6.2163 </r>
       <r>   -13.3880     0.4390     6.2875 </r>
       <r>   -13.2259     0.7639     6.4112 </r>
       <r>   -13.0639     0.3051     6.4607 </r>
       <r>   -12.9019     1.1219     6.6425 </r>
       <r>   -12.7398     0.4210     6.7107 </r>
       <r>   -12.5778     1.6761     6.9823 </r>
       <r>   -12.4157     2.2628     7.3489 </r>
       <r>   -12.2537     2.7834     7.8000 </r>
       <r>   -12.0916     3.9030     8.4324 </r>
       <r>   -11.9296     5.5651     9.3342 </r>
       <r>   -11.7676     3.9558     9.9752 </r>
       <r>   -11.6055     0.1651    10.0020 </r>
       <r>   -11.4435    -0.0121    10.0000 </r>
       <r>   -11.2814    -0.0000    10.0000 </r>
       <r>   -11.1194    -0.0000    10.0000 </r>
       <r>   -10.9574     0.0000    10.0000 </r>
       <r>   -10.7953     0.0000    10.0000 </r>
       <r>   -10.6333     0.0000    10.0000 </r>
       <r>   -10.4712     0.0000    10.0000 </r>
       <r>   -10.3092     0.0000    10.0000 </r>
       <r>   -10.1472     0.0000    10.0000 </r>
       <r>    -9.9851     0.0000    10.0000 </r>
       <r>    -9.8231     0.0000    10.0000 </r>
       <r>    -9.6610     0.0000    10.0000 </r>
       <r>    -9.4990     0.0000    10.0000 </r>
       <r>    -9.3370     0.0000    10.0000 </r>
       <r>    -9.1749     0.0000    10.0000 </r>
       <r>    -9.0129     0.0000    10.0000 </r>
       <r>    -8.8508     0.0000    10.0000 </r>
       <r>    -8.6888     0.0000    10.0000 </r>
       <r>    -8.5267     0.0000    10.0000 </r>
       <r>    -8.3647     0.0000    10.0000 </r>
       <r>    -8.2027     0.0000    10.0000 </r>
       <r>    -8.0406     0.0000    10.0000 </r>
       <r>    -7.8786     0.0000    10.0000 </r>
       <r>    -7.7165     0.0000    10.0000 </r>
       <r>    -7.5545     0.0000    10.0000 </r>
       <r>    -7.3925     0.0000    10.0000 </r>
       <r>    -7.2304     0.0000    10.0000 </r>
       <r>    -7.0684     0.0000    10.0000 </r>
       <r>    -6.9063     0.0000    10.0000 </r>
       <r>    -6.7443     0.0000    10.0000 </r>
       <r>    -6.5823    -0.0000    10.0000 </r>
       <r>    -6.4202    -0.0000    10.0000 </r>
       <r>    -6.2582    -0.0000    10.0000 </r>
       <r>    -6.0961    -0.0000    10.0000 </r>
       <r>    -5.9341    -0.0002    10.0000 </r>
       <r>    -5.7721    -0.0228     9.9963 </r>
       <r>    -5.6100     0.6152    10.0960 </r>
       <r>    -5.4480     1.2715    10.3020 </r>
       <r>    -5.2859     2.1597    10.6519 </r>
       <r>    -5.1239     2.8546    11.1145 </r>
       <r>    -4.9619     4.7845    11.8898 </r>
       <r>    -4.7998     2.7119    12.3292 </r>
       <r>    -4.6378     2.3805    12.7150 </r>
       <r>    -4.4757     1.4503    12.9500 </r>
       <r>    -4.3137     0.4097    13.0164 </r>
       <r>    -4.1516     0.7480    13.1376 </r>
       <r>    -3.9896     1.7870    13.4271 </r>
       <r>    -3.8276     3.9618    14.0691 </r>
       <r>    -3.6655     4.8407    14.8535 </r>
       <r>    -3.5035     2.7820    15.3043 </r>
       <r>    -3.3414     1.1140    15.4848 </r>
       <r>    -3.1794     3.4753    16.0480 </r>
       <r>    -3.0174     5.3675    16.9177 </r>
       <r>    -2.8553     3.0738    17.4158 </r>
       <r>    -2.6933     1.7254    17.6954 </r>
       <r>    -2.5312     0.9573    17.8505 </r>
       <r>    -2.3692     1.9819    18.1716 </r>
       <r>    -2.2072     1.5885    18.4290 </r>
       <r>    -2.0451     3.1796    18.9443 </r>
       <r>    -1.8831     3.9647    19.5867 </r>
       <r>    -1.7210     3.1134    20.0912 </r>
       <r>    -1.5590     2.9781    20.5738 </r>
       <r>    -1.3970     3.3330    21.1139 </r>
       <r>    -1.2349     1.5540    21.3657 </r>
       <r>    -1.0729     2.2899    21.7367 </r>
       <r>    -0.9108     1.7271    22.0166 </r>
       <r>    -0.7488     3.6893    22.6144 </r>
       <r>    -0.5867     2.9238    23.0882 </r>
       <r>    -0.4247     2.1314    23.4336 </r>
       <r>    -0.2627     1.9189    23.7445 </r>
       <r>    -0.1006     1.0231    23.9103 </r>
       <r>     0.0614     0.3104    23.9606 </r>
       <r>     0.2235     0.2278    23.9975 </r>
       <r>     0.3855     0.0163    24.0002 </r>
       <r>     0.5475    -0.0010    24.0000 </r>
       <r>     0.7096    -0.0000    24.0000 </r>
       <r>     0.8716    -0.0000    24.0000 </r>
       <r>     1.0337    -0.0000    24.0000 </r>
       <r>     1.1957    -0.0000    24.0000 </r>
       <r>     1.3577    -0.0000    24.0000 </r>
       <r>     1.5198    -0.0104    23.9983 </r>
       <r>     1.6818     0.2014    24.0309 </r>
       <r>     1.8439     1.2752    24.2376 </r>
       <r>     2.0059     2.8377    24.6974 </r>
       <r>     2.1679     5.3107    25.5580 </r>
       <r>     2.3300     3.5441    26.1322 </r>
       <r>     2.4920     4.9643    26.9367 </r>
       <r>     2.6541     4.8860    27.7284 </r>
       <r>     2.8161     3.3168    28.2659 </r>
       <r>     2.9781     2.9097    28.7373 </r>
       <r>     3.1402     2.6516    29.1670 </r>
       <r>     3.3022     2.4648    29.5664 </r>
       <r>     3.4643     1.5989    29.8255 </r>
       <r>     3.6263     2.1282    30.1704 </r>
       <r>     3.7884     0.9141    30.3185 </r>
       <r>     3.9504     2.0079    30.6438 </r>
       <r>     4.1124     2.1055    30.9850 </r>
       <r>     4.2745     2.9455    31.4623 </r>
       <r>     4.4365     1.5227    31.7090 </r>
       <r>     4.5986     1.0635    31.8814 </r>
       <r>     4.7606     0.6497    31.9867 </r>
       <r>     4.9226     0.0870    32.0008 </r>
       <r>     5.0847    -0.0049    32.0000 </r>
       <r>     5.2467     0.0006    32.0001 </r>
       <r>     5.4088     0.1065    32.0173 </r>
       <r>     5.5708     0.3324    32.0712 </r>
       <r>     5.7328     0.3051    32.1206 </r>
       <r>     5.8949     0.5454    32.2090 </r>
       <r>     6.0569     0.3541    32.2664 </r>
       <r>     6.2190     0.8214    32.3995 </r>
       <r>     6.3810     0.9186    32.5483 </r>
       <r>     6.5430     0.9342    32.6997 </r>
       <r>     6.7051     0.8896    32.8438 </r>
       <r>     6.8671     1.7888    33.1337 </r>
       <r>     7.0292     1.4645    33.3710 </r>
       <r>     7.1912     0.9348    33.5225 </r>
       <r>     7.3533     2.0847    33.8603 </r>
       <r>     7.5153     1.5238    34.1072 </r>
       <r>     7.6773     0.9733    34.2649 </r>
       <r>     7.8394     1.0045    34.4277 </r>
       <r>     8.0014     1.2965    34.6378 </r>
       <r>     8.1635     1.9060    34.9466 </r>
       <r>     8.3255     2.6777    35.3805 </r>
       <r>     8.4875     1.1142    35.5611 </r>
       <r>     8.6496     1.0803    35.7361 </r>
       <r>     8.8116     0.7729    35.8614 </r>
       <r>     8.9737     0.6231    35.9623 </r>
       <r>     9.1357     0.2420    36.0015 </r>
       <r>     9.2977    -0.0094    36.0000 </r>
       <r>     9.4598    -0.0000    36.0000 </r>
       <r>     9.6218    -0.0000    36.0000 </r>
       <r>     9.7839    -0.0000    36.0000 </r>
       <r>     9.9459     0.0000    36.0000 </r>
       <r>    10.1079     0.0000    36.0000 </r>
       <r>    10.2700     0.0000    36.0000 </r>
       <r>    10.4320     0.0000    36.0000 </r>
       <r>    10.5941     0.0000    36.0000 </r>
       <r>    10.7561     0.0000    36.0000 </r>
       <r>    10.9182     0.0000    36.0000 </r>
       <r>    11.0802     0.0000    36.0000 </r>
       <r>    11.2422     0.0000    36.0000 </r>
      </set>
     </set>
    </array>
   </total>
  </dos>
 </calculation>
 <structure name="finalpos" >
  <crystal>
   <varray name="basis" >
    <v>       3.19031700       0.00000000       0.00000000 </v>
    <v>      -1.59515800       2.76289700       0.00000000 </v>
    <v>       0.00000000       0.00000000      23.14049200 </v>
   </varray>
   <i name="volume">    203.97226633 </i>
   <varray name="rec_basis" >
    <v>       0.31344848       0.18096941       0.00000000 </v>
    <v>       0.00000000       0.36193894       0.00000000 </v>
    <v>       0.00000000       0.00000000       0.04321429 </v>
   </varray>
  </crystal>
  <varray name="positions" >
   <v>       0.66666700       0.33333300       0.06785900 </v>
   <v>       0.33333300       0.66666700       0.00000000 </v>
   <v>       0.33333300       0.66666700       0.13571500 </v>
   <v>       0.52380986       0.90476157       0.35482300 </v>
   <v>       0.19047586       0.23809557       0.28696500 </v>
   <v>       0.19047586       0.23809557       0.42267900 </v>
  </varray>
 </structure>
</modeling>
