<?xml version="1.0" encoding="ISO-8859-1"?>
<modeling>
 <generator>
  <i name="program" type="string">vasp </i>
  <i name="version" type="string">5.4.1  </i>
  <i name="subversion" type="string">24Jun15 (build May 10 2016 14:18:23) complex                          parallel </i>
  <i name="platform" type="string">IFC91_ompi </i>
  <i name="date" type="string">2016 12 09 </i>
  <i name="time" type="string">15:06:28 </i>
 </generator>
 <incar>
  <i type="string" name="PREC">accurate</i>
  <i type="string" name="ALGO"> Fast</i>
  <i type="int" name="ISPIN">     2</i>
  <i type="int" name="IBRION">     2</i>
  <i name="EDIFF">      0.00010000</i>
  <i type="int" name="NSW">     0</i>
  <i type="int" name="ISIF">     3</i>
  <i name="ENCUT">    500.00000000</i>
  <v name="MAGMOM">      6.00000000      0.50000000      0.50000000      6.00000000      0.50000000      0.50000000</v>
  <i type="string" name="LREAL"> Auto</i>
  <i type="int" name="ISMEAR">     1</i>
  <i name="SIGMA">      0.10000000</i>
  <i type="logical" name="LWAVE"> F  </i>
  <i type="logical" name="LCHARG"> F  </i>
  <i type="logical" name="LVTOT"> T  </i>
  <i type="logical" name="LVHAR"> T  </i>
  <i type="logical" name="LAECHG"> F  </i>
  <v type="int" name="KPOINT_BSE">    -1     0     0     0</v>
  <i type="string" name="GGA"> Bo</i>
  <i name="PARAM1">      0.18333333</i>
  <i name="PARAM2">      0.22000000</i>
  <i type="logical" name="LUSE_VDW"> T  </i>
  <i name="AGGAC">      0.00000000</i>
 </incar>
 <kpoints>
  <generation param="Gamma">
   <v type="int" name="divisions">      13       13        1 </v>
   <v name="usershift">      0.00000000       0.00000000       0.00000000 </v>
   <v name="genvec1">      0.07692308       0.00000000       0.00000000 </v>
   <v name="genvec2">      0.00000000       0.07692308       0.00000000 </v>
   <v name="genvec3">      0.00000000       0.00000000       1.00000000 </v>
   <v name="shift">      0.00000000       0.00000000       0.00000000 </v>
  </generation>
  <varray name="kpointlist" >
   <v>       0.00000000       0.00000000       0.00000000 </v>
   <v>       0.07692308      -0.00000000       0.00000000 </v>
   <v>       0.15384615       0.00000000       0.00000000 </v>
   <v>       0.23076923       0.00000000       0.00000000 </v>
   <v>       0.30769231      -0.00000000       0.00000000 </v>
   <v>       0.38461538       0.00000000       0.00000000 </v>
   <v>       0.46153846       0.00000000       0.00000000 </v>
   <v>       0.00000000       0.07692308       0.00000000 </v>
   <v>       0.07692308       0.07692308       0.00000000 </v>
   <v>       0.15384615       0.07692308       0.00000000 </v>
   <v>       0.23076923       0.07692308       0.00000000 </v>
   <v>       0.30769231       0.07692308       0.00000000 </v>
   <v>       0.38461538       0.07692308       0.00000000 </v>
   <v>       0.46153846       0.07692308       0.00000000 </v>
   <v>      -0.46153846       0.07692308       0.00000000 </v>
   <v>      -0.38461538       0.07692308       0.00000000 </v>
   <v>      -0.30769231       0.07692308       0.00000000 </v>
   <v>      -0.23076923       0.07692308       0.00000000 </v>
   <v>      -0.15384615       0.07692308       0.00000000 </v>
   <v>      -0.07692308       0.07692308       0.00000000 </v>
   <v>       0.00000000       0.15384615       0.00000000 </v>
   <v>       0.07692308       0.15384615       0.00000000 </v>
   <v>       0.15384615       0.15384615       0.00000000 </v>
   <v>       0.23076923       0.15384615       0.00000000 </v>
   <v>       0.30769231       0.15384615       0.00000000 </v>
   <v>       0.38461538       0.15384615       0.00000000 </v>
   <v>       0.46153846       0.15384615       0.00000000 </v>
   <v>      -0.46153846       0.15384615       0.00000000 </v>
   <v>      -0.38461538       0.15384615       0.00000000 </v>
   <v>      -0.30769231       0.15384615       0.00000000 </v>
   <v>      -0.23076923       0.15384615       0.00000000 </v>
   <v>      -0.15384615       0.15384615       0.00000000 </v>
   <v>      -0.07692308       0.15384615       0.00000000 </v>
   <v>       0.00000000       0.23076923       0.00000000 </v>
   <v>       0.07692308       0.23076923       0.00000000 </v>
   <v>       0.15384615       0.23076923       0.00000000 </v>
   <v>       0.23076923       0.23076923       0.00000000 </v>
   <v>       0.30769231       0.23076923       0.00000000 </v>
   <v>       0.38461538       0.23076923       0.00000000 </v>
   <v>       0.46153846       0.23076923       0.00000000 </v>
   <v>      -0.46153846       0.23076923       0.00000000 </v>
   <v>      -0.38461538       0.23076923       0.00000000 </v>
   <v>      -0.30769231       0.23076923       0.00000000 </v>
   <v>      -0.23076923       0.23076923       0.00000000 </v>
   <v>      -0.15384615       0.23076923       0.00000000 </v>
   <v>      -0.07692308       0.23076923       0.00000000 </v>
   <v>       0.00000000       0.30769231       0.00000000 </v>
   <v>       0.07692308       0.30769231       0.00000000 </v>
   <v>       0.15384615       0.30769231       0.00000000 </v>
   <v>       0.23076923       0.30769231       0.00000000 </v>
   <v>       0.30769231       0.30769231       0.00000000 </v>
   <v>       0.38461538       0.30769231       0.00000000 </v>
   <v>       0.46153846       0.30769231       0.00000000 </v>
   <v>      -0.46153846       0.30769231       0.00000000 </v>
   <v>      -0.38461538       0.30769231       0.00000000 </v>
   <v>      -0.30769231       0.30769231       0.00000000 </v>
   <v>      -0.23076923       0.30769231       0.00000000 </v>
   <v>      -0.15384615       0.30769231       0.00000000 </v>
   <v>      -0.07692308       0.30769231       0.00000000 </v>
   <v>       0.00000000       0.38461538       0.00000000 </v>
   <v>       0.07692308       0.38461538       0.00000000 </v>
   <v>       0.15384615       0.38461538       0.00000000 </v>
   <v>       0.23076923       0.38461538       0.00000000 </v>
   <v>       0.30769231       0.38461538       0.00000000 </v>
   <v>       0.38461538       0.38461538       0.00000000 </v>
   <v>       0.46153846       0.38461538       0.00000000 </v>
   <v>      -0.46153846       0.38461538       0.00000000 </v>
   <v>      -0.38461538       0.38461538       0.00000000 </v>
   <v>      -0.30769231       0.38461538       0.00000000 </v>
   <v>      -0.23076923       0.38461538       0.00000000 </v>
   <v>      -0.15384615       0.38461538       0.00000000 </v>
   <v>      -0.07692308       0.38461538       0.00000000 </v>
   <v>       0.00000000       0.46153846       0.00000000 </v>
   <v>       0.07692308       0.46153846       0.00000000 </v>
   <v>       0.15384615       0.46153846       0.00000000 </v>
   <v>       0.23076923       0.46153846       0.00000000 </v>
   <v>       0.30769231       0.46153846       0.00000000 </v>
   <v>       0.38461538       0.46153846       0.00000000 </v>
   <v>       0.46153846       0.46153846       0.00000000 </v>
   <v>      -0.46153846       0.46153846       0.00000000 </v>
   <v>      -0.38461538       0.46153846       0.00000000 </v>
   <v>      -0.30769231       0.46153846       0.00000000 </v>
   <v>      -0.23076923       0.46153846       0.00000000 </v>
   <v>      -0.15384615       0.46153846       0.00000000 </v>
   <v>      -0.07692308       0.46153846       0.00000000 </v>
  </varray>
  <varray name="weights" >
   <v>       0.00591716 </v>
   <v>       0.01183432 </v>
   <v>       0.01183432 </v>
   <v>       0.01183432 </v>
   <v>       0.01183432 </v>
   <v>       0.01183432 </v>
   <v>       0.01183432 </v>
   <v>       0.01183432 </v>
   <v>       0.01183432 </v>
   <v>       0.01183432 </v>
   <v>       0.01183432 </v>
   <v>       0.01183432 </v>
   <v>       0.01183432 </v>
   <v>       0.01183432 </v>
   <v>       0.01183432 </v>
   <v>       0.01183432 </v>
   <v>       0.01183432 </v>
   <v>       0.01183432 </v>
   <v>       0.01183432 </v>
   <v>       0.01183432 </v>
   <v>       0.01183432 </v>
   <v>       0.01183432 </v>
   <v>       0.01183432 </v>
   <v>       0.01183432 </v>
   <v>       0.01183432 </v>
   <v>       0.01183432 </v>
   <v>       0.01183432 </v>
   <v>       0.01183432 </v>
   <v>       0.01183432 </v>
   <v>       0.01183432 </v>
   <v>       0.01183432 </v>
   <v>       0.01183432 </v>
   <v>       0.01183432 </v>
   <v>       0.01183432 </v>
   <v>       0.01183432 </v>
   <v>       0.01183432 </v>
   <v>       0.01183432 </v>
   <v>       0.01183432 </v>
   <v>       0.01183432 </v>
   <v>       0.01183432 </v>
   <v>       0.01183432 </v>
   <v>       0.01183432 </v>
   <v>       0.01183432 </v>
   <v>       0.01183432 </v>
   <v>       0.01183432 </v>
   <v>       0.01183432 </v>
   <v>       0.01183432 </v>
   <v>       0.01183432 </v>
   <v>       0.01183432 </v>
   <v>       0.01183432 </v>
   <v>       0.01183432 </v>
   <v>       0.01183432 </v>
   <v>       0.01183432 </v>
   <v>       0.01183432 </v>
   <v>       0.01183432 </v>
   <v>       0.01183432 </v>
   <v>       0.01183432 </v>
   <v>       0.01183432 </v>
   <v>       0.01183432 </v>
   <v>       0.01183432 </v>
   <v>       0.01183432 </v>
   <v>       0.01183432 </v>
   <v>       0.01183432 </v>
   <v>       0.01183432 </v>
   <v>       0.01183432 </v>
   <v>       0.01183432 </v>
   <v>       0.01183432 </v>
   <v>       0.01183432 </v>
   <v>       0.01183432 </v>
   <v>       0.01183432 </v>
   <v>       0.01183432 </v>
   <v>       0.01183432 </v>
   <v>       0.01183432 </v>
   <v>       0.01183432 </v>
   <v>       0.01183432 </v>
   <v>       0.01183432 </v>
   <v>       0.01183432 </v>
   <v>       0.01183432 </v>
   <v>       0.01183432 </v>
   <v>       0.01183432 </v>
   <v>       0.01183432 </v>
   <v>       0.01183432 </v>
   <v>       0.01183432 </v>
   <v>       0.01183432 </v>
   <v>       0.01183432 </v>
  </varray>
 </kpoints>
 <parameters>
  <separator name="general" >
   <i type="string" name="SYSTEM">unknown system</i>
   <i type="logical" name="LCOMPAT"> F  </i>
  </separator>
  <separator name="electronic" >
   <i type="string" name="PREC">accura</i>
   <i name="ENMAX">    500.00000000</i>
   <i name="ENAUG">    392.42700000</i>
   <i name="EDIFF">      0.00010000</i>
   <i type="int" name="IALGO">    68</i>
   <i type="int" name="IWAVPR">    10</i>
   <i type="int" name="NBANDS">    36</i>
   <i name="NELECT">     48.00000000</i>
   <i type="int" name="TURBO">     0</i>
   <i type="int" name="IRESTART">     0</i>
   <i type="int" name="NREBOOT">     0</i>
   <i type="int" name="NMIN">     0</i>
   <i name="EREF">      0.00000000</i>
   <separator name="electronic smearing" >
    <i type="int" name="ISMEAR">     1</i>
    <i name="SIGMA">      0.10000000</i>
    <i name="KSPACING">      0.50000000</i>
    <i type="logical" name="KGAMMA"> T  </i>
   </separator>
   <separator name="electronic projectors" >
    <i type="logical" name="LREAL"> T  </i>
    <v name="ROPT">     -0.00025000     -0.00025000     -0.00025000     -0.00025000</v>
    <i type="int" name="LMAXPAW">  -100</i>
    <i type="int" name="LMAXMIX">     2</i>
    <i type="logical" name="NLSPLINE"> F  </i>
   </separator>
   <separator name="electronic startup" >
    <i type="int" name="ISTART">     0</i>
    <i type="int" name="ICHARG">     2</i>
    <i type="int" name="INIWAV">     1</i>
   </separator>
   <separator name="electronic spin" >
    <i type="int" name="ISPIN">     2</i>
    <i type="logical" name="LNONCOLLINEAR"> F  </i>
    <v name="MAGMOM">      6.00000000      0.50000000      0.50000000      6.00000000      0.50000000      0.50000000</v>
    <i name="NUPDOWN">     -1.00000000</i>
    <i type="logical" name="LSORBIT"> F  </i>
    <v name="SAXIS">      0.00000000      0.00000000      1.00000000</v>
    <i type="logical" name="LSPIRAL"> F  </i>
    <v name="QSPIRAL">      0.00000000      0.00000000      0.00000000</v>
    <i type="logical" name="LZEROZ"> F  </i>
   </separator>
   <separator name="electronic exchange-correlation" >
    <i type="logical" name="LASPH"> F  </i>
    <i type="logical" name="LMETAGGA"> F  </i>
   </separator>
   <separator name="electronic convergence" >
    <i type="int" name="NELM">    60</i>
    <i type="int" name="NELMDL">     0</i>
    <i type="int" name="NELMIN">     2</i>
    <i name="ENINI">    500.00000000</i>
    <separator name="electronic convergence detail" >
     <i type="logical" name="LDIAG"> T  </i>
     <i type="logical" name="LSUBROT"> F  </i>
     <i name="WEIMIN">      0.00000000</i>
     <i name="EBREAK">      0.00000069</i>
     <i name="DEPER">      0.30000000</i>
     <i type="int" name="NRMM">     4</i>
     <i name="TIME">      0.40000000</i>
    </separator>
   </separator>
   <separator name="electronic mixer" >
    <i name="AMIX">      0.40000000</i>
    <i name="BMIX">      1.00000000</i>
    <i name="AMIN">      0.10000000</i>
    <i name="AMIX_MAG">      1.60000000</i>
    <i name="BMIX_MAG">      1.00000000</i>
    <separator name="electronic mixer details" >
     <i type="int" name="IMIX">     4</i>
     <i type="logical" name="MIXFIRST"> F  </i>
     <i type="int" name="MAXMIX">   -45</i>
     <i name="WC">    100.00000000</i>
     <i type="int" name="INIMIX">     1</i>
     <i type="int" name="MIXPRE">     1</i>
     <i type="int" name="MREMOVE">     5</i>
    </separator>
   </separator>
   <separator name="electronic dipolcorrection" >
    <i type="logical" name="LDIPOL"> F  </i>
    <i type="logical" name="LMONO"> F  </i>
    <i type="int" name="IDIPOL">     0</i>
    <i name="EPSILON">      1.00000000</i>
    <v name="DIPOL">   -100.00000000   -100.00000000   -100.00000000</v>
    <i name="EFIELD">      0.00000000</i>
   </separator>
  </separator>
  <separator name="grids" >
   <i type="int" name="NGX">    24</i>
   <i type="int" name="NGY">    24</i>
   <i type="int" name="NGZ">   180</i>
   <i type="int" name="NGXF">    48</i>
   <i type="int" name="NGYF">    48</i>
   <i type="int" name="NGZF">   360</i>
   <i type="logical" name="ADDGRID"> F  </i>
  </separator>
  <separator name="ionic" >
   <i type="int" name="NSW">     0</i>
   <i type="int" name="IBRION">    -1</i>
   <i type="int" name="ISIF">     3</i>
   <i name="PSTRESS">      0.00000000</i>
   <i name="EDIFFG">      0.00100000</i>
   <i type="int" name="NFREE">     1</i>
   <i name="POTIM">      0.50000000</i>
   <i name="SMASS">     -3.00000000</i>
   <i name="SCALEE">      1.00000000</i>
  </separator>
  <separator name="ionic md" >
   <i name="TEBEG">      0.00010000</i>
   <i name="TEEND">      0.00010000</i>
   <i type="int" name="NBLOCK">     1</i>
   <i type="int" name="KBLOCK">     1</i>
   <i type="int" name="NPACO">   256</i>
   <i name="APACO">     16.00000000</i>
  </separator>
  <separator name="symmetry" >
   <i type="int" name="ISYM">     2</i>
   <i name="SYMPREC">      0.00001000</i>
  </separator>
  <separator name="dos" >
   <i type="logical" name="LORBIT"> F  </i>
   <v name="RWIGS">     -1.00000000     -1.00000000     -1.00000000     -1.00000000</v>
   <i type="int" name="NEDOS">   301</i>
   <i name="EMIN">     10.00000000</i>
   <i name="EMAX">    -10.00000000</i>
   <i name="EFERMI">      0.00000000</i>
  </separator>
  <separator name="writing" >
   <i type="int" name="NWRITE">     2</i>
   <i type="logical" name="LWAVE"> F  </i>
   <i type="logical" name="LCHARG"> F  </i>
   <i type="logical" name="LPARD"> F  </i>
   <i type="logical" name="LVTOT"> F  </i>
   <i type="logical" name="LVHAR"> T  </i>
   <i type="logical" name="LELF"> F  </i>
   <i type="logical" name="LOPTICS"> F  </i>
   <v name="STM">      0.00000000      0.00000000      0.00000000      0.00000000      0.00000000      0.00000000      0.00000000</v>
  </separator>
  <separator name="performance" >
   <i type="int" name="NPAR">     4</i>
   <i type="int" name="NSIM">     4</i>
   <i type="int" name="NBLK">    -1</i>
   <i type="logical" name="LPLANE"> T  </i>
   <i type="logical" name="LSCALAPACK"> T  </i>
   <i type="logical" name="LSCAAWARE"> F  </i>
   <i type="logical" name="LSCALU"> F  </i>
   <i type="logical" name="LASYNC"> F  </i>
   <i type="logical" name="LORBITALREAL"> F  </i>
  </separator>
  <separator name="miscellaneous" >
   <i type="int" name="IDIOT">     3</i>
   <i type="logical" name="LMUSIC"> F  </i>
   <v name="POMASS">     95.94000000     32.06600000     95.94000000     32.06600000</v>
   <v name="DARWINR">      0.00000000      0.00000000      0.00000000      0.00000000</v>
   <v name="DARWINV">      1.00000000      1.00000000      1.00000000      1.00000000</v>
   <i type="logical" name="LCORR"> T  </i>
  </separator>
  <i type="logical" name="GGA_COMPAT"> T  </i>
  <i type="logical" name="LBERRY"> F  </i>
  <i type="int" name="ICORELEVEL">     0</i>
  <i type="logical" name="LDAU"> F  </i>
  <i type="int" name="I_CONSTRAINED_M">     0</i>
  <separator name="electronic exchange-correlation" >
   <i type="string" name="GGA">BO</i>
   <i type="int" name="VOSKOWN">     0</i>
   <i type="logical" name="LHFCALC"> F  </i>
   <i type="string" name="PRECFOCK"></i>
   <i type="logical" name="LSYMGRAD"> F  </i>
   <i type="logical" name="LHFONE"> F  </i>
   <i type="logical" name="LRHFCALC"> F  </i>
   <i type="logical" name="LTHOMAS"> F  </i>
   <i type="logical" name="LMODELHF"> F  </i>
   <i name="ENCUT4O">     -1.00000000</i>
   <i type="int" name="EXXOEP">     0</i>
   <i type="int" name="FOURORBIT">     0</i>
   <i name="AEXX">      0.00000000</i>
   <i name="HFALPHA">      0.00000000</i>
   <i name="MCALPHA">      0.00000000</i>
   <i name="ALDAX">      1.00000000</i>
   <i name="AGGAX">      1.00000000</i>
   <i name="ALDAC">      1.00000000</i>
   <i name="AGGAC">      0.00000000</i>
   <i type="int" name="NKREDX">     1</i>
   <i type="int" name="NKREDY">     1</i>
   <i type="int" name="NKREDZ">     1</i>
   <i type="logical" name="SHIFTRED"> F  </i>
   <i type="logical" name="ODDONLY"> F  </i>
   <i type="logical" name="EVENONLY"> F  </i>
   <i type="int" name="LMAXFOCK">     0</i>
   <i type="int" name="NMAXFOCKAE">     0</i>
   <i type="logical" name="LFOCKAEDFT"> F  </i>
   <i name="HFSCREEN">      0.00000000</i>
   <i name="HFSCREENC">      0.00000000</i>
   <i type="int" name="NBANDSGWLOW">     0</i>
  </separator>
  <separator name="vdW DFT" >
   <i type="logical" name="LUSE_VDW"> T  </i>
   <i name="Zab_VDW">     -0.84910000</i>
   <i name="PARAM1">      0.18333333</i>
   <i name="PARAM2">      0.22000000</i>
   <i name="PARAM3">      0.00000000</i>
  </separator>
  <separator name="model GW" >
   <i type="int" name="MODEL_GW">     0</i>
   <i name="MODEL_EPS0">     20.39722663</i>
   <i name="MODEL_ALPHA">      1.00000000</i>
  </separator>
  <separator name="linear response parameters" >
   <i type="logical" name="LEPSILON"> F  </i>
   <i type="logical" name="LRPA"> F  </i>
   <i type="logical" name="LNABLA"> F  </i>
   <i type="logical" name="LVEL"> F  </i>
   <i type="int" name="KINTER">     0</i>
   <i name="CSHIFT">      0.10000000</i>
   <i name="OMEGAMAX">     -1.00000000</i>
   <i name="DEG_THRESHOLD">      0.00200000</i>
  </separator>
  <separator name="orbital magnetization" >
   <i type="logical" name="NUCIND"> F  </i>
   <v name="MAGPOS">      0.00000000      0.00000000      0.00000000</v>
   <i type="logical" name="LNICSALL"> T  </i>
   <i type="logical" name="ORBITALMAG"> F  </i>
   <i type="logical" name="LMAGBLOCH"> F  </i>
   <i type="logical" name="LCHIMAG"> F  </i>
   <i type="logical" name="LGAUGE"> T  </i>
   <i type="int" name="MAGATOM">     0</i>
   <v name="MAGDIPOL">      0.00000000      0.00000000      0.00000000</v>
   <v name="AVECCONST">      0.00000000      0.00000000      0.00000000</v>
  </separator>
  <separator name="response functions" >
   <i type="logical" name="LADDER"> F  </i>
   <i type="logical" name="LFXC"> F  </i>
   <i type="logical" name="LHARTREE"> T  </i>
   <i type="int" name="IBSE">     0</i>
   <v type="int" name="KPOINT">    -1     0     0     0</v>
   <i type="logical" name="LTCTE"> F  </i>
   <i type="logical" name="LTETE"> F  </i>
   <i type="logical" name="LTRIPLET"> F  </i>
   <i type="logical" name="LFXCEPS"> F  </i>
   <i type="logical" name="LFXHEG"> F  </i>
   <i type="int" name="NATURALO">     0</i>
   <i type="logical" name="L2ORDER"> F  </i>
   <i type="logical" name="LUSEW"> F  </i>
   <i name="ENCUTGW">     -2.00000000</i>
   <i name="ENCUTGWSOFT">     -2.00000000</i>
   <i name="ENCUTLF">     -1.00000000</i>
   <i type="int" name="LMAXMP2">    -1</i>
   <i name="SCISSOR">      0.00000000</i>
   <i type="int" name="NOMEGA">     0</i>
   <i type="int" name="NOMEGAR">     0</i>
   <i type="int" name="NBANDSGW">    -1</i>
   <i type="int" name="NBANDSO">    -1</i>
   <i type="int" name="NBANDSV">    -1</i>
   <i type="int" name="NELM">     1</i>
   <i type="int" name="NELMHF">     1</i>
   <i type="int" name="DIM">     3</i>
   <i type="int" name="ANTIRES">     0</i>
   <i name="OMEGAMAX">    -30.00000000</i>
   <i name="OMEGAMIN">    -30.00000000</i>
   <i name="OMEGATL">   -200.00000000</i>
   <i type="int" name="OMEGAGRID">     0</i>
   <i name="CSHIFT">     -0.10000000</i>
   <i type="logical" name="SELFENERGY"> F  </i>
   <i type="logical" name="LSPECTRAL"> F  </i>
   <i type="logical" name="LSPECTRALGW"> F  </i>
   <i type="logical" name="LSINGLES"> F  </i>
   <i type="logical" name="LFERMIGW"> F  </i>
   <i type="logical" name="ODDONLYGW"> F  </i>
   <i type="logical" name="EVENONLYGW"> F  </i>
   <i type="int" name="NKREDLFX">     1</i>
   <i type="int" name="NKREDLFY">     1</i>
   <i type="int" name="NKREDLFZ">     1</i>
   <i type="int" name="MAXMEM">  1800</i>
   <i type="int" name="TELESCOPE">     0</i>
   <i type="int" name="TAUPAR">     1</i>
   <i type="int" name="OMEGAPAR">    -1</i>
   <i name="LAMBDA">      1.00000000</i>
  </separator>
  <separator name="External order field" >
   <i name="OFIELD_KAPPA">      0.00000000</i>
   <v name="OFIELD_K">      0.00000000      0.00000000      0.00000000</v>
   <i name="OFIELD_Q6_NEAR">      0.00000000</i>
   <i name="OFIELD_Q6_FAR">      0.00000000</i>
   <i name="OFIELD_A">      0.00000000</i>
  </separator>
 </parameters>
 <atominfo>
  <atoms>       6 </atoms>
  <types>       4 </types>
  <array name="atoms" >
   <dimension dim="1">ion</dimension>
   <field type="string">element</field>
   <field type="int">atomtype</field>
   <set>
    <rc><c>Mo</c><c>   1</c></rc>
    <rc><c>S </c><c>   2</c></rc>
    <rc><c>S </c><c>   2</c></rc>
    <rc><c>Mo</c><c>   3</c></rc>
    <rc><c>S </c><c>   4</c></rc>
    <rc><c>S </c><c>   4</c></rc>
   </set>
  </array>
  <array name="atomtypes" >
   <dimension dim="1">type</dimension>
   <field type="int">atomspertype</field>
   <field type="string">element</field>
   <field>mass</field>
   <field>valence</field>
   <field type="string">pseudopotential</field>
   <set>
    <rc><c>   1</c><c>Mo</c><c>     95.94000000</c><c>     12.00000000</c><c> PAW_PBE Mo_pv 08Apr2002                </c></rc>
    <rc><c>   2</c><c>S </c><c>     32.06600000</c><c>      6.00000000</c><c>  PAW_PBE S 17Jan2003                   </c></rc>
    <rc><c>   1</c><c>Mo</c><c>     95.94000000</c><c>     12.00000000</c><c> PAW_PBE Mo_pv 08Apr2002                </c></rc>
    <rc><c>   2</c><c>S </c><c>     32.06600000</c><c>      6.00000000</c><c>  PAW_PBE S 17Jan2003                   </c></rc>
   </set>
  </array>
 </atominfo>
 <structure name="initialpos" >
  <crystal>
   <varray name="basis" >
    <v>       3.19031700       0.00000000       0.00000000 </v>
    <v>      -1.59515800       2.76289700       0.00000000 </v>
    <v>       0.00000000       0.00000000      23.14049200 </v>
   </varray>
   <i name="volume">    203.97226633 </i>
   <varray name="rec_basis" >
    <v>       0.31344848       0.18096941       0.00000000 </v>
    <v>       0.00000000       0.36193894       0.00000000 </v>
    <v>       0.00000000       0.00000000       0.04321429 </v>
   </varray>
  </crystal>
  <varray name="positions" >
   <v>       0.66666700       0.33333300       0.06785900 </v>
   <v>       0.33333300       0.66666700       0.00000000 </v>
   <v>       0.33333300       0.66666700       0.13571500 </v>
   <v>       0.52380986       0.33333300       0.35482300 </v>
   <v>       0.19047586       0.66666700       0.28696500 </v>
   <v>       0.19047586       0.66666700       0.42267900 </v>
  </varray>
 </structure>
 <calculation>
  <scstep>
   <time name="dav">   61.20   61.25</time>
   <time name="total">   71.56   71.63</time>
   <energy>
    <i name="alphaZ">    104.15310261 </i>
    <i name="ewald">   7699.34191998 </i>
    <i name="hartreedc"> -11109.37444482 </i>
    <i name="XCdc">    128.47089471 </i>
    <i name="pawpsdc">   2252.92270536 </i>
    <i name="pawaedc">  -2205.68654582 </i>
    <i name="eentropy">      0.00033744 </i>
    <i name="bandstr">   -158.50840263 </i>
    <i name="atom">   3688.31848598 </i>
    <i name="e_fr_energy">    399.63805279 </i>
    <i name="e_wo_entrp">    399.63771536 </i>
    <i name="e_0_energy">    399.63794032 </i>
   </energy>
  </scstep>
  <scstep>
   <time name="dav">   65.93   65.99</time>
   <time name="total">   65.94   65.99</time>
   <energy>
    <i name="e_fr_energy">     -1.40916448 </i>
    <i name="e_wo_entrp">     -1.40866563 </i>
    <i name="e_0_energy">     -1.40899820 </i>
   </energy>
  </scstep>
  <scstep>
   <time name="dav">   67.54   67.60</time>
   <time name="total">   67.54   67.61</time>
   <energy>
    <i name="e_fr_energy">    -32.94040750 </i>
    <i name="e_wo_entrp">    -32.94092154 </i>
    <i name="e_0_energy">    -32.94057885 </i>
   </energy>
  </scstep>
  <scstep>
   <time name="dav">   63.64   63.69</time>
   <time name="total">   63.64   63.72</time>
   <energy>
    <i name="e_fr_energy">    -33.82634207 </i>
    <i name="e_wo_entrp">    -33.82704712 </i>
    <i name="e_0_energy">    -33.82657709 </i>
   </energy>
  </scstep>
  <scstep>
   <time name="dav">   66.17   66.22</time>
   <time name="total">   71.10   71.22</time>
   <energy>
    <i name="e_fr_energy">    -33.85381235 </i>
    <i name="e_wo_entrp">    -33.85450522 </i>
    <i name="e_0_energy">    -33.85404331 </i>
   </energy>
  </scstep>
  <scstep>
   <time name="diag">   12.01   12.02</time>
   <time name="diis">   43.18   43.22</time>
   <time name="orth">    0.41    0.41</time>
   <time name="total">   70.49   70.55</time>
   <energy>
    <i name="e_fr_energy">    -30.16061810 </i>
    <i name="e_wo_entrp">    -30.16079680 </i>
    <i name="e_0_energy">    -30.16067766 </i>
   </energy>
  </scstep>
  <scstep>
   <time name="diag">   11.85   11.86</time>
   <time name="diis">   45.91   45.95</time>
   <time name="orth">    0.40    0.40</time>
   <time name="total">   73.17   73.24</time>
   <energy>
    <i name="e_fr_energy">    -33.70515163 </i>
    <i name="e_wo_entrp">    -33.70532805 </i>
    <i name="e_0_energy">    -33.70521044 </i>
   </energy>
  </scstep>
  <scstep>
   <time name="diag">   11.98   11.99</time>
   <time name="diis">   41.49   41.52</time>
   <time name="orth">    0.41    0.41</time>
   <time name="total">   68.84   68.91</time>
   <energy>
    <i name="e_fr_energy">    -34.26850583 </i>
    <i name="e_wo_entrp">    -34.26866968 </i>
    <i name="e_0_energy">    -34.26856044 </i>
   </energy>
  </scstep>
  <scstep>
   <time name="diag">   11.83   11.84</time>
   <time name="diis">   41.16   41.20</time>
   <time name="orth">    0.40    0.40</time>
   <time name="total">   68.38   68.49</time>
   <energy>
    <i name="e_fr_energy">    -36.01056093 </i>
    <i name="e_wo_entrp">    -36.01072427 </i>
    <i name="e_0_energy">    -36.01061538 </i>
   </energy>
  </scstep>
  <scstep>
   <time name="diag">   11.95   11.96</time>
   <time name="diis">   39.25   39.28</time>
   <time name="orth">    0.40    0.40</time>
   <time name="total">   66.62   66.67</time>
   <energy>
    <i name="e_fr_energy">    -38.51412490 </i>
    <i name="e_wo_entrp">    -38.51428896 </i>
    <i name="e_0_energy">    -38.51417959 </i>
   </energy>
  </scstep>
  <scstep>
   <time name="diag">   11.97   11.98</time>
   <time name="diis">   40.09   40.13</time>
   <time name="orth">    0.41    0.41</time>
   <time name="total">   67.44   67.49</time>
   <energy>
    <i name="e_fr_energy">    -39.29899659 </i>
    <i name="e_wo_entrp">    -39.29930756 </i>
    <i name="e_0_energy">    -39.29910024 </i>
   </energy>
  </scstep>
  <scstep>
   <time name="diag">   11.83   11.84</time>
   <time name="diis">   41.58   41.62</time>
   <time name="orth">    0.41    0.41</time>
   <time name="total">   68.88   68.94</time>
   <energy>
    <i name="e_fr_energy">    -39.35862782 </i>
    <i name="e_wo_entrp">    -39.35895321 </i>
    <i name="e_0_energy">    -39.35873628 </i>
   </energy>
  </scstep>
  <scstep>
   <time name="diag">   11.86   11.86</time>
   <time name="diis">   46.13   46.17</time>
   <time name="orth">    0.40    0.41</time>
   <time name="total">   73.48   73.54</time>
   <energy>
    <i name="e_fr_energy">    -39.38450065 </i>
    <i name="e_wo_entrp">    -39.38482861 </i>
    <i name="e_0_energy">    -39.38460997 </i>
   </energy>
  </scstep>
  <scstep>
   <time name="diag">   11.88   11.89</time>
   <time name="diis">   45.39   45.42</time>
   <time name="orth">    0.40    0.40</time>
   <time name="total">   72.76   72.82</time>
   <energy>
    <i name="e_fr_energy">    -39.39091706 </i>
    <i name="e_wo_entrp">    -39.39124539 </i>
    <i name="e_0_energy">    -39.39102650 </i>
   </energy>
  </scstep>
  <scstep>
   <time name="diag">   11.75   11.76</time>
   <time name="diis">   40.16   40.19</time>
   <time name="orth">    0.40    0.40</time>
   <time name="total">   67.36   67.41</time>
   <energy>
    <i name="e_fr_energy">    -39.39109273 </i>
    <i name="e_wo_entrp">    -39.39142106 </i>
    <i name="e_0_energy">    -39.39120217 </i>
   </energy>
  </scstep>
  <scstep>
   <time name="diag">   11.80   11.81</time>
   <time name="diis">   33.28   33.30</time>
   <time name="orth">    0.40    0.40</time>
   <time name="total">   60.83   61.67</time>
   <energy>
    <i name="e_fr_energy">    -39.39135750 </i>
    <i name="e_wo_entrp">    -39.39168592 </i>
    <i name="e_0_energy">    -39.39146697 </i>
   </energy>
  </scstep>
  <scstep>
   <time name="diag">   11.78   11.79</time>
   <time name="diis">   30.03   30.05</time>
   <time name="orth">    0.40    0.40</time>
   <time name="total">   57.29   57.34</time>
   <energy>
    <i name="e_fr_energy">    -39.39152913 </i>
    <i name="e_wo_entrp">    -39.39185753 </i>
    <i name="e_0_energy">    -39.39163860 </i>
   </energy>
  </scstep>
  <scstep>
   <time name="diag">   11.79   11.80</time>
   <time name="diis">   28.78   28.81</time>
   <time name="orth">    0.40    0.40</time>
   <time name="total">   56.01   56.06</time>
   <energy>
    <i name="e_fr_energy">    -39.39182419 </i>
    <i name="e_wo_entrp">    -39.39215256 </i>
    <i name="e_0_energy">    -39.39193365 </i>
   </energy>
  </scstep>
  <scstep>
   <time name="diag">   11.85   11.86</time>
   <time name="diis">   28.19   28.21</time>
   <time name="orth">    0.40    0.40</time>
   <time name="total">   55.52   55.57</time>
   <energy>
    <i name="e_fr_energy">    -39.39221883 </i>
    <i name="e_wo_entrp">    -39.39254716 </i>
    <i name="e_0_energy">    -39.39232827 </i>
   </energy>
  </scstep>
  <scstep>
   <time name="diag">   11.87   11.88</time>
   <time name="diis">   28.37   28.39</time>
   <time name="orth">    0.40    0.40</time>
   <time name="total">   55.73   55.78</time>
   <energy>
    <i name="e_fr_energy">    -39.39249518 </i>
    <i name="e_wo_entrp">    -39.39282348 </i>
    <i name="e_0_energy">    -39.39260461 </i>
   </energy>
  </scstep>
  <scstep>
   <time name="diag">   11.78   11.79</time>
   <time name="diis">   28.38   28.40</time>
   <time name="orth">    0.40    0.40</time>
   <time name="total">   50.38   50.42</time>
   <energy>
    <i name="alphaZ">    104.15310261 </i>
    <i name="ewald">   7699.34191998 </i>
    <i name="hartreedc"> -11093.16034008 </i>
    <i name="XCdc">    122.67976981 </i>
    <i name="pawpsdc">   2399.50189827 </i>
    <i name="pawaedc">  -2361.68826101 </i>
    <i name="eentropy">      0.00032830 </i>
    <i name="bandstr">   -598.53945095 </i>
    <i name="atom">   3688.31848598 </i>
    <i name="e_fr_energy">    -39.39254708 </i>
    <i name="e_wo_entrp">    -39.39287538 </i>
    <i name="e_0_energy">    -39.39265651 </i>
   </energy>
  </scstep>
  <structure>
   <crystal>
    <varray name="basis" >
     <v>       3.19031700       0.00000000       0.00000000 </v>
     <v>      -1.59515800       2.76289700       0.00000000 </v>
     <v>       0.00000000       0.00000000      23.14049200 </v>
    </varray>
    <i name="volume">    203.97226633 </i>
    <varray name="rec_basis" >
     <v>       0.31344848       0.18096941       0.00000000 </v>
     <v>       0.00000000       0.36193894       0.00000000 </v>
     <v>       0.00000000       0.00000000       0.04321429 </v>
    </varray>
   </crystal>
   <varray name="positions" >
    <v>       0.66666700       0.33333300       0.06785900 </v>
    <v>       0.33333300       0.66666700       0.00000000 </v>
    <v>       0.33333300       0.66666700       0.13571500 </v>
    <v>       0.52380986       0.33333300       0.35482300 </v>
    <v>       0.19047586       0.66666700       0.28696500 </v>
    <v>       0.19047586       0.66666700       0.42267900 </v>
   </varray>
  </structure>
  <varray name="forces" >
   <v>       0.00484472       0.00023271      -0.01755893 </v>
   <v>       0.00012494      -0.00032971      -0.05688217 </v>
   <v>       0.02983880       0.00012456       0.03080105 </v>
   <v>      -0.00384750      -0.00013339       0.02024518 </v>
   <v>      -0.03147608       0.00034087      -0.03751789 </v>
   <v>       0.00051511      -0.00023505       0.06091277 </v>
  </varray>
  <varray name="stress" >
   <v>       3.51721487       0.00139444      -1.01429709 </v>
   <v>       0.00139434       3.31507607       0.00221311 </v>
   <v>      -1.01429698       0.00221296       3.31550842 </v>
  </varray>
  <energy>
   <i name="e_fr_energy">    -39.39254708 </i>
   <i name="e_wo_entrp">    -39.39265651 </i>
   <i name="e_0_energy">      0.00032830 </i>
  </energy>
  <time name="totalsc"> 1477.30 1479.50</time>
  <eigenvalues>
   <array>
    <dimension dim="1">band</dimension>
    <dimension dim="2">kpoint</dimension>
    <dimension dim="3">spin</dimension>
    <field>eigene</field>
    <field>occ</field>
    <set>
     <set comment="spin 1">
      <set comment="kpoint 1">
       <r>  -34.9878    1.0000 </r>
       <r>  -34.9874    1.0000 </r>
       <r>  -34.7959    1.0000 </r>
       <r>  -34.7958    1.0000 </r>
       <r>  -34.7954    1.0000 </r>
       <r>  -34.7953    1.0000 </r>
       <r>  -13.9748    1.0000 </r>
       <r>  -13.9149    1.0000 </r>
       <r>  -12.7107    1.0000 </r>
       <r>  -12.6108    1.0000 </r>
       <r>   -5.6966    1.0000 </r>
       <r>   -5.3889    1.0000 </r>
       <r>   -2.6183    1.0000 </r>
       <r>   -2.6176    1.0000 </r>
       <r>   -2.6143    1.0000 </r>
       <r>   -2.6136    1.0000 </r>
       <r>   -2.2002    1.0000 </r>
       <r>   -1.5277    1.0000 </r>
       <r>   -1.5269    1.0000 </r>
       <r>   -1.5197    1.0000 </r>
       <r>   -1.5185    1.0000 </r>
       <r>   -1.4557    1.0000 </r>
       <r>   -0.2320    1.0000 </r>
       <r>    0.2435    0.8045 </r>
       <r>    2.6886   -0.0000 </r>
       <r>    2.6946   -0.0000 </r>
       <r>    2.7188   -0.0000 </r>
       <r>    2.7228   -0.0000 </r>
       <r>    2.8703   -0.0000 </r>
       <r>    2.8756   -0.0000 </r>
       <r>    2.9066   -0.0000 </r>
       <r>    2.9138   -0.0000 </r>
       <r>    5.2962    0.0000 </r>
       <r>    5.4128    0.0000 </r>
       <r>    6.3800    0.0000 </r>
       <r>    6.5543    0.0000 </r>
      </set>
      <set comment="kpoint 2">
       <r>  -34.9837    1.0000 </r>
       <r>  -34.9833    1.0000 </r>
       <r>  -34.8170    1.0000 </r>
       <r>  -34.8166    1.0000 </r>
       <r>  -34.8007    1.0000 </r>
       <r>  -34.8002    1.0000 </r>
       <r>  -13.8882    1.0000 </r>
       <r>  -13.8283    1.0000 </r>
       <r>  -12.6741    1.0000 </r>
       <r>  -12.5763    1.0000 </r>
       <r>   -5.5978    1.0000 </r>
       <r>   -5.2898    1.0000 </r>
       <r>   -2.8068    1.0000 </r>
       <r>   -2.7994    1.0000 </r>
       <r>   -2.5278    1.0000 </r>
       <r>   -2.5229    1.0000 </r>
       <r>   -2.4757    1.0000 </r>
       <r>   -2.0634    1.0000 </r>
       <r>   -1.6652    1.0000 </r>
       <r>   -1.6560    1.0000 </r>
       <r>   -1.3763    1.0000 </r>
       <r>   -1.0517    1.0000 </r>
       <r>   -0.2531    1.0000 </r>
       <r>    0.1729    1.0325 </r>
       <r>    2.5602   -0.0000 </r>
       <r>    2.6133   -0.0000 </r>
       <r>    2.6346   -0.0000 </r>
       <r>    2.7368   -0.0000 </r>
       <r>    2.7685   -0.0000 </r>
       <r>    2.8134   -0.0000 </r>
       <r>    2.8448   -0.0000 </r>
       <r>    2.8750   -0.0000 </r>
       <r>    5.4340    0.0000 </r>
       <r>    5.5505    0.0000 </r>
       <r>    6.7390    0.0000 </r>
       <r>    6.9368    0.0000 </r>
      </set>
      <set comment="kpoint 3">
       <r>  -34.9723    1.0000 </r>
       <r>  -34.9719    1.0000 </r>
       <r>  -34.8755    1.0000 </r>
       <r>  -34.8751    1.0000 </r>
       <r>  -34.8141    1.0000 </r>
       <r>  -34.8136    1.0000 </r>
       <r>  -13.6400    1.0000 </r>
       <r>  -13.5803    1.0000 </r>
       <r>  -12.5692    1.0000 </r>
       <r>  -12.4776    1.0000 </r>
       <r>   -5.3384    1.0000 </r>
       <r>   -5.0356    1.0000 </r>
       <r>   -3.2643    1.0000 </r>
       <r>   -3.2417    1.0000 </r>
       <r>   -2.9675    1.0000 </r>
       <r>   -2.6807    1.0000 </r>
       <r>   -2.2733    1.0000 </r>
       <r>   -2.2663    1.0000 </r>
       <r>   -2.0008    1.0000 </r>
       <r>   -1.9905    1.0000 </r>
       <r>   -1.3097    1.0000 </r>
       <r>   -0.9128    1.0000 </r>
       <r>   -0.3846    1.0000 </r>
       <r>   -0.0947    1.0000 </r>
       <r>    2.1518   -0.0000 </r>
       <r>    2.3671   -0.0000 </r>
       <r>    2.4851   -0.0000 </r>
       <r>    2.5448   -0.0000 </r>
       <r>    2.5892   -0.0000 </r>
       <r>    2.6410   -0.0000 </r>
       <r>    3.1849    0.0000 </r>
       <r>    3.2235    0.0000 </r>
       <r>    5.7914    0.0000 </r>
       <r>    5.9002    0.0000 </r>
       <r>    7.4110    0.0000 </r>
       <r>    7.8437    0.0000 </r>
      </set>
      <set comment="kpoint 4">
       <r>  -34.9573    1.0000 </r>
       <r>  -34.9568    1.0000 </r>
       <r>  -34.9560    1.0000 </r>
       <r>  -34.9556    1.0000 </r>
       <r>  -34.8329    1.0000 </r>
       <r>  -34.8324    1.0000 </r>
       <r>  -13.2654    1.0000 </r>
       <r>  -13.2065    1.0000 </r>
       <r>  -12.4118    1.0000 </r>
       <r>  -12.3295    1.0000 </r>
       <r>   -5.0726    1.0000 </r>
       <r>   -4.8209    1.0000 </r>
       <r>   -3.7451    1.0000 </r>
       <r>   -3.6583    1.0000 </r>
       <r>   -3.4936    1.0000 </r>
       <r>   -3.2986    1.0000 </r>
       <r>   -2.3966    1.0000 </r>
       <r>   -2.3850    1.0000 </r>
       <r>   -1.9058    1.0000 </r>
       <r>   -1.8951    1.0000 </r>
       <r>   -1.4972    1.0000 </r>
       <r>   -1.0907    1.0000 </r>
       <r>   -0.7038    1.0000 </r>
       <r>   -0.5411    1.0000 </r>
       <r>    1.9275   -0.0000 </r>
       <r>    2.2439   -0.0000 </r>
       <r>    2.2972   -0.0000 </r>
       <r>    2.3385   -0.0000 </r>
       <r>    2.6793   -0.0000 </r>
       <r>    2.9170   -0.0000 </r>
       <r>    3.5624    0.0000 </r>
       <r>    3.6129    0.0000 </r>
       <r>    6.3031    0.0000 </r>
       <r>    6.4093    0.0000 </r>
       <r>    7.8741    0.0000 </r>
       <r>    8.3192    0.0000 </r>
      </set>
      <set comment="kpoint 5">
       <r>  -35.0422    1.0000 </r>
       <r>  -35.0419    1.0000 </r>
       <r>  -34.9391    1.0000 </r>
       <r>  -34.9387    1.0000 </r>
       <r>  -34.8529    1.0000 </r>
       <r>  -34.8523    1.0000 </r>
       <r>  -12.8261    1.0000 </r>
       <r>  -12.7693    1.0000 </r>
       <r>  -12.2300    1.0000 </r>
       <r>  -12.1589    1.0000 </r>
       <r>   -5.1199    1.0000 </r>
       <r>   -4.9927    1.0000 </r>
       <r>   -4.0810    1.0000 </r>
       <r>   -3.9224    1.0000 </r>
       <r>   -3.8882    1.0000 </r>
       <r>   -3.7145    1.0000 </r>
       <r>   -2.7523    1.0000 </r>
       <r>   -2.7399    1.0000 </r>
       <r>   -1.7789    1.0000 </r>
       <r>   -1.5138    1.0000 </r>
       <r>   -1.4956    1.0000 </r>
       <r>   -1.3767    1.0000 </r>
       <r>   -0.9950    1.0000 </r>
       <r>   -0.8696    1.0000 </r>
       <r>    2.0254   -0.0000 </r>
       <r>    2.1325   -0.0000 </r>
       <r>    2.1659   -0.0000 </r>
       <r>    2.3255   -0.0000 </r>
       <r>    3.0824    0.0000 </r>
       <r>    3.3684    0.0000 </r>
       <r>    3.8601    0.0000 </r>
       <r>    3.9251    0.0000 </r>
       <r>    6.9244    0.0000 </r>
       <r>    7.0230    0.0000 </r>
       <r>    7.7899    0.0000 </r>
       <r>    8.0832    0.0000 </r>
      </set>
      <set comment="kpoint 6">
       <r>  -35.1120    1.0000 </r>
       <r>  -35.1116    1.0000 </r>
       <r>  -34.9249    1.0000 </r>
       <r>  -34.9245    1.0000 </r>
       <r>  -34.8693    1.0000 </r>
       <r>  -34.8688    1.0000 </r>
       <r>  -12.4166    1.0000 </r>
       <r>  -12.3631    1.0000 </r>
       <r>  -12.0646    1.0000 </r>
       <r>  -12.0046    1.0000 </r>
       <r>   -5.4359    1.0000 </r>
       <r>   -5.3627    1.0000 </r>
       <r>   -4.4921    1.0000 </r>
       <r>   -4.3754    1.0000 </r>
       <r>   -3.9959    1.0000 </r>
       <r>   -3.7847    1.0000 </r>
       <r>   -3.0125    1.0000 </r>
       <r>   -2.9994    1.0000 </r>
       <r>   -1.9959    1.0000 </r>
       <r>   -1.5991    1.0000 </r>
       <r>   -1.2005    1.0000 </r>
       <r>   -1.1735    1.0000 </r>
       <r>   -0.9572    1.0000 </r>
       <r>   -0.8021    1.0000 </r>
       <r>    2.0935   -0.0000 </r>
       <r>    2.1143   -0.0000 </r>
       <r>    2.2941   -0.0000 </r>
       <r>    2.4988   -0.0000 </r>
       <r>    3.4650    0.0000 </r>
       <r>    3.7627    0.0000 </r>
       <r>    4.0441    0.0000 </r>
       <r>    4.1224    0.0000 </r>
       <r>    6.7262    0.0000 </r>
       <r>    7.2162    0.0000 </r>
       <r>    7.5420    0.0000 </r>
       <r>    7.8906    0.0000 </r>
      </set>
      <set comment="kpoint 7">
       <r>  -35.1510    1.0000 </r>
       <r>  -35.1507    1.0000 </r>
       <r>  -34.9168    1.0000 </r>
       <r>  -34.9164    1.0000 </r>
       <r>  -34.8786    1.0000 </r>
       <r>  -34.8780    1.0000 </r>
       <r>  -12.1609    1.0000 </r>
       <r>  -12.1100    1.0000 </r>
       <r>  -11.9632    1.0000 </r>
       <r>  -11.9108    1.0000 </r>
       <r>   -5.6771    1.0000 </r>
       <r>   -5.6139    1.0000 </r>
       <r>   -4.7429    1.0000 </r>
       <r>   -4.6408    1.0000 </r>
       <r>   -4.0972    1.0000 </r>
       <r>   -3.8987    1.0000 </r>
       <r>   -3.1485    1.0000 </r>
       <r>   -3.1353    1.0000 </r>
       <r>   -2.1021    1.0000 </r>
       <r>   -1.7097    1.0000 </r>
       <r>   -1.0365    1.0000 </r>
       <r>   -1.0026    1.0000 </r>
       <r>   -0.7495    1.0000 </r>
       <r>   -0.5606    1.0000 </r>
       <r>    2.1243   -0.0000 </r>
       <r>    2.1348   -0.0000 </r>
       <r>    2.5504   -0.0000 </r>
       <r>    2.6474   -0.0000 </r>
       <r>    3.6664    0.0000 </r>
       <r>    3.9651    0.0000 </r>
       <r>    4.1270    0.0000 </r>
       <r>    4.2131    0.0000 </r>
       <r>    5.9473    0.0000 </r>
       <r>    6.5720    0.0000 </r>
       <r>    7.8049    0.0000 </r>
       <r>    8.0171    0.0000 </r>
      </set>
      <set comment="kpoint 8">
       <r>  -34.9837    1.0000 </r>
       <r>  -34.9833    1.0000 </r>
       <r>  -34.8171    1.0000 </r>
       <r>  -34.8166    1.0000 </r>
       <r>  -34.8007    1.0000 </r>
       <r>  -34.8002    1.0000 </r>
       <r>  -13.8882    1.0000 </r>
       <r>  -13.8283    1.0000 </r>
       <r>  -12.6741    1.0000 </r>
       <r>  -12.5763    1.0000 </r>
       <r>   -5.5979    1.0000 </r>
       <r>   -5.2898    1.0000 </r>
       <r>   -2.8069    1.0000 </r>
       <r>   -2.7992    1.0000 </r>
       <r>   -2.5272    1.0000 </r>
       <r>   -2.5238    1.0000 </r>
       <r>   -2.4752    1.0000 </r>
       <r>   -2.0635    1.0000 </r>
       <r>   -1.6640    1.0000 </r>
       <r>   -1.6572    1.0000 </r>
       <r>   -1.3783    1.0000 </r>
       <r>   -1.0501    1.0000 </r>
       <r>   -0.2534    1.0000 </r>
       <r>    0.1744    1.0317 </r>
       <r>    2.5532   -0.0000 </r>
       <r>    2.6137   -0.0000 </r>
       <r>    2.6333   -0.0000 </r>
       <r>    2.7432   -0.0000 </r>
       <r>    2.7762   -0.0000 </r>
       <r>    2.8101   -0.0000 </r>
       <r>    2.8464   -0.0000 </r>
       <r>    2.8691   -0.0000 </r>
       <r>    5.4359    0.0000 </r>
       <r>    5.5506    0.0000 </r>
       <r>    6.7365    0.0000 </r>
       <r>    6.9362    0.0000 </r>
      </set>
      <set comment="kpoint 9">
       <r>  -34.9760    1.0000 </r>
       <r>  -34.9756    1.0000 </r>
       <r>  -34.8560    1.0000 </r>
       <r>  -34.8556    1.0000 </r>
       <r>  -34.8108    1.0000 </r>
       <r>  -34.8102    1.0000 </r>
       <r>  -13.7208    1.0000 </r>
       <r>  -13.6609    1.0000 </r>
       <r>  -12.6033    1.0000 </r>
       <r>  -12.5095    1.0000 </r>
       <r>   -5.4169    1.0000 </r>
       <r>   -5.1105    1.0000 </r>
       <r>   -3.1246    1.0000 </r>
       <r>   -3.1092    1.0000 </r>
       <r>   -2.8075    1.0000 </r>
       <r>   -2.4790    1.0000 </r>
       <r>   -2.3601    1.0000 </r>
       <r>   -2.3542    1.0000 </r>
       <r>   -1.9818    1.0000 </r>
       <r>   -1.9658    1.0000 </r>
       <r>   -1.2336    1.0000 </r>
       <r>   -0.8617    1.0000 </r>
       <r>   -0.3288    1.0000 </r>
       <r>    0.0067    1.0003 </r>
       <r>    2.2607   -0.0000 </r>
       <r>    2.4236   -0.0000 </r>
       <r>    2.4487   -0.0000 </r>
       <r>    2.5771   -0.0000 </r>
       <r>    2.6043   -0.0000 </r>
       <r>    2.6554   -0.0000 </r>
       <r>    3.1149    0.0000 </r>
       <r>    3.1565    0.0000 </r>
       <r>    5.6794    0.0000 </r>
       <r>    5.7919    0.0000 </r>
       <r>    7.2622    0.0000 </r>
       <r>    7.5975    0.0000 </r>
      </set>
      <set comment="kpoint 10">
       <r>  -34.9623    1.0000 </r>
       <r>  -34.9618    1.0000 </r>
       <r>  -34.9235    1.0000 </r>
       <r>  -34.9232    1.0000 </r>
       <r>  -34.8293    1.0000 </r>
       <r>  -34.8287    1.0000 </r>
       <r>  -13.4088    1.0000 </r>
       <r>  -13.3494    1.0000 </r>
       <r>  -12.4716    1.0000 </r>
       <r>  -12.3854    1.0000 </r>
       <r>   -5.1374    1.0000 </r>
       <r>   -4.8529    1.0000 </r>
       <r>   -3.5788    1.0000 </r>
       <r>   -3.5306    1.0000 </r>
       <r>   -3.2378    1.0000 </r>
       <r>   -3.0005    1.0000 </r>
       <r>   -2.4757    1.0000 </r>
       <r>   -2.4323    1.0000 </r>
       <r>   -2.0780    1.0000 </r>
       <r>   -2.0680    1.0000 </r>
       <r>   -1.2282    1.0000 </r>
       <r>   -0.8608    1.0000 </r>
       <r>   -0.5602    1.0000 </r>
       <r>   -0.3578    1.0000 </r>
       <r>    1.9317   -0.0000 </r>
       <r>    2.1940   -0.0000 </r>
       <r>    2.3733   -0.0000 </r>
       <r>    2.4406   -0.0000 </r>
       <r>    2.4503   -0.0000 </r>
       <r>    2.6424   -0.0000 </r>
       <r>    3.5108    0.0000 </r>
       <r>    3.5818    0.0000 </r>
       <r>    6.1127    0.0000 </r>
       <r>    6.2226    0.0000 </r>
       <r>    7.8003    0.0000 </r>
       <r>    8.2552    0.0000 </r>
      </set>
      <set comment="kpoint 11">
       <r>  -35.0039    1.0000 </r>
       <r>  -35.0035    1.0000 </r>
       <r>  -34.9456    1.0000 </r>
       <r>  -34.9452    1.0000 </r>
       <r>  -34.8517    1.0000 </r>
       <r>  -34.8511    1.0000 </r>
       <r>  -12.9998    1.0000 </r>
       <r>  -12.9417    1.0000 </r>
       <r>  -12.3001    1.0000 </r>
       <r>  -12.2242    1.0000 </r>
       <r>   -5.0071    1.0000 </r>
       <r>   -4.8267    1.0000 </r>
       <r>   -3.9065    1.0000 </r>
       <r>   -3.7487    1.0000 </r>
       <r>   -3.7245    1.0000 </r>
       <r>   -3.5866    1.0000 </r>
       <r>   -2.8726    1.0000 </r>
       <r>   -2.7936    1.0000 </r>
       <r>   -1.8004    1.0000 </r>
       <r>   -1.7803    1.0000 </r>
       <r>   -1.4481    1.0000 </r>
       <r>   -1.0972    1.0000 </r>
       <r>   -0.8626    1.0000 </r>
       <r>   -0.7445    1.0000 </r>
       <r>    1.8318   -0.0000 </r>
       <r>    2.0765   -0.0000 </r>
       <r>    2.2598   -0.0000 </r>
       <r>    2.3844   -0.0000 </r>
       <r>    2.7282   -0.0000 </r>
       <r>    2.9665   -0.0000 </r>
       <r>    3.8518    0.0000 </r>
       <r>    3.9559    0.0000 </r>
       <r>    6.7022    0.0000 </r>
       <r>    6.7995    0.0000 </r>
       <r>    8.1508    0.0000 </r>
       <r>    8.4956    0.0000 </r>
      </set>
      <set comment="kpoint 12">
       <r>  -35.0785    1.0000 </r>
       <r>  -35.0781    1.0000 </r>
       <r>  -34.9299    1.0000 </r>
       <r>  -34.9295    1.0000 </r>
       <r>  -34.8727    1.0000 </r>
       <r>  -34.8721    1.0000 </r>
       <r>  -12.5703    1.0000 </r>
       <r>  -12.5150    1.0000 </r>
       <r>  -12.1229    1.0000 </r>
       <r>  -12.0580    1.0000 </r>
       <r>   -5.2249    1.0000 </r>
       <r>   -5.1356    1.0000 </r>
       <r>   -4.3069    1.0000 </r>
       <r>   -4.1975    1.0000 </r>
       <r>   -3.9192    1.0000 </r>
       <r>   -3.7025    1.0000 </r>
       <r>   -3.0852    1.0000 </r>
       <r>   -3.0073    1.0000 </r>
       <r>   -1.7740    1.0000 </r>
       <r>   -1.6304    1.0000 </r>
       <r>   -1.6113    1.0000 </r>
       <r>   -1.3832    1.0000 </r>
       <r>   -0.8860    1.0000 </r>
       <r>   -0.7957    1.0000 </r>
       <r>    1.9437   -0.0000 </r>
       <r>    2.1087   -0.0000 </r>
       <r>    2.3061   -0.0000 </r>
       <r>    2.4426   -0.0000 </r>
       <r>    3.1465    0.0000 </r>
       <r>    3.3967    0.0000 </r>
       <r>    4.0405    0.0000 </r>
       <r>    4.1815    0.0000 </r>
       <r>    7.2376    0.0000 </r>
       <r>    7.4012    0.0000 </r>
       <r>    7.5063    0.0000 </r>
       <r>    8.1464    0.0000 </r>
      </set>
      <set comment="kpoint 13">
       <r>  -35.1308    1.0000 </r>
       <r>  -35.1305    1.0000 </r>
       <r>  -34.9188    1.0000 </r>
       <r>  -34.9184    1.0000 </r>
       <r>  -34.8875    1.0000 </r>
       <r>  -34.8870    1.0000 </r>
       <r>  -12.2299    1.0000 </r>
       <r>  -12.1779    1.0000 </r>
       <r>  -11.9849    1.0000 </r>
       <r>  -11.9297    1.0000 </r>
       <r>   -5.5075    1.0000 </r>
       <r>   -5.4420    1.0000 </r>
       <r>   -4.6921    1.0000 </r>
       <r>   -4.6034    1.0000 </r>
       <r>   -4.0227    1.0000 </r>
       <r>   -3.8137    1.0000 </r>
       <r>   -3.1712    1.0000 </r>
       <r>   -3.1144    1.0000 </r>
       <r>   -2.0032    1.0000 </r>
       <r>   -1.6460    1.0000 </r>
       <r>   -1.5133    1.0000 </r>
       <r>   -1.4206    1.0000 </r>
       <r>   -0.6764    1.0000 </r>
       <r>   -0.5680    1.0000 </r>
       <r>    2.0965   -0.0000 </r>
       <r>    2.1703   -0.0000 </r>
       <r>    2.4863   -0.0000 </r>
       <r>    2.5980   -0.0000 </r>
       <r>    3.5374    0.0000 </r>
       <r>    3.7688    0.0000 </r>
       <r>    4.0339    0.0000 </r>
       <r>    4.2183    0.0000 </r>
       <r>    6.3580    0.0000 </r>
       <r>    6.9694    0.0000 </r>
       <r>    7.9703    0.0000 </r>
       <r>    8.1917    0.0000 </r>
      </set>
      <set comment="kpoint 14">
       <r>  -35.1496    1.0000 </r>
       <r>  -35.1493    1.0000 </r>
       <r>  -34.9148    1.0000 </r>
       <r>  -34.9143    1.0000 </r>
       <r>  -34.8929    1.0000 </r>
       <r>  -34.8924    1.0000 </r>
       <r>  -12.0981    1.0000 </r>
       <r>  -12.0474    1.0000 </r>
       <r>  -11.9314    1.0000 </r>
       <r>  -11.8806    1.0000 </r>
       <r>   -5.6255    1.0000 </r>
       <r>   -5.5635    1.0000 </r>
       <r>   -4.8345    1.0000 </r>
       <r>   -4.7505    1.0000 </r>
       <r>   -4.0894    1.0000 </r>
       <r>   -3.8903    1.0000 </r>
       <r>   -3.1904    1.0000 </r>
       <r>   -3.1457    1.0000 </r>
       <r>   -2.0927    1.0000 </r>
       <r>   -1.7222    1.0000 </r>
       <r>   -1.4496    1.0000 </r>
       <r>   -1.3586    1.0000 </r>
       <r>   -0.5469    1.0000 </r>
       <r>   -0.4207    1.0000 </r>
       <r>    2.1352   -0.0000 </r>
       <r>    2.1683   -0.0000 </r>
       <r>    2.6359   -0.0000 </r>
       <r>    2.7149   -0.0000 </r>
       <r>    3.8008    0.0000 </r>
       <r>    3.8827    0.0000 </r>
       <r>    3.9793    0.0000 </r>
       <r>    4.1373    0.0000 </r>
       <r>    5.9254    0.0000 </r>
       <r>    6.5862    0.0000 </r>
       <r>    8.2485    0.0000 </r>
       <r>    8.3702    0.0000 </r>
      </set>
      <set comment="kpoint 15">
       <r>  -35.1309    1.0000 </r>
       <r>  -35.1305    1.0000 </r>
       <r>  -34.9188    1.0000 </r>
       <r>  -34.9184    1.0000 </r>
       <r>  -34.8875    1.0000 </r>
       <r>  -34.8870    1.0000 </r>
       <r>  -12.2297    1.0000 </r>
       <r>  -12.1780    1.0000 </r>
       <r>  -11.9848    1.0000 </r>
       <r>  -11.9299    1.0000 </r>
       <r>   -5.5075    1.0000 </r>
       <r>   -5.4421    1.0000 </r>
       <r>   -4.6918    1.0000 </r>
       <r>   -4.6036    1.0000 </r>
       <r>   -4.0227    1.0000 </r>
       <r>   -3.8139    1.0000 </r>
       <r>   -3.1713    1.0000 </r>
       <r>   -3.1140    1.0000 </r>
       <r>   -2.0021    1.0000 </r>
       <r>   -1.6454    1.0000 </r>
       <r>   -1.5117    1.0000 </r>
       <r>   -1.4247    1.0000 </r>
       <r>   -0.6766    1.0000 </r>
       <r>   -0.5678    1.0000 </r>
       <r>    2.0957   -0.0000 </r>
       <r>    2.1715   -0.0000 </r>
       <r>    2.4868   -0.0000 </r>
       <r>    2.5975   -0.0000 </r>
       <r>    3.5424    0.0000 </r>
       <r>    3.7640    0.0000 </r>
       <r>    4.0319    0.0000 </r>
       <r>    4.2195    0.0000 </r>
       <r>    6.3582    0.0000 </r>
       <r>    6.9691    0.0000 </r>
       <r>    7.9728    0.0000 </r>
       <r>    8.1970    0.0000 </r>
      </set>
      <set comment="kpoint 16">
       <r>  -35.0785    1.0000 </r>
       <r>  -35.0781    1.0000 </r>
       <r>  -34.9299    1.0000 </r>
       <r>  -34.9295    1.0000 </r>
       <r>  -34.8727    1.0000 </r>
       <r>  -34.8721    1.0000 </r>
       <r>  -12.5701    1.0000 </r>
       <r>  -12.5152    1.0000 </r>
       <r>  -12.1226    1.0000 </r>
       <r>  -12.0583    1.0000 </r>
       <r>   -5.2249    1.0000 </r>
       <r>   -5.1357    1.0000 </r>
       <r>   -4.3064    1.0000 </r>
       <r>   -4.1979    1.0000 </r>
       <r>   -3.9189    1.0000 </r>
       <r>   -3.7030    1.0000 </r>
       <r>   -3.0848    1.0000 </r>
       <r>   -3.0071    1.0000 </r>
       <r>   -1.7711    1.0000 </r>
       <r>   -1.6304    1.0000 </r>
       <r>   -1.6122    1.0000 </r>
       <r>   -1.3862    1.0000 </r>
       <r>   -0.8859    1.0000 </r>
       <r>   -0.7961    1.0000 </r>
       <r>    1.9444   -0.0000 </r>
       <r>    2.1088   -0.0000 </r>
       <r>    2.3061   -0.0000 </r>
       <r>    2.4420   -0.0000 </r>
       <r>    3.1510    0.0000 </r>
       <r>    3.3916    0.0000 </r>
       <r>    4.0398    0.0000 </r>
       <r>    4.1825    0.0000 </r>
       <r>    7.2374    0.0000 </r>
       <r>    7.3966    0.0000 </r>
       <r>    7.5053    0.0000 </r>
       <r>    8.1070    0.0000 </r>
      </set>
      <set comment="kpoint 17">
       <r>  -35.0039    1.0000 </r>
       <r>  -35.0035    1.0000 </r>
       <r>  -34.9456    1.0000 </r>
       <r>  -34.9452    1.0000 </r>
       <r>  -34.8516    1.0000 </r>
       <r>  -34.8511    1.0000 </r>
       <r>  -12.9996    1.0000 </r>
       <r>  -12.9419    1.0000 </r>
       <r>  -12.2999    1.0000 </r>
       <r>  -12.2244    1.0000 </r>
       <r>   -5.0071    1.0000 </r>
       <r>   -4.8267    1.0000 </r>
       <r>   -3.9057    1.0000 </r>
       <r>   -3.7496    1.0000 </r>
       <r>   -3.7240    1.0000 </r>
       <r>   -3.5872    1.0000 </r>
       <r>   -2.8719    1.0000 </r>
       <r>   -2.7938    1.0000 </r>
       <r>   -1.8006    1.0000 </r>
       <r>   -1.7796    1.0000 </r>
       <r>   -1.4469    1.0000 </r>
       <r>   -1.0989    1.0000 </r>
       <r>   -0.8625    1.0000 </r>
       <r>   -0.7461    1.0000 </r>
       <r>    1.8332   -0.0000 </r>
       <r>    2.0755   -0.0000 </r>
       <r>    2.2599   -0.0000 </r>
       <r>    2.3838   -0.0000 </r>
       <r>    2.7316   -0.0000 </r>
       <r>    2.9632   -0.0000 </r>
       <r>    3.8509    0.0000 </r>
       <r>    3.9574    0.0000 </r>
       <r>    6.7015    0.0000 </r>
       <r>    6.7995    0.0000 </r>
       <r>    8.1757    0.0000 </r>
       <r>    8.5181    0.0000 </r>
      </set>
      <set comment="kpoint 18">
       <r>  -34.9623    1.0000 </r>
       <r>  -34.9618    1.0000 </r>
       <r>  -34.9236    1.0000 </r>
       <r>  -34.9231    1.0000 </r>
       <r>  -34.8292    1.0000 </r>
       <r>  -34.8288    1.0000 </r>
       <r>  -13.4087    1.0000 </r>
       <r>  -13.3495    1.0000 </r>
       <r>  -12.4715    1.0000 </r>
       <r>  -12.3856    1.0000 </r>
       <r>   -5.1372    1.0000 </r>
       <r>   -4.8530    1.0000 </r>
       <r>   -3.5786    1.0000 </r>
       <r>   -3.5307    1.0000 </r>
       <r>   -3.2381    1.0000 </r>
       <r>   -3.0002    1.0000 </r>
       <r>   -2.4752    1.0000 </r>
       <r>   -2.4326    1.0000 </r>
       <r>   -2.0784    1.0000 </r>
       <r>   -2.0675    1.0000 </r>
       <r>   -1.2259    1.0000 </r>
       <r>   -0.8626    1.0000 </r>
       <r>   -0.5597    1.0000 </r>
       <r>   -0.3612    1.0000 </r>
       <r>    1.9337   -0.0000 </r>
       <r>    2.1944   -0.0000 </r>
       <r>    2.3723   -0.0000 </r>
       <r>    2.4366   -0.0000 </r>
       <r>    2.4560   -0.0000 </r>
       <r>    2.6409   -0.0000 </r>
       <r>    3.5089    0.0000 </r>
       <r>    3.5843    0.0000 </r>
       <r>    6.1126    0.0000 </r>
       <r>    6.2224    0.0000 </r>
       <r>    7.8027    0.0000 </r>
       <r>    8.2729    0.0000 </r>
      </set>
      <set comment="kpoint 19">
       <r>  -34.9760    1.0000 </r>
       <r>  -34.9756    1.0000 </r>
       <r>  -34.8560    1.0000 </r>
       <r>  -34.8556    1.0000 </r>
       <r>  -34.8107    1.0000 </r>
       <r>  -34.8103    1.0000 </r>
       <r>  -13.7207    1.0000 </r>
       <r>  -13.6609    1.0000 </r>
       <r>  -12.6032    1.0000 </r>
       <r>  -12.5096    1.0000 </r>
       <r>   -5.4167    1.0000 </r>
       <r>   -5.1107    1.0000 </r>
       <r>   -3.1247    1.0000 </r>
       <r>   -3.1091    1.0000 </r>
       <r>   -2.8079    1.0000 </r>
       <r>   -2.4786    1.0000 </r>
       <r>   -2.3607    1.0000 </r>
       <r>   -2.3537    1.0000 </r>
       <r>   -1.9823    1.0000 </r>
       <r>   -1.9652    1.0000 </r>
       <r>   -1.2309    1.0000 </r>
       <r>   -0.8639    1.0000 </r>
       <r>   -0.3281    1.0000 </r>
       <r>    0.0029    1.0003 </r>
       <r>    2.2665   -0.0000 </r>
       <r>    2.4241   -0.0000 </r>
       <r>    2.4499   -0.0000 </r>
       <r>    2.5725   -0.0000 </r>
       <r>    2.6016   -0.0000 </r>
       <r>    2.6573   -0.0000 </r>
       <r>    3.1116    0.0000 </r>
       <r>    3.1605    0.0000 </r>
       <r>    5.6798    0.0000 </r>
       <r>    5.7918    0.0000 </r>
       <r>    7.2645    0.0000 </r>
       <r>    7.5988    0.0000 </r>
      </set>
      <set comment="kpoint 20">
       <r>  -34.9837    1.0000 </r>
       <r>  -34.9833    1.0000 </r>
       <r>  -34.8171    1.0000 </r>
       <r>  -34.8166    1.0000 </r>
       <r>  -34.8006    1.0000 </r>
       <r>  -34.8002    1.0000 </r>
       <r>  -13.8882    1.0000 </r>
       <r>  -13.8283    1.0000 </r>
       <r>  -12.6741    1.0000 </r>
       <r>  -12.5763    1.0000 </r>
       <r>   -5.5978    1.0000 </r>
       <r>   -5.2898    1.0000 </r>
       <r>   -2.8068    1.0000 </r>
       <r>   -2.7994    1.0000 </r>
       <r>   -2.5278    1.0000 </r>
       <r>   -2.5229    1.0000 </r>
       <r>   -2.4757    1.0000 </r>
       <r>   -2.0634    1.0000 </r>
       <r>   -1.6652    1.0000 </r>
       <r>   -1.6560    1.0000 </r>
       <r>   -1.3763    1.0000 </r>
       <r>   -1.0517    1.0000 </r>
       <r>   -0.2531    1.0000 </r>
       <r>    0.1729    1.0325 </r>
       <r>    2.5602   -0.0000 </r>
       <r>    2.6132   -0.0000 </r>
       <r>    2.6346   -0.0000 </r>
       <r>    2.7368   -0.0000 </r>
       <r>    2.7685   -0.0000 </r>
       <r>    2.8133   -0.0000 </r>
       <r>    2.8448   -0.0000 </r>
       <r>    2.8750   -0.0000 </r>
       <r>    5.4340    0.0000 </r>
       <r>    5.5505    0.0000 </r>
       <r>    6.7367    0.0000 </r>
       <r>    6.9382    0.0000 </r>
      </set>
      <set comment="kpoint 21">
       <r>  -34.9723    1.0000 </r>
       <r>  -34.9719    1.0000 </r>
       <r>  -34.8755    1.0000 </r>
       <r>  -34.8751    1.0000 </r>
       <r>  -34.8141    1.0000 </r>
       <r>  -34.8136    1.0000 </r>
       <r>  -13.6401    1.0000 </r>
       <r>  -13.5802    1.0000 </r>
       <r>  -12.5694    1.0000 </r>
       <r>  -12.4774    1.0000 </r>
       <r>   -5.3386    1.0000 </r>
       <r>   -5.0354    1.0000 </r>
       <r>   -3.2646    1.0000 </r>
       <r>   -3.2413    1.0000 </r>
       <r>   -2.9673    1.0000 </r>
       <r>   -2.6806    1.0000 </r>
       <r>   -2.2723    1.0000 </r>
       <r>   -2.2672    1.0000 </r>
       <r>   -1.9994    1.0000 </r>
       <r>   -1.9920    1.0000 </r>
       <r>   -1.3149    1.0000 </r>
       <r>   -0.9089    1.0000 </r>
       <r>   -0.3856    1.0000 </r>
       <r>   -0.0892    1.0000 </r>
       <r>    2.1445   -0.0000 </r>
       <r>    2.3677   -0.0000 </r>
       <r>    2.4832   -0.0000 </r>
       <r>    2.5509   -0.0000 </r>
       <r>    2.5839   -0.0000 </r>
       <r>    2.6455   -0.0000 </r>
       <r>    3.1896    0.0000 </r>
       <r>    3.2183    0.0000 </r>
       <r>    5.7914    0.0000 </r>
       <r>    5.9005    0.0000 </r>
       <r>    7.4210    0.0000 </r>
       <r>    7.8407    0.0000 </r>
      </set>
      <set comment="kpoint 22">
       <r>  -34.9622    1.0000 </r>
       <r>  -34.9618    1.0000 </r>
       <r>  -34.9235    1.0000 </r>
       <r>  -34.9231    1.0000 </r>
       <r>  -34.8293    1.0000 </r>
       <r>  -34.8287    1.0000 </r>
       <r>  -13.4089    1.0000 </r>
       <r>  -13.3493    1.0000 </r>
       <r>  -12.4718    1.0000 </r>
       <r>  -12.3853    1.0000 </r>
       <r>   -5.1375    1.0000 </r>
       <r>   -4.8528    1.0000 </r>
       <r>   -3.5794    1.0000 </r>
       <r>   -3.5299    1.0000 </r>
       <r>   -3.2379    1.0000 </r>
       <r>   -3.0002    1.0000 </r>
       <r>   -2.4752    1.0000 </r>
       <r>   -2.4330    1.0000 </r>
       <r>   -2.0774    1.0000 </r>
       <r>   -2.0686    1.0000 </r>
       <r>   -1.2317    1.0000 </r>
       <r>   -0.8586    1.0000 </r>
       <r>   -0.5609    1.0000 </r>
       <r>   -0.3539    1.0000 </r>
       <r>    1.9291   -0.0000 </r>
       <r>    2.1940   -0.0000 </r>
       <r>    2.3748   -0.0000 </r>
       <r>    2.4346   -0.0000 </r>
       <r>    2.4541   -0.0000 </r>
       <r>    2.6433   -0.0000 </r>
       <r>    3.5131    0.0000 </r>
       <r>    3.5797    0.0000 </r>
       <r>    6.1127    0.0000 </r>
       <r>    6.2229    0.0000 </r>
       <r>    7.7991    0.0000 </r>
       <r>    8.2420    0.0000 </r>
      </set>
      <set comment="kpoint 23">
       <r>  -34.9856    1.0000 </r>
       <r>  -34.9853    1.0000 </r>
       <r>  -34.9480    1.0000 </r>
       <r>  -34.9476    1.0000 </r>
       <r>  -34.8556    1.0000 </r>
       <r>  -34.8551    1.0000 </r>
       <r>  -13.0610    1.0000 </r>
       <r>  -13.0024    1.0000 </r>
       <r>  -12.3245    1.0000 </r>
       <r>  -12.2465    1.0000 </r>
       <r>   -4.9599    1.0000 </r>
       <r>   -4.7512    1.0000 </r>
       <r>   -3.8427    1.0000 </r>
       <r>   -3.7077    1.0000 </r>
       <r>   -3.5282    1.0000 </r>
       <r>   -3.3963    1.0000 </r>
       <r>   -3.1105    1.0000 </r>
       <r>   -2.9807    1.0000 </r>
       <r>   -1.9516    1.0000 </r>
       <r>   -1.9324    1.0000 </r>
       <r>   -1.2170    1.0000 </r>
       <r>   -0.8978    1.0000 </r>
       <r>   -0.7942    1.0000 </r>
       <r>   -0.6665    1.0000 </r>
       <r>    1.7394   -0.0000 </r>
       <r>    2.0003   -0.0000 </r>
       <r>    2.3029   -0.0000 </r>
       <r>    2.4202   -0.0000 </r>
       <r>    2.5008   -0.0000 </r>
       <r>    2.7198   -0.0000 </r>
       <r>    3.8923    0.0000 </r>
       <r>    4.0151    0.0000 </r>
       <r>    6.6290    0.0000 </r>
       <r>    6.7297    0.0000 </r>
       <r>    8.3216    0.0000 </r>
       <r>    8.5731    0.0000 </r>
      </set>
      <set comment="kpoint 24">
       <r>  -35.0484    1.0000 </r>
       <r>  -35.0481    1.0000 </r>
       <r>  -34.9328    1.0000 </r>
       <r>  -34.9324    1.0000 </r>
       <r>  -34.8859    1.0000 </r>
       <r>  -34.8854    1.0000 </r>
       <r>  -12.6561    1.0000 </r>
       <r>  -12.5997    1.0000 </r>
       <r>  -12.1530    1.0000 </r>
       <r>  -12.0851    1.0000 </r>
       <r>   -5.0298    1.0000 </r>
       <r>   -4.9206    1.0000 </r>
       <r>   -4.1092    1.0000 </r>
       <r>   -4.0442    1.0000 </r>
       <r>   -3.8430    1.0000 </r>
       <r>   -3.6163    1.0000 </r>
       <r>   -3.3242    1.0000 </r>
       <r>   -3.1507    1.0000 </r>
       <r>   -2.0847    1.0000 </r>
       <r>   -2.0488    1.0000 </r>
       <r>   -1.4293    1.0000 </r>
       <r>   -1.1164    1.0000 </r>
       <r>   -0.8497    1.0000 </r>
       <r>   -0.7904    1.0000 </r>
       <r>    1.7720   -0.0000 </r>
       <r>    2.0517   -0.0000 </r>
       <r>    2.3766   -0.0000 </r>
       <r>    2.4597   -0.0000 </r>
       <r>    2.7563   -0.0000 </r>
       <r>    2.9852   -0.0000 </r>
       <r>    4.1349    0.0000 </r>
       <r>    4.3087    0.0000 </r>
       <r>    7.2693    0.0000 </r>
       <r>    7.3547    0.0000 </r>
       <r>    8.0179    0.0000 </r>
       <r>    8.5856    0.0000 </r>
      </set>
      <set comment="kpoint 25">
       <r>  -35.0991    1.0000 </r>
       <r>  -35.0987    1.0000 </r>
       <r>  -34.9202    1.0000 </r>
       <r>  -34.9198    1.0000 </r>
       <r>  -34.9119    1.0000 </r>
       <r>  -34.9114    1.0000 </r>
       <r>  -12.2838    1.0000 </r>
       <r>  -12.2304    1.0000 </r>
       <r>  -11.9956    1.0000 </r>
       <r>  -11.9377    1.0000 </r>
       <r>   -5.2298    1.0000 </r>
       <r>   -5.1578    1.0000 </r>
       <r>   -4.6514    1.0000 </r>
       <r>   -4.5968    1.0000 </r>
       <r>   -3.8693    1.0000 </r>
       <r>   -3.6368    1.0000 </r>
       <r>   -3.2946    1.0000 </r>
       <r>   -3.1510    1.0000 </r>
       <r>   -2.2371    1.0000 </r>
       <r>   -2.1583    1.0000 </r>
       <r>   -1.7618    1.0000 </r>
       <r>   -1.4457    1.0000 </r>
       <r>   -0.6776    1.0000 </r>
       <r>   -0.6236    1.0000 </r>
       <r>    2.0006   -0.0000 </r>
       <r>    2.2214   -0.0000 </r>
       <r>    2.4999   -0.0000 </r>
       <r>    2.5607   -0.0000 </r>
       <r>    3.0966    0.0000 </r>
       <r>    3.3178    0.0000 </r>
       <r>    4.1984    0.0000 </r>
       <r>    4.4187    0.0000 </r>
       <r>    6.9838    0.0000 </r>
       <r>    7.5436    0.0000 </r>
       <r>    8.0743    0.0000 </r>
       <r>    8.4170    0.0000 </r>
      </set>
      <set comment="kpoint 26">
       <r>  -35.1272    1.0000 </r>
       <r>  -35.1269    1.0000 </r>
       <r>  -34.9268    1.0000 </r>
       <r>  -34.9263    1.0000 </r>
       <r>  -34.9131    1.0000 </r>
       <r>  -34.9126    1.0000 </r>
       <r>  -12.0552    1.0000 </r>
       <r>  -12.0040    1.0000 </r>
       <r>  -11.8979    1.0000 </r>
       <r>  -11.8472    1.0000 </r>
       <r>   -5.3618    1.0000 </r>
       <r>   -5.3001    1.0000 </r>
       <r>   -4.9593    1.0000 </r>
       <r>   -4.9057    1.0000 </r>
       <r>   -3.9978    1.0000 </r>
       <r>   -3.7917    1.0000 </r>
       <r>   -3.2036    1.0000 </r>
       <r>   -3.0996    1.0000 </r>
       <r>   -2.2642    1.0000 </r>
       <r>   -2.1438    1.0000 </r>
       <r>   -2.0104    1.0000 </r>
       <r>   -1.6840    1.0000 </r>
       <r>   -0.4522    1.0000 </r>
       <r>   -0.3799    1.0000 </r>
       <r>    2.0547   -0.0000 </r>
       <r>    2.1159   -0.0000 </r>
       <r>    2.7480   -0.0000 </r>
       <r>    2.8740   -0.0000 </r>
       <r>    3.3502    0.0000 </r>
       <r>    3.5440    0.0000 </r>
       <r>    4.1434    0.0000 </r>
       <r>    4.4040    0.0000 </r>
       <r>    6.2669    0.0000 </r>
       <r>    6.9533    0.0000 </r>
       <r>    8.6444    0.0000 </r>
       <r>    8.7900    0.0000 </r>
      </set>
      <set comment="kpoint 27">
       <r>  -35.1272    1.0000 </r>
       <r>  -35.1269    1.0000 </r>
       <r>  -34.9268    1.0000 </r>
       <r>  -34.9263    1.0000 </r>
       <r>  -34.9131    1.0000 </r>
       <r>  -34.9126    1.0000 </r>
       <r>  -12.0550    1.0000 </r>
       <r>  -12.0041    1.0000 </r>
       <r>  -11.8978    1.0000 </r>
       <r>  -11.8475    1.0000 </r>
       <r>   -5.3618    1.0000 </r>
       <r>   -5.3003    1.0000 </r>
       <r>   -4.9591    1.0000 </r>
       <r>   -4.9058    1.0000 </r>
       <r>   -3.9978    1.0000 </r>
       <r>   -3.7918    1.0000 </r>
       <r>   -3.2037    1.0000 </r>
       <r>   -3.0991    1.0000 </r>
       <r>   -2.2613    1.0000 </r>
       <r>   -2.1452    1.0000 </r>
       <r>   -2.0117    1.0000 </r>
       <r>   -1.6849    1.0000 </r>
       <r>   -0.4520    1.0000 </r>
       <r>   -0.3799    1.0000 </r>
       <r>    2.0541   -0.0000 </r>
       <r>    2.1165   -0.0000 </r>
       <r>    2.7478   -0.0000 </r>
       <r>    2.8743   -0.0000 </r>
       <r>    3.3557    0.0000 </r>
       <r>    3.5378    0.0000 </r>
       <r>    4.1432    0.0000 </r>
       <r>    4.4042    0.0000 </r>
       <r>    6.2674    0.0000 </r>
       <r>    6.9533    0.0000 </r>
       <r>    8.6538    0.0000 </r>
       <r>    8.8037    0.0000 </r>
      </set>
      <set comment="kpoint 28">
       <r>  -35.0991    1.0000 </r>
       <r>  -35.0987    1.0000 </r>
       <r>  -34.9202    1.0000 </r>
       <r>  -34.9198    1.0000 </r>
       <r>  -34.9119    1.0000 </r>
       <r>  -34.9114    1.0000 </r>
       <r>  -12.2833    1.0000 </r>
       <r>  -12.2307    1.0000 </r>
       <r>  -11.9953    1.0000 </r>
       <r>  -11.9382    1.0000 </r>
       <r>   -5.2298    1.0000 </r>
       <r>   -5.1580    1.0000 </r>
       <r>   -4.6511    1.0000 </r>
       <r>   -4.5972    1.0000 </r>
       <r>   -3.8686    1.0000 </r>
       <r>   -3.6373    1.0000 </r>
       <r>   -3.2942    1.0000 </r>
       <r>   -3.1507    1.0000 </r>
       <r>   -2.2335    1.0000 </r>
       <r>   -2.1607    1.0000 </r>
       <r>   -1.7630    1.0000 </r>
       <r>   -1.4478    1.0000 </r>
       <r>   -0.6775    1.0000 </r>
       <r>   -0.6234    1.0000 </r>
       <r>    1.9997   -0.0000 </r>
       <r>    2.2231   -0.0000 </r>
       <r>    2.5002   -0.0000 </r>
       <r>    2.5598   -0.0000 </r>
       <r>    3.1035    0.0000 </r>
       <r>    3.3096    0.0000 </r>
       <r>    4.1983    0.0000 </r>
       <r>    4.4194    0.0000 </r>
       <r>    6.9838    0.0000 </r>
       <r>    7.5441    0.0000 </r>
       <r>    8.0650    0.0000 </r>
       <r>    8.5366    0.0000 </r>
      </set>
      <set comment="kpoint 29">
       <r>  -35.0485    1.0000 </r>
       <r>  -35.0481    1.0000 </r>
       <r>  -34.9328    1.0000 </r>
       <r>  -34.9324    1.0000 </r>
       <r>  -34.8859    1.0000 </r>
       <r>  -34.8854    1.0000 </r>
       <r>  -12.6557    1.0000 </r>
       <r>  -12.6000    1.0000 </r>
       <r>  -12.1526    1.0000 </r>
       <r>  -12.0857    1.0000 </r>
       <r>   -5.0300    1.0000 </r>
       <r>   -4.9205    1.0000 </r>
       <r>   -4.1087    1.0000 </r>
       <r>   -4.0457    1.0000 </r>
       <r>   -3.8401    1.0000 </r>
       <r>   -3.6177    1.0000 </r>
       <r>   -3.3234    1.0000 </r>
       <r>   -3.1511    1.0000 </r>
       <r>   -2.0854    1.0000 </r>
       <r>   -2.0478    1.0000 </r>
       <r>   -1.4281    1.0000 </r>
       <r>   -1.1196    1.0000 </r>
       <r>   -0.8505    1.0000 </r>
       <r>   -0.7900    1.0000 </r>
       <r>    1.7726   -0.0000 </r>
       <r>    2.0518   -0.0000 </r>
       <r>    2.3766   -0.0000 </r>
       <r>    2.4587   -0.0000 </r>
       <r>    2.7608   -0.0000 </r>
       <r>    2.9811   -0.0000 </r>
       <r>    4.1348    0.0000 </r>
       <r>    4.3094    0.0000 </r>
       <r>    7.2685    0.0000 </r>
       <r>    7.3545    0.0000 </r>
       <r>    8.0134    0.0000 </r>
       <r>    8.5876    0.0000 </r>
      </set>
      <set comment="kpoint 30">
       <r>  -34.9857    1.0000 </r>
       <r>  -34.9853    1.0000 </r>
       <r>  -34.9480    1.0000 </r>
       <r>  -34.9475    1.0000 </r>
       <r>  -34.8556    1.0000 </r>
       <r>  -34.8551    1.0000 </r>
       <r>  -13.0607    1.0000 </r>
       <r>  -13.0026    1.0000 </r>
       <r>  -12.3240    1.0000 </r>
       <r>  -12.2469    1.0000 </r>
       <r>   -4.9600    1.0000 </r>
       <r>   -4.7509    1.0000 </r>
       <r>   -3.8410    1.0000 </r>
       <r>   -3.7100    1.0000 </r>
       <r>   -3.5277    1.0000 </r>
       <r>   -3.3962    1.0000 </r>
       <r>   -3.1093    1.0000 </r>
       <r>   -2.9816    1.0000 </r>
       <r>   -1.9527    1.0000 </r>
       <r>   -1.9312    1.0000 </r>
       <r>   -1.2129    1.0000 </r>
       <r>   -0.9002    1.0000 </r>
       <r>   -0.7943    1.0000 </r>
       <r>   -0.6714    1.0000 </r>
       <r>    1.7409   -0.0000 </r>
       <r>    2.0000   -0.0000 </r>
       <r>    2.3031   -0.0000 </r>
       <r>    2.4190   -0.0000 </r>
       <r>    2.5036   -0.0000 </r>
       <r>    2.7187   -0.0000 </r>
       <r>    3.8908    0.0000 </r>
       <r>    4.0171    0.0000 </r>
       <r>    6.6292    0.0000 </r>
       <r>    6.7292    0.0000 </r>
       <r>    8.3287    0.0000 </r>
       <r>    8.5959    0.0000 </r>
      </set>
      <set comment="kpoint 31">
       <r>  -34.9623    1.0000 </r>
       <r>  -34.9618    1.0000 </r>
       <r>  -34.9236    1.0000 </r>
       <r>  -34.9231    1.0000 </r>
       <r>  -34.8292    1.0000 </r>
       <r>  -34.8288    1.0000 </r>
       <r>  -13.4087    1.0000 </r>
       <r>  -13.3495    1.0000 </r>
       <r>  -12.4715    1.0000 </r>
       <r>  -12.3856    1.0000 </r>
       <r>   -5.1372    1.0000 </r>
       <r>   -4.8530    1.0000 </r>
       <r>   -3.5786    1.0000 </r>
       <r>   -3.5307    1.0000 </r>
       <r>   -3.2381    1.0000 </r>
       <r>   -3.0002    1.0000 </r>
       <r>   -2.4752    1.0000 </r>
       <r>   -2.4326    1.0000 </r>
       <r>   -2.0784    1.0000 </r>
       <r>   -2.0675    1.0000 </r>
       <r>   -1.2259    1.0000 </r>
       <r>   -0.8626    1.0000 </r>
       <r>   -0.5597    1.0000 </r>
       <r>   -0.3612    1.0000 </r>
       <r>    1.9337   -0.0000 </r>
       <r>    2.1944   -0.0000 </r>
       <r>    2.3723   -0.0000 </r>
       <r>    2.4366   -0.0000 </r>
       <r>    2.4559   -0.0000 </r>
       <r>    2.6409   -0.0000 </r>
       <r>    3.5089    0.0000 </r>
       <r>    3.5843    0.0000 </r>
       <r>    6.1126    0.0000 </r>
       <r>    6.2225    0.0000 </r>
       <r>    7.8009    0.0000 </r>
       <r>    8.2741    0.0000 </r>
      </set>
      <set comment="kpoint 32">
       <r>  -34.9723    1.0000 </r>
       <r>  -34.9719    1.0000 </r>
       <r>  -34.8756    1.0000 </r>
       <r>  -34.8751    1.0000 </r>
       <r>  -34.8140    1.0000 </r>
       <r>  -34.8136    1.0000 </r>
       <r>  -13.6400    1.0000 </r>
       <r>  -13.5803    1.0000 </r>
       <r>  -12.5692    1.0000 </r>
       <r>  -12.4776    1.0000 </r>
       <r>   -5.3384    1.0000 </r>
       <r>   -5.0356    1.0000 </r>
       <r>   -3.2643    1.0000 </r>
       <r>   -3.2417    1.0000 </r>
       <r>   -2.9675    1.0000 </r>
       <r>   -2.6807    1.0000 </r>
       <r>   -2.2733    1.0000 </r>
       <r>   -2.2663    1.0000 </r>
       <r>   -2.0008    1.0000 </r>
       <r>   -1.9905    1.0000 </r>
       <r>   -1.3097    1.0000 </r>
       <r>   -0.9128    1.0000 </r>
       <r>   -0.3846    1.0000 </r>
       <r>   -0.0947    1.0000 </r>
       <r>    2.1518   -0.0000 </r>
       <r>    2.3671   -0.0000 </r>
       <r>    2.4851   -0.0000 </r>
       <r>    2.5448   -0.0000 </r>
       <r>    2.5891   -0.0000 </r>
       <r>    2.6410   -0.0000 </r>
       <r>    3.1849    0.0000 </r>
       <r>    3.2235    0.0000 </r>
       <r>    5.7918    0.0000 </r>
       <r>    5.9001    0.0000 </r>
       <r>    7.4087    0.0000 </r>
       <r>    7.8383    0.0000 </r>
      </set>
      <set comment="kpoint 33">
       <r>  -34.9760    1.0000 </r>
       <r>  -34.9756    1.0000 </r>
       <r>  -34.8561    1.0000 </r>
       <r>  -34.8555    1.0000 </r>
       <r>  -34.8107    1.0000 </r>
       <r>  -34.8103    1.0000 </r>
       <r>  -13.7208    1.0000 </r>
       <r>  -13.6609    1.0000 </r>
       <r>  -12.6033    1.0000 </r>
       <r>  -12.5095    1.0000 </r>
       <r>   -5.4169    1.0000 </r>
       <r>   -5.1105    1.0000 </r>
       <r>   -3.1246    1.0000 </r>
       <r>   -3.1092    1.0000 </r>
       <r>   -2.8075    1.0000 </r>
       <r>   -2.4790    1.0000 </r>
       <r>   -2.3601    1.0000 </r>
       <r>   -2.3542    1.0000 </r>
       <r>   -1.9818    1.0000 </r>
       <r>   -1.9658    1.0000 </r>
       <r>   -1.2336    1.0000 </r>
       <r>   -0.8617    1.0000 </r>
       <r>   -0.3288    1.0000 </r>
       <r>    0.0067    1.0003 </r>
       <r>    2.2607   -0.0000 </r>
       <r>    2.4236   -0.0000 </r>
       <r>    2.4487   -0.0000 </r>
       <r>    2.5771   -0.0000 </r>
       <r>    2.6043   -0.0000 </r>
       <r>    2.6554   -0.0000 </r>
       <r>    3.1149    0.0000 </r>
       <r>    3.1565    0.0000 </r>
       <r>    5.6790    0.0000 </r>
       <r>    5.7919    0.0000 </r>
       <r>    7.2606    0.0000 </r>
       <r>    7.5972    0.0000 </r>
      </set>
      <set comment="kpoint 34">
       <r>  -34.9570    1.0000 </r>
       <r>  -34.9566    1.0000 </r>
       <r>  -34.9562    1.0000 </r>
       <r>  -34.9558    1.0000 </r>
       <r>  -34.8329    1.0000 </r>
       <r>  -34.8324    1.0000 </r>
       <r>  -13.2657    1.0000 </r>
       <r>  -13.2062    1.0000 </r>
       <r>  -12.4122    1.0000 </r>
       <r>  -12.3291    1.0000 </r>
       <r>   -5.0728    1.0000 </r>
       <r>   -4.8208    1.0000 </r>
       <r>   -3.7476    1.0000 </r>
       <r>   -3.6559    1.0000 </r>
       <r>   -3.4942    1.0000 </r>
       <r>   -3.2976    1.0000 </r>
       <r>   -2.3949    1.0000 </r>
       <r>   -2.3867    1.0000 </r>
       <r>   -1.9044    1.0000 </r>
       <r>   -1.8967    1.0000 </r>
       <r>   -1.5058    1.0000 </r>
       <r>   -1.0841    1.0000 </r>
       <r>   -0.7053    1.0000 </r>
       <r>   -0.5336    1.0000 </r>
       <r>    1.9225   -0.0000 </r>
       <r>    2.2436   -0.0000 </r>
       <r>    2.3039   -0.0000 </r>
       <r>    2.3327   -0.0000 </r>
       <r>    2.6772   -0.0000 </r>
[...]
       <r>    -2.1854     1.9455    18.5136 </r>
       <r>    -2.0233     3.7334    19.1188 </r>
       <r>    -1.8612     3.1909    19.6360 </r>
       <r>    -1.6991     2.8166    20.0926 </r>
       <r>    -1.5370     3.1476    20.6029 </r>
       <r>    -1.3749     3.4166    21.1567 </r>
       <r>    -1.2128     1.7081    21.4336 </r>
       <r>    -1.0507     1.8340    21.7309 </r>
       <r>    -0.8886     1.9241    22.0428 </r>
       <r>    -0.7265     3.7029    22.6430 </r>
       <r>    -0.5644     2.8106    23.0986 </r>
       <r>    -0.4023     2.2352    23.4610 </r>
       <r>    -0.2402     1.9068    23.7701 </r>
       <r>    -0.0781     0.8453    23.9071 </r>
       <r>     0.0840     0.3165    23.9584 </r>
       <r>     0.2461     0.2328    23.9961 </r>
       <r>     0.4082     0.0251    24.0002 </r>
       <r>     0.5703    -0.0012    24.0000 </r>
       <r>     0.7324    -0.0000    24.0000 </r>
       <r>     0.8945    -0.0000    24.0000 </r>
       <r>     1.0566    -0.0000    24.0000 </r>
       <r>     1.2187    -0.0000    24.0000 </r>
       <r>     1.3808    -0.0000    24.0000 </r>
       <r>     1.5429    -0.0165    23.9973 </r>
       <r>     1.7050     0.3393    24.0523 </r>
       <r>     1.8671     1.4717    24.2909 </r>
       <r>     2.0292     3.0793    24.7901 </r>
       <r>     2.1913     5.2165    25.6357 </r>
       <r>     2.3534     3.6903    26.2339 </r>
       <r>     2.5155     5.0639    27.0547 </r>
       <r>     2.6776     4.5849    27.7980 </r>
       <r>     2.8398     3.3902    28.3475 </r>
       <r>     3.0019     2.7178    28.7881 </r>
       <r>     3.1640     2.7356    29.2315 </r>
       <r>     3.3261     2.1591    29.5815 </r>
       <r>     3.4882     1.7399    29.8636 </r>
       <r>     3.6503     2.0508    30.1960 </r>
       <r>     3.8124     0.9688    30.3531 </r>
       <r>     3.9745     1.9792    30.6739 </r>
       <r>     4.1366     2.5598    31.0888 </r>
       <r>     4.2987     2.4029    31.4783 </r>
       <r>     4.4608     1.6181    31.7406 </r>
       <r>     4.6229     0.7758    31.8664 </r>
       <r>     4.7850     0.6674    31.9746 </r>
       <r>     4.9471     0.1649    32.0013 </r>
       <r>     5.1092    -0.0084    31.9999 </r>
       <r>     5.2713     0.0053    32.0008 </r>
       <r>     5.4334     0.1564    32.0262 </r>
       <r>     5.5955     0.3166    32.0775 </r>
       <r>     5.7576     0.3354    32.1318 </r>
       <r>     5.9197     0.7077    32.2466 </r>
       <r>     6.0818     0.4059    32.3123 </r>
       <r>     6.2439     0.8299    32.4469 </r>
       <r>     6.4060     1.1591    32.6348 </r>
       <r>     6.5681     0.5185    32.7188 </r>
       <r>     6.7302     1.2366    32.9193 </r>
       <r>     6.8923     1.6048    33.1794 </r>
       <r>     7.0544     1.7756    33.4672 </r>
       <r>     7.2165     0.5416    33.5550 </r>
       <r>     7.3786     1.7948    33.8460 </r>
       <r>     7.5407     1.9791    34.1668 </r>
       <r>     7.7028     0.7924    34.2952 </r>
       <r>     7.8649     1.2733    34.5016 </r>
       <r>     8.0270     1.4162    34.7312 </r>
       <r>     8.1891     2.5748    35.1486 </r>
       <r>     8.3512     1.7721    35.4359 </r>
       <r>     8.5133     1.0709    35.6095 </r>
       <r>     8.6754     1.3438    35.8273 </r>
       <r>     8.8375     0.8886    35.9713 </r>
       <r>     8.9996     0.0756    35.9836 </r>
       <r>     9.1617     0.1057    36.0007 </r>
       <r>     9.3238    -0.0045    36.0000 </r>
       <r>     9.4859    -0.0000    36.0000 </r>
       <r>     9.6480    -0.0000    36.0000 </r>
       <r>     9.8102    -0.0000    36.0000 </r>
       <r>     9.9723     0.0000    36.0000 </r>
       <r>    10.1344     0.0000    36.0000 </r>
       <r>    10.2965     0.0000    36.0000 </r>
       <r>    10.4586     0.0000    36.0000 </r>
       <r>    10.6207     0.0000    36.0000 </r>
       <r>    10.7828     0.0000    36.0000 </r>
       <r>    10.9449     0.0000    36.0000 </r>
       <r>    11.1070     0.0000    36.0000 </r>
       <r>    11.2691     0.0000    36.0000 </r>
      </set>
      <set comment="spin 2">
       <r>   -37.3616     0.0000     0.0000 </r>
       <r>   -37.1995     0.0000     0.0000 </r>
       <r>   -37.0374     0.0000     0.0000 </r>
       <r>   -36.8753     0.0000     0.0000 </r>
       <r>   -36.7132     0.0000     0.0000 </r>
       <r>   -36.5511     0.0000     0.0000 </r>
       <r>   -36.3890     0.0000     0.0000 </r>
       <r>   -36.2269     0.0000     0.0000 </r>
       <r>   -36.0648    -0.0000    -0.0000 </r>
       <r>   -35.9027    -0.0000    -0.0000 </r>
       <r>   -35.7406    -0.0000    -0.0000 </r>
       <r>   -35.5785    -0.0000    -0.0000 </r>
       <r>   -35.4164    -0.0009    -0.0001 </r>
       <r>   -35.2543    -0.1944    -0.0317 </r>
       <r>   -35.0922     4.3205     0.6687 </r>
       <r>   -34.9301    15.7040     3.2143 </r>
       <r>   -34.7680    17.2528     6.0111 </r>
       <r>   -34.6059    -0.0448     6.0038 </r>
       <r>   -34.4438    -0.0234     6.0000 </r>
       <r>   -34.2817    -0.0000     6.0000 </r>
       <r>   -34.1196    -0.0000     6.0000 </r>
       <r>   -33.9575     0.0000     6.0000 </r>
       <r>   -33.7954     0.0000     6.0000 </r>
       <r>   -33.6333     0.0000     6.0000 </r>
       <r>   -33.4712     0.0000     6.0000 </r>
       <r>   -33.3091     0.0000     6.0000 </r>
       <r>   -33.1470     0.0000     6.0000 </r>
       <r>   -32.9849     0.0000     6.0000 </r>
       <r>   -32.8228     0.0000     6.0000 </r>
       <r>   -32.6607     0.0000     6.0000 </r>
       <r>   -32.4986     0.0000     6.0000 </r>
       <r>   -32.3365     0.0000     6.0000 </r>
       <r>   -32.1744     0.0000     6.0000 </r>
       <r>   -32.0122     0.0000     6.0000 </r>
       <r>   -31.8501     0.0000     6.0000 </r>
       <r>   -31.6880     0.0000     6.0000 </r>
       <r>   -31.5259     0.0000     6.0000 </r>
       <r>   -31.3638     0.0000     6.0000 </r>
       <r>   -31.2017     0.0000     6.0000 </r>
       <r>   -31.0396     0.0000     6.0000 </r>
       <r>   -30.8775     0.0000     6.0000 </r>
       <r>   -30.7154     0.0000     6.0000 </r>
       <r>   -30.5533     0.0000     6.0000 </r>
       <r>   -30.3912     0.0000     6.0000 </r>
       <r>   -30.2291     0.0000     6.0000 </r>
       <r>   -30.0670     0.0000     6.0000 </r>
       <r>   -29.9049     0.0000     6.0000 </r>
       <r>   -29.7428     0.0000     6.0000 </r>
       <r>   -29.5807     0.0000     6.0000 </r>
       <r>   -29.4186     0.0000     6.0000 </r>
       <r>   -29.2565     0.0000     6.0000 </r>
       <r>   -29.0944     0.0000     6.0000 </r>
       <r>   -28.9323     0.0000     6.0000 </r>
       <r>   -28.7702     0.0000     6.0000 </r>
       <r>   -28.6081     0.0000     6.0000 </r>
       <r>   -28.4460     0.0000     6.0000 </r>
       <r>   -28.2839     0.0000     6.0000 </r>
       <r>   -28.1218     0.0000     6.0000 </r>
       <r>   -27.9597     0.0000     6.0000 </r>
       <r>   -27.7976     0.0000     6.0000 </r>
       <r>   -27.6355     0.0000     6.0000 </r>
       <r>   -27.4734     0.0000     6.0000 </r>
       <r>   -27.3113     0.0000     6.0000 </r>
       <r>   -27.1492     0.0000     6.0000 </r>
       <r>   -26.9871     0.0000     6.0000 </r>
       <r>   -26.8250     0.0000     6.0000 </r>
       <r>   -26.6629     0.0000     6.0000 </r>
       <r>   -26.5008     0.0000     6.0000 </r>
       <r>   -26.3387     0.0000     6.0000 </r>
       <r>   -26.1766     0.0000     6.0000 </r>
       <r>   -26.0145     0.0000     6.0000 </r>
       <r>   -25.8524     0.0000     6.0000 </r>
       <r>   -25.6903     0.0000     6.0000 </r>
       <r>   -25.5282     0.0000     6.0000 </r>
       <r>   -25.3661     0.0000     6.0000 </r>
       <r>   -25.2040     0.0000     6.0000 </r>
       <r>   -25.0418     0.0000     6.0000 </r>
       <r>   -24.8797     0.0000     6.0000 </r>
       <r>   -24.7176     0.0000     6.0000 </r>
       <r>   -24.5555     0.0000     6.0000 </r>
       <r>   -24.3934     0.0000     6.0000 </r>
       <r>   -24.2313     0.0000     6.0000 </r>
       <r>   -24.0692     0.0000     6.0000 </r>
       <r>   -23.9071     0.0000     6.0000 </r>
       <r>   -23.7450     0.0000     6.0000 </r>
       <r>   -23.5829     0.0000     6.0000 </r>
       <r>   -23.4208     0.0000     6.0000 </r>
       <r>   -23.2587     0.0000     6.0000 </r>
       <r>   -23.0966     0.0000     6.0000 </r>
       <r>   -22.9345     0.0000     6.0000 </r>
       <r>   -22.7724     0.0000     6.0000 </r>
       <r>   -22.6103     0.0000     6.0000 </r>
       <r>   -22.4482     0.0000     6.0000 </r>
       <r>   -22.2861     0.0000     6.0000 </r>
       <r>   -22.1240     0.0000     6.0000 </r>
       <r>   -21.9619     0.0000     6.0000 </r>
       <r>   -21.7998     0.0000     6.0000 </r>
       <r>   -21.6377     0.0000     6.0000 </r>
       <r>   -21.4756     0.0000     6.0000 </r>
       <r>   -21.3135     0.0000     6.0000 </r>
       <r>   -21.1514     0.0000     6.0000 </r>
       <r>   -20.9893     0.0000     6.0000 </r>
       <r>   -20.8272     0.0000     6.0000 </r>
       <r>   -20.6651     0.0000     6.0000 </r>
       <r>   -20.5030     0.0000     6.0000 </r>
       <r>   -20.3409     0.0000     6.0000 </r>
       <r>   -20.1788     0.0000     6.0000 </r>
       <r>   -20.0167     0.0000     6.0000 </r>
       <r>   -19.8546     0.0000     6.0000 </r>
       <r>   -19.6925     0.0000     6.0000 </r>
       <r>   -19.5304     0.0000     6.0000 </r>
       <r>   -19.3683     0.0000     6.0000 </r>
       <r>   -19.2062     0.0000     6.0000 </r>
       <r>   -19.0441     0.0000     6.0000 </r>
       <r>   -18.8820     0.0000     6.0000 </r>
       <r>   -18.7199     0.0000     6.0000 </r>
       <r>   -18.5578     0.0000     6.0000 </r>
       <r>   -18.3957     0.0000     6.0000 </r>
       <r>   -18.2336     0.0000     6.0000 </r>
       <r>   -18.0714     0.0000     6.0000 </r>
       <r>   -17.9093     0.0000     6.0000 </r>
       <r>   -17.7472     0.0000     6.0000 </r>
       <r>   -17.5851     0.0000     6.0000 </r>
       <r>   -17.4230     0.0000     6.0000 </r>
       <r>   -17.2609     0.0000     6.0000 </r>
       <r>   -17.0988     0.0000     6.0000 </r>
       <r>   -16.9367     0.0000     6.0000 </r>
       <r>   -16.7746     0.0000     6.0000 </r>
       <r>   -16.6125     0.0000     6.0000 </r>
       <r>   -16.4504     0.0000     6.0000 </r>
       <r>   -16.2883     0.0000     6.0000 </r>
       <r>   -16.1262     0.0000     6.0000 </r>
       <r>   -15.9641     0.0000     6.0000 </r>
       <r>   -15.8020     0.0000     6.0000 </r>
       <r>   -15.6399     0.0000     6.0000 </r>
       <r>   -15.4778     0.0000     6.0000 </r>
       <r>   -15.3157     0.0000     6.0000 </r>
       <r>   -15.1536     0.0000     6.0000 </r>
       <r>   -14.9915     0.0000     6.0000 </r>
       <r>   -14.8294    -0.0000     6.0000 </r>
       <r>   -14.6673    -0.0000     6.0000 </r>
       <r>   -14.5052    -0.0000     6.0000 </r>
       <r>   -14.3431    -0.0000     6.0000 </r>
       <r>   -14.1810    -0.0003     6.0000 </r>
       <r>   -14.0189    -0.0047     5.9992 </r>
       <r>   -13.8568     0.2895     6.0461 </r>
       <r>   -13.6947     0.4585     6.1204 </r>
       <r>   -13.5326     0.6084     6.2191 </r>
       <r>   -13.3705     0.5189     6.3032 </r>
       <r>   -13.2084     0.7039     6.4173 </r>
       <r>   -13.0463     0.3576     6.4752 </r>
       <r>   -12.8842     1.0786     6.6501 </r>
       <r>   -12.7221     0.4357     6.7207 </r>
       <r>   -12.5600     1.8825     7.0259 </r>
       <r>   -12.3979     2.1754     7.3785 </r>
       <r>   -12.2358     3.0104     7.8665 </r>
       <r>   -12.0737     3.9631     8.5089 </r>
       <r>   -11.9116     5.5939     9.4157 </r>
       <r>   -11.7495     3.4949     9.9823 </r>
       <r>   -11.5874     0.1193    10.0016 </r>
       <r>   -11.4253    -0.0098    10.0000 </r>
       <r>   -11.2632    -0.0000    10.0000 </r>
       <r>   -11.1010    -0.0000    10.0000 </r>
       <r>   -10.9389     0.0000    10.0000 </r>
       <r>   -10.7768     0.0000    10.0000 </r>
       <r>   -10.6147     0.0000    10.0000 </r>
       <r>   -10.4526     0.0000    10.0000 </r>
       <r>   -10.2905     0.0000    10.0000 </r>
       <r>   -10.1284     0.0000    10.0000 </r>
       <r>    -9.9663     0.0000    10.0000 </r>
       <r>    -9.8042     0.0000    10.0000 </r>
       <r>    -9.6421     0.0000    10.0000 </r>
       <r>    -9.4800     0.0000    10.0000 </r>
       <r>    -9.3179     0.0000    10.0000 </r>
       <r>    -9.1558     0.0000    10.0000 </r>
       <r>    -8.9937     0.0000    10.0000 </r>
       <r>    -8.8316     0.0000    10.0000 </r>
       <r>    -8.6695     0.0000    10.0000 </r>
       <r>    -8.5074     0.0000    10.0000 </r>
       <r>    -8.3453     0.0000    10.0000 </r>
       <r>    -8.1832     0.0000    10.0000 </r>
       <r>    -8.0211     0.0000    10.0000 </r>
       <r>    -7.8590     0.0000    10.0000 </r>
       <r>    -7.6969     0.0000    10.0000 </r>
       <r>    -7.5348     0.0000    10.0000 </r>
       <r>    -7.3727     0.0000    10.0000 </r>
       <r>    -7.2106     0.0000    10.0000 </r>
       <r>    -7.0485     0.0000    10.0000 </r>
       <r>    -6.8864     0.0000    10.0000 </r>
       <r>    -6.7243     0.0000    10.0000 </r>
       <r>    -6.5622    -0.0000    10.0000 </r>
       <r>    -6.4001    -0.0000    10.0000 </r>
       <r>    -6.2380    -0.0000    10.0000 </r>
       <r>    -6.0759    -0.0000    10.0000 </r>
       <r>    -5.9138    -0.0007     9.9999 </r>
       <r>    -5.7517    -0.0130     9.9978 </r>
       <r>    -5.5896     0.7602    10.1210 </r>
       <r>    -5.4275     1.3197    10.3350 </r>
       <r>    -5.2654     2.2325    10.6969 </r>
       <r>    -5.1033     3.0513    11.1915 </r>
       <r>    -4.9412     4.7623    11.9635 </r>
       <r>    -4.7791     2.4580    12.3619 </r>
       <r>    -4.6170     2.4661    12.7617 </r>
       <r>    -4.4549     1.2062    12.9572 </r>
       <r>    -4.2928     0.4798    13.0350 </r>
       <r>    -4.1306     0.8303    13.1696 </r>
       <r>    -3.9685     2.3860    13.5563 </r>
       <r>    -3.8064     3.9999    14.2047 </r>
       <r>    -3.6443     4.0213    14.8566 </r>
       <r>    -3.4822     2.9240    15.3306 </r>
       <r>    -3.3201     1.1822    15.5222 </r>
       <r>    -3.1580     3.8830    16.1517 </r>
       <r>    -2.9959     5.1844    16.9921 </r>
       <r>    -2.8338     2.8143    17.4483 </r>
       <r>    -2.6717     1.6029    17.7081 </r>
       <r>    -2.5096     1.0954    17.8857 </r>
       <r>    -2.3475     1.9281    18.1982 </r>
       <r>    -2.1854     1.9459    18.5137 </r>
       <r>    -2.0233     3.7337    19.1189 </r>
       <r>    -1.8612     3.1903    19.6361 </r>
       <r>    -1.6991     2.8173    20.0928 </r>
       <r>    -1.5370     3.1471    20.6029 </r>
       <r>    -1.3749     3.4169    21.1568 </r>
       <r>    -1.2128     1.7077    21.4336 </r>
       <r>    -1.0507     1.8343    21.7310 </r>
       <r>    -0.8886     1.9244    22.0429 </r>
       <r>    -0.7265     3.7023    22.6431 </r>
       <r>    -0.5644     2.8107    23.0987 </r>
       <r>    -0.4023     2.2351    23.4610 </r>
       <r>    -0.2402     1.9067    23.7701 </r>
       <r>    -0.0781     0.8452    23.9071 </r>
       <r>     0.0840     0.3165    23.9584 </r>
       <r>     0.2461     0.2328    23.9961 </r>
       <r>     0.4082     0.0251    24.0002 </r>
       <r>     0.5703    -0.0012    24.0000 </r>
       <r>     0.7324    -0.0000    24.0000 </r>
       <r>     0.8945    -0.0000    24.0000 </r>
       <r>     1.0566    -0.0000    24.0000 </r>
       <r>     1.2187    -0.0000    24.0000 </r>
       <r>     1.3808    -0.0000    24.0000 </r>
       <r>     1.5429    -0.0165    23.9973 </r>
       <r>     1.7050     0.3393    24.0523 </r>
       <r>     1.8671     1.4718    24.2909 </r>
       <r>     2.0292     3.0795    24.7901 </r>
       <r>     2.1913     5.2164    25.6357 </r>
       <r>     2.3534     3.6905    26.2339 </r>
       <r>     2.5155     5.0638    27.0548 </r>
       <r>     2.6776     4.5849    27.7980 </r>
       <r>     2.8398     3.3900    28.3475 </r>
       <r>     3.0019     2.7180    28.7881 </r>
       <r>     3.1640     2.7356    29.2316 </r>
       <r>     3.3261     2.1590    29.5816 </r>
       <r>     3.4882     1.7398    29.8636 </r>
       <r>     3.6503     2.0507    30.1960 </r>
       <r>     3.8124     0.9688    30.3531 </r>
       <r>     3.9745     1.9792    30.6739 </r>
       <r>     4.1366     2.5598    31.0889 </r>
       <r>     4.2987     2.4028    31.4784 </r>
       <r>     4.4608     1.6181    31.7407 </r>
       <r>     4.6229     0.7757    31.8664 </r>
       <r>     4.7850     0.6673    31.9746 </r>
       <r>     4.9471     0.1648    32.0013 </r>
       <r>     5.1092    -0.0082    32.0000 </r>
       <r>     5.2713     0.0012    32.0002 </r>
       <r>     5.4334     0.1376    32.0225 </r>
       <r>     5.5955     0.3241    32.0750 </r>
       <r>     5.7576     0.3191    32.1267 </r>
       <r>     5.9197     0.7242    32.2441 </r>
       <r>     6.0818     0.3847    32.3065 </r>
       <r>     6.2439     0.8234    32.4400 </r>
       <r>     6.4060     1.1591    32.6279 </r>
       <r>     6.5681     0.5470    32.7165 </r>
       <r>     6.7302     1.0927    32.8937 </r>
       <r>     6.8923     1.6600    33.1627 </r>
       <r>     7.0544     1.6940    33.4373 </r>
       <r>     7.2165     0.6390    33.5409 </r>
       <r>     7.3786     1.8266    33.8370 </r>
       <r>     7.5407     1.9940    34.1603 </r>
       <r>     7.7028     0.7939    34.2889 </r>
       <r>     7.8649     1.2898    34.4980 </r>
       <r>     8.0270     1.4152    34.7274 </r>
       <r>     8.1891     2.3751    35.1125 </r>
       <r>     8.3512     1.8292    35.4090 </r>
       <r>     8.5133     1.0427    35.5780 </r>
       <r>     8.6754     1.1086    35.7577 </r>
       <r>     8.8375     0.8288    35.8921 </r>
       <r>     8.9996     0.3132    35.9428 </r>
       <r>     9.1617     0.3669    36.0023 </r>
       <r>     9.3238    -0.0140    36.0000 </r>
       <r>     9.4859    -0.0001    36.0000 </r>
       <r>     9.6480    -0.0000    36.0000 </r>
       <r>     9.8102    -0.0000    36.0000 </r>
       <r>     9.9723     0.0000    36.0000 </r>
       <r>    10.1344     0.0000    36.0000 </r>
       <r>    10.2965     0.0000    36.0000 </r>
       <r>    10.4586     0.0000    36.0000 </r>
       <r>    10.6207     0.0000    36.0000 </r>
       <r>    10.7828     0.0000    36.0000 </r>
       <r>    10.9449     0.0000    36.0000 </r>
       <r>    11.1070     0.0000    36.0000 </r>
       <r>    11.2691     0.0000    36.0000 </r>
      </set>
     </set>
    </array>
   </total>
  </dos>
 </calculation>
 <structure name="finalpos" >
  <crystal>
   <varray name="basis" >
    <v>       3.19031700       0.00000000       0.00000000 </v>
    <v>      -1.59515800       2.76289700       0.00000000 </v>
    <v>       0.00000000       0.00000000      23.14049200 </v>
   </varray>
   <i name="volume">    203.97226633 </i>
   <varray name="rec_basis" >
    <v>       0.31344848       0.18096941       0.00000000 </v>
    <v>       0.00000000       0.36193894       0.00000000 </v>
    <v>       0.00000000       0.00000000       0.04321429 </v>
   </varray>
  </crystal>
  <varray name="positions" >
   <v>       0.66666700       0.33333300       0.06785900 </v>
   <v>       0.33333300       0.66666700       0.00000000 </v>
   <v>       0.33333300       0.66666700       0.13571500 </v>
   <v>       0.52380986       0.33333300       0.35482300 </v>
   <v>       0.19047586       0.66666700       0.28696500 </v>
   <v>       0.19047586       0.66666700       0.42267900 </v>
  </varray>
 </structure>
</modeling>
