  24  24   0   0
  0.4176334E+02  0.3540400E-09  0.1044544E-08  0.2750143E-08  0.5000000E-15
  1.000000000000000E-004
  CAR 
 unknown system                          
      4.10922678    -16.02857621  301      0.08470554      1.00000000
    -16.029  0.0000E+00  0.0000E+00
    -15.961  0.0000E+00  0.0000E+00
    -15.894  0.0000E+00  0.0000E+00
    -15.827  0.0000E+00  0.0000E+00
    -15.760  0.0000E+00  0.0000E+00
    -15.693  0.0000E+00  0.0000E+00
    -15.626  0.0000E+00  0.0000E+00
    -15.559  0.5908E-13  0.3966E-14
    -15.492  0.5443E-10  0.3658E-11
    -15.424  0.2082E-07  0.1401E-08
    -15.357  0.3331E-05  0.2250E-06
    -15.290  0.2260E-03  0.1539E-04
    -15.223  0.6640E-02  0.4611E-03
    -15.156  0.8731E-01  0.6322E-02
    -15.089  0.5357E+00  0.4228E-01
    -15.022  0.1597E+01  0.1495E+00
    -14.955  0.2390E+01  0.3099E+00
    -14.887  0.2039E+01  0.4467E+00
    -14.820  0.1753E+01  0.5644E+00
    -14.753  0.1750E+01  0.6819E+00
    -14.686  0.1039E+01  0.7516E+00
    -14.619  0.5249E+00  0.7869E+00
    -14.552  0.1035E+01  0.8564E+00
    -14.485  0.1667E+01  0.9682E+00
    -14.418  0.1195E+01  0.1048E+01
    -14.350  0.3768E+00  0.1074E+01
    -14.283  0.1305E+00  0.1083E+01
    -14.216  0.5103E+00  0.1117E+01
    -14.149  0.1372E+01  0.1209E+01
    -14.082  0.1606E+01  0.1317E+01
    -14.015  0.8154E+00  0.1371E+01
    -13.948  0.1805E+00  0.1384E+01
    -13.881  0.5220E-01  0.1387E+01
    -13.813  0.2979E+00  0.1407E+01
    -13.746  0.1073E+01  0.1479E+01
    -13.679  0.1686E+01  0.1592E+01
    -13.612  0.1268E+01  0.1677E+01
    -13.545  0.1074E+01  0.1749E+01
    -13.478  0.2400E+01  0.1911E+01
    -13.411  0.4663E+01  0.2224E+01
    -13.344  0.5907E+01  0.2620E+01
    -13.276  0.5183E+01  0.2968E+01
    -13.209  0.4059E+01  0.3240E+01
    -13.142  0.3205E+01  0.3456E+01
    -13.075  0.2328E+01  0.3612E+01
    -13.008  0.2497E+01  0.3779E+01
    -12.941  0.3920E+01  0.4043E+01
    -12.874  0.4649E+01  0.4355E+01
    -12.807  0.3867E+01  0.4614E+01
    -12.739  0.3025E+01  0.4817E+01
    -12.672  0.3279E+01  0.5037E+01
    -12.605  0.4865E+01  0.5364E+01
    -12.538  0.6644E+01  0.5810E+01
    -12.471  0.6731E+01  0.6262E+01
    -12.404  0.5664E+01  0.6642E+01
    -12.337  0.4698E+01  0.6957E+01
    -12.270  0.4423E+01  0.7254E+01
    -12.202  0.4760E+01  0.7574E+01
    -12.135  0.5410E+01  0.7937E+01
    -12.068  0.5979E+01  0.8338E+01
    -12.001  0.6529E+01  0.8777E+01
    -11.934  0.6965E+01  0.9244E+01
    -11.867  0.6362E+01  0.9671E+01
    -11.800  0.6116E+01  0.1008E+02
    -11.733  0.6519E+01  0.1052E+02
    -11.665  0.6639E+01  0.1096E+02
    -11.598  0.6948E+01  0.1143E+02
    -11.531  0.7867E+01  0.1196E+02
    -11.464  0.9455E+01  0.1259E+02
    -11.397  0.9723E+01  0.1325E+02
    -11.330  0.8111E+01  0.1379E+02
    -11.263  0.7848E+01  0.1432E+02
    -11.196  0.8703E+01  0.1490E+02
    -11.128  0.8657E+01  0.1548E+02
    -11.061  0.9117E+01  0.1610E+02
    -10.994  0.1029E+02  0.1679E+02
    -10.927  0.1022E+02  0.1747E+02
    -10.860  0.9320E+01  0.1810E+02
    -10.793  0.1013E+02  0.1878E+02
    -10.726  0.1094E+02  0.1951E+02
    -10.658  0.1001E+02  0.2018E+02
    -10.591  0.8753E+01  0.2077E+02
    -10.524  0.6756E+01  0.2123E+02
    -10.457  0.4993E+01  0.2156E+02
    -10.390  0.5085E+01  0.2190E+02
    -10.323  0.5251E+01  0.2225E+02
    -10.256  0.4135E+01  0.2253E+02
    -10.189  0.2740E+01  0.2272E+02
    -10.121  0.1996E+01  0.2285E+02
    -10.054  0.1904E+01  0.2298E+02
     -9.987  0.3336E+01  0.2320E+02
     -9.920  0.5173E+01  0.2355E+02
     -9.853  0.4412E+01  0.2385E+02
     -9.786  0.1882E+01  0.2397E+02
     -9.719  0.3839E+00  0.2400E+02
     -9.652  0.3767E-01  0.2400E+02
     -9.584  0.3341E-01  0.2400E+02
     -9.517  0.2992E+00  0.2402E+02
     -9.450  0.1271E+01  0.2411E+02
     -9.383  0.2719E+01  0.2429E+02
     -9.316  0.3944E+01  0.2455E+02
     -9.249  0.5572E+01  0.2493E+02
     -9.182  0.6987E+01  0.2540E+02
     -9.115  0.6092E+01  0.2581E+02
     -9.047  0.4225E+01  0.2609E+02
     -8.980  0.4253E+01  0.2638E+02
     -8.913  0.4680E+01  0.2669E+02
     -8.846  0.4203E+01  0.2697E+02
     -8.779  0.4594E+01  0.2728E+02
     -8.712  0.5221E+01  0.2763E+02
     -8.645  0.4505E+01  0.2793E+02
     -8.578  0.3796E+01  0.2819E+02
     -8.510  0.4486E+01  0.2849E+02
     -8.443  0.6012E+01  0.2889E+02
     -8.376  0.7483E+01  0.2940E+02
     -8.309  0.7681E+01  0.2991E+02
     -8.242  0.5476E+01  0.3028E+02
     -8.175  0.3179E+01  0.3049E+02
     -8.108  0.2734E+01  0.3068E+02
     -8.041  0.2713E+01  0.3086E+02
     -7.973  0.2094E+01  0.3100E+02
     -7.906  0.2101E+01  0.3114E+02
     -7.839  0.3275E+01  0.3136E+02
     -7.772  0.4462E+01  0.3166E+02
     -7.705  0.4750E+01  0.3198E+02
     -7.638  0.4368E+01  0.3227E+02
     -7.571  0.4485E+01  0.3257E+02
     -7.504  0.5145E+01  0.3292E+02
     -7.436  0.6023E+01  0.3332E+02
     -7.369  0.7151E+01  0.3380E+02
     -7.302  0.8145E+01  0.3435E+02
     -7.235  0.8911E+01  0.3495E+02
     -7.168  0.8425E+01  0.3551E+02
     -7.101  0.6643E+01  0.3596E+02
     -7.034  0.5174E+01  0.3630E+02
     -6.967  0.5283E+01  0.3666E+02
     -6.899  0.6700E+01  0.3711E+02
     -6.832  0.7882E+01  0.3764E+02
     -6.765  0.8597E+01  0.3822E+02
     -6.698  0.1016E+02  0.3890E+02
     -6.631  0.1148E+02  0.3967E+02
     -6.564  0.1019E+02  0.4035E+02
     -6.497  0.7947E+01  0.4089E+02
     -6.430  0.5687E+01  0.4127E+02
     -6.362  0.3636E+01  0.4151E+02
     -6.295  0.3189E+01  0.4173E+02
     -6.228  0.3900E+01  0.4199E+02
     -6.161  0.4255E+01  0.4227E+02
     -6.094  0.3361E+01  0.4250E+02
     -6.027  0.2472E+01  0.4266E+02
     -5.960  0.3705E+01  0.4291E+02
     -5.893  0.5979E+01  0.4331E+02
     -5.825  0.7142E+01  0.4379E+02
     -5.758  0.7754E+01  0.4431E+02
     -5.691  0.7949E+01  0.4485E+02
     -5.624  0.7849E+01  0.4538E+02
     -5.557  0.8534E+01  0.4595E+02
     -5.490  0.8896E+01  0.4655E+02
     -5.423  0.7746E+01  0.4707E+02
     -5.356  0.6193E+01  0.4748E+02
     -5.288  0.5855E+01  0.4787E+02
     -5.221  0.6677E+01  0.4832E+02
     -5.154  0.6891E+01  0.4878E+02
     -5.087  0.6023E+01  0.4919E+02
     -5.020  0.6866E+01  0.4965E+02
     -4.953  0.9437E+01  0.5028E+02
     -4.886  0.1035E+02  0.5098E+02
     -4.819  0.9403E+01  0.5161E+02
     -4.751  0.8869E+01  0.5220E+02
     -4.684  0.1013E+02  0.5288E+02
     -4.617  0.1192E+02  0.5368E+02
     -4.550  0.1168E+02  0.5447E+02
     -4.483  0.1019E+02  0.5515E+02
     -4.416  0.9501E+01  0.5579E+02
     -4.349  0.1004E+02  0.5646E+02
     -4.282  0.1179E+02  0.5726E+02
     -4.214  0.1333E+02  0.5815E+02
     -4.147  0.1326E+02  0.5904E+02
     -4.080  0.1225E+02  0.5986E+02
     -4.013  0.1158E+02  0.6064E+02
     -3.946  0.1110E+02  0.6139E+02
     -3.879  0.1009E+02  0.6206E+02
     -3.812  0.9547E+01  0.6270E+02
     -3.745  0.1127E+02  0.6346E+02
     -3.677  0.1360E+02  0.6437E+02
     -3.610  0.1376E+02  0.6530E+02
     -3.543  0.1212E+02  0.6611E+02
     -3.476  0.1183E+02  0.6690E+02
     -3.409  0.1431E+02  0.6786E+02
     -3.342  0.1563E+02  0.6891E+02
     -3.275  0.1467E+02  0.6990E+02
     -3.208  0.1403E+02  0.7084E+02
     -3.140  0.1536E+02  0.7187E+02
     -3.073  0.1823E+02  0.7309E+02
     -3.006  0.1934E+02  0.7439E+02
     -2.939  0.1700E+02  0.7553E+02
     -2.872  0.1338E+02  0.7643E+02
     -2.805  0.1212E+02  0.7725E+02
     -2.738  0.1408E+02  0.7819E+02
     -2.671  0.1638E+02  0.7929E+02
     -2.603  0.1751E+02  0.8047E+02
     -2.536  0.1727E+02  0.8162E+02
     -2.469  0.1548E+02  0.8266E+02
     -2.402  0.1416E+02  0.8361E+02
     -2.335  0.1401E+02  0.8455E+02
     -2.268  0.1328E+02  0.8545E+02
     -2.201  0.1303E+02  0.8632E+02
     -2.133  0.1405E+02  0.8726E+02
     -2.066  0.1364E+02  0.8818E+02
     -1.999  0.1284E+02  0.8904E+02
     -1.932  0.1456E+02  0.9002E+02
     -1.865  0.1735E+02  0.9118E+02
     -1.798  0.1757E+02  0.9236E+02
     -1.731  0.1650E+02  0.9347E+02
     -1.664  0.1535E+02  0.9450E+02
     -1.596  0.1344E+02  0.9540E+02
     -1.529  0.1288E+02  0.9627E+02
     -1.462  0.1384E+02  0.9720E+02
     -1.395  0.1437E+02  0.9816E+02
     -1.328  0.1393E+02  0.9910E+02
     -1.261  0.1224E+02  0.9992E+02
     -1.194  0.9982E+01  0.1006E+03
     -1.127  0.8869E+01  0.1012E+03
     -1.059  0.8724E+01  0.1018E+03
     -0.992  0.9468E+01  0.1024E+03
     -0.925  0.1112E+02  0.1032E+03
     -0.858  0.1070E+02  0.1039E+03
     -0.791  0.8568E+01  0.1044E+03
     -0.724  0.7754E+01  0.1050E+03
     -0.657  0.8428E+01  0.1055E+03
     -0.590  0.8649E+01  0.1061E+03
     -0.522  0.6907E+01  0.1066E+03
     -0.455  0.3793E+01  0.1068E+03
     -0.388  0.1463E+01  0.1069E+03
     -0.321  0.1066E+01  0.1070E+03
     -0.254  0.1482E+01  0.1071E+03
     -0.187  0.1315E+01  0.1072E+03
     -0.120  0.9052E+00  0.1072E+03
     -0.053  0.1602E+01  0.1074E+03
      0.015  0.3640E+01  0.1076E+03
      0.082  0.5679E+01  0.1080E+03
      0.149  0.6453E+01  0.1084E+03
      0.216  0.6476E+01  0.1088E+03
      0.283  0.5930E+01  0.1092E+03
      0.350  0.4683E+01  0.1096E+03
      0.417  0.4141E+01  0.1098E+03
      0.484  0.4218E+01  0.1101E+03
      0.552  0.4158E+01  0.1104E+03
      0.619  0.4232E+01  0.1107E+03
      0.686  0.4660E+01  0.1110E+03
      0.753  0.5146E+01  0.1113E+03
      0.820  0.5667E+01  0.1117E+03
      0.887  0.6312E+01  0.1121E+03
      0.954  0.6110E+01  0.1126E+03
      1.021  0.5157E+01  0.1129E+03
      1.089  0.5176E+01  0.1133E+03
      1.156  0.6780E+01  0.1137E+03
      1.223  0.8184E+01  0.1143E+03
      1.290  0.9471E+01  0.1149E+03
      1.357  0.1051E+02  0.1156E+03
      1.424  0.9994E+01  0.1163E+03
      1.491  0.9166E+01  0.1169E+03
      1.558  0.9995E+01  0.1176E+03
      1.626  0.1176E+02  0.1183E+03
      1.693  0.1212E+02  0.1192E+03
      1.760  0.1221E+02  0.1200E+03
      1.827  0.1264E+02  0.1208E+03
      1.894  0.1217E+02  0.1216E+03
      1.961  0.1135E+02  0.1224E+03
      2.028  0.1150E+02  0.1232E+03
      2.095  0.1233E+02  0.1240E+03
      2.163  0.1273E+02  0.1249E+03
      2.230  0.1356E+02  0.1258E+03
      2.297  0.1435E+02  0.1267E+03
      2.364  0.1379E+02  0.1277E+03
      2.431  0.1416E+02  0.1286E+03
      2.498  0.1498E+02  0.1296E+03
      2.565  0.1451E+02  0.1306E+03
      2.632  0.1455E+02  0.1316E+03
      2.700  0.1454E+02  0.1325E+03
      2.767  0.1210E+02  0.1334E+03
      2.834  0.8791E+01  0.1339E+03
      2.901  0.7380E+01  0.1344E+03
      2.968  0.7284E+01  0.1349E+03
      3.035  0.6998E+01  0.1354E+03
      3.102  0.5397E+01  0.1358E+03
      3.169  0.2709E+01  0.1359E+03
      3.237  0.7680E+00  0.1360E+03
      3.304  0.1123E+00  0.1360E+03
      3.371  0.7894E-02  0.1360E+03
      3.438  0.2535E-03  0.1360E+03
      3.505  0.3579E-05  0.1360E+03
      3.572  0.2168E-07  0.1360E+03
      3.639  0.5544E-10  0.1360E+03
      3.706  0.5903E-13  0.1360E+03
      3.774  0.0000E+00  0.1360E+03
      3.841  0.0000E+00  0.1360E+03
      3.908  0.0000E+00  0.1360E+03
      3.975  0.0000E+00  0.1360E+03
      4.042  0.0000E+00  0.1360E+03
      4.109  0.0000E+00  0.1360E+03
