   24   24    1    1
  0.4176334E+02  0.3540400E-09  0.1044544E-08  0.2750143E-08  0.5000000E-15
  1.000000000000000E-004
  CAR 
 unknown system                          
    108     54     68
 
  0.0000000E+00  0.0000000E+00  0.0000000E+00  0.9615385E-02
    1      -15.028576
    2      -13.527535
    3      -13.391031
    4      -12.806806
    5      -12.786708
    6      -12.467892
    7      -12.074882
    8      -11.750963
    9      -11.455055
   10      -11.418175
   11      -10.978415
   12      -10.014279
   13       -9.156792
   14       -8.342555
   15       -8.014186
   16       -7.814440
   17       -6.821139
   18       -6.775746
   19       -6.480387
   20       -5.942811
   21       -5.821479
   22       -5.593885
   23       -5.151609
   24       -4.735958
   25       -4.439930
   26       -4.235807
   27       -3.705120
   28       -3.620323
   29       -3.416595
   30       -3.124244
   31       -3.075916
   32       -3.042505
   33       -2.983350
   34       -2.831403
   35       -2.612110
   36       -2.482863
   37       -2.427154
   38       -2.371827
   39       -2.358629
   40       -2.078030
   41       -1.974507
   42       -1.849813
   43       -1.728675
   44       -1.717539
   45       -1.630484
   46       -1.619850
   47       -1.553632
   48       -1.419314
   49       -1.350747
   50       -1.128755
   51       -0.961405
   52       -0.602454
   53       -0.569393
   54        0.239269
   55        0.528292
   56        0.824226
   57        1.161399
   58        1.194840
   59        1.257369
   60        1.340984
   61        1.489668
   62        1.656852
   63        1.778891
   64        1.976453
   65        2.083080
   66        2.152068
   67        2.444308
   68        2.596566
 
  0.7692308E-01 -0.1387779E-16  0.0000000E+00  0.1923077E-01
    1      -14.969916
    2      -13.466194
    3      -13.335259
    4      -12.747680
    5      -12.733839
    6      -12.412305
    7      -12.012666
    8      -11.710036
    9      -11.395455
   10      -11.368730
   11      -10.930030
   12       -9.986934
   13       -9.146338
   14       -8.342191
   15       -8.052814
   16       -7.776543
   17       -6.792659
   18       -6.764457
   19       -6.474561
   20       -5.958992
   21       -5.788517
   22       -5.595121
   23       -5.247015
   24       -4.837825
   25       -4.735585
   26       -4.246236
   27       -3.764035
   28       -3.676906
   29       -3.578398
   30       -3.411554
   31       -3.272780
   32       -3.250286
   33       -3.142930
   34       -2.972412
   35       -2.753641
   36       -2.703577
   37       -2.574192
   38       -2.481319
   39       -2.449392
   40       -2.203493
   41       -2.105302
   42       -2.041906
   43       -1.952826
   44       -1.844640
   45       -1.789204
   46       -1.745658
   47       -1.657373
   48       -1.497600
   49       -1.295751
   50       -1.108287
   51       -0.932256
   52       -0.629461
   53       -0.530219
   54        0.202817
   55        0.579306
   56        0.874142
   57        1.134098
   58        1.266238
   59        1.574732
   60        1.597364
   61        1.777757
   62        2.054530
   63        2.138186
   64        2.226626
   65        2.273018
   66        2.446958
   67        2.626290
   68        2.725728
 
  0.1538462E+00 -0.2775558E-16  0.0000000E+00  0.1923077E-01
    1      -14.795787
    2      -13.283248
    3      -13.169451
    4      -12.581802
    5      -12.566952
    6      -12.247582
    7      -11.830334
    8      -11.587410
    9      -11.232817
   10      -11.218145
   11      -10.791205
   12       -9.923812
   13       -9.134786
   14       -8.369920
   15       -8.151831
   16       -7.734442
   17       -6.830501
   18       -6.707555
   19       -6.486617
   20       -6.219671
   21       -5.738123
   22       -5.686744
   23       -5.469106
   24       -4.975936
   25       -4.852329
   26       -4.445396
   27       -4.329679
   28       -4.188930
   29       -4.070682
   30       -3.959391
   31       -3.697676
   32       -3.605803
   33       -3.423836
   34       -3.267896
   35       -3.153895
   36       -3.039849
   37       -2.959434
   38       -2.934935
   39       -2.739968
   40       -2.587852
   41       -2.380940
   42       -2.309162
   43       -2.140173
   44       -1.990258
   45       -1.882896
   46       -1.759757
   47       -1.661550
   48       -1.609997
   49       -1.282667
   50       -1.161841
   51       -0.931269
   52       -0.720566
   53       -0.575356
   54        0.116406
   55        0.488845
   56        0.876251
   57        1.164005
   58        1.336647
   59        1.736325
   60        1.958774
   61        2.263331
   62        2.428602
   63        2.560678
   64        2.624270
   65        2.671523
   66        2.911408
   67        3.022041
   68        3.034480
 
  0.2307692E+00 -0.4163336E-16  0.0000000E+00  0.1923077E-01
    1      -14.512917
    2      -12.982345
    3      -12.899012
    4      -12.324345
    5      -12.282716
    6      -11.980969
    7      -11.543115
    8      -11.390772
    9      -11.012836
   10      -10.967379
   11      -10.588076
   12       -9.914218
   13       -9.160536
   14       -8.507747
   15       -8.344400
   16       -7.809119
   17       -7.139643
   18       -6.680624
   19       -6.621729
   20       -6.573432
   21       -5.936153
   22       -5.725872
   23       -5.531571
   24       -5.325524
   25       -5.218765
   26       -4.903275
   27       -4.782919
   28       -4.634410
   29       -4.588802
   30       -4.492820
   31       -4.174767
   32       -4.063574
   33       -3.775875
   34       -3.695765
   35       -3.461279
   36       -3.391649
   37       -3.080612
   38       -3.010351
   39       -2.978334
   40       -2.699410
   41       -2.581384
   42       -2.464223
   43       -2.394171
   44       -2.196182
   45       -1.894043
   46       -1.818313
   47       -1.722343
   48       -1.559338
   49       -1.451501
   50       -1.326317
   51       -1.060145
   52       -0.887496
   53       -0.691860
   54       -0.297319
   55        0.424931
   56        0.709843
   57        1.154285
   58        1.616103
   59        1.872273
   60        1.912184
   61        2.054256
   62        2.286740
   63        2.376475
   64        2.456681
   65        2.692207
   66        2.871018
   67        2.900665
   68        2.977511
 
  0.3076923E+00 -0.5551115E-16  0.0000000E+00  0.1923077E-01
    1      -14.137450
    2      -12.571497
    3      -12.536638
    4      -11.975837
    5      -11.909958
    6      -11.629382
    7      -11.193141
    8      -11.151585
    9      -10.768327
   10      -10.704332
   11      -10.402028
   12      -10.138789
   13       -9.160248
   14       -8.798963
   15       -8.639841
   16       -8.070316
   17       -7.412335
   18       -6.985427
   19       -6.958391
   20       -6.884697
   21       -6.429520
   22       -6.151062
   23       -5.951006
   24       -5.790838
   25       -5.391203
   26       -5.262888
   27       -5.179255
   28       -4.773243
   29       -4.686364
   30       -4.591372
   31       -4.307001
   32       -4.236422
   33       -4.204946
   34       -3.845087
   35       -3.527597
   36       -3.377624
   37       -3.231772
   38       -3.091873
   39       -3.036389
   40       -2.908326
   41       -2.752422
   42       -2.598277
   43       -2.524686
   44       -2.349620
   45       -2.060979
   46       -1.908269
   47       -1.857787
   48       -1.709002
   49       -1.602108
   50       -1.366129
   51       -1.256253
   52       -1.124272
   53       -0.841500
   54       -0.549254
   55        0.237126
   56        0.507447
   57        0.986529
   58        1.449362
   59        1.640284
   60        1.818098
   61        1.992886
   62        2.043547
   63        2.232763
   64        2.324507
   65        2.414767
   66        2.662903
   67        2.727179
   68        2.841885
 
  0.3846154E+00 -0.8326673E-16  0.0000000E+00  0.1923077E-01
    1      -13.711107
    2      -12.122548
    3      -12.060419
    4      -11.556768
    5      -11.509113
    6      -11.232063
    7      -11.075099
    8      -10.837300
    9      -10.663943
   10      -10.613218
   11      -10.441652
   12      -10.337837
   13       -9.211087
   14       -9.009516
   15       -8.816748
   16       -8.363014
   17       -7.703438
   18       -7.445406
   19       -7.402599
   20       -7.234880
   21       -6.910296
   22       -6.747341
   23       -6.648263
   24       -6.342463
   25       -5.469406
   26       -5.191594
   27       -5.030619
   28       -4.643867
   29       -4.606532
   30       -4.513228
   31       -4.248832
   32       -4.182369
   33       -4.073357
   34       -3.908439
   35       -3.662379
   36       -3.628802
   37       -3.367925
   38       -3.255014
   39       -3.175826
   40       -3.118264
   41       -2.788986
   42       -2.642029
   43       -2.534749
   44       -2.411981
   45       -2.279875
   46       -2.157129
   47       -2.016869
   48       -1.866625
   49       -1.699612
   50       -1.503778
   51       -1.414079
   52       -1.281304
   53       -0.891764
   54       -0.619246
   55        0.053055
   56        0.310246
   57        0.793286
   58        1.332710
   59        1.476965
   60        1.695200
   61        1.780318
   62        1.964163
   63        2.084693
   64        2.178486
   65        2.293551
   66        2.406098
   67        2.588253
   68        2.704713
 
  0.4615385E+00 -0.8326673E-16  0.0000000E+00  0.1923077E-01
    1      -13.360500
    2      -11.781316
    3      -11.487623
    4      -11.425563
    5      -11.134220
    6      -11.047297
    7      -10.931216
    8      -10.829871
    9      -10.780224
   10      -10.715999
   11      -10.620262
   12      -10.316095
   13       -9.407024
   14       -8.956806
   15       -8.674741
   16       -8.425940
   17       -8.065496
   18       -7.850440
   19       -7.558135
   20       -7.502483
   21       -7.273865
   22       -7.246370
   23       -7.166124
   24       -6.539076
   25       -5.413567
   26       -4.936429
   27       -4.894641
   28       -4.673459
   29       -4.485928
   30       -4.292588
   31       -4.194336
   32       -4.046168
   33       -3.928429
   34       -3.904658
   35       -3.811246
   36       -3.757847
   37       -3.557555
   38       -3.419294
   39       -3.241665
   40       -3.114109
   41       -2.987337
   42       -2.747699
   43       -2.686186
   44       -2.558561
   45       -2.343787
   46       -2.191875
   47       -2.124884
   48       -1.887150
   49       -1.704258
   50       -1.654891
   51       -1.508382
   52       -1.270057
   53       -0.894638
   54       -0.709708
   55       -0.035484
   56        0.230368
   57        0.616309
   58        1.304012
   59        1.396520
   60        1.571143
   61        1.726545
   62        1.851106
   63        1.986813
   64        2.099718
   65        2.287891
   66        2.397328
   67        2.471105
   68        2.564991
 
  0.0000000E+00  0.2500000E+00  0.0000000E+00  0.1923077E-01
    1      -15.026210
    2      -13.473189
    3      -13.434751
    4      -12.961768
    5      -12.692267
    6      -12.466512
    7      -11.980488
    8      -11.856186
    9      -11.464932
   10      -11.262357
   11      -10.987055
   12       -9.987825
   13       -9.277247
   14       -8.502227
   15       -8.307625
   16       -7.363948
   17       -6.840508
   18       -6.657875
   19       -6.589834
   20       -5.898649
   21       -5.736175
   22       -5.595026
   23       -4.981580
   24       -4.637925
   25       -4.406985
   26       -4.176577
   27       -4.003131
   28       -3.620772
   29       -3.468810
   30       -3.300212
   31       -3.116046
   32       -3.101579
   33       -3.012390
   34       -2.740095
   35       -2.696120
   36       -2.553298
   37       -2.383366
   38       -2.375310
   39       -2.278643
   40       -2.142629
   41       -1.976592
   42       -1.878776
   43       -1.866521
   44       -1.779041
   45       -1.614723
   46       -1.547778
   47       -1.470118
   48       -1.350109
   49       -1.227424
   50       -1.102254
   51       -0.982177
   52       -0.766373
   53       -0.534600
   54        0.089984
   55        0.705223
   56        0.929316
   57        1.140435
   58        1.195202
   59        1.295705
   60        1.404366
   61        1.530901
   62        1.705873
   63        1.797468
   64        1.829889
   65        2.113884
   66        2.271366
   67        2.508546
   68        2.650850
 
  0.7692308E-01  0.2500000E+00  0.0000000E+00  0.1923077E-01
    1      -14.967092
    2      -13.399761
    3      -13.383155
    4      -12.942676
    5      -12.606188
    6      -12.409460
    7      -11.970803
    8      -11.757828
    9      -11.423593
   10      -11.180612
   11      -10.942707
   12       -9.953542
   13       -9.287354
   14       -8.560451
   15       -8.311860
   16       -7.315007
   17       -6.825047
   18       -6.665866
   19       -6.517794
   20       -5.904153
   21       -5.694040
   22       -5.608765
   23       -5.158714
   24       -4.712081
   25       -4.679055
   26       -4.176419
   27       -4.050114
   28       -3.720965
   29       -3.607256
   30       -3.425012
   31       -3.376301
   32       -3.295536
   33       -3.068054
   34       -3.008124
   35       -2.911591
   36       -2.687730
   37       -2.624499
   38       -2.487794
   39       -2.382449
   40       -2.275879
   41       -2.176270
   42       -2.120869
   43       -2.001321
   44       -1.837219
   45       -1.749244
   46       -1.724481
   47       -1.558151
   48       -1.394264
   49       -1.182491
   50       -1.078382
   51       -0.977646
   52       -0.796668
   53       -0.522529
   54        0.124236
   55        0.713122
   56        0.912841
   57        1.179444
   58        1.317242
   59        1.587052
   60        1.613927
   61        1.796328
   62        1.949857
   63        2.113638
   64        2.248989
   65        2.436305
   66        2.520277
   67        2.649198
   68        2.702254
 
  0.1538462E+00  0.2500000E+00  0.0000000E+00  0.1923077E-01
    1      -14.792738
    2      -13.227271
    3      -13.196067
    4      -12.806187
    5      -12.411654
    6      -12.243241
    7      -11.857048
    8      -11.560234
    9      -11.284146
   10      -11.009945
   11      -10.801454
   12       -9.889843
   13       -9.274625
   14       -8.626160
   15       -8.350351
   16       -7.286939
   17       -6.840701
   18       -6.643393
   19       -6.485494
   20       -6.242614
   21       -5.735716
   22       -5.630141
   23       -5.432292
   24       -4.843791
   25       -4.808471
   26       -4.394214
   27       -4.336469
   28       -4.283150
   29       -4.249025
   30       -3.954344
   31       -3.721027
   32       -3.604622
   33       -3.425786
   34       -3.280142
   35       -3.178250
   36       -3.048181
   37       -2.948530
   38       -2.812086
   39       -2.723871
   40       -2.626320
   41       -2.563782
   42       -2.312999
   43       -2.302345
   44       -1.993055
   45       -1.886796
   46       -1.824297
   47       -1.498465
   48       -1.480675
   49       -1.236378
   50       -1.113468
   51       -1.016271
   52       -0.801212
   53       -0.642101
   54        0.100545
   55        0.575662
   56        0.954826
   57        1.042578
   58        1.443399
   59        1.658440
   60        1.781055
   61        2.119731
   62        2.347190
   63        2.542996
   64        2.741438
   65        2.838625
   66        2.941546
   67        3.013374
   68        3.080356
 
  0.2307692E+00  0.2500000E+00  0.0000000E+00  0.1923077E-01
    1      -14.509925
    2      -12.953431
    3      -12.885695
    4      -12.554836
    5      -12.121180
    6      -11.975831
    7      -11.647262
    8      -11.283626
    9      -11.062335
   10      -10.776269
   11      -10.584179
   12       -9.898117
   13       -9.261077
   14       -8.757915
   15       -8.494256
   16       -7.378088
   17       -7.082946
   18       -6.752766
   19       -6.682508
   20       -6.629940
   21       -5.821072
   22       -5.795271
   23       -5.504356
   24       -5.207502
   25       -5.168462
   26       -5.024556
   27       -4.917241
   28       -4.652441
   29       -4.578866
   30       -4.534853
   31       -4.137619
   32       -3.999273
   33       -3.730042
   34       -3.671393
   35       -3.335883
   36       -3.193354
   37       -3.079736
   38       -3.038629
   39       -2.973139
   40       -2.759167
   41       -2.617231
   42       -2.516652
   43       -2.455577
   44       -2.145053
   45       -1.979224
   46       -1.876570
   47       -1.764885
   48       -1.563421
   49       -1.411366
   50       -1.335353
   51       -1.088186
   52       -0.916803
   53       -0.748217
   54       -0.234111
   55        0.430293
   56        0.693825
   57        1.123585
   58        1.434132
   59        1.588353
   60        1.726369
   61        1.919548
   62        2.251291
   63        2.337308
   64        2.590303
   65        2.631292
   66        2.739560
   67        2.999032
   68        3.053867
 
  0.3076923E+00  0.2500000E+00  0.0000000E+00  0.1923077E-01
    1      -14.134851
    2      -12.583283
    3      -12.469219
    4      -12.195813
    5      -11.763360
    6      -11.625133
    7      -11.370183
    8      -10.969935
    9      -10.798573
   10      -10.563796
   11      -10.378647
   12      -10.148486
   13       -9.198920
   14       -8.957182
   15       -8.772482
   16       -7.692983
   17       -7.417610
   18       -7.110485
   19       -7.098553
   20       -6.947345
   21       -6.182566
   22       -6.160017
   23       -5.939712
   24       -5.900639
   25       -5.515563
   26       -5.369843
   27       -5.159852
   28       -4.925000
   29       -4.597170
   30       -4.413884
   31       -4.324611
   32       -4.274140
   33       -3.997854
   34       -3.720369
   35       -3.399770
   36       -3.324612
   37       -3.173941
   38       -3.010002
   39       -2.966092
   40       -2.872550
   41       -2.836630
   42       -2.638344
   43       -2.476476
   44       -2.369181
   45       -2.299806
   46       -1.960554
   47       -1.873975
   48       -1.744511
   49       -1.648435
   50       -1.434394
   51       -1.258812
   52       -1.131384
   53       -0.819996
   54       -0.582431
   55        0.207098
   56        0.438697
   57        0.977704
   58        1.233483
   59        1.277050
   60        1.600134
   61        2.008152
   62        2.073014
   63        2.244936
   64        2.402084
   65        2.468200
   66        2.520126
   67        2.630952
   68        2.883870
 
  0.3846154E+00  0.2500000E+00  0.0000000E+00  0.1923077E-01
    1      -13.709319
    2      -12.149598
    3      -11.965805
    4      -11.745821
    5      -11.426047
    6      -11.231361
    7      -11.139737
    8      -10.715731
    9      -10.691612
   10      -10.586961
   11      -10.454368
   12      -10.290014
   13       -9.207280
   14       -9.001744
   15       -8.947015
   16       -8.097639
   17       -7.766345
   18       -7.727834
   19       -7.347695
   20       -7.292180
   21       -6.757240
   22       -6.680145
   23       -6.646469
   24       -6.482158
   25       -5.540867
   26       -5.327524
   27       -4.989371
   28       -4.770159
   29       -4.548037
   30       -4.411432
   31       -4.346572
   32       -4.102995
   33       -3.850787
   34       -3.774535
   35       -3.561246
   36       -3.378192
   37       -3.339002
   38       -3.263894
   39       -3.133127
   40       -3.109078
   41       -2.912782
   42       -2.700235
   43       -2.611827
   44       -2.479486
   45       -2.303395
   46       -2.186095
   47       -2.058058
   48       -1.860064
   49       -1.687377
   50       -1.490846
   51       -1.452746
   52       -1.357596
   53       -0.953768
   54       -0.689312
   55        0.086389
   56        0.258736
   57        0.759801
   58        1.204091
   59        1.317774
   60        1.505988
   61        1.822100
   62        1.850879
   63        2.015387
   64        2.170292
   65        2.333796
   66        2.420963
   67        2.634834
   68        2.659592
 
  0.4615385E+00  0.2500000E+00  0.0000000E+00  0.1923077E-01
    1      -13.359876
    2      -11.780910
    3      -11.443191
    4      -11.415273
    5      -11.250766
    6      -11.037024
    7      -10.944194
    8      -10.850534
    9      -10.767053
   10      -10.686718
   11      -10.565966
   12      -10.319766
   13       -9.415274
   14       -8.941523
   15       -8.541110
   16       -8.386326
   17       -8.314357
   18       -7.854495
   19       -7.533554
   20       -7.500306
   21       -7.302252
   22       -7.223279
   23       -7.125937
   24       -6.554153
   25       -5.444004
   26       -5.009226
   27       -4.977086
   28       -4.544765
   29       -4.460906
   30       -4.313950
   31       -4.154822
   32       -4.104999
   33       -3.938520
   34       -3.908391
   35       -3.709135
   36       -3.648108
   37       -3.477904
   38       -3.341977
   39       -3.247736
   40       -3.133436
   41       -2.975305
   42       -2.791074
   43       -2.636718
   44       -2.590351
   45       -2.536586
   46       -2.177302
   47       -2.111408
   48       -1.869372
   49       -1.717825
   50       -1.659570
   51       -1.535956
   52       -1.345716
   53       -0.944669
   54       -0.702409
   55        0.018507
   56        0.215059
   57        0.653332
   58        1.351137
   59        1.436840
   60        1.528758
   61        1.570654
   62        1.813088
   63        1.859470
   64        2.097949
   65        2.256459
   66        2.436616
   67        2.486721
   68        2.506109
 
 -0.4615385E+00  0.2500000E+00  0.0000000E+00  0.1923077E-01
    1      -13.360898
    2      -11.772022
    3      -11.521234
    4      -11.442377
    5      -11.057816
    6      -11.020712
    7      -10.917957
    8      -10.811082
    9      -10.794321
   10      -10.741858
   11      -10.689184
   12      -10.304123
   13       -9.402852
   14       -8.954665
   15       -8.743262
   16       -8.419760
   17       -7.930485
   18       -7.862823
   19       -7.591183
   20       -7.565444
   21       -7.267274
   22       -7.217436
   23       -7.186833
   24       -6.479019
   25       -5.452402
   26       -4.931141
   27       -4.743441
   28       -4.672362
   29       -4.560377
   30       -4.356512
   31       -4.236441
   32       -4.002618
   33       -3.982696
   34       -3.871861
   35       -3.839577
   36       -3.728274
   37       -3.622936
   38       -3.432525
   39       -3.339755
   40       -3.107355
   41       -2.807964
   42       -2.727375
   43       -2.685886
   44       -2.603409
   45       -2.369628
   46       -2.165298
   47       -2.142206
   48       -1.920735
   49       -1.735498
   50       -1.644368
   51       -1.488051
   52       -1.302781
   53       -0.921214
   54       -0.621881
   55       -0.025767
   56        0.238209
   57        0.732917
   58        1.291015
   59        1.416524
   60        1.674830
   61        1.756128
   62        1.854984
   63        1.974459
   64        2.156989
   65        2.240661
   66        2.366593
   67        2.420529
   68        2.583147
 
 -0.3846154E+00  0.2500000E+00  0.0000000E+00  0.1923077E-01
    1      -13.711865
    2      -12.107372
    3      -12.084954
    4      -11.555047
    5      -11.471795
    6      -11.229898
    7      -11.051427
    8      -10.917215
    9      -10.616597
   10      -10.605146
   11      -10.437180
   12      -10.396045
   13       -9.207537
   14       -9.019657
   15       -8.728430
   16       -8.476955
   17       -7.658253
   18       -7.427245
   19       -7.316720
   20       -7.218209
   21       -7.024315
   22       -6.796647
   23       -6.652016
   24       -6.236565
   25       -5.500372
   26       -5.036424
   27       -5.001261
   28       -4.828737
   29       -4.669864
   30       -4.388758
   31       -4.268740
   32       -4.188692
   33       -4.079174
   34       -3.869986
   35       -3.714594
   36       -3.646996
   37       -3.442424
   38       -3.387849
   39       -3.183757
   40       -3.122446
   41       -2.782803
   42       -2.674947
   43       -2.507826
   44       -2.358947
   45       -2.240181
   46       -2.151196
   47       -1.934742
   48       -1.854230
   49       -1.705565
   50       -1.537625
   51       -1.390817
   52       -1.296012
   53       -0.908267
   54       -0.590437
   55        0.054724
   56        0.324992
   57        0.863731
   58        1.283710
   59        1.517120
   60        1.774304
   61        1.906569
   62        2.073451
   63        2.189430
   64        2.269231
   65        2.296275
   66        2.425752
   67        2.488329
   68        2.645850
 
 -0.3076923E+00  0.2500000E+00  0.0000000E+00  0.1923077E-01
    1      -14.137892
    2      -12.583143
    3      -12.527264
    4      -11.937885
    5      -11.929616
    6      -11.628876
    7      -11.231860
    8      -11.142654
    9      -10.759848
   10      -10.679556
   11      -10.408195
   12      -10.183573
   13       -9.148775
   14       -8.788546
   15       -8.540929
   16       -8.173058
   17       -7.427148
   18       -6.987225
   19       -6.884734
   20       -6.855074
   21       -6.529508
   22       -6.143328
   23       -5.959563
   24       -5.785177
   25       -5.393882
   26       -5.204250
   27       -5.119564
   28       -4.867298
   29       -4.680373
   30       -4.626817
   31       -4.301480
   32       -4.227781
   33       -4.078045
   34       -3.878492
   35       -3.573017
   36       -3.441298
   37       -3.260471
   38       -3.099088
   39       -3.061138
   40       -2.913710
   41       -2.766326
   42       -2.618219
   43       -2.556326
   44       -2.248295
   45       -2.012935
   46       -1.897357
   47       -1.856522
   48       -1.695586
   49       -1.586699
   50       -1.356415
   51       -1.249749
   52       -1.146895
   53       -0.827128
   54       -0.623580
   55        0.215593
   56        0.498125
   57        0.975223
   58        1.433941
   59        1.705405
   60        1.933554
   61        1.982349
   62        2.192399
   63        2.286823
   64        2.411463
   65        2.541789
   66        2.667801
   67        2.752104
   68        2.870217
 
 -0.2307692E+00  0.2500000E+00  0.0000000E+00  0.1923077E-01
    1      -14.512721
    2      -12.978158
    3      -12.902359
    4      -12.338776
    5      -12.274318
    6      -11.981074
    7      -11.526865
    8      -11.416318
    9      -11.016072
   10      -10.934583
   11      -10.586664
   12       -9.931860
   13       -9.167722
   14       -8.475596
   15       -8.384058
   16       -7.767508
   17       -7.210471
   18       -6.678904
   19       -6.623897
   20       -6.514242
   21       -5.906816
   22       -5.732083
   23       -5.584126
   24       -5.322087
   25       -5.216656
   26       -4.941036
   27       -4.812510
   28       -4.627279
   29       -4.574825
   30       -4.492532
   31       -4.168049
   32       -3.938703
   33       -3.774193
   34       -3.687873
   35       -3.450560
   36       -3.419380
   37       -3.087784
   38       -3.001370
   39       -2.973331
   40       -2.724603
   41       -2.596758
   42       -2.528452
   43       -2.425749
   44       -2.163701
   45       -1.881889
   46       -1.824264
   47       -1.736480
   48       -1.501492
   49       -1.441928
   50       -1.339178
   51       -1.000904
   52       -0.922750
   53       -0.708480
   54       -0.306186
   55        0.355011
   56        0.650978
   57        1.141352
   58        1.602602
   59        1.857470
   60        1.913529
   61        2.053148
   62        2.262058
   63        2.407658
   64        2.681661
   65        2.741212
   66        2.856270
   67        2.934871
   68        2.976550
 
 -0.1538462E+00  0.2500000E+00  0.0000000E+00  0.1923077E-01
    1      -14.794827
    2      -13.261981
    3      -13.187913
    4      -12.653804
    5      -12.523690
    6      -12.247683
    7      -11.746691
    8      -11.678379
    9      -11.248427
   10      -11.133821
   11      -10.789139
   12       -9.922370
   13       -9.179790
   14       -8.367569
   15       -8.334516
   16       -7.520690
   17       -6.919915
   18       -6.656746
   19       -6.539345
   20       -6.090072
   21       -5.757510
   22       -5.681329
   23       -5.496863
   24       -4.958534
   25       -4.829961
   26       -4.451098
   27       -4.267071
   28       -4.224921
   29       -4.143398
   30       -3.916634
   31       -3.698599
   32       -3.642118
   33       -3.415984
   34       -3.292769
   35       -3.119021
   36       -3.015715
   37       -2.926965
   38       -2.886050
   39       -2.763072
   40       -2.628969
   41       -2.497000
   42       -2.318835
   43       -2.168856
   44       -2.058264
   45       -1.905962
   46       -1.772980
   47       -1.608599
   48       -1.494585
   49       -1.266053
   50       -1.154185
   51       -0.890345
   52       -0.748890
   53       -0.605523
   54        0.144151
   55        0.450362
   56        0.838544
   57        1.096286
   58        1.319460
   59        1.720447
   60        1.829290
   61        2.210212
   62        2.466218
   63        2.659911
   64        2.742091
   65        2.819232
   66        2.914967
   67        3.049081
   68        3.109227
 
 -0.7692308E-01  0.2500000E+00  0.0000000E+00  0.1923077E-01
    1      -14.968201
    2      -13.427930
    3      -13.367934
    4      -12.864197
    5      -12.664816