<?xml version="1.0" encoding="ISO-8859-1"?>
<modeling>
 <generator>
  <i name="program" type="string">vasp </i>
  <i name="version" type="string">5.4.1  </i>
  <i name="subversion" type="string">24Jun15 (build May 10 2016 14:40:36) complex                          parallel </i>
  <i name="platform" type="string">IFC91_ompi </i>
  <i name="date" type="string">2017 02 28 </i>
  <i name="time" type="string">15:58:20 </i>
 </generator>
 <incar>
  <i type="string" name="PREC">accurate</i>
  <i type="string" name="ALGO"> Fast</i>
  <i type="int" name="ISPIN">     2</i>
  <i type="int" name="IBRION">     2</i>
  <i name="EDIFF">      0.00010000</i>
  <i type="int" name="NSW">    50</i>
  <i type="int" name="ISIF">     3</i>
  <i name="ENCUT">    500.00000000</i>
  <v name="MAGMOM">      6.00000000      6.00000000      6.00000000      6.00000000      0.50000000      0.50000000      0.50000000      0.50000000      0.50000000      0.50000000      0.50000000      0.50000000      0.50000000      0.50000000</v>
  <i type="string" name="LREAL"> Auto</i>
  <i type="int" name="ISMEAR">     1</i>
  <i name="SIGMA">      0.10000000</i>
  <i type="logical" name="LCHARG"> T  </i>
  <i type="logical" name="LVTOT"> T  </i>
  <i type="logical" name="LVHAR"> T  </i>
  <i type="logical" name="LAECHG"> T  </i>
  <v type="int" name="KPOINT_BSE">    -1     0     0     0</v>
  <i type="string" name="GGA"> Bo</i>
  <i name="PARAM1">      0.18333333</i>
  <i name="PARAM2">      0.22000000</i>
  <i type="logical" name="LUSE_VDW"> T  </i>
  <i name="AGGAC">      0.00000000</i>
 </incar>
 <kpoints>
  <generation param="Monkhorst-Pack">
   <v type="int" name="divisions">       6        6        2 </v>
   <v name="usershift">      0.00000000       0.00000000       0.00000000 </v>
   <v name="genvec1">      0.16666667       0.00000000       0.00000000 </v>
   <v name="genvec2">      0.00000000       0.16666667       0.00000000 </v>
   <v name="genvec3">      0.00000000       0.00000000       0.50000000 </v>
   <v name="shift">      0.50000000       0.50000000       0.50000000 </v>
  </generation>
  <varray name="kpointlist" >
   <v>       0.08333333       0.08333333       0.25000000 </v>
   <v>       0.25000000       0.08333333       0.25000000 </v>
   <v>       0.41666667       0.08333333       0.25000000 </v>
   <v>      -0.41666667       0.08333333       0.25000000 </v>
   <v>      -0.25000000       0.08333333       0.25000000 </v>
   <v>      -0.08333333       0.08333333       0.25000000 </v>
   <v>       0.08333333       0.25000000       0.25000000 </v>
   <v>       0.25000000       0.25000000       0.25000000 </v>
   <v>       0.41666667       0.25000000       0.25000000 </v>
   <v>      -0.41666667       0.25000000       0.25000000 </v>
   <v>      -0.25000000       0.25000000       0.25000000 </v>
   <v>      -0.08333333       0.25000000       0.25000000 </v>
   <v>       0.08333333       0.41666667       0.25000000 </v>
   <v>       0.25000000       0.41666667       0.25000000 </v>
   <v>       0.41666667       0.41666667       0.25000000 </v>
   <v>      -0.41666667       0.41666667       0.25000000 </v>
   <v>      -0.25000000       0.41666667       0.25000000 </v>
   <v>      -0.08333333       0.41666667       0.25000000 </v>
   <v>       0.08333333      -0.41666667       0.25000000 </v>
   <v>       0.25000000      -0.41666667       0.25000000 </v>
   <v>       0.41666667      -0.41666667       0.25000000 </v>
   <v>      -0.41666667      -0.41666667       0.25000000 </v>
   <v>      -0.25000000      -0.41666667       0.25000000 </v>
   <v>      -0.08333333      -0.41666667       0.25000000 </v>
   <v>       0.08333333      -0.25000000       0.25000000 </v>
   <v>       0.25000000      -0.25000000       0.25000000 </v>
   <v>       0.41666667      -0.25000000       0.25000000 </v>
   <v>      -0.41666667      -0.25000000       0.25000000 </v>
   <v>      -0.25000000      -0.25000000       0.25000000 </v>
   <v>      -0.08333333      -0.25000000       0.25000000 </v>
   <v>       0.08333333      -0.08333333       0.25000000 </v>
   <v>       0.25000000      -0.08333333       0.25000000 </v>
   <v>       0.41666667      -0.08333333       0.25000000 </v>
   <v>      -0.41666667      -0.08333333       0.25000000 </v>
   <v>      -0.25000000      -0.08333333       0.25000000 </v>
   <v>      -0.08333333      -0.08333333       0.25000000 </v>
  </varray>
  <varray name="weights" >
   <v>       0.02777778 </v>
   <v>       0.02777778 </v>
   <v>       0.02777778 </v>
   <v>       0.02777778 </v>
   <v>       0.02777778 </v>
   <v>       0.02777778 </v>
   <v>       0.02777778 </v>
   <v>       0.02777778 </v>
   <v>       0.02777778 </v>
   <v>       0.02777778 </v>
   <v>       0.02777778 </v>
   <v>       0.02777778 </v>
   <v>       0.02777778 </v>
   <v>       0.02777778 </v>
   <v>       0.02777778 </v>
   <v>       0.02777778 </v>
   <v>       0.02777778 </v>
   <v>       0.02777778 </v>
   <v>       0.02777778 </v>
   <v>       0.02777778 </v>
   <v>       0.02777778 </v>
   <v>       0.02777778 </v>
   <v>       0.02777778 </v>
   <v>       0.02777778 </v>
   <v>       0.02777778 </v>
   <v>       0.02777778 </v>
   <v>       0.02777778 </v>
   <v>       0.02777778 </v>
   <v>       0.02777778 </v>
   <v>       0.02777778 </v>
   <v>       0.02777778 </v>
   <v>       0.02777778 </v>
   <v>       0.02777778 </v>
   <v>       0.02777778 </v>
   <v>       0.02777778 </v>
   <v>       0.02777778 </v>
  </varray>
 </kpoints>
 <parameters>
  <separator name="general" >
   <i type="string" name="SYSTEM">unknown system</i>
   <i type="logical" name="LCOMPAT"> F  </i>
  </separator>
  <separator name="electronic" >
   <i type="string" name="PREC">accura</i>
   <i name="ENMAX">    500.00000000</i>
   <i name="ENAUG">    605.39200000</i>
   <i name="EDIFF">      0.00010000</i>
   <i type="int" name="IALGO">    68</i>
   <i type="int" name="IWAVPR">    11</i>
   <i type="int" name="NBANDS">    80</i>
   <i name="NELECT">    104.00000000</i>
   <i type="int" name="TURBO">     0</i>
   <i type="int" name="IRESTART">     0</i>
   <i type="int" name="NREBOOT">     0</i>
   <i type="int" name="NMIN">     0</i>
   <i name="EREF">      0.00000000</i>
   <separator name="electronic smearing" >
    <i type="int" name="ISMEAR">     1</i>
    <i name="SIGMA">      0.10000000</i>
    <i name="KSPACING">      0.50000000</i>
    <i type="logical" name="KGAMMA"> T  </i>
   </separator>
   <separator name="electronic projectors" >
    <i type="logical" name="LREAL"> T  </i>
    <v name="ROPT">     -0.00025000     -0.00025000</v>
    <i type="int" name="LMAXPAW">  -100</i>
    <i type="int" name="LMAXMIX">     2</i>
    <i type="logical" name="NLSPLINE"> F  </i>
   </separator>
   <separator name="electronic startup" >
    <i type="int" name="ISTART">     1</i>
    <i type="int" name="ICHARG">     0</i>
    <i type="int" name="INIWAV">     1</i>
   </separator>
   <separator name="electronic spin" >
    <i type="int" name="ISPIN">     2</i>
    <i type="logical" name="LNONCOLLINEAR"> F  </i>
    <v name="MAGMOM">      6.00000000      6.00000000      6.00000000      6.00000000      0.50000000      0.50000000      0.50000000      0.50000000      0.50000000      0.50000000      0.50000000      0.50000000      0.50000000      0.50000000</v>
    <i name="NUPDOWN">     -1.00000000</i>
    <i type="logical" name="LSORBIT"> F  </i>
    <v name="SAXIS">      0.00000000      0.00000000      1.00000000</v>
    <i type="logical" name="LSPIRAL"> F  </i>
    <v name="QSPIRAL">      0.00000000      0.00000000      0.00000000</v>
    <i type="logical" name="LZEROZ"> F  </i>
   </separator>
   <separator name="electronic exchange-correlation" >
    <i type="logical" name="LASPH"> F  </i>
    <i type="logical" name="LMETAGGA"> F  </i>
   </separator>
   <separator name="electronic convergence" >
    <i type="int" name="NELM">    60</i>
    <i type="int" name="NELMDL">     0</i>
    <i type="int" name="NELMIN">     2</i>
    <i name="ENINI">    500.00000000</i>
    <separator name="electronic convergence detail" >
     <i type="logical" name="LDIAG"> T  </i>
     <i type="logical" name="LSUBROT"> F  </i>
     <i name="WEIMIN">      0.00100000</i>
     <i name="EBREAK">      0.00000031</i>
     <i name="DEPER">      0.30000000</i>
     <i type="int" name="NRMM">     4</i>
     <i name="TIME">      0.40000000</i>
    </separator>
   </separator>
   <separator name="electronic mixer" >
    <i name="AMIX">      0.40000000</i>
    <i name="BMIX">      1.00000000</i>
    <i name="AMIN">      0.10000000</i>
    <i name="AMIX_MAG">      1.60000000</i>
    <i name="BMIX_MAG">      1.00000000</i>
    <separator name="electronic mixer details" >
     <i type="int" name="IMIX">     4</i>
     <i type="logical" name="MIXFIRST"> F  </i>
     <i type="int" name="MAXMIX">   -45</i>
     <i name="WC">    100.00000000</i>
     <i type="int" name="INIMIX">     1</i>
     <i type="int" name="MIXPRE">     1</i>
     <i type="int" name="MREMOVE">     5</i>
    </separator>
   </separator>
   <separator name="electronic dipolcorrection" >
    <i type="logical" name="LDIPOL"> F  </i>
    <i type="logical" name="LMONO"> F  </i>
    <i type="int" name="IDIPOL">     0</i>
    <i name="EPSILON">      1.00000000</i>
    <v name="DIPOL">   -100.00000000   -100.00000000   -100.00000000</v>
    <i name="EFIELD">      0.00000000</i>
   </separator>
  </separator>
  <separator name="grids" >
   <i type="int" name="NGX">    28</i>
   <i type="int" name="NGY">    30</i>
   <i type="int" name="NGZ">    96</i>
   <i type="int" name="NGXF">    56</i>
   <i type="int" name="NGYF">    60</i>
   <i type="int" name="NGZF">   192</i>
   <i type="logical" name="ADDGRID"> F  </i>
  </separator>
  <separator name="ionic" >
   <i type="int" name="NSW">    50</i>
   <i type="int" name="IBRION">     2</i>
   <i type="int" name="ISIF">     3</i>
   <i name="PSTRESS">      0.00000000</i>
   <i name="EDIFFG">      0.00100000</i>
   <i type="int" name="NFREE">     1</i>
   <i name="POTIM">      0.50000000</i>
   <i name="SMASS">     -3.00000000</i>
   <i name="SCALEE">      1.00000000</i>
  </separator>
  <separator name="ionic md" >
   <i name="TEBEG">      0.00010000</i>
   <i name="TEEND">      0.00010000</i>
   <i type="int" name="NBLOCK">     1</i>
   <i type="int" name="KBLOCK">    50</i>
   <i type="int" name="NPACO">   256</i>
   <i name="APACO">     16.00000000</i>
  </separator>
  <separator name="symmetry" >
   <i type="int" name="ISYM">     2</i>
   <i name="SYMPREC">      0.00001000</i>
  </separator>
  <separator name="dos" >
   <i type="logical" name="LORBIT"> F  </i>
   <v name="RWIGS">     -1.00000000     -1.00000000</v>
   <i type="int" name="NEDOS">   301</i>
   <i name="EMIN">     10.00000000</i>
   <i name="EMAX">    -10.00000000</i>
   <i name="EFERMI">      0.00000000</i>
  </separator>
  <separator name="writing" >
   <i type="int" name="NWRITE">     2</i>
   <i type="logical" name="LWAVE"> T  </i>
   <i type="logical" name="LCHARG"> T  </i>
   <i type="logical" name="LPARD"> F  </i>
   <i type="logical" name="LVTOT"> F  </i>
   <i type="logical" name="LVHAR"> T  </i>
   <i type="logical" name="LELF"> F  </i>
   <i type="logical" name="LOPTICS"> F  </i>
   <v name="STM">      0.00000000      0.00000000      0.00000000      0.00000000      0.00000000      0.00000000      0.00000000</v>
  </separator>
  <separator name="performance" >
   <i type="int" name="NPAR">     4</i>
   <i type="int" name="NSIM">     4</i>
   <i type="int" name="NBLK">    -1</i>
   <i type="logical" name="LPLANE"> T  </i>
   <i type="logical" name="LSCALAPACK"> T  </i>
   <i type="logical" name="LSCAAWARE"> F  </i>
   <i type="logical" name="LSCALU"> F  </i>
   <i type="logical" name="LASYNC"> F  </i>
   <i type="logical" name="LORBITALREAL"> F  </i>
  </separator>
  <separator name="miscellaneous" >
   <i type="int" name="IDIOT">     3</i>
   <i type="logical" name="LMUSIC"> F  </i>
   <v name="POMASS">    180.94800000     16.00000000</v>
   <v name="DARWINR">      0.00000000      0.00000000</v>
   <v name="DARWINV">      1.00000000      1.00000000</v>
   <i type="logical" name="LCORR"> T  </i>
  </separator>
  <i type="logical" name="GGA_COMPAT"> T  </i>
  <i type="logical" name="LBERRY"> F  </i>
  <i type="int" name="ICORELEVEL">     0</i>
  <i type="logical" name="LDAU"> F  </i>
  <i type="int" name="I_CONSTRAINED_M">     0</i>
  <separator name="electronic exchange-correlation" >
   <i type="string" name="GGA">BO</i>
   <i type="int" name="VOSKOWN">     0</i>
   <i type="logical" name="LHFCALC"> F  </i>
   <i type="string" name="PRECFOCK"></i>
   <i type="logical" name="LSYMGRAD"> F  </i>
   <i type="logical" name="LHFONE"> F  </i>
   <i type="logical" name="LRHFCALC"> F  </i>
   <i type="logical" name="LTHOMAS"> F  </i>
   <i type="logical" name="LMODELHF"> F  </i>
   <i name="ENCUT4O">     -1.00000000</i>
   <i type="int" name="EXXOEP">     0</i>
   <i type="int" name="FOURORBIT">     0</i>
   <i name="AEXX">      0.00000000</i>
   <i name="HFALPHA">      0.00000000</i>
   <i name="MCALPHA">      0.00000000</i>
   <i name="ALDAX">      1.00000000</i>
   <i name="AGGAX">      1.00000000</i>
   <i name="ALDAC">      1.00000000</i>
   <i name="AGGAC">      0.00000000</i>
   <i type="int" name="NKREDX">     1</i>
   <i type="int" name="NKREDY">     1</i>
   <i type="int" name="NKREDZ">     1</i>
   <i type="logical" name="SHIFTRED"> F  </i>
   <i type="logical" name="ODDONLY"> F  </i>
   <i type="logical" name="EVENONLY"> F  </i>
   <i type="int" name="LMAXFOCK">     0</i>
   <i type="int" name="NMAXFOCKAE">     0</i>
   <i type="logical" name="LFOCKAEDFT"> F  </i>
   <i name="HFSCREEN">      0.00000000</i>
   <i name="HFSCREENC">      0.00000000</i>
   <i type="int" name="NBANDSGWLOW">     0</i>
  </separator>
  <separator name="vdW DFT" >
   <i type="logical" name="LUSE_VDW"> T  </i>
   <i name="Zab_VDW">     -0.84910000</i>
   <i name="PARAM1">      0.18333333</i>
   <i name="PARAM2">      0.22000000</i>
   <i name="PARAM3">      0.00000000</i>
  </separator>
  <separator name="model GW" >
   <i type="int" name="MODEL_GW">     0</i>
   <i name="MODEL_EPS0">      8.53278643</i>
   <i name="MODEL_ALPHA">      1.00000000</i>
  </separator>
  <separator name="linear response parameters" >
   <i type="logical" name="LEPSILON"> F  </i>
   <i type="logical" name="LRPA"> F  </i>
   <i type="logical" name="LNABLA"> F  </i>
   <i type="logical" name="LVEL"> F  </i>
   <i type="int" name="KINTER">     0</i>
   <i name="CSHIFT">      0.10000000</i>
   <i name="OMEGAMAX">     -1.00000000</i>
   <i name="DEG_THRESHOLD">      0.00200000</i>
  </separator>
  <separator name="orbital magnetization" >
   <i type="logical" name="NUCIND"> F  </i>
   <v name="MAGPOS">      0.00000000      0.00000000      0.00000000</v>
   <i type="logical" name="LNICSALL"> T  </i>
   <i type="logical" name="ORBITALMAG"> F  </i>
   <i type="logical" name="LMAGBLOCH"> F  </i>
   <i type="logical" name="LCHIMAG"> F  </i>
   <i type="logical" name="LGAUGE"> T  </i>
   <i type="int" name="MAGATOM">     0</i>
   <v name="MAGDIPOL">      0.00000000      0.00000000      0.00000000</v>
   <v name="AVECCONST">      0.00000000      0.00000000      0.00000000</v>
  </separator>
  <separator name="response functions" >
   <i type="logical" name="LADDER"> F  </i>
   <i type="logical" name="LFXC"> F  </i>
   <i type="logical" name="LHARTREE"> T  </i>
   <i type="int" name="IBSE">     0</i>
   <v type="int" name="KPOINT">    -1     0     0     0</v>
   <i type="logical" name="LTCTE"> F  </i>
   <i type="logical" name="LTETE"> F  </i>
   <i type="logical" name="LTRIPLET"> F  </i>
   <i type="logical" name="LFXCEPS"> F  </i>
   <i type="logical" name="LFXHEG"> F  </i>
   <i type="int" name="NATURALO">     0</i>
   <i type="logical" name="L2ORDER"> F  </i>
   <i type="logical" name="LUSEW"> F  </i>
   <i name="ENCUTGW">     -2.00000000</i>
   <i name="ENCUTGWSOFT">     -2.00000000</i>
   <i name="ENCUTLF">     -1.00000000</i>
   <i type="int" name="LMAXMP2">    -1</i>
   <i name="SCISSOR">      0.00000000</i>
   <i type="int" name="NOMEGA">     0</i>
   <i type="int" name="NOMEGAR">     0</i>
   <i type="int" name="NBANDSGW">    -1</i>
   <i type="int" name="NBANDSO">    -1</i>
   <i type="int" name="NBANDSV">    -1</i>
   <i type="int" name="NELM">     1</i>
   <i type="int" name="NELMHF">     1</i>
   <i type="int" name="DIM">     3</i>
   <i type="int" name="ANTIRES">     0</i>
   <i name="OMEGAMAX">    -30.00000000</i>
   <i name="OMEGAMIN">    -30.00000000</i>
   <i name="OMEGATL">   -200.00000000</i>
   <i type="int" name="OMEGAGRID">     0</i>
   <i name="CSHIFT">     -0.10000000</i>
   <i type="logical" name="SELFENERGY"> F  </i>
   <i type="logical" name="LSPECTRAL"> F  </i>
   <i type="logical" name="LSPECTRALGW"> F  </i>
   <i type="logical" name="LSINGLES"> F  </i>
   <i type="logical" name="LFERMIGW"> F  </i>
   <i type="logical" name="ODDONLYGW"> F  </i>
   <i type="logical" name="EVENONLYGW"> F  </i>
   <i type="int" name="NKREDLFX">     1</i>
   <i type="int" name="NKREDLFY">     1</i>
   <i type="int" name="NKREDLFZ">     1</i>
   <i type="int" name="MAXMEM">  1800</i>
   <i type="int" name="TELESCOPE">     0</i>
   <i type="int" name="TAUPAR">     1</i>
   <i type="int" name="OMEGAPAR">    -1</i>
   <i name="LAMBDA">      1.00000000</i>
  </separator>
  <separator name="External order field" >
   <i name="OFIELD_KAPPA">      0.00000000</i>
   <v name="OFIELD_K">      0.00000000      0.00000000      0.00000000</v>
   <i name="OFIELD_Q6_NEAR">      0.00000000</i>
   <i name="OFIELD_Q6_FAR">      0.00000000</i>
   <i name="OFIELD_A">      0.00000000</i>
  </separator>
 </parameters>
 <atominfo>
  <atoms>      14 </atoms>
  <types>       2 </types>
  <array name="atoms" >
   <dimension dim="1">ion</dimension>
   <field type="string">element</field>
   <field type="int">atomtype</field>
   <set>
    <rc><c>Ta</c><c>   1</c></rc>
    <rc><c>Ta</c><c>   1</c></rc>
    <rc><c>Ta</c><c>   1</c></rc>
    <rc><c>Ta</c><c>   1</c></rc>
    <rc><c>O </c><c>   2</c></rc>
    <rc><c>O </c><c>   2</c></rc>
    <rc><c>O </c><c>   2</c></rc>
    <rc><c>O </c><c>   2</c></rc>
    <rc><c>O </c><c>   2</c></rc>
    <rc><c>O </c><c>   2</c></rc>
    <rc><c>O </c><c>   2</c></rc>
    <rc><c>O </c><c>   2</c></rc>
    <rc><c>O </c><c>   2</c></rc>
    <rc><c>O </c><c>   2</c></rc>
   </set>
  </array>
  <array name="atomtypes" >
   <dimension dim="1">type</dimension>
   <field type="int">atomspertype</field>
   <field type="string">element</field>
   <field>mass</field>
   <field>valence</field>
   <field type="string">pseudopotential</field>
   <set>
    <rc><c>   4</c><c>Ta</c><c>    180.94800000</c><c>     11.00000000</c><c> PAW_PBE Ta_pv 07Sep2000                </c></rc>
    <rc><c>  10</c><c>O </c><c>     16.00000000</c><c>      6.00000000</c><c> PAW_PBE O 08Apr2002                    </c></rc>
   </set>
  </array>
 </atominfo>
 <structure name="initialpos" >
  <crystal>
   <varray name="basis" >
    <v>       3.88433400       0.00000000      -0.00000100 </v>
    <v>       0.00000400       3.92929500      -0.00028500 </v>
    <v>      -0.00000300      -0.00025400      13.04477100 </v>
   </varray>
   <i name="volume">    199.09834994 </i>
   <varray name="rec_basis" >
    <v>       0.25744439      -0.00000026       0.00000006 </v>
    <v>       0.00000000       0.25449858       0.00000496 </v>
    <v>       0.00000002       0.00000556       0.07665907 </v>
   </varray>
  </crystal>
  <varray name="positions" >
   <v>       0.01857400       0.95650400       0.14663100 </v>
   <v>       0.51857700       0.04349300       0.35337300 </v>
   <v>       0.51857500       0.04351400       0.64651900 </v>
   <v>       0.01857300       0.95648900       0.85348100 </v>
   <v>       0.51856700       0.99172600       0.18419700 </v>
   <v>       0.01856600       0.00831400       0.31580100 </v>
   <v>       0.01856500       0.00827400       0.68421000 </v>
   <v>       0.51856400       0.99169400       0.81579100 </v>
   <v>       0.01857000       0.48300100       0.85179800 </v>
   <v>       0.51856900       0.51700300       0.64820200 </v>
   <v>       0.51856900       0.51699600       0.35181600 </v>
   <v>       0.51857500       0.01328900       0.50009400 </v>
   <v>       0.01857300       0.98670200       0.99990600 </v>
   <v>       0.01857400       0.48299900       0.14817800 </v>
  </varray>
 </structure>
 <calculation>
  <scstep>
   <time name="dav">   10.76   10.77</time>
   <time name="total">   13.15   13.23</time>
   <energy>
    <i name="alphaZ">    556.52630428 </i>
    <i name="ewald">  -5655.42981844 </i>
    <i name="hartreedc">  -2679.66589980 </i>
    <i name="XCdc">    372.89320798 </i>
    <i name="pawpsdc">   5771.70638034 </i>
    <i name="pawaedc">  -5759.81580034 </i>
    <i name="eentropy">      0.00300259 </i>
    <i name="bandstr">  -1275.87777713 </i>
    <i name="atom">   8543.13337417 </i>
    <i name="e_fr_energy">   -126.52702635 </i>
    <i name="e_wo_entrp">   -126.53002894 </i>
    <i name="e_0_energy">   -126.52802721 </i>
   </energy>
  </scstep>
  <scstep>
   <time name="diag">    1.79    1.79</time>
   <time name="diis">    5.98    5.98</time>
   <time name="orth">    0.17    0.17</time>
   <time name="total">    9.76    9.77</time>
   <energy>
    <i name="e_fr_energy">   -126.21730102 </i>
    <i name="e_wo_entrp">   -126.22019558 </i>
    <i name="e_0_energy">   -126.21826588 </i>
   </energy>
  </scstep>
  <scstep>
   <time name="diag">    1.77    1.77</time>
   <time name="diis">    5.93    5.93</time>
   <time name="orth">    0.16    0.16</time>
   <time name="total">    9.67   10.06</time>
   <energy>
    <i name="e_fr_energy">   -126.12462771 </i>
    <i name="e_wo_entrp">   -126.12733607 </i>
    <i name="e_0_energy">   -126.12553050 </i>
   </energy>
  </scstep>
  <scstep>
   <time name="diag">    1.77    1.77</time>
   <time name="diis">    6.15    6.15</time>
   <time name="orth">    0.16    0.16</time>
   <time name="total">    9.88   10.24</time>
   <energy>
    <i name="e_fr_energy">   -126.11881294 </i>
    <i name="e_wo_entrp">   -126.12166496 </i>
    <i name="e_0_energy">   -126.11976361 </i>
   </energy>
  </scstep>
  <scstep>
   <time name="diag">    1.79    1.79</time>
   <time name="diis">    5.93    5.93</time>
   <time name="orth">    0.16    0.16</time>
   <time name="total">    9.70    9.72</time>
   <energy>
    <i name="e_fr_energy">   -126.11841044 </i>
    <i name="e_wo_entrp">   -126.12124921 </i>
    <i name="e_0_energy">   -126.11935670 </i>
   </energy>
  </scstep>
  <scstep>
   <time name="diag">    1.79    1.79</time>
   <time name="diis">    5.25    5.25</time>
   <time name="orth">    0.17    0.17</time>
   <time name="total">    9.80    9.82</time>
   <energy>
    <i name="e_fr_energy">   -126.12031444 </i>
    <i name="e_wo_entrp">   -126.12316443 </i>
    <i name="e_0_energy">   -126.12126443 </i>
   </energy>
  </scstep>
  <scstep>
   <time name="diag">    1.94    1.95</time>
   <time name="diis">    4.66    4.67</time>
   <time name="orth">    0.17    0.17</time>
   <time name="total">    8.18    8.19</time>
   <energy>
    <i name="alphaZ">    556.52630428 </i>
    <i name="ewald">  -5655.42981844 </i>
    <i name="hartreedc">  -2685.85013443 </i>
    <i name="XCdc">    373.62742763 </i>
    <i name="pawpsdc">   5789.69323851 </i>
    <i name="pawaedc">  -5778.01561118 </i>
    <i name="eentropy">      0.00284974 </i>
    <i name="bandstr">  -1269.80803137 </i>
    <i name="atom">   8543.13337417 </i>
    <i name="e_fr_energy">   -126.12040108 </i>
    <i name="e_wo_entrp">   -126.12325083 </i>
    <i name="e_0_energy">   -126.12135100 </i>
   </energy>
  </scstep>
  <structure>
   <crystal>
    <varray name="basis" >
     <v>       3.88433400       0.00000000      -0.00000100 </v>
     <v>       0.00000400       3.92929500      -0.00028500 </v>
     <v>      -0.00000300      -0.00025400      13.04477100 </v>
    </varray>
    <i name="volume">    199.09834994 </i>
    <varray name="rec_basis" >
     <v>       0.25744439      -0.00000026       0.00000006 </v>
     <v>       0.00000000       0.25449858       0.00000496 </v>
     <v>       0.00000002       0.00000556       0.07665907 </v>
    </varray>
   </crystal>
   <varray name="positions" >
    <v>       0.01857400       0.95650400       0.14663100 </v>
    <v>       0.51857700       0.04349300       0.35337300 </v>
    <v>       0.51857500       0.04351400       0.64651900 </v>
    <v>       0.01857300       0.95648900       0.85348100 </v>
    <v>       0.51856700       0.99172600       0.18419700 </v>
    <v>       0.01856600       0.00831400       0.31580100 </v>
    <v>       0.01856500       0.00827400       0.68421000 </v>
    <v>       0.51856400       0.99169400       0.81579100 </v>
    <v>       0.01857000       0.48300100       0.85179800 </v>
    <v>       0.51856900       0.51700300       0.64820200 </v>
    <v>       0.51856900       0.51699600       0.35181600 </v>
    <v>       0.51857500       0.01328900       0.50009400 </v>
    <v>       0.01857300       0.98670200       0.99990600 </v>
    <v>       0.01857400       0.48299900       0.14817800 </v>
   </varray>
  </structure>
  <varray name="forces" >
   <v>      -0.00220905       0.10257061      -0.19389860 </v>
   <v>      -0.00234387      -0.10275493       0.19137098 </v>
   <v>      -0.00212255      -0.10508303      -0.07546573 </v>
   <v>      -0.00206881       0.10496893       0.07709946 </v>
   <v>       0.00565242       0.04115452       0.13828971 </v>
   <v>       0.00574705      -0.04182011      -0.13767175 </v>
   <v>       0.00564640      -0.03967278       0.12312055 </v>
   <v>       0.00603579       0.04083556      -0.12266344 </v>
   <v>      -0.00193669      -0.07342598      -0.08869710 </v>
   <v>      -0.00193350       0.07242050       0.08815465 </v>
   <v>      -0.00193844       0.06787395      -0.09214740 </v>
   <v>      -0.00328053      -0.00702642      -0.09463093 </v>
   <v>      -0.00332485       0.00694502       0.09484965 </v>
   <v>      -0.00192336      -0.06698585       0.09228994 </v>
  </varray>
  <varray name="stress" >
   <v>     -12.94667670      -0.00167999      -0.00163698 </v>
   <v>      -0.00168004      -7.41939026       0.23248530 </v>
   <v>      -0.00163690       0.23248543      -3.69750494 </v>
  </varray>
  <energy>
   <i name="e_fr_energy">   -126.12040108 </i>
   <i name="e_wo_entrp">   -126.12135100 </i>
   <i name="e_0_energy">      0.00284974 </i>
  </energy>
  <time name="totalsc">   91.46   92.51</time>
 </calculation>
 <calculation>
  <scstep>
   <time name="dav">   11.24   11.25</time>
   <time name="total">   13.29   13.31</time>
   <energy>
    <i name="alphaZ">    561.41250686 </i>
    <i name="ewald">  -5672.07153939 </i>
    <i name="hartreedc">  -2693.93844274 </i>
    <i name="XCdc">    374.80194584 </i>
    <i name="pawpsdc">   5789.70994863 </i>
    <i name="pawaedc">  -5778.03290256 </i>
    <i name="eentropy">      0.00316494 </i>
    <i name="bandstr">  -1251.18773825 </i>
    <i name="atom">   8543.13337417 </i>
    <i name="e_fr_energy">   -126.16968250 </i>
    <i name="e_wo_entrp">   -126.17284744 </i>
    <i name="e_0_energy">   -126.17073748 </i>
   </energy>
  </scstep>
  <scstep>
   <time name="diag">    1.98    1.98</time>
   <time name="diis">    6.76    6.77</time>
   <time name="orth">    0.17    0.17</time>
   <time name="total">   10.81   10.83</time>
   <energy>
    <i name="e_fr_energy">   -126.11612383 </i>
    <i name="e_wo_entrp">   -126.11879850 </i>
    <i name="e_0_energy">   -126.11701539 </i>
   </energy>
  </scstep>
  <scstep>
   <time name="diag">    1.87    1.87</time>
   <time name="diis">    6.59    6.62</time>
   <time name="orth">    0.18    0.18</time>
   <time name="total">   11.19   11.22</time>
   <energy>
    <i name="e_fr_energy">   -126.10306266 </i>
    <i name="e_wo_entrp">   -126.10551456 </i>
    <i name="e_0_energy">   -126.10387996 </i>
   </energy>
  </scstep>
  <scstep>
   <time name="diag">    2.00    2.00</time>
   <time name="diis">    6.45    6.46</time>
   <time name="orth">    0.17    0.17</time>
   <time name="total">   10.57   10.59</time>
   <energy>
    <i name="e_fr_energy">   -126.11305451 </i>
    <i name="e_wo_entrp">   -126.11531130 </i>
    <i name="e_0_energy">   -126.11380677 </i>
   </energy>
  </scstep>
  <scstep>
   <time name="diag">    1.89    1.89</time>
   <time name="diis">    5.07    5.08</time>
   <time name="orth">    0.17    0.17</time>
   <time name="total">    9.19    9.20</time>
   <energy>
    <i name="e_fr_energy">   -126.12421696 </i>
    <i name="e_wo_entrp">   -126.12643307 </i>
    <i name="e_0_energy">   -126.12495566 </i>
   </energy>
  </scstep>
  <scstep>
   <time name="diag">    1.95    1.95</time>
   <time name="diis">    4.71    4.72</time>
   <time name="orth">    0.18    0.18</time>
   <time name="total">    8.83    8.86</time>
   <energy>
    <i name="e_fr_energy">   -126.13158457 </i>
    <i name="e_wo_entrp">   -126.13375941 </i>
    <i name="e_0_energy">   -126.13230952 </i>
   </energy>
  </scstep>
  <scstep>
   <time name="diag">    1.91    1.91</time>
   <time name="diis">    4.57    4.58</time>
   <time name="orth">    0.17    0.17</time>
   <time name="total">    8.60    8.61</time>
   <energy>
    <i name="e_fr_energy">   -126.13250344 </i>
    <i name="e_wo_entrp">   -126.13465521 </i>
    <i name="e_0_energy">   -126.13322070 </i>
   </energy>
  </scstep>
  <scstep>
   <time name="diag">    1.99    1.99</time>
   <time name="diis">    3.78    3.78</time>
   <time name="orth">    0.17    0.17</time>
   <time name="total">    7.93    7.95</time>
   <energy>
    <i name="e_fr_energy">   -126.13275156 </i>
    <i name="e_wo_entrp">   -126.13488837 </i>
    <i name="e_0_energy">   -126.13346383 </i>
   </energy>
  </scstep>
  <scstep>
   <time name="diag">    1.90    1.90</time>
   <time name="diis">    3.51    3.52</time>
   <time name="orth">    0.17    0.17</time>
   <time name="total">    7.17    7.18</time>
   <energy>
    <i name="alphaZ">    561.41250686 </i>
    <i name="ewald">  -5672.07153939 </i>
    <i name="hartreedc">  -2680.60721557 </i>
    <i name="XCdc">    373.99950526 </i>
    <i name="pawpsdc">   5804.38142642 </i>
    <i name="pawaedc">  -5792.95143634 </i>
    <i name="eentropy">      0.00213399 </i>
    <i name="bandstr">  -1263.43152850 </i>
    <i name="atom">   8543.13337417 </i>
    <i name="e_fr_energy">   -126.13277310 </i>
    <i name="e_wo_entrp">   -126.13490709 </i>
    <i name="e_0_energy">   -126.13348443 </i>
   </energy>
  </scstep>
  <structure>
   <crystal>
    <varray name="basis" >
     <v>       3.86279948       0.00000000      -0.00000100 </v>
     <v>       0.00000398       3.91681131      -0.00028500 </v>
     <v>      -0.00000298      -0.00025319      13.04477100 </v>
    </varray>
    <i name="volume">    197.36551560 </i>
    <varray name="rec_basis" >
     <v>       0.25887960      -0.00000026       0.00000006 </v>
     <v>       0.00000000       0.25530972       0.00000496 </v>
     <v>       0.00000002       0.00000558       0.07665907 </v>
    </varray>
   </crystal>
   <varray name="positions" >
    <v>       0.01854656       0.95776328       0.14591394 </v>
    <v>       0.51854789       0.04223145       0.35408071 </v>
    <v>       0.51854864       0.04222381       0.64623988 </v>
    <v>       0.01854730       0.95777779       0.85376616 </v>
    <v>       0.51863720       0.99223132       0.18470844 </v>
    <v>       0.01863738       0.00780051       0.31529185 </v>
    <v>       0.01863513       0.00778694       0.68466532 </v>
    <v>       0.51863896       0.99219534       0.81533737 </v>
    <v>       0.01854595       0.48209948       0.85146996 </v>
    <v>       0.51854499       0.51789218       0.64852804 </v>
    <v>       0.51854492       0.51782931       0.35147524 </v>
    <v>       0.51853426       0.01320271       0.49974403 </v>
    <v>       0.01853171       0.98678729       0.00025678 </v>
    <v>       0.01855011       0.48217659       0.14851929 </v>
   </varray>
  </structure>
  <varray name="forces" >
   <v>       0.00355989       0.09936162       0.25037998 </v>
   <v>       0.00354067      -0.09908723      -0.24604822 </v>
   <v>       0.00346957      -0.09450209      -0.11133027 </v>
   <v>       0.00364573       0.09382151       0.10838404 </v>
   <v>      -0.00387581       0.01914776       0.03274612 </v>
   <v>      -0.00310669      -0.02065829      -0.03458025 </v>
   <v>      -0.00297691      -0.02486857       0.07534510 </v>
   <v>      -0.00218702       0.02507162      -0.07546357 </v>
   <v>       0.00110153      -0.04177313      -0.04251139 </v>
   <v>       0.00115217       0.04361043       0.04281440 </v>
   <v>       0.00130930       0.05914335      -0.03116820 </v>
   <v>      -0.00345385      -0.01407289       0.29161411 </v>
   <v>      -0.00348851       0.01414773      -0.29149542 </v>
   <v>       0.00130991      -0.05934182       0.03131359 </v>
  </varray>
  <varray name="stress" >
   <v>       5.37544740       0.00421882      -0.00176187 </v>
   <v>       0.00421873       8.89262692      -0.44002958 </v>
   <v>      -0.00176192      -0.44002953      15.73397547 </v>
  </varray>
  <energy>
   <i name="e_fr_energy">   -126.13277310 </i>
   <i name="e_wo_entrp">   -126.13348443 </i>
   <i name="e_0_energy">      0.00213399 </i>
  </energy>
  <time name="totalsc">  106.09  106.29</time>
 </calculation>
 <calculation>
  <scstep>
   <time name="dav">   11.62   11.64</time>
   <time name="total">   13.67   13.69</time>
   <energy>
    <i name="alphaZ">    560.62777929 </i>
    <i name="ewald">  -5669.40864156 </i>
    <i name="hartreedc">  -2679.30108001 </i>
    <i name="XCdc">    373.81142083 </i>
    <i name="pawpsdc">   5804.38016245 </i>
    <i name="pawaedc">  -5792.95038806 </i>
    <i name="eentropy">      0.00213707 </i>
    <i name="bandstr">  -1266.42955210 </i>
    <i name="atom">   8543.13337417 </i>
    <i name="e_fr_energy">   -126.13478791 </i>
    <i name="e_wo_entrp">   -126.13692499 </i>
    <i name="e_0_energy">   -126.13550027 </i>
   </energy>
  </scstep>
  <scstep>
   <time name="diag">    1.83    1.83</time>
   <time name="diis">    6.15    6.16</time>
   <time name="orth">    0.17    0.17</time>
   <time name="total">   10.04   10.06</time>
   <energy>
    <i name="e_fr_energy">   -126.13888241 </i>
    <i name="e_wo_entrp">   -126.14113717 </i>
    <i name="e_0_energy">   -126.13963400 </i>
   </energy>
  </scstep>
  <scstep>
   <time name="diag">    1.78    1.78</time>
   <time name="diis">    5.72    5.72</time>
   <time name="orth">    0.16    0.16</time>
   <time name="total">    9.48    9.50</time>
   <energy>
    <i name="e_fr_energy">   -126.13812648 </i>
    <i name="e_wo_entrp">   -126.14044694 </i>
    <i name="e_0_energy">   -126.13889997 </i>
   </energy>
  </scstep>
  <scstep>
   <time name="diag">    1.78    1.78</time>
   <time name="diis">    4.29    4.29</time>
   <time name="orth">    0.16    0.16</time>
   <time name="total">    8.04    8.05</time>
   <energy>
    <i name="e_fr_energy">   -126.13630042 </i>
    <i name="e_wo_entrp">   -126.13866444 </i>
    <i name="e_0_energy">   -126.13708843 </i>
   </energy>
  </scstep>
  <scstep>
   <time name="diag">    1.77    1.77</time>
   <time name="diis">    4.01    4.02</time>
   <time name="orth">    0.16    0.16</time>
   <time name="total">    7.75    7.78</time>
   <energy>
    <i name="e_fr_energy">   -126.13445485 </i>
    <i name="e_wo_entrp">   -126.13682992 </i>
    <i name="e_0_energy">   -126.13524654 </i>
   </energy>
  </scstep>
  <scstep>
   <time name="diag">    1.78    1.78</time>
   <time name="diis">    3.21    3.21</time>
   <time name="orth">    0.16    0.16</time>
   <time name="total">    6.97    6.99</time>
   <energy>
    <i name="e_fr_energy">   -126.13324956 </i>
    <i name="e_wo_entrp">   -126.13563512 </i>
    <i name="e_0_energy">   -126.13404475 </i>
   </energy>
  </scstep>
  <scstep>
   <time name="diag">    1.77    1.78</time>
   <time name="diis">    3.12    3.12</time>
   <time name="orth">    0.16    0.16</time>
   <time name="total">    6.86    6.87</time>
   <energy>
    <i name="e_fr_energy">   -126.13292454 </i>
    <i name="e_wo_entrp">   -126.13531505 </i>
    <i name="e_0_energy">   -126.13372138 </i>
   </energy>
  </scstep>
  <scstep>
   <time name="diag">    1.78    1.78</time>
   <time name="diis">    2.88    2.88</time>
   <time name="orth">    0.16    0.17</time>
   <time name="total">    6.17    6.18</time>
   <energy>
    <i name="alphaZ">    560.62777929 </i>
    <i name="ewald">  -5669.40864156 </i>
    <i name="hartreedc">  -2681.42448500 </i>
    <i name="XCdc">    373.93923549 </i>
    <i name="pawpsdc">   5801.96012584 </i>
    <i name="pawaedc">  -5790.48990969 </i>
    <i name="eentropy">      0.00239273 </i>
    <i name="bandstr">  -1264.47287631 </i>
    <i name="atom">   8543.13337417 </i>
    <i name="e_fr_energy">   -126.13300504 </i>
    <i name="e_wo_entrp">   -126.13539777 </i>
    <i name="e_0_energy">   -126.13380262 </i>
   </energy>
  </scstep>
  <structure>
   <crystal>
    <varray name="basis" >
     <v>       3.86623849       0.00000000      -0.00000100 </v>
     <v>       0.00000398       3.91880492      -0.00028500 </v>
     <v>      -0.00000299      -0.00025332      13.04477100 </v>
    </varray>
    <i name="volume">    197.64177405 </i>
    <varray name="rec_basis" >
     <v>       0.25864933      -0.00000026       0.00000006 </v>
     <v>       0.00000000       0.25517984       0.00000496 </v>
     <v>       0.00000002       0.00000558       0.07665907 </v>
    </varray>
   </crystal>
   <varray name="positions" >
    <v>       0.01855097       0.95756154       0.14602846 </v>
    <v>       0.51855257       0.04243356       0.35396769 </v>
    <v>       0.51855287       0.04243050       0.64628446 </v>
    <v>       0.01855143       0.95757132       0.85372062 </v>
    <v>       0.51862593       0.99215036       0.18462676 </v>
    <v>       0.01862591       0.00788278       0.31537316 </v>
    <v>       0.01862387       0.00786497       0.68459261 </v>
    <v>       0.51862692       0.99211502       0.81540982 </v>
    <v>       0.01854981       0.48224391       0.85152234 </v>
    <v>       0.51854884       0.51774973       0.64847597 </v>
    <v>       0.51854879       0.51769581       0.35152965 </v>
    <v>       0.51854080       0.01321653       0.49979992 </v>
    <v>       0.01853834       0.98677363       0.00020076 </v>
    <v>       0.01855395       0.48230835       0.14846479 </v>
   </varray>
  </structure>
  <varray name="forces" >
   <v>       0.00237400       0.10129711       0.17056855 </v>
   <v>       0.00233471      -0.10105713      -0.16760531 </v>
   <v>       0.00228842      -0.09555884      -0.10084546 </v>
   <v>       0.00243509       0.09497176       0.09839763 </v>
   <v>      -0.00194665       0.02427708       0.05110346 </v>
   <v>      -0.00197752      -0.02482702      -0.05185945 </v>
   <v>      -0.00225144      -0.02843333       0.08526243 </v>
   <v>      -0.00253994       0.02836268      -0.08453643 </v>
   <v>       0.00205721      -0.04897959      -0.04871959 </v>
   <v>       0.00198718       0.04873118       0.04920195 </v>
   <v>       0.00203646       0.06227492      -0.03752867 </v>
   <v>      -0.00489767      -0.01188270       0.22202963 </v>
   <v>      -0.00394081       0.01309624      -0.22278798 </v>
   <v>       0.00204096      -0.06227236       0.03731924 </v>
  </varray>
  <varray name="stress" >
   <v>       2.38500669      -0.00618995       0.00362416 </v>
   <v>      -0.00619018       6.17120128      -0.31436639 </v>
   <v>       0.00362436      -0.31436640      12.43493820 </v>
  </varray>
  <energy>
   <i name="e_fr_energy">   -126.13300504 </i>
   <i name="e_wo_entrp">   -126.13380262 </i>
   <i name="e_0_energy">      0.00239273 </i>
  </energy>
  <time name="totalsc">   86.04   86.20</time>
 </calculation>
 <calculation>
  <scstep>
   <time name="dav">   10.46   10.51</time>
   <time name="total">   12.30   12.36</time>
   <energy>
    <i name="alphaZ">    562.02351363 </i>
    <i name="ewald">  -5671.29990848 </i>
    <i name="hartreedc">  -2686.97278927 </i>
    <i name="XCdc">    374.25824830 </i>
    <i name="pawpsdc">   5801.97995720 </i>
    <i name="pawaedc">  -5790.51001762 </i>
    <i name="eentropy">      0.00263282 </i>
    <i name="bandstr">  -1258.73772251 </i>
    <i name="atom">   8543.13337417 </i>
    <i name="e_fr_energy">   -126.12271176 </i>
    <i name="e_wo_entrp">   -126.12534458 </i>
    <i name="e_0_energy">   -126.12358937 </i>
   </energy>
  </scstep>
  <scstep>
   <time name="diag">    3.20    3.20</time>
   <time name="diis">    8.79   10.84</time>
   <time name="orth">    0.17    0.29</time>
   <time name="total">   14.27   16.52</time>
   <energy>
    <i name="e_fr_energy">   -126.12561299 </i>
    <i name="e_wo_entrp">   -126.12828854 </i>
    <i name="e_0_energy">   -126.12650484 </i>
   </energy>
  </scstep>
  <scstep>
   <time name="diag">    1.81    2.42</time>
   <time name="diis">    6.09    8.90</time>
   <time name="orth">    0.17    0.17</time>
   <time name="total">    9.97   13.92</time>
   <energy>
    <i name="e_fr_energy">   -126.11969027 </i>
    <i name="e_wo_entrp">   -126.12195450 </i>
    <i name="e_0_energy">   -126.12044501 </i>
   </energy>
  </scstep>
  <scstep>
   <time name="diag">    1.83    1.83</time>
   <time name="diis">    6.09    6.09</time>
   <time name="orth">    0.17    0.17</time>
   <time name="total">    9.96    9.98</time>
   <energy>
    <i name="e_fr_energy">   -126.12343846 </i>
    <i name="e_wo_entrp">   -126.12538441 </i>
    <i name="e_0_energy">   -126.12408711 </i>
   </energy>
  </scstep>
  <scstep>
   <time name="diag">    1.82    1.82</time>
   <time name="diis">    4.37    4.37</time>
   <time name="orth">    0.17    0.17</time>
   <time name="total">    8.23    8.24</time>
   <energy>
    <i name="e_fr_energy">   -126.12667320 </i>
    <i name="e_wo_entrp">   -126.12855638 </i>
    <i name="e_0_energy">   -126.12730093 </i>
   </energy>
  </scstep>
  <scstep>
   <time name="diag">    1.81    2.30</time>
   <time name="diis">    4.37    5.53</time>
   <time name="orth">    0.20    0.20</time>
   <time name="total">    8.44   10.28</time>
   <energy>
    <i name="e_fr_energy">   -126.12951979 </i>
    <i name="e_wo_entrp">   -126.13134326 </i>
    <i name="e_0_energy">   -126.13012761 </i>
   </energy>
  </scstep>
  <scstep>
   <time name="diag">    2.07    2.07</time>
   <time name="diis">    4.58    4.59</time>
   <time name="orth">    0.17    0.17</time>
   <time name="total">    9.01    9.02</time>
   <energy>
    <i name="e_fr_energy">   -126.12974335 </i>
    <i name="e_wo_entrp">   -126.13154177 </i>
    <i name="e_0_energy">   -126.13034282 </i>
   </energy>
  </scstep>
  <scstep>
   <time name="diag">    1.82    1.82</time>
   <time name="diis">    3.68    3.70</time>
   <time name="orth">    0.17    0.17</time>
   <time name="total">    7.56    7.59</time>
   <energy>
    <i name="e_fr_energy">   -126.12962196 </i>
    <i name="e_wo_entrp">   -126.13140600 </i>
    <i name="e_0_energy">   -126.13021664 </i>
   </energy>
  </scstep>
  <scstep>
   <time name="diag">    1.82    1.83</time>
   <time name="diis">    3.39    3.41</time>
   <time name="orth">    0.17    0.17</time>
   <time name="total">    6.75    6.82</time>
   <energy>
    <i name="alphaZ">    562.02351363 </i>
    <i name="ewald">  -5671.29990848 </i>
    <i name="hartreedc">  -2682.85455480 </i>
    <i name="XCdc">    373.99973616 </i>
    <i name="pawpsdc">   5801.61103881 </i>
    <i name="pawaedc">  -5790.17933381 </i>
    <i name="eentropy">      0.00178209 </i>
    <i name="bandstr">  -1262.56518139 </i>
    <i name="atom">   8543.13337417 </i>
    <i name="e_fr_energy">   -126.12953363 </i>
    <i name="e_wo_entrp">   -126.13131572 </i>
    <i name="e_0_energy">   -126.13012766 </i>
   </energy>
  </scstep>
  <structure>
   <crystal>
    <varray name="basis" >
     <v>       3.85527823       0.00000000      -0.00000100 </v>
     <v>       0.00000397       3.92018611      -0.00028500 </v>
     <v>      -0.00000298      -0.00025341      13.04477100 </v>
    </varray>
    <i name="volume">    197.15094866 </i>
    <varray name="rec_basis" >
     <v>       0.25938465      -0.00000026       0.00000006 </v>
     <v>       0.00000000       0.25508993       0.00000496 </v>
     <v>       0.00000002       0.00000557       0.07665907 </v>
    </varray>
   </crystal>
   <varray name="positions" >
    <v>       0.01856067       0.95963795       0.14614554 </v>
    <v>       0.51856064       0.04035845       0.35385478 </v>
    <v>       0.51856229       0.04040116       0.64573125 </v>
    <v>       0.01856307       0.95959270       0.85426922 </v>
    <v>       0.51865097       0.99278847       0.18516179 </v>
    <v>       0.01865139       0.00723248       0.31483700 </v>
    <v>       0.01864517       0.00718996       0.68521128 </v>
    <v>       0.51864809       0.99279904       0.81479491 </v>
    <v>       0.01855803       0.48103794       0.85112209 </v>
    <v>       0.51855624       0.51894421       0.64887657 </v>
    <v>       0.51855674       0.51901312       0.35116074 </v>
    <v>       0.51845346       0.01301542       0.50035390 </v>
    <v>       0.01846218       0.98698852      -0.00035538 </v>
    <v>       0.01856208       0.48099859       0.14883332 </v>
   </varray>
  </structure>
  <varray name="forces" >
   <v>       0.00337869      -0.04201876      -0.09903812 </v>
   <v>       0.00337952       0.04238122       0.09790656 </v>
   <v>       0.00302892       0.04014383       0.40692291 </v>
   <v>       0.00312372      -0.04077403      -0.40637714 </v>
   <v>      -0.00634102      -0.00991819       0.00084483 </v>
   <v>      -0.00646844       0.00979511      -0.00086864 </v>
   <v>      -0.00509224       0.01540166      -0.05690900 </v>
   <v>      -0.00527617      -0.01578454       0.05588768 </v>
   <v>       0.00309421       0.13091248       0.01842549 </v>
   <v>       0.00306354      -0.13056908      -0.01868203 </v>
   <v>       0.00261695      -0.14615544      -0.00404357 </v>
   <v>      -0.00012730       0.01595860      -0.41026266 </v>
   <v>      -0.00096009      -0.01512648       0.41222716 </v>
   <v>       0.00257971       0.14575362       0.00396654 </v>
  </varray>
  <varray name="stress" >
   <v>      10.18031950      -0.00473346      -0.00441588 </v>
   <v>      -0.00473352      -7.84700625       0.74376260 </v>
   <v>      -0.00441589       0.74376256      23.91576865 </v>
  </varray>
  <energy>
   <i name="e_fr_energy">   -126.12953363 </i>
   <i name="e_wo_entrp">   -126.13012766 </i>
   <i name="e_0_energy">      0.00178209 </i>
  </energy>
  <time name="totalsc">  103.90  114.90</time>
 </calculation>
 <calculation>
  <scstep>
   <time name="dav">   11.57   11.58</time>
   <time name="total">   14.24   14.53</time>
   <energy>
    <i name="alphaZ">    561.20033739 </i>
    <i name="ewald">  -5670.24347399 </i>
    <i name="hartreedc">  -2679.52405880 </i>
    <i name="XCdc">    373.81049118 </i>
    <i name="pawpsdc">   5801.60126445 </i>
    <i name="pawaedc">  -5790.16977607 </i>
    <i name="eentropy">      0.00179320 </i>
    <i name="bandstr">  -1265.94434778 </i>
    <i name="atom">   8543.13337417 </i>
    <i name="e_fr_energy">   -126.13439626 </i>
    <i name="e_wo_entrp">   -126.13618945 </i>
    <i name="e_0_energy">   -126.13499399 </i>
   </energy>
  </scstep>
  <scstep>
   <time name="diag">    1.82    2.14</time>
   <time name="diis">    7.52    7.53</time>
   <time name="orth">    0.28    0.28</time>
   <time name="total">   11.82   12.77</time>
   <energy>
    <i name="e_fr_energy">   -126.14513584 </i>
    <i name="e_wo_entrp">   -126.14747850 </i>
    <i name="e_0_energy">   -126.14591673 </i>
   </energy>
  </scstep>
  <scstep>
   <time name="diag">    1.84    2.66</time>
   <time name="diis">    6.09   10.10</time>
   <time name="orth">    0.17    0.17</time>
   <time name="total">    9.95   15.74</time>
   <energy>
    <i name="e_fr_energy">   -126.14203356 </i>
    <i name="e_wo_entrp">   -126.14475252 </i>
    <i name="e_0_energy">   -126.14293988 </i>
   </energy>
  </scstep>
  <scstep>
   <time name="diag">    1.82    1.85</time>
   <time name="diis">    5.79    6.31</time>
   <time name="orth">    0.18    0.33</time>
   <time name="total">    9.64   10.62</time>
   <energy>
    <i name="e_fr_energy">   -126.13911007 </i>
    <i name="e_wo_entrp">   -126.14192911 </i>
    <i name="e_0_energy">   -126.14004975 </i>
   </energy>
  </scstep>
  <scstep>
   <time name="diag">    1.83    1.96</time>
   <time name="diis">    5.08    5.13</time>
   <time name="orth">    0.25    0.25</time>
   <time name="total">    9.07    9.50</time>
   <energy>
    <i name="e_fr_energy">   -126.13703433 </i>
    <i name="e_wo_entrp">   -126.13986260 </i>
    <i name="e_0_energy">   -126.13797708 </i>
   </energy>
  </scstep>
  <scstep>
   <time name="diag">    1.94    1.94</time>
   <time name="diis">    4.89    4.89</time>
   <time name="orth">    0.19    0.19</time>
   <time name="total">    9.41    9.43</time>
   <energy>
    <i name="e_fr_energy">   -126.13579863 </i>
    <i name="e_wo_entrp">   -126.13863144 </i>
    <i name="e_0_energy">   -126.13674290 </i>
   </energy>
  </scstep>
  <scstep>
   <time name="diag">    1.83    1.83</time>
   <time name="diis">    3.65    3.66</time>
   <time name="orth">    0.17    0.17</time>
   <time name="total">    7.54    7.55</time>
   <energy>
    <i name="e_fr_energy">   -126.13553023 </i>
    <i name="e_wo_entrp">   -126.13836569 </i>
    <i name="e_0_energy">   -126.13647538 </i>
   </energy>
  </scstep>
  <scstep>
   <time name="diag">    1.82    1.82</time>
   <time name="diis">    3.30    3.31</time>
   <time name="orth">    0.17    0.17</time>
   <time name="total">    6.65    6.69</time>
   <energy>
    <i name="alphaZ">    561.20033739 </i>
    <i name="ewald">  -5670.24347399 </i>
    <i name="hartreedc">  -2681.95081743 </i>
    <i name="XCdc">    373.96238377 </i>
    <i name="pawpsdc">   5801.66693297 </i>
    <i name="pawaedc">  -5790.21185510 </i>
    <i name="eentropy">      0.00283552 </i>
    <i name="bandstr">  -1263.69520809 </i>
    <i name="atom">   8543.13337417 </i>
    <i name="e_fr_energy">   -126.13549079 </i>
    <i name="e_wo_entrp">   -126.13832631 </i>
    <i name="e_0_energy">   -126.13643596 </i>
   </energy>
  </scstep>
  <structure>
   <crystal>
    <varray name="basis" >
     <v>       3.86173471       0.00000000      -0.00000100 </v>
     <v>       0.00000398       3.91937248      -0.00028500 </v>
     <v>      -0.00000298      -0.00025336      13.04477100 </v>
    </varray>
    <i name="volume">    197.44013233 </i>
    <varray name="rec_basis" >
     <v>       0.25895098      -0.00000026       0.00000006 </v>
     <v>       0.00000000       0.25514288       0.00000496 </v>
     <v>       0.00000002       0.00000557       0.07665907 </v>
    </varray>
   </crystal>
   <varray name="positions" >
    <v>       0.01855494       0.95841521       0.14607657 </v>
    <v>       0.51855587       0.04158043       0.35392129 </v>
    <v>       0.51855672       0.04159618       0.64605714 </v>
    <v>       0.01855620       0.95840237       0.85394605 </v>
    <v>       0.51863617       0.99241270       0.18484662 </v>
    <v>       0.01863634       0.00761542       0.31515284 </v>
    <v>       0.01863259       0.00758746       0.68484683 </v>
    <v>       0.51863558       0.99239624       0.81515714 </v>
    <v>       0.01855317       0.48174810       0.85135787 </v>
    <v>       0.51855187       0.51824081       0.64864058 </v>
    <v>       0.51855204       0.51823739       0.35137806 </v>
    <v>       0.51850506       0.01313385       0.50002756 </v>
    <v>       0.01850717       0.98686197      -0.00002777 </v>
    <v>       0.01855728       0.48176987       0.14861622 </v>
   </varray>
  </structure>
  <varray name="forces" >
   <v>       0.00314988       0.03729378       0.06948116 </v>
   <v>       0.00312628      -0.03684368      -0.06820118 </v>
   <v>       0.00285102      -0.03786447       0.09628432 </v>
   <v>       0.00303836       0.03747797      -0.09743911 </v>
   <v>      -0.00506597       0.01306553       0.03046586 </v>
   <v>      -0.00514142      -0.01329944      -0.03091538 </v>
   <v>      -0.00488180      -0.01288694       0.02802999 </v>
   <v>      -0.00513197       0.01283825      -0.02806373 </v>
   <v>       0.00047834       0.02752514      -0.01968820 </v>
   <v>       0.00042542      -0.02738544       0.01982979 </v>
   <v>       0.00065212      -0.03057399      -0.02227890 </v>
   <v>       0.00293080      -0.00285638      -0.02290468 </v>
   <v>       0.00292709       0.00295311       0.02322643 </v>
   <v>       0.00064185       0.03055654       0.02217364 </v>
  </varray>
  <varray name="stress" >
   <v>       5.68805397      -0.00076357      -0.00023293 </v>
   <v>      -0.00076355       0.60301414       0.09284119 </v>
   <v>      -0.00023270       0.09284125      17.35859350 </v>
  </varray>
  <energy>
   <i name="e_fr_energy">   -126.13549079 </i>
   <i name="e_wo_entrp">   -126.13643596 </i>
   <i name="e_0_energy">      0.00283552 </i>
  </energy>
  <time name="totalsc">   97.49  108.60</time>
 </calculation>
 <calculation>
  <scstep>
   <time name="dav">   10.49   11.51</time>
   <time name="total">   12.34   13.69</time>
   <energy>
    <i name="alphaZ">    560.10759945 </i>
    <i name="ewald">  -5662.24152609 </i>
    <i name="hartreedc">  -2684.46952471 </i>
    <i name="XCdc">    373.70093815 </i>
    <i name="pawpsdc">   5801.67680741 </i>
    <i name="pawaedc">  -5790.22187890 </i>
    <i name="eentropy">      0.00283692 </i>
    <i name="bandstr">  -1267.82689106 </i>
    <i name="atom">   8543.13337417 </i>
    <i name="e_fr_energy">   -126.13826467 </i>
    <i name="e_wo_entrp">   -126.14110159 </i>
    <i name="e_0_energy">   -126.13921031 </i>
   </energy>
  </scstep>
  <scstep>
   <time name="diag">    1.82    1.98</time>
   <time name="diis">    6.45    7.66</time>
   <time name="orth">    0.17    0.17</time>
   <time name="total">   10.46   11.84</time>
   <energy>
    <i name="e_fr_energy">   -126.14551018 </i>
    <i name="e_wo_entrp">   -126.14831999 </i>
    <i name="e_0_energy">   -126.14644678 </i>
   </energy>
  </scstep>
  <scstep>
   <time name="diag">    2.35    2.36</time>
   <time name="diis">    6.58    6.59</time>
   <time name="orth">    0.17    0.17</time>
   <time name="total">   11.31   11.33</time>
   <energy>
    <i name="e_fr_energy">   -126.14356321 </i>
    <i name="e_wo_entrp">   -126.14637195 </i>
    <i name="e_0_energy">   -126.14449945 </i>
   </energy>
  </scstep>
  <scstep>
   <time name="diag">    1.82    1.82</time>
   <time name="diis">    5.68    5.69</time>
   <time name="orth">    0.17    0.17</time>
   <time name="total">    9.71    9.73</time>
   <energy>
    <i name="e_fr_energy">   -126.14072411 </i>
    <i name="e_wo_entrp">   -126.14353259 </i>
    <i name="e_0_energy">   -126.14166027 </i>
   </energy>
  </scstep>
  <scstep>
   <time name="diag">    1.97    2.57</time>
   <time name="diis">    4.65    5.23</time>
   <time name="orth">    0.17    0.17</time>
   <time name="total">    8.65    9.84</time>
   <energy>
    <i name="e_fr_energy">   -126.13869200 </i>
    <i name="e_wo_entrp">   -126.14150051 </i>
    <i name="e_0_energy">   -126.13962817 </i>
   </energy>
  </scstep>
  <scstep>
   <time name="diag">    1.82    1.82</time>
   <time name="diis">    4.21    4.21</time>
   <time name="orth">    0.17    0.17</time>
   <time name="total">    8.05    8.08</time>
   <energy>
    <i name="e_fr_energy">   -126.13688271 </i>
    <i name="e_wo_entrp">   -126.13969142 </i>
    <i name="e_0_energy">   -126.13781895 </i>
   </energy>
  </scstep>
  <scstep>
   <time name="diag">    1.81    1.83</time>
   <time name="diis">    3.26    3.29</time>
   <time name="orth">    0.19    0.20</time>
   <time name="total">    6.63    7.05</time>
   <energy>
    <i name="alphaZ">    560.10759945 </i>
    <i name="ewald">  -5662.24152609 </i>
    <i name="hartreedc">  -2687.36215481 </i>
    <i name="XCdc">    373.87431682 </i>
    <i name="pawpsdc">   5796.76029403 </i>
    <i name="pawaedc">  -5785.24477936 </i>
    <i name="eentropy">      0.00280867 </i>
    <i name="bandstr">  -1265.16677071 </i>
    <i name="atom">   8543.13337417 </i>
    <i name="e_fr_energy">   -126.13683784 </i>
    <i name="e_wo_entrp">   -126.13964651 </i>
    <i name="e_0_energy">   -126.13777406 </i>
   </energy>
  </scstep>
  <structure>
   <crystal>
    <varray name="basis" >
     <v>       3.86824104       0.00000000      -0.00000100 </v>
     <v>       0.00000398       3.92041376      -0.00028500 </v>
     <v>      -0.00000299      -0.00025343      13.04477100 </v>
    </varray>
    <i name="volume">    197.82532676 </i>
    <varray name="rec_basis" >
     <v>       0.25851543      -0.00000026       0.00000006 </v>
     <v>       0.00000000       0.25507512       0.00000496 </v>
     <v>       0.00000002       0.00000557       0.07665907 </v>
    </varray>
   </crystal>
   <varray name="positions" >
    <v>       0.01858984       0.95908404       0.14631163 </v>
    <v>       0.51859030       0.04091649       0.35369083 </v>
    <v>       0.51858840       0.04092766       0.64628747 </v>
    <v>       0.01859016       0.95906577       0.85371146 </v>
    <v>       0.51858547       0.99263512       0.18501417 </v>
    <v>       0.01858489       0.00738892       0.31498371 </v>
    <v>       0.01858335       0.00736201       0.68501784 </v>
    <v>       0.51858366       0.99262237       0.81498652 </v>
    <v>       0.01855937       0.48187667       0.85124234 </v>
    <v>       0.51855739       0.51811218       0.64875661 </v>
    <v>       0.51856006       0.51809161       0.35125850 </v>
    <v>       0.51852467       0.01307701       0.50002908 </v>
    <v>       0.01852823       0.98692167      -0.00002856 </v>
    <v>       0.01856521       0.48191648       0.14873540 </v>
   </varray>
  </structure>
  <varray name="forces" >
   <v>       0.00014263       0.01342251      -0.01333696 </v>
   <v>       0.00010965      -0.01344542       0.01114079 </v>
   <v>       0.00009547      -0.01342363       0.01941281 </v>
   <v>       0.00004226       0.01291565      -0.01721257 </v>
   <v>      -0.00041791       0.00027488      -0.00004549 </v>
   <v>      -0.00044296      -0.00059729       0.00081280 </v>
   <v>      -0.00049308      -0.00002340      -0.00472433 </v>
   <v>      -0.00042453      -0.00026559       0.00368164 </v>
   <v>       0.00124072       0.05885601      -0.02422917 </v>
   <v>       0.00081920      -0.05714510       0.02447202 </v>
   <v>       0.00084922      -0.05728153      -0.02500253 </v>
   <v>      -0.00118651       0.00419911      -0.02686455 </v>
   <v>      -0.00118109      -0.00455679       0.02667848 </v>
   <v>       0.00084694       0.05707058       0.02521705 </v>
  </varray>
  <varray name="stress" >
   <v>       0.30333918       0.00292202       0.00113415 </v>
   <v>       0.00292213      -4.31304265       0.09063895 </v>
   <v>       0.00113431       0.09063893      13.07706867 </v>
  </varray>
  <energy>
   <i name="e_fr_energy">   -126.13683784 </i>
   <i name="e_wo_entrp">   -126.13777406 </i>
   <i name="e_0_energy">      0.00280867 </i>
  </energy>
  <time name="totalsc">   86.65   91.74</time>
 </calculation>
 <calculation>
  <scstep>
   <time name="dav">   11.18   11.96</time>
   <time name="total">   13.02   14.13</time>
   <energy>
    <i name="alphaZ">    559.96866885 </i>
    <i name="ewald">  -5661.21883283 </i>
    <i name="hartreedc">  -2687.69203029 </i>
    <i name="XCdc">    373.84144707 </i>
    <i name="pawpsdc">   5796.78416031 </i>
    <i name="pawaedc">  -5785.26960169 </i>
    <i name="eentropy">      0.00280678 </i>
    <i name="bandstr">  -1265.68687746 </i>
    <i name="atom">   8543.13337417 </i>
    <i name="e_fr_energy">   -126.13688509 </i>
    <i name="e_wo_entrp">   -126.13969187 </i>
    <i name="e_0_energy">   -126.13782068 </i>
   </energy>
  </scstep>
  <scstep>
   <time name="diag">    1.86    1.86</time>
   <time name="diis">    5.72    5.72</time>
   <time name="orth">    0.17    0.17</time>
   <time name="total">    9.63    9.65</time>
   <energy>
    <i name="e_fr_energy">   -126.13771585 </i>
    <i name="e_wo_entrp">   -126.14052213 </i>
    <i name="e_0_energy">   -126.13865128 </i>
   </energy>
  </scstep>
  <scstep>
   <time name="diag">    1.82    1.82</time>
   <time name="diis">    4.26    4.26</time>
   <time name="orth">    0.17    0.17</time>
   <time name="total">    8.13    8.15</time>
   <energy>
    <i name="e_fr_energy">   -126.13761500 </i>
    <i name="e_wo_entrp">   -126.14042122 </i>
    <i name="e_0_energy">   -126.13855041 </i>
   </energy>
  </scstep>
  <scstep>
   <time name="diag">    1.82    1.82</time>
   <time name="diis">    3.70    3.70</time>
   <time name="orth">    0.17    0.17</time>
   <time name="total">    7.57    7.60</time>
   <energy>
    <i name="e_fr_energy">   -126.13722900 </i>
    <i name="e_wo_entrp">   -126.14003540 </i>
    <i name="e_0_energy">   -126.13816446 </i>
   </energy>
  </scstep>
  <scstep>
   <time name="diag">    1.82    1.82</time>
   <time name="diis">    2.98    2.98</time>
   <time name="orth">    0.17    0.17</time>
   <time name="total">    6.83    6.84</time>
   <energy>
    <i name="e_fr_energy">   -126.13694671 </i>
    <i name="e_wo_entrp">   -126.13975321 </i>
    <i name="e_0_energy">   -126.13788221 </i>
   </energy>
  </scstep>
  <scstep>
   <time name="diag">    1.82    1.82</time>
   <time name="diis">    2.88    2.88</time>
   <time name="orth">    0.17    0.17</time>
   <time name="total">    6.71    6.72</time>
   <energy>
    <i name="e_fr_energy">   -126.13671887 </i>
    <i name="e_wo_entrp">   -126.13952540 </i>
    <i name="e_0_energy">   -126.13765438 </i>
   </energy>
  </scstep>
  <scstep>
   <time name="diag">    1.82    1.82</time>
   <time name="diis">    2.72    2.72</time>
   <time name="orth">    0.17    0.17</time>
   <time name="total">    6.10    6.12</time>
   <energy>
    <i name="alphaZ">    559.96866885 </i>
    <i name="ewald">  -5661.21883283 </i>
    <i name="hartreedc">  -2688.05213701 </i>
    <i name="XCdc">    373.86308656 </i>
    <i name="pawpsdc">   5796.15210678 </i>
    <i name="pawaedc">  -5784.62998081 </i>
    <i name="eentropy">      0.00280653 </i>
    <i name="bandstr">  -1265.35579159 </i>
    <i name="atom">   8543.13337417 </i>
    <i name="e_fr_energy">   -126.13669934 </i>
    <i name="e_wo_entrp">   -126.13950588 </i>
    <i name="e_0_energy">   -126.13763485 </i>
   </energy>
  </scstep>
  <structure>
   <crystal>
    <varray name="basis" >
     <v>       3.86906986       0.00000000      -0.00000100 </v>
     <v>       0.00000398       3.92054640      -0.00028500 </v>
     <v>      -0.00000299      -0.00025343      13.04477100 </v>
    </varray>
    <i name="volume">    197.87440806 </i>
    <varray name="rec_basis" >
     <v>       0.25846005      -0.00000026       0.00000006 </v>
     <v>       0.00000000       0.25506649       0.00000496 </v>
     <v>       0.00000002       0.00000557       0.07665907 </v>
    </varray>
   </crystal>
   <varray name="positions" >
    <v>       0.01859428       0.95916922       0.14634157 </v>
    <v>       0.51859468       0.04083194       0.35366147 </v>
    <v>       0.51859243       0.04084252       0.64631681 </v>
    <v>       0.01859448       0.95915026       0.85368157 </v>
    <v>       0.51857902       0.99266344       0.18503552 </v>
    <v>       0.01857835       0.00736008       0.31496217 </v>
    <v>       0.01857709       0.00733330       0.68503962 </v>
    <v>       0.51857705       0.99265117       0.81496479 </v>
    <v>       0.01856016       0.48189305       0.85122762 </v>
    <v>       0.51855810       0.51809579       0.64877140 </v>
    <v>       0.51856108       0.51807304       0.35124327 </v>
    <v>       0.51852716       0.01306977       0.50002927 </v>
    <v>       0.01853091       0.98692927      -0.00002866 </v>
    <v>       0.01856622       0.48193515       0.14875058 </v>
   </varray>
  </structure>
  <varray name="forces" >
   <v>       0.00010862       0.01171956      -0.02359775 </v>
   <v>       0.00007301      -0.01148203       0.02100824 </v>
   <v>       0.00000810      -0.01117217       0.00947158 </v>
   <v>      -0.00001989       0.01092139      -0.00674810 </v>
   <v>      -0.00004147      -0.00003544      -0.00304361 </v>
   <v>      -0.00006107       0.00002335       0.00407746 </v>
   <v>      -0.00015098       0.00062367      -0.00792142 </v>
   <v>      -0.00004198      -0.00061479       0.00679268 </v>
   <v>       0.00061690       0.06074995      -0.02554261 </v>
   <v>       0.00062855      -0.06074022       0.02531194 </v>
   <v>       0.00065231      -0.06070878      -0.02581667 </v>
   <v>      -0.00121468       0.00451777      -0.02695521 </v>
   <v>      -0.00120716      -0.00460392       0.02678347 </v>
   <v>       0.00064974       0.06080167       0.02618001 </v>
  </varray>
  <varray name="stress" >
   <v>      -0.41025402       0.00004720       0.00046034 </v>
   <v>       0.00004743      -4.95518667       0.08710607 </v>
   <v>       0.00046031       0.08710586      12.47819110 </v>
  </varray>
  <energy>
   <i name="e_fr_energy">   -126.13669934 </i>
   <i name="e_wo_entrp">   -126.13763485 </i>
   <i name="e_0_energy">      0.00280653 </i>
  </energy>
  <time name="totalsc">   75.46   76.70</time>
 </calculation>
 <calculation>
  <scstep>
   <time name="dav">   10.40   10.41</time>
   <time name="total">   12.25   12.26</time>
   <energy>
    <i name="alphaZ">    560.48028759 </i>
    <i name="ewald">  -5659.61487840 </i>
    <i name="hartreedc">  -2692.02344362 </i>
    <i name="XCdc">    373.99785225 </i>
    <i name="pawpsdc">   5796.15400450 </i>
    <i name="pawaedc">  -5784.63188877 </i>
    <i name="eentropy">      0.00275680 </i>
    <i name="bandstr">  -1263.63672370 </i>
    <i name="atom">   8543.13337417 </i>
    <i name="e_fr_energy">   -126.13865919 </i>
    <i name="e_wo_entrp">   -126.14141599 </i>
    <i name="e_0_energy">   -126.13957812 </i>
   </energy>
  </scstep>
  <scstep>
   <time name="diag">    1.82    1.82</time>
   <time name="diis">    6.43    6.43</time>
   <time name="orth">    0.17    0.17</time>
   <time name="total">   10.30   10.52</time>
   <energy>
    <i name="e_fr_energy">   -126.13571917 </i>
    <i name="e_wo_entrp">   -126.13846044 </i>
    <i name="e_0_energy">   -126.13663293 </i>
   </energy>
  </scstep>
  <scstep>
   <time name="diag">    1.82    1.82</time>
   <time name="diis">    6.07    6.08</time>
   <time name="orth">    0.16    0.17</time>
   <time name="total">    9.90    9.91</time>
   <energy>
    <i name="e_fr_energy">   -126.13469692 </i>
    <i name="e_wo_entrp">   -126.13742987 </i>
    <i name="e_0_energy">   -126.13560790 </i>
   </energy>
  </scstep>
  <scstep>
   <time name="diag">    1.78    1.78</time>
   <time name="diis">    4.63    4.63</time>
   <time name="orth">    0.16    0.17</time>
   <time name="total">    8.37    8.39</time>
   <energy>
    <i name="e_fr_energy">   -126.13605279 </i>
    <i name="e_wo_entrp">   -126.13877261 </i>
    <i name="e_0_energy">   -126.13695939 </i>
   </energy>
  </scstep>
  <scstep>
   <time name="diag">    1.78    1.78</time>
   <time name="diis">    4.24    4.25</time>
   <time name="orth">    0.16    0.17</time>
   <time name="total">    7.99    8.01</time>
   <energy>
    <i name="e_fr_energy">   -126.13689713 </i>
    <i name="e_wo_entrp">   -126.13961697 </i>
    <i name="e_0_energy">   -126.13780374 </i>
   </energy>
  </scstep>
  <scstep>
   <time name="diag">    1.78    1.78</time>
   <time name="diis">    3.60    3.60</time>
   <time name="orth">    0.16    0.17</time>
   <time name="total">    7.35    7.36</time>
   <energy>
    <i name="e_fr_energy">   -126.13757095 </i>
    <i name="e_wo_entrp">   -126.14029058 </i>
    <i name="e_0_energy">   -126.13847749 </i>
   </energy>
  </scstep>
  <scstep>
   <time name="diag">    1.78    1.78</time>
   <time name="diis">    3.50    3.51</time>
   <time name="orth">    0.17    0.17</time>
   <time name="total">    7.26    7.28</time>
   <energy>
    <i name="e_fr_energy">   -126.13792224 </i>
    <i name="e_wo_entrp">   -126.14064112 </i>
    <i name="e_0_energy">   -126.13882853 </i>
   </energy>
  </scstep>
  <scstep>
   <time name="diag">    1.77    1.78</time>
   <time name="diis">    3.04    3.04</time>
   <time name="orth">    0.16    0.16</time>
   <time name="total">    6.31    6.33</time>
   <energy>
    <i name="alphaZ">    560.48028759 </i>
    <i name="ewald">  -5659.61487840 </i>
    <i name="hartreedc">  -2690.84958255 </i>
    <i name="XCdc">    373.92950699 </i>
    <i name="pawpsdc">   5798.92883478 </i>
    <i name="pawaedc">  -5787.45182222 </i>
    <i name="eentropy">      0.00271836 </i>
    <i name="bandstr">  -1264.69632480 </i>
    <i name="atom">   8543.13337417 </i>
    <i name="e_fr_energy">   -126.13788608 </i>
    <i name="e_wo_entrp">   -126.14060444 </i>
    <i name="e_0_energy">   -126.13879220 </i>
   </energy>
  </scstep>
  <structure>
   <crystal>
    <varray name="basis" >
     <v>       3.87211530       0.00000000      -0.00000100 </v>
     <v>       0.00000399       3.91388692      -0.00028500 </v>
     <v>      -0.00000299      -0.00025300      13.04477100 </v>
    </varray>
    <i name="volume">    197.69378394 </i>
    <varray name="rec_basis" >
     <v>       0.25825677      -0.00000026       0.00000006 </v>
     <v>       0.00000000       0.25550048       0.00000496 </v>
     <v>       0.00000002       0.00000558       0.07665907 </v>
    </varray>
   </crystal>
   <varray name="positions" >
    <v>       0.01861490       0.95966857       0.14639630 </v>
    <v>       0.51861465       0.04033788       0.35360093 </v>
    <v>       0.51861015       0.04034923       0.64647599 </v>
    <v>       0.01861318       0.95963798       0.85352883 </v>
    <v>       0.51855033       0.99278711       0.18511915 </v>
    <v>       0.01854903       0.00723400       0.31488101 </v>
    <v>       0.01854802       0.00721428       0.68510938 </v>
    <v>       0.51854768       0.99277068       0.81489160 </v>
    <v>       0.01857035       0.48261942       0.85108044 </v>
    <v>       0.51856804       0.51736949       0.64891810 </v>
    <v>       0.51857267       0.51733750       0.35109294 </v>
    <v>       0.51852482       0.01308674       0.49994282 </v>
    <v>       0.01852946       0.98691296       0.00005765 </v>
    <v>       0.01857773       0.48267215       0.14890187 </v>
   </varray>
  </structure>
  <varray name="forces" >
   <v>      -0.00195395       0.07301453      -0.00037870 </v>
   <v>      -0.00198258      -0.07283971       0.00285631 </v>
   <v>      -0.00182308      -0.07094769      -0.07713482 </v>
   <v>      -0.00196165       0.07072957       0.07471614 </v>
   <v>       0.00632235       0.00553986      -0.02854276 </v>
   <v>       0.00633564      -0.00557576       0.02783426 </v>
   <v>       0.00610934      -0.00648950      -0.01895672 </v>
   <v>       0.00627902       0.00639280       0.01967979 </v>
   <v>      -0.00384716      -0.01431726      -0.02610511 </v>
   <v>      -0.00382272       0.01417234       0.02632699 </v>
   <v>      -0.00382998       0.01925039      -0.02443715 </v>
   <v>      -0.00100897      -0.00943756       0.06066394 </v>
   <v>      -0.00099177       0.00960006      -0.06082418 </v>
   <v>      -0.00382449      -0.01909204       0.02430199 </v>
  </varray>
  <varray name="stress" >
   <v>      -1.87340569      -0.00059534       0.00037741 </v>
   <v>      -0.00059528       7.76608244      -0.04312882 </v>
   <v>       0.00037725      -0.04312899      11.84127974 </v>
  </varray>
  <energy>
   <i name="e_fr_energy">   -126.13788608 </i>
   <i name="e_wo_entrp">   -126.13879220 </i>
   <i name="e_0_energy">      0.00271836 </i>
  </energy>
  <time name="totalsc">   86.64   86.99</time>
 </calculation>
 <calculation>
  <scstep>
   <time name="dav">   10.49   10.49</time>
   <time name="total">   12.30   12.32</time>
   <energy>
    <i name="alphaZ">    560.37782611 </i>
    <i name="ewald">  -5659.93960223 </i>
    <i name="hartreedc">  -2690.05025502 </i>
    <i name="XCdc">    373.90242040 </i>
    <i name="pawpsdc">   5798.92453984 </i>
    <i name="pawaedc">  -5787.44741835 </i>
    <i name="eentropy">      0.00273241 </i>
    <i name="bandstr">  -1265.04186245 </i>
    <i name="atom">   8543.13337417 </i>
    <i name="e_fr_energy">   -126.13824511 </i>
    <i name="e_wo_entrp">   -126.14097752 </i>
    <i name="e_0_energy">   -126.13915591 </i>
   </energy>
  </scstep>
  <scstep>
   <time name="diag">    1.77    1.77</time>
   <time name="diis">    6.03    6.04</time>
   <time name="orth">    0.16    0.16</time>
   <time name="total">    9.77    9.78</time>
   <energy>
    <i name="e_fr_energy">   -126.13868329 </i>
    <i name="e_wo_entrp">   -126.14142478 </i>
    <i name="e_0_energy">   -126.13959712 </i>
   </energy>
  </scstep>
  <scstep>
   <time name="diag">    1.77    1.77</time>
   <time name="diis">    4.14    4.14</time>
   <time name="orth">    0.16    0.16</time>
   <time name="total">    7.39    7.41</time>
   <energy>
    <i name="alphaZ">    560.37782611 </i>
    <i name="ewald">  -5659.93960223 </i>
    <i name="hartreedc">  -2690.27326372 </i>
    <i name="XCdc">    373.91558399 </i>
    <i name="pawpsdc">   5798.68022103 </i>
    <i name="pawaedc">  -5787.19655460 </i>
    <i name="eentropy">      0.00274428 </i>
    <i name="bandstr">  -1264.83898080 </i>
    <i name="atom">   8543.13337417 </i>
    <i name="e_fr_energy">   -126.13865176 </i>
    <i name="e_wo_entrp">   -126.14139604 </i>
    <i name="e_0_energy">   -126.13956652 </i>
   </energy>
  </scstep>
  <structure>
   <crystal>
    <varray name="basis" >
     <v>       3.87150655       0.00000000      -0.00000100 </v>
     <v>       0.00000399       3.91521808      -0.00028500 </v>
     <v>      -0.00000299      -0.00025309      13.04477100 </v>
    </varray>
    <i name="volume">    197.72993098 </i>
    <varray name="rec_basis" >
     <v>       0.25829738      -0.00000026       0.00000006 </v>
     <v>       0.00000000       0.25541361       0.00000496 </v>
     <v>       0.00000002       0.00000558       0.07665907 </v>
    </varray>
   </crystal>
   <varray name="positions" >
    <v>       0.01861078       0.95956859       0.14638536 </v>
    <v>       0.51861066       0.04043681       0.35361303 </v>
    <v>       0.51860661       0.04044800       0.64644417 </v>
    <v>       0.01860945       0.95954032       0.85355936 </v>
    <v>       0.51855606       0.99276235       0.18510243 </v>
    <v>       0.01855488       0.00725924       0.31489723 </v>
    <v>       0.01855382       0.00723811       0.68509544 </v>
    <v>       0.51855355       0.99274675       0.81490623 </v>
    <v>       0.01856831       0.48247398       0.85110986 </v>
    <v>       0.51856605       0.51751492       0.64888878 </v>
    <v>       0.51857035       0.51748478       0.35112299 </v>
    <v>       0.51852528       0.01308335       0.49996010 </v>
    <v>       0.01852975       0.98691622       0.00004039 </v>
    <v>       0.01857543       0.48252458       0.14887163 </v>
   </varray>
  </structure>
  <varray name="forces" >
   <v>      -0.00164969       0.06224160      -0.00331736 </v>
   <v>      -0.00168215      -0.06202597       0.00479943 </v>
   <v>      -0.00160119      -0.06039488      -0.05876759 </v>
   <v>      -0.00170020       0.06006667       0.05748398 </v>
   <v>       0.00514598       0.00318440      -0.02526283 </v>
   <v>       0.00515456      -0.00319857       0.02470619 </v>
   <v>       0.00495916      -0.00376819      -0.01831411 </v>
   <v>       0.00511841       0.00370912       0.01881378 </v>
   <v>      -0.00273312       0.00032256      -0.02630088 </v>
   <v>      -0.00271195      -0.00042246       0.02657391 </v>
   <v>      -0.00270406       0.00332633      -0.02416634 </v>
   <v>      -0.00145534      -0.00694008       0.04489179 </v>
   <v>      -0.00144063       0.00707255      -0.04507489 </v>
   <v>      -0.00269976      -0.00317307       0.02393493 </v>
  </varray>
  <varray name="stress" >
   <v>      -2.28248735      -0.00049218       0.00001667 </v>
   <v>      -0.00049213       6.37423996      -0.02480987 </v>
   <v>       0.00001678      -0.02480995      11.86319908 </v>
  </varray>
  <energy>
   <i name="e_fr_energy">   -126.13865176 </i>
   <i name="e_wo_entrp">   -126.13956652 </i>
   <i name="e_0_energy">      0.00274428 </i>
  </energy>
  <time name="totalsc">   46.44   46.51</time>
 </calculation>
 <calculation>
  <scstep>
   <time name="dav">   10.17   10.18</time>
   <time name="total">   11.98   12.00</time>
   <energy>
    <i name="alphaZ">    559.64340222 </i>
    <i name="ewald">  -5658.91236343 </i>
    <i name="hartreedc">  -2687.78437144 </i>
    <i name="XCdc">    373.73181603 </i>
    <i name="pawpsdc">   5798.47037889 </i>
    <i name="pawaedc">  -5786.98353339 </i>
    <i name="eentropy">      0.00284292 </i>
    <i name="bandstr">  -1267.44216104 </i>
    <i name="atom">   8543.13337417 </i>
    <i name="e_fr_energy">   -126.14061507 </i>
    <i name="e_wo_entrp">   -126.14345799 </i>
    <i name="e_0_energy">   -126.14156271 </i>
   </energy>
  </scstep>
  <scstep>
   <time name="diag">    1.77    1.78</time>
   <time name="diis">    6.41    6.42</time>
   <time name="orth">    0.16    0.17</time>
   <time name="total">   10.16   10.18</time>
   <energy>
    <i name="e_fr_energy">   -126.14290512 </i>
    <i name="e_wo_entrp">   -126.14574059 </i>
    <i name="e_0_energy">   -126.14385028 </i>
   </energy>
  </scstep>
  <scstep>
   <time name="diag">    1.78    1.78</time>
   <time name="diis">    5.98    5.98</time>
   <time name="orth">    0.16    0.17</time>
   <time name="total">    9.73    9.75</time>
   <energy>
    <i name="e_fr_energy">   -126.14144775 </i>
    <i name="e_wo_entrp">   -126.14424795 </i>
    <i name="e_0_energy">   -126.14238115 </i>
   </energy>
  </scstep>
  <scstep>
   <time name="diag">    1.77    1.77</time>
   <time name="diis">    5.29    5.30</time>
   <time name="orth">    0.16    0.17</time>
   <time name="total">    9.03    9.04</time>
   <energy>
    <i name="e_fr_energy">   -126.13893559 </i>
    <i name="e_wo_entrp">   -126.14171237 </i>
    <i name="e_0_energy">   -126.13986118 </i>
   </energy>
  </scstep>
  <scstep>
   <time name="diag">    1.78    1.78</time>
   <time name="diis">    4.21    4.21</time>
   <time name="orth">    0.16    0.17</time>
   <time name="total">    7.95    7.96</time>
   <energy>
    <i name="e_fr_energy">   -126.13761132 </i>
    <i name="e_wo_entrp">   -126.14038405 </i>
    <i name="e_0_energy">   -126.13853556 </i>
   </energy>
  </scstep>
  <scstep>
   <time name="diag">    1.78    1.78</time>
   <time name="diis">    3.85    3.85</time>
   <time name="orth">    0.16    0.16</time>
   <time name="total">    7.59    7.61</time>
   <energy>
    <i name="e_fr_energy">   -126.13656024 </i>
    <i name="e_wo_entrp">   -126.13933325 </i>
    <i name="e_0_energy">   -126.13748458 </i>
   </energy>
  </scstep>
  <scstep>
   <time name="diag">    1.78    1.78</time>
   <time name="diis">    3.39    3.39</time>
[...]
       <r>     2.5446    -0.0000    52.0000 </r>
       <r>     2.7140    -0.0000    52.0000 </r>
       <r>     2.8833    -0.0000    52.0000 </r>
       <r>     3.0526    -0.0007    51.9999 </r>
       <r>     3.2219    -0.0547    51.9906 </r>
       <r>     3.3913     1.9333    52.3180 </r>
       <r>     3.5606     1.9778    52.6529 </r>
       <r>     3.7299     3.0800    53.1744 </r>
       <r>     3.8993     6.9929    54.3585 </r>
       <r>     4.0686     0.4646    54.4372 </r>
       <r>     4.2379     1.7529    54.7340 </r>
       <r>     4.4072     2.1368    55.0958 </r>
       <r>     4.5766     1.8258    55.4050 </r>
       <r>     4.7459     4.5200    56.1704 </r>
       <r>     4.9152     2.7307    56.6328 </r>
       <r>     5.0846     3.6007    57.2425 </r>
       <r>     5.2539     5.6692    58.2024 </r>
       <r>     5.4232     5.2717    59.0951 </r>
       <r>     5.5925     3.0593    59.6131 </r>
       <r>     5.7619     3.3211    60.1755 </r>
       <r>     5.9312     6.7383    61.3164 </r>
       <r>     6.1005     5.0543    62.1723 </r>
       <r>     6.2699     4.0769    62.8626 </r>
       <r>     6.4392     1.7452    63.1581 </r>
       <r>     6.6085     0.9675    63.3219 </r>
       <r>     6.7779     3.8077    63.9667 </r>
       <r>     6.9472     2.8070    64.4420 </r>
       <r>     7.1165     1.4666    64.6903 </r>
       <r>     7.2858     2.8961    65.1807 </r>
       <r>     7.4552     1.4454    65.4255 </r>
       <r>     7.6245     1.0124    65.5969 </r>
       <r>     7.7938     3.1837    66.1360 </r>
       <r>     7.9632     4.0268    66.8179 </r>
       <r>     8.1325     0.4168    66.8884 </r>
       <r>     8.3018     0.5145    66.9756 </r>
       <r>     8.4711     3.4395    67.5580 </r>
       <r>     8.6405     2.1267    67.9181 </r>
       <r>     8.8098     2.9032    68.4097 </r>
       <r>     8.9791     3.4151    68.9879 </r>
       <r>     9.1485     4.6962    69.7831 </r>
       <r>     9.3178     3.3687    70.3536 </r>
       <r>     9.4871     2.5044    70.7776 </r>
       <r>     9.6564     2.9650    71.2797 </r>
       <r>     9.8258     2.2298    71.6573 </r>
       <r>     9.9951     1.9502    71.9875 </r>
       <r>    10.1644     0.9195    72.1432 </r>
       <r>    10.3338     2.4205    72.5531 </r>
       <r>    10.5031     1.2516    72.7650 </r>
       <r>    10.6724     1.2392    72.9748 </r>
       <r>    10.8417     4.2867    73.7007 </r>
       <r>    11.0111     1.8242    74.0096 </r>
       <r>    11.1804     2.5097    74.4345 </r>
       <r>    11.3497     2.0025    74.7736 </r>
       <r>    11.5191     2.6378    75.2203 </r>
       <r>    11.6884     2.3889    75.6248 </r>
       <r>    11.8577     3.2854    76.1811 </r>
       <r>    12.0270    19.8698    79.5456 </r>
       <r>    12.1964     1.2943    79.7648 </r>
       <r>    12.3657     0.8138    79.9026 </r>
       <r>    12.5350     0.5962    80.0035 </r>
       <r>    12.7044    -0.0207    80.0000 </r>
       <r>    12.8737    -0.0002    80.0000 </r>
       <r>    13.0430    -0.0000    80.0000 </r>
       <r>    13.2123     0.0000    80.0000 </r>
       <r>    13.3817     0.0000    80.0000 </r>
       <r>    13.5510     0.0000    80.0000 </r>
       <r>    13.7203     0.0000    80.0000 </r>
       <r>    13.8897     0.0000    80.0000 </r>
       <r>    14.0590     0.0000    80.0000 </r>
       <r>    14.2283     0.0000    80.0000 </r>
       <r>    14.3976     0.0000    80.0000 </r>
       <r>    14.5670     0.0000    80.0000 </r>
       <r>    14.7363     0.0000    80.0000 </r>
      </set>
      <set comment="spin 2">
       <r>   -36.0623     0.0000     0.0000 </r>
       <r>   -35.8930     0.0000     0.0000 </r>
       <r>   -35.7237     0.0000     0.0000 </r>
       <r>   -35.5544     0.0000     0.0000 </r>
       <r>   -35.3850     0.0000     0.0000 </r>
       <r>   -35.2157     0.0000     0.0000 </r>
       <r>   -35.0464     0.0000     0.0000 </r>
       <r>   -34.8770     0.0000     0.0000 </r>
       <r>   -34.7077    -0.0000    -0.0000 </r>
       <r>   -34.5384    -0.0000    -0.0000 </r>
       <r>   -34.3691    -0.0000    -0.0000 </r>
       <r>   -34.1997    -0.0000    -0.0000 </r>
       <r>   -34.0304    -0.0021    -0.0004 </r>
       <r>   -33.8611    -0.5042    -0.0857 </r>
       <r>   -33.6917    12.7740     2.0773 </r>
       <r>   -33.5224    29.8384     7.1298 </r>
       <r>   -33.3531    27.7515    11.8289 </r>
       <r>   -33.1838     1.0661    12.0094 </r>
       <r>   -33.0144    -0.0556    12.0000 </r>
       <r>   -32.8451    -0.0000    12.0000 </r>
       <r>   -32.6758    -0.0000    12.0000 </r>
       <r>   -32.5064     0.0000    12.0000 </r>
       <r>   -32.3371     0.0000    12.0000 </r>
       <r>   -32.1678     0.0000    12.0000 </r>
       <r>   -31.9985     0.0000    12.0000 </r>
       <r>   -31.8291     0.0000    12.0000 </r>
       <r>   -31.6598     0.0000    12.0000 </r>
       <r>   -31.4905     0.0000    12.0000 </r>
       <r>   -31.3211     0.0000    12.0000 </r>
       <r>   -31.1518     0.0000    12.0000 </r>
       <r>   -30.9825     0.0000    12.0000 </r>
       <r>   -30.8132     0.0000    12.0000 </r>
       <r>   -30.6438     0.0000    12.0000 </r>
       <r>   -30.4745     0.0000    12.0000 </r>
       <r>   -30.3052     0.0000    12.0000 </r>
       <r>   -30.1358     0.0000    12.0000 </r>
       <r>   -29.9665     0.0000    12.0000 </r>
       <r>   -29.7972     0.0000    12.0000 </r>
       <r>   -29.6279     0.0000    12.0000 </r>
       <r>   -29.4585     0.0000    12.0000 </r>
       <r>   -29.2892     0.0000    12.0000 </r>
       <r>   -29.1199     0.0000    12.0000 </r>
       <r>   -28.9505     0.0000    12.0000 </r>
       <r>   -28.7812     0.0000    12.0000 </r>
       <r>   -28.6119     0.0000    12.0000 </r>
       <r>   -28.4425     0.0000    12.0000 </r>
       <r>   -28.2732     0.0000    12.0000 </r>
       <r>   -28.1039     0.0000    12.0000 </r>
       <r>   -27.9346     0.0000    12.0000 </r>
       <r>   -27.7652     0.0000    12.0000 </r>
       <r>   -27.5959     0.0000    12.0000 </r>
       <r>   -27.4266     0.0000    12.0000 </r>
       <r>   -27.2572     0.0000    12.0000 </r>
       <r>   -27.0879     0.0000    12.0000 </r>
       <r>   -26.9186     0.0000    12.0000 </r>
       <r>   -26.7493     0.0000    12.0000 </r>
       <r>   -26.5799     0.0000    12.0000 </r>
       <r>   -26.4106     0.0000    12.0000 </r>
       <r>   -26.2413     0.0000    12.0000 </r>
       <r>   -26.0719     0.0000    12.0000 </r>
       <r>   -25.9026     0.0000    12.0000 </r>
       <r>   -25.7333     0.0000    12.0000 </r>
       <r>   -25.5640     0.0000    12.0000 </r>
       <r>   -25.3946     0.0000    12.0000 </r>
       <r>   -25.2253     0.0000    12.0000 </r>
       <r>   -25.0560     0.0000    12.0000 </r>
       <r>   -24.8866     0.0000    12.0000 </r>
       <r>   -24.7173     0.0000    12.0000 </r>
       <r>   -24.5480     0.0000    12.0000 </r>
       <r>   -24.3787     0.0000    12.0000 </r>
       <r>   -24.2093     0.0000    12.0000 </r>
       <r>   -24.0400     0.0000    12.0000 </r>
       <r>   -23.8707     0.0000    12.0000 </r>
       <r>   -23.7013     0.0000    12.0000 </r>
       <r>   -23.5320     0.0000    12.0000 </r>
       <r>   -23.3627     0.0000    12.0000 </r>
       <r>   -23.1934     0.0000    12.0000 </r>
       <r>   -23.0240     0.0000    12.0000 </r>
       <r>   -22.8547     0.0000    12.0000 </r>
       <r>   -22.6854     0.0000    12.0000 </r>
       <r>   -22.5160     0.0000    12.0000 </r>
       <r>   -22.3467     0.0000    12.0000 </r>
       <r>   -22.1774     0.0000    12.0000 </r>
       <r>   -22.0081     0.0000    12.0000 </r>
       <r>   -21.8387     0.0000    12.0000 </r>
       <r>   -21.6694     0.0000    12.0000 </r>
       <r>   -21.5001     0.0000    12.0000 </r>
       <r>   -21.3307     0.0000    12.0000 </r>
       <r>   -21.1614     0.0000    12.0000 </r>
       <r>   -20.9921     0.0000    12.0000 </r>
       <r>   -20.8228     0.0000    12.0000 </r>
       <r>   -20.6534     0.0000    12.0000 </r>
       <r>   -20.4841     0.0000    12.0000 </r>
       <r>   -20.3148     0.0000    12.0000 </r>
       <r>   -20.1454     0.0000    12.0000 </r>
       <r>   -19.9761     0.0000    12.0000 </r>
       <r>   -19.8068     0.0000    12.0000 </r>
       <r>   -19.6374     0.0000    12.0000 </r>
       <r>   -19.4681     0.0000    12.0000 </r>
       <r>   -19.2988     0.0000    12.0000 </r>
       <r>   -19.1295     0.0000    12.0000 </r>
       <r>   -18.9601     0.0000    12.0000 </r>
       <r>   -18.7908     0.0000    12.0000 </r>
       <r>   -18.6215     0.0000    12.0000 </r>
       <r>   -18.4521     0.0000    12.0000 </r>
       <r>   -18.2828     0.0000    12.0000 </r>
       <r>   -18.1135    -0.0000    12.0000 </r>
       <r>   -17.9442    -0.0000    12.0000 </r>
       <r>   -17.7748    -0.0000    12.0000 </r>
       <r>   -17.6055    -0.0000    12.0000 </r>
       <r>   -17.4362    -0.0233    11.9961 </r>
       <r>   -17.2668     0.5479    12.0888 </r>
       <r>   -17.0975     2.5332    12.5178 </r>
       <r>   -16.9282     1.2294    12.7259 </r>
       <r>   -16.7589     2.0356    13.0706 </r>
       <r>   -16.5895     1.6925    13.3572 </r>
       <r>   -16.4202     5.2394    14.2444 </r>
       <r>   -16.2509     3.7728    14.8832 </r>
       <r>   -16.0815     4.1641    15.5883 </r>
       <r>   -15.9122     5.9441    16.5949 </r>
       <r>   -15.7429     7.0877    17.7950 </r>
       <r>   -15.5736     9.1945    19.3519 </r>
       <r>   -15.4042    -0.1979    19.3184 </r>
       <r>   -15.2349     2.5257    19.7461 </r>
       <r>   -15.0656     5.6187    20.6975 </r>
       <r>   -14.8962    -0.1854    20.6661 </r>
       <r>   -14.7269     0.0030    20.6666 </r>
       <r>   -14.5576     5.1636    21.5409 </r>
       <r>   -14.3883     2.8224    22.0189 </r>
       <r>   -14.2189    -0.1112    22.0000 </r>
       <r>   -14.0496    -0.0001    22.0000 </r>
       <r>   -13.8803    -0.0000    22.0000 </r>
       <r>   -13.7109     0.0000    22.0000 </r>
       <r>   -13.5416     0.0000    22.0000 </r>
       <r>   -13.3723     0.0000    22.0000 </r>
       <r>   -13.2030     0.0000    22.0000 </r>
       <r>   -13.0336     0.0000    22.0000 </r>
       <r>   -12.8643     0.0000    22.0000 </r>
       <r>   -12.6950     0.0000    22.0000 </r>
       <r>   -12.5256     0.0000    22.0000 </r>
       <r>   -12.3563     0.0000    22.0000 </r>
       <r>   -12.1870     0.0000    22.0000 </r>
       <r>   -12.0177     0.0000    22.0000 </r>
       <r>   -11.8483     0.0000    22.0000 </r>
       <r>   -11.6790     0.0000    22.0000 </r>
       <r>   -11.5097     0.0000    22.0000 </r>
       <r>   -11.3403     0.0000    22.0000 </r>
       <r>   -11.1710     0.0000    22.0000 </r>
       <r>   -11.0017     0.0000    22.0000 </r>
       <r>   -10.8323     0.0000    22.0000 </r>
       <r>   -10.6630     0.0000    22.0000 </r>
       <r>   -10.4937     0.0000    22.0000 </r>
       <r>   -10.3244     0.0000    22.0000 </r>
       <r>   -10.1550     0.0000    22.0000 </r>
       <r>    -9.9857     0.0000    22.0000 </r>
       <r>    -9.8164     0.0000    22.0000 </r>
       <r>    -9.6470     0.0000    22.0000 </r>
       <r>    -9.4777     0.0000    22.0000 </r>
       <r>    -9.3084     0.0000    22.0000 </r>
       <r>    -9.1391     0.0000    22.0000 </r>
       <r>    -8.9697     0.0000    22.0000 </r>
       <r>    -8.8004     0.0000    22.0000 </r>
       <r>    -8.6311     0.0000    22.0000 </r>
       <r>    -8.4617     0.0000    22.0000 </r>
       <r>    -8.2924     0.0000    22.0000 </r>
       <r>    -8.1231     0.0000    22.0000 </r>
       <r>    -7.9538     0.0000    22.0000 </r>
       <r>    -7.7844     0.0000    22.0000 </r>
       <r>    -7.6151     0.0000    22.0000 </r>
       <r>    -7.4458     0.0000    22.0000 </r>
       <r>    -7.2764     0.0000    22.0000 </r>
       <r>    -7.1071     0.0000    22.0000 </r>
       <r>    -6.9378     0.0000    22.0000 </r>
       <r>    -6.7685     0.0000    22.0000 </r>
       <r>    -6.5991     0.0000    22.0000 </r>
       <r>    -6.4298     0.0000    22.0000 </r>
       <r>    -6.2605    -0.0000    22.0000 </r>
       <r>    -6.0911    -0.0000    22.0000 </r>
       <r>    -5.9218    -0.0000    22.0000 </r>
       <r>    -5.7525    -0.0000    22.0000 </r>
       <r>    -5.5832    -0.0517    21.9912 </r>
       <r>    -5.4138     1.3269    22.2159 </r>
       <r>    -5.2445     6.2539    23.2749 </r>
       <r>    -5.0752     2.2129    23.6496 </r>
       <r>    -4.9058     0.9249    23.8062 </r>
       <r>    -4.7365     3.3865    24.3796 </r>
       <r>    -4.5672     8.4233    25.8060 </r>
       <r>    -4.3979     9.4855    27.4121 </r>
       <r>    -4.2285     3.6058    28.0227 </r>
       <r>    -4.0592     0.7888    28.1563 </r>
       <r>    -3.8899     3.4531    28.7410 </r>
       <r>    -3.7205     4.3509    29.4777 </r>
       <r>    -3.5512     4.3423    30.2130 </r>
       <r>    -3.3819     4.7458    31.0166 </r>
       <r>    -3.2126     2.1672    31.3836 </r>
       <r>    -3.0432     5.3391    32.2876 </r>
       <r>    -2.8739     7.0513    33.4816 </r>
       <r>    -2.7046     8.1897    34.8684 </r>
       <r>    -2.5352     5.0901    35.7303 </r>
       <r>    -2.3659     6.2126    36.7822 </r>
       <r>    -2.1966     5.9813    37.7951 </r>
       <r>    -2.0272     6.9853    38.9779 </r>
       <r>    -1.8579     4.8343    39.7965 </r>
       <r>    -1.6886     4.8873    40.6240 </r>
       <r>    -1.5193     5.8781    41.6194 </r>
       <r>    -1.3499     5.3359    42.5229 </r>
       <r>    -1.1806     4.6841    43.3160 </r>
       <r>    -1.0113     3.7380    43.9490 </r>
       <r>    -0.8419     6.9040    45.1180 </r>
       <r>    -0.6726     6.4028    46.2022 </r>
       <r>    -0.5033     5.4210    47.1201 </r>
       <r>    -0.3340     4.8078    47.9343 </r>
       <r>    -0.1646     7.5027    49.2047 </r>
       <r>     0.0047     6.7340    50.3449 </r>
       <r>     0.1740     4.5806    51.1206 </r>
       <r>     0.3434     2.3819    51.5239 </r>
       <r>     0.5127     2.6860    51.9787 </r>
       <r>     0.6820     0.1320    52.0011 </r>
       <r>     0.8513    -0.0062    52.0000 </r>
       <r>     1.0207    -0.0000    52.0000 </r>
       <r>     1.1900    -0.0000    52.0000 </r>
       <r>     1.3593     0.0000    52.0000 </r>
       <r>     1.5287     0.0000    52.0000 </r>
       <r>     1.6980     0.0000    52.0000 </r>
       <r>     1.8673     0.0000    52.0000 </r>
       <r>     2.0366     0.0000    52.0000 </r>
       <r>     2.2060     0.0000    52.0000 </r>
       <r>     2.3753    -0.0000    52.0000 </r>
       <r>     2.5446    -0.0000    52.0000 </r>
       <r>     2.7140    -0.0000    52.0000 </r>
       <r>     2.8833    -0.0000    52.0000 </r>
       <r>     3.0526    -0.0007    51.9999 </r>
       <r>     3.2219    -0.0547    51.9906 </r>
       <r>     3.3913     1.9333    52.3180 </r>
       <r>     3.5606     1.9778    52.6529 </r>
       <r>     3.7299     3.0800    53.1744 </r>
       <r>     3.8993     6.9929    54.3585 </r>
       <r>     4.0686     0.4646    54.4372 </r>
       <r>     4.2379     1.7529    54.7340 </r>
       <r>     4.4072     2.1368    55.0958 </r>
       <r>     4.5766     1.8258    55.4050 </r>
       <r>     4.7459     4.5200    56.1704 </r>
       <r>     4.9152     2.7307    56.6328 </r>
       <r>     5.0846     3.6007    57.2425 </r>
       <r>     5.2539     5.6692    58.2024 </r>
       <r>     5.4232     5.2717    59.0951 </r>
       <r>     5.5925     3.0593    59.6131 </r>
       <r>     5.7619     3.3210    60.1755 </r>
       <r>     5.9312     6.7383    61.3164 </r>
       <r>     6.1005     5.0543    62.1723 </r>
       <r>     6.2699     4.0769    62.8626 </r>
       <r>     6.4392     1.7452    63.1581 </r>
       <r>     6.6085     0.9675    63.3219 </r>
       <r>     6.7779     3.8077    63.9667 </r>
       <r>     6.9472     2.8070    64.4420 </r>
       <r>     7.1165     1.4666    64.6903 </r>
       <r>     7.2858     2.8961    65.1807 </r>
       <r>     7.4552     1.4454    65.4255 </r>
       <r>     7.6245     1.0124    65.5969 </r>
       <r>     7.7938     3.1837    66.1360 </r>
       <r>     7.9632     4.0268    66.8179 </r>
       <r>     8.1325     0.4168    66.8884 </r>
       <r>     8.3018     0.5145    66.9756 </r>
       <r>     8.4711     3.4395    67.5580 </r>
       <r>     8.6405     2.1267    67.9181 </r>
       <r>     8.8098     2.9032    68.4097 </r>
       <r>     8.9791     3.4151    68.9879 </r>
       <r>     9.1485     4.6962    69.7831 </r>
       <r>     9.3178     3.3687    70.3536 </r>
       <r>     9.4871     2.5045    70.7776 </r>
       <r>     9.6564     2.9650    71.2797 </r>
       <r>     9.8258     2.2298    71.6573 </r>
       <r>     9.9951     1.9502    71.9875 </r>
       <r>    10.1644     0.9195    72.1432 </r>
       <r>    10.3338     2.4205    72.5531 </r>
       <r>    10.5031     1.2516    72.7650 </r>
       <r>    10.6724     1.2392    72.9748 </r>
       <r>    10.8417     4.2867    73.7007 </r>
       <r>    11.0111     1.8242    74.0096 </r>
       <r>    11.1804     2.5097    74.4345 </r>
       <r>    11.3497     2.0025    74.7736 </r>
       <r>    11.5191     2.6378    75.2203 </r>
       <r>    11.6884     2.3889    75.6248 </r>
       <r>    11.8577     3.2783    76.1799 </r>
       <r>    12.0270    19.8660    79.5438 </r>
       <r>    12.1964     1.3053    79.7648 </r>
       <r>    12.3657     0.8144    79.9027 </r>
       <r>    12.5350     0.5955    80.0036 </r>
       <r>    12.7044    -0.0208    80.0000 </r>
       <r>    12.8737    -0.0002    80.0000 </r>
       <r>    13.0430    -0.0000    80.0000 </r>
       <r>    13.2123     0.0000    80.0000 </r>
       <r>    13.3817     0.0000    80.0000 </r>
       <r>    13.5510     0.0000    80.0000 </r>
       <r>    13.7203     0.0000    80.0000 </r>
       <r>    13.8897     0.0000    80.0000 </r>
       <r>    14.0590     0.0000    80.0000 </r>
       <r>    14.2283     0.0000    80.0000 </r>
       <r>    14.3976     0.0000    80.0000 </r>
       <r>    14.5670     0.0000    80.0000 </r>
       <r>    14.7363     0.0000    80.0000 </r>
      </set>
     </set>
    </array>
   </total>
  </dos>
 </calculation>
 <structure name="finalpos" >
  <crystal>
   <varray name="basis" >
    <v>       3.87020827       0.00000000      -0.00000100 </v>
    <v>       0.00000399       3.91888470      -0.00028500 </v>
    <v>      -0.00000299      -0.00025333      13.04477100 </v>
   </varray>
   <i name="volume">    197.84873645 </i>
   <varray name="rec_basis" >
    <v>       0.25838403      -0.00000026       0.00000006 </v>
    <v>       0.00000000       0.25517464       0.00000496 </v>
    <v>       0.00000002       0.00000558       0.07665907 </v>
   </varray>
  </crystal>
  <varray name="positions" >
   <v>       0.01860368       0.95983419       0.14638113 </v>
   <v>       0.51860343       0.04017213       0.35361915 </v>
   <v>       0.51859973       0.04019028       0.64636908 </v>
   <v>       0.01860214       0.95979664       0.85363281 </v>
   <v>       0.51857820       0.99277594       0.18507015 </v>
   <v>       0.01857705       0.00724560       0.31492880 </v>
   <v>       0.01857515       0.00722203       0.68507204 </v>
   <v>       0.51857556       0.99276258       0.81493026 </v>
   <v>       0.01855656       0.48247535       0.85107626 </v>
   <v>       0.51855439       0.51751312       0.64892273 </v>
   <v>       0.51855872       0.51749897       0.35109211 </v>
   <v>       0.51851902       0.01305373       0.50001746 </v>
   <v>       0.01852355       0.98694640      -0.00001720 </v>
   <v>       0.01856382       0.48251105       0.14890221 </v>
  </varray>
 </structure>
</modeling>
