<?xml version="1.0" encoding="ISO-8859-1"?>
<modeling>
 <generator>
  <i name="program" type="string">vasp </i>
  <i name="version" type="string">5.4.1  </i>
  <i name="subversion" type="string">24Jun15 (build May 10 2016 14:18:23) complex                          parallel </i>
  <i name="platform" type="string">IFC91_ompi </i>
  <i name="date" type="string">2016 12 09 </i>
  <i name="time" type="string">15:27:57 </i>
 </generator>
 <incar>
  <i type="string" name="PREC">accurate</i>
  <i type="string" name="ALGO"> Fast</i>
  <i type="int" name="ISPIN">     2</i>
  <i type="int" name="IBRION">     2</i>
  <i name="EDIFF">      0.00010000</i>
  <i type="int" name="NSW">     0</i>
  <i type="int" name="ISIF">     3</i>
  <i name="ENCUT">    500.00000000</i>
  <v name="MAGMOM">      6.00000000      0.50000000      0.50000000      6.00000000      0.50000000      0.50000000</v>
  <i type="string" name="LREAL"> Auto</i>
  <i type="int" name="ISMEAR">     1</i>
  <i name="SIGMA">      0.10000000</i>
  <i type="logical" name="LWAVE"> F  </i>
  <i type="logical" name="LCHARG"> F  </i>
  <i type="logical" name="LVTOT"> T  </i>
  <i type="logical" name="LVHAR"> T  </i>
  <i type="logical" name="LAECHG"> F  </i>
  <v type="int" name="KPOINT_BSE">    -1     0     0     0</v>
  <i type="string" name="GGA"> Bo</i>
  <i name="PARAM1">      0.18333333</i>
  <i name="PARAM2">      0.22000000</i>
  <i type="logical" name="LUSE_VDW"> T  </i>
  <i name="AGGAC">      0.00000000</i>
 </incar>
 <kpoints>
  <generation param="Gamma">
   <v type="int" name="divisions">      13       13        1 </v>
   <v name="usershift">      0.00000000       0.00000000       0.00000000 </v>
   <v name="genvec1">      0.07692308       0.00000000       0.00000000 </v>
   <v name="genvec2">      0.00000000       0.07692308       0.00000000 </v>
   <v name="genvec3">      0.00000000       0.00000000       1.00000000 </v>
   <v name="shift">      0.00000000       0.00000000       0.00000000 </v>
  </generation>
  <varray name="kpointlist" >
   <v>       0.00000000       0.00000000       0.00000000 </v>
   <v>       0.07692308      -0.00000000       0.00000000 </v>
   <v>       0.15384615       0.00000000       0.00000000 </v>
   <v>       0.23076923       0.00000000       0.00000000 </v>
   <v>       0.30769231      -0.00000000       0.00000000 </v>
   <v>       0.38461538       0.00000000       0.00000000 </v>
   <v>       0.46153846       0.00000000       0.00000000 </v>
   <v>       0.00000000       0.07692308       0.00000000 </v>
   <v>       0.07692308       0.07692308       0.00000000 </v>
   <v>       0.15384615       0.07692308       0.00000000 </v>
   <v>       0.23076923       0.07692308       0.00000000 </v>
   <v>       0.30769231       0.07692308       0.00000000 </v>
   <v>       0.38461538       0.07692308       0.00000000 </v>
   <v>       0.46153846       0.07692308       0.00000000 </v>
   <v>      -0.46153846       0.07692308       0.00000000 </v>
   <v>      -0.38461538       0.07692308       0.00000000 </v>
   <v>      -0.30769231       0.07692308       0.00000000 </v>
   <v>      -0.23076923       0.07692308       0.00000000 </v>
   <v>      -0.15384615       0.07692308       0.00000000 </v>
   <v>       0.00000000       0.15384615       0.00000000 </v>
   <v>       0.07692308       0.15384615       0.00000000 </v>
   <v>       0.15384615       0.15384615       0.00000000 </v>
   <v>       0.23076923       0.15384615       0.00000000 </v>
   <v>       0.30769231       0.15384615       0.00000000 </v>
   <v>       0.38461538       0.15384615       0.00000000 </v>
   <v>       0.46153846       0.15384615       0.00000000 </v>
   <v>      -0.46153846       0.15384615       0.00000000 </v>
   <v>      -0.38461538       0.15384615       0.00000000 </v>
   <v>      -0.30769231       0.15384615       0.00000000 </v>
   <v>       0.00000000       0.23076923       0.00000000 </v>
   <v>       0.07692308       0.23076923       0.00000000 </v>
   <v>       0.15384615       0.23076923       0.00000000 </v>
   <v>       0.23076923       0.23076923       0.00000000 </v>
   <v>       0.30769231       0.23076923       0.00000000 </v>
   <v>       0.38461538       0.23076923       0.00000000 </v>
   <v>       0.46153846       0.23076923       0.00000000 </v>
   <v>      -0.46153846       0.23076923       0.00000000 </v>
   <v>       0.00000000       0.30769231       0.00000000 </v>
   <v>       0.07692308       0.30769231       0.00000000 </v>
   <v>       0.15384615       0.30769231       0.00000000 </v>
   <v>       0.23076923       0.30769231       0.00000000 </v>
   <v>       0.30769231       0.30769231       0.00000000 </v>
   <v>       0.38461538       0.30769231       0.00000000 </v>
   <v>       0.00000000       0.38461538       0.00000000 </v>
   <v>       0.07692308       0.38461538       0.00000000 </v>
   <v>       0.15384615       0.38461538       0.00000000 </v>
   <v>       0.23076923       0.38461538       0.00000000 </v>
   <v>       0.00000000       0.46153846       0.00000000 </v>
   <v>       0.07692308       0.46153846       0.00000000 </v>
  </varray>
  <varray name="weights" >
   <v>       0.00591716 </v>
   <v>       0.02366864 </v>
   <v>       0.02366864 </v>
   <v>       0.02366864 </v>
   <v>       0.02366864 </v>
   <v>       0.02366864 </v>
   <v>       0.02366864 </v>
   <v>       0.01183432 </v>
   <v>       0.02366864 </v>
   <v>       0.02366864 </v>
   <v>       0.02366864 </v>
   <v>       0.02366864 </v>
   <v>       0.02366864 </v>
   <v>       0.02366864 </v>
   <v>       0.02366864 </v>
   <v>       0.02366864 </v>
   <v>       0.02366864 </v>
   <v>       0.02366864 </v>
   <v>       0.01183432 </v>
   <v>       0.01183432 </v>
   <v>       0.02366864 </v>
   <v>       0.02366864 </v>
   <v>       0.02366864 </v>
   <v>       0.02366864 </v>
   <v>       0.02366864 </v>
   <v>       0.02366864 </v>
   <v>       0.02366864 </v>
   <v>       0.02366864 </v>
   <v>       0.01183432 </v>
   <v>       0.01183432 </v>
   <v>       0.02366864 </v>
   <v>       0.02366864 </v>
   <v>       0.02366864 </v>
   <v>       0.02366864 </v>
   <v>       0.02366864 </v>
   <v>       0.02366864 </v>
   <v>       0.01183432 </v>
   <v>       0.01183432 </v>
   <v>       0.02366864 </v>
   <v>       0.02366864 </v>
   <v>       0.02366864 </v>
   <v>       0.02366864 </v>
   <v>       0.01183432 </v>
   <v>       0.01183432 </v>
   <v>       0.02366864 </v>
   <v>       0.02366864 </v>
   <v>       0.01183432 </v>
   <v>       0.01183432 </v>
   <v>       0.01183432 </v>
  </varray>
 </kpoints>
 <parameters>
  <separator name="general" >
   <i type="string" name="SYSTEM">unknown system</i>
   <i type="logical" name="LCOMPAT"> F  </i>
  </separator>
  <separator name="electronic" >
   <i type="string" name="PREC">accura</i>
   <i name="ENMAX">    500.00000000</i>
   <i name="ENAUG">    392.42700000</i>
   <i name="EDIFF">      0.00010000</i>
   <i type="int" name="IALGO">    68</i>
   <i type="int" name="IWAVPR">    10</i>
   <i type="int" name="NBANDS">    36</i>
   <i name="NELECT">     48.00000000</i>
   <i type="int" name="TURBO">     0</i>
   <i type="int" name="IRESTART">     0</i>
   <i type="int" name="NREBOOT">     0</i>
   <i type="int" name="NMIN">     0</i>
   <i name="EREF">      0.00000000</i>
   <separator name="electronic smearing" >
    <i type="int" name="ISMEAR">     1</i>
    <i name="SIGMA">      0.10000000</i>
    <i name="KSPACING">      0.50000000</i>
    <i type="logical" name="KGAMMA"> T  </i>
   </separator>
   <separator name="electronic projectors" >
    <i type="logical" name="LREAL"> T  </i>
    <v name="ROPT">     -0.00025000     -0.00025000     -0.00025000     -0.00025000</v>
    <i type="int" name="LMAXPAW">  -100</i>
    <i type="int" name="LMAXMIX">     2</i>
    <i type="logical" name="NLSPLINE"> F  </i>
   </separator>
   <separator name="electronic startup" >
    <i type="int" name="ISTART">     0</i>
    <i type="int" name="ICHARG">     2</i>
    <i type="int" name="INIWAV">     1</i>
   </separator>
   <separator name="electronic spin" >
    <i type="int" name="ISPIN">     2</i>
    <i type="logical" name="LNONCOLLINEAR"> F  </i>
    <v name="MAGMOM">      6.00000000      0.50000000      0.50000000      6.00000000      0.50000000      0.50000000</v>
    <i name="NUPDOWN">     -1.00000000</i>
    <i type="logical" name="LSORBIT"> F  </i>
    <v name="SAXIS">      0.00000000      0.00000000      1.00000000</v>
    <i type="logical" name="LSPIRAL"> F  </i>
    <v name="QSPIRAL">      0.00000000      0.00000000      0.00000000</v>
    <i type="logical" name="LZEROZ"> F  </i>
   </separator>
   <separator name="electronic exchange-correlation" >
    <i type="logical" name="LASPH"> F  </i>
    <i type="logical" name="LMETAGGA"> F  </i>
   </separator>
   <separator name="electronic convergence" >
    <i type="int" name="NELM">    60</i>
    <i type="int" name="NELMDL">     0</i>
    <i type="int" name="NELMIN">     2</i>
    <i name="ENINI">    500.00000000</i>
    <separator name="electronic convergence detail" >
     <i type="logical" name="LDIAG"> T  </i>
     <i type="logical" name="LSUBROT"> F  </i>
     <i name="WEIMIN">      0.00000000</i>
     <i name="EBREAK">      0.00000069</i>
     <i name="DEPER">      0.30000000</i>
     <i type="int" name="NRMM">     4</i>
     <i name="TIME">      0.40000000</i>
    </separator>
   </separator>
   <separator name="electronic mixer" >
    <i name="AMIX">      0.40000000</i>
    <i name="BMIX">      1.00000000</i>
    <i name="AMIN">      0.10000000</i>
    <i name="AMIX_MAG">      1.60000000</i>
    <i name="BMIX_MAG">      1.00000000</i>
    <separator name="electronic mixer details" >
     <i type="int" name="IMIX">     4</i>
     <i type="logical" name="MIXFIRST"> F  </i>
     <i type="int" name="MAXMIX">   -45</i>
     <i name="WC">    100.00000000</i>
     <i type="int" name="INIMIX">     1</i>
     <i type="int" name="MIXPRE">     1</i>
     <i type="int" name="MREMOVE">     5</i>
    </separator>
   </separator>
   <separator name="electronic dipolcorrection" >
    <i type="logical" name="LDIPOL"> F  </i>
    <i type="logical" name="LMONO"> F  </i>
    <i type="int" name="IDIPOL">     0</i>
    <i name="EPSILON">      1.00000000</i>
    <v name="DIPOL">   -100.00000000   -100.00000000   -100.00000000</v>
    <i name="EFIELD">      0.00000000</i>
   </separator>
  </separator>
  <separator name="grids" >
   <i type="int" name="NGX">    24</i>
   <i type="int" name="NGY">    24</i>
   <i type="int" name="NGZ">   180</i>
   <i type="int" name="NGXF">    48</i>
   <i type="int" name="NGYF">    48</i>
   <i type="int" name="NGZF">   360</i>
   <i type="logical" name="ADDGRID"> F  </i>
  </separator>
  <separator name="ionic" >
   <i type="int" name="NSW">     0</i>
   <i type="int" name="IBRION">    -1</i>
   <i type="int" name="ISIF">     3</i>
   <i name="PSTRESS">      0.00000000</i>
   <i name="EDIFFG">      0.00100000</i>
   <i type="int" name="NFREE">     1</i>
   <i name="POTIM">      0.50000000</i>
   <i name="SMASS">     -3.00000000</i>
   <i name="SCALEE">      1.00000000</i>
  </separator>
  <separator name="ionic md" >
   <i name="TEBEG">      0.00010000</i>
   <i name="TEEND">      0.00010000</i>
   <i type="int" name="NBLOCK">     1</i>
   <i type="int" name="KBLOCK">     1</i>
   <i type="int" name="NPACO">   256</i>
   <i name="APACO">     16.00000000</i>
  </separator>
  <separator name="symmetry" >
   <i type="int" name="ISYM">     2</i>
   <i name="SYMPREC">      0.00001000</i>
  </separator>
  <separator name="dos" >
   <i type="logical" name="LORBIT"> F  </i>
   <v name="RWIGS">     -1.00000000     -1.00000000     -1.00000000     -1.00000000</v>
   <i type="int" name="NEDOS">   301</i>
   <i name="EMIN">     10.00000000</i>
   <i name="EMAX">    -10.00000000</i>
   <i name="EFERMI">      0.00000000</i>
  </separator>
  <separator name="writing" >
   <i type="int" name="NWRITE">     2</i>
   <i type="logical" name="LWAVE"> F  </i>
   <i type="logical" name="LCHARG"> F  </i>
   <i type="logical" name="LPARD"> F  </i>
   <i type="logical" name="LVTOT"> F  </i>
   <i type="logical" name="LVHAR"> T  </i>
   <i type="logical" name="LELF"> F  </i>
   <i type="logical" name="LOPTICS"> F  </i>
   <v name="STM">      0.00000000      0.00000000      0.00000000      0.00000000      0.00000000      0.00000000      0.00000000</v>
  </separator>
  <separator name="performance" >
   <i type="int" name="NPAR">     4</i>
   <i type="int" name="NSIM">     4</i>
   <i type="int" name="NBLK">    -1</i>
   <i type="logical" name="LPLANE"> T  </i>
   <i type="logical" name="LSCALAPACK"> T  </i>
   <i type="logical" name="LSCAAWARE"> F  </i>
   <i type="logical" name="LSCALU"> F  </i>
   <i type="logical" name="LASYNC"> F  </i>
   <i type="logical" name="LORBITALREAL"> F  </i>
  </separator>
  <separator name="miscellaneous" >
   <i type="int" name="IDIOT">     3</i>
   <i type="logical" name="LMUSIC"> F  </i>
   <v name="POMASS">     95.94000000     32.06600000     95.94000000     32.06600000</v>
   <v name="DARWINR">      0.00000000      0.00000000      0.00000000      0.00000000</v>
   <v name="DARWINV">      1.00000000      1.00000000      1.00000000      1.00000000</v>
   <i type="logical" name="LCORR"> T  </i>
  </separator>
  <i type="logical" name="GGA_COMPAT"> T  </i>
  <i type="logical" name="LBERRY"> F  </i>
  <i type="int" name="ICORELEVEL">     0</i>
  <i type="logical" name="LDAU"> F  </i>
  <i type="int" name="I_CONSTRAINED_M">     0</i>
  <separator name="electronic exchange-correlation" >
   <i type="string" name="GGA">BO</i>
   <i type="int" name="VOSKOWN">     0</i>
   <i type="logical" name="LHFCALC"> F  </i>
   <i type="string" name="PRECFOCK"></i>
   <i type="logical" name="LSYMGRAD"> F  </i>
   <i type="logical" name="LHFONE"> F  </i>
   <i type="logical" name="LRHFCALC"> F  </i>
   <i type="logical" name="LTHOMAS"> F  </i>
   <i type="logical" name="LMODELHF"> F  </i>
   <i name="ENCUT4O">     -1.00000000</i>
   <i type="int" name="EXXOEP">     0</i>
   <i type="int" name="FOURORBIT">     0</i>
   <i name="AEXX">      0.00000000</i>
   <i name="HFALPHA">      0.00000000</i>
   <i name="MCALPHA">      0.00000000</i>
   <i name="ALDAX">      1.00000000</i>
   <i name="AGGAX">      1.00000000</i>
   <i name="ALDAC">      1.00000000</i>
   <i name="AGGAC">      0.00000000</i>
   <i type="int" name="NKREDX">     1</i>
   <i type="int" name="NKREDY">     1</i>
   <i type="int" name="NKREDZ">     1</i>
   <i type="logical" name="SHIFTRED"> F  </i>
   <i type="logical" name="ODDONLY"> F  </i>
   <i type="logical" name="EVENONLY"> F  </i>
   <i type="int" name="LMAXFOCK">     0</i>
   <i type="int" name="NMAXFOCKAE">     0</i>
   <i type="logical" name="LFOCKAEDFT"> F  </i>
   <i name="HFSCREEN">      0.00000000</i>
   <i name="HFSCREENC">      0.00000000</i>
   <i type="int" name="NBANDSGWLOW">     0</i>
  </separator>
  <separator name="vdW DFT" >
   <i type="logical" name="LUSE_VDW"> T  </i>
   <i name="Zab_VDW">     -0.84910000</i>
   <i name="PARAM1">      0.18333333</i>
   <i name="PARAM2">      0.22000000</i>
   <i name="PARAM3">      0.00000000</i>
  </separator>
  <separator name="model GW" >
   <i type="int" name="MODEL_GW">     0</i>
   <i name="MODEL_EPS0">     20.39722663</i>
   <i name="MODEL_ALPHA">      1.00000000</i>
  </separator>
  <separator name="linear response parameters" >
   <i type="logical" name="LEPSILON"> F  </i>
   <i type="logical" name="LRPA"> F  </i>
   <i type="logical" name="LNABLA"> F  </i>
   <i type="logical" name="LVEL"> F  </i>
   <i type="int" name="KINTER">     0</i>
   <i name="CSHIFT">      0.10000000</i>
   <i name="OMEGAMAX">     -1.00000000</i>
   <i name="DEG_THRESHOLD">      0.00200000</i>
  </separator>
  <separator name="orbital magnetization" >
   <i type="logical" name="NUCIND"> F  </i>
   <v name="MAGPOS">      0.00000000      0.00000000      0.00000000</v>
   <i type="logical" name="LNICSALL"> T  </i>
   <i type="logical" name="ORBITALMAG"> F  </i>
   <i type="logical" name="LMAGBLOCH"> F  </i>
   <i type="logical" name="LCHIMAG"> F  </i>
   <i type="logical" name="LGAUGE"> T  </i>
   <i type="int" name="MAGATOM">     0</i>
   <v name="MAGDIPOL">      0.00000000      0.00000000      0.00000000</v>
   <v name="AVECCONST">      0.00000000      0.00000000      0.00000000</v>
  </separator>
  <separator name="response functions" >
   <i type="logical" name="LADDER"> F  </i>
   <i type="logical" name="LFXC"> F  </i>
   <i type="logical" name="LHARTREE"> T  </i>
   <i type="int" name="IBSE">     0</i>
   <v type="int" name="KPOINT">    -1     0     0     0</v>
   <i type="logical" name="LTCTE"> F  </i>
   <i type="logical" name="LTETE"> F  </i>
   <i type="logical" name="LTRIPLET"> F  </i>
   <i type="logical" name="LFXCEPS"> F  </i>
   <i type="logical" name="LFXHEG"> F  </i>
   <i type="int" name="NATURALO">     0</i>
   <i type="logical" name="L2ORDER"> F  </i>
   <i type="logical" name="LUSEW"> F  </i>
   <i name="ENCUTGW">     -2.00000000</i>
   <i name="ENCUTGWSOFT">     -2.00000000</i>
   <i name="ENCUTLF">     -1.00000000</i>
   <i type="int" name="LMAXMP2">    -1</i>
   <i name="SCISSOR">      0.00000000</i>
   <i type="int" name="NOMEGA">     0</i>
   <i type="int" name="NOMEGAR">     0</i>
   <i type="int" name="NBANDSGW">    -1</i>
   <i type="int" name="NBANDSO">    -1</i>
   <i type="int" name="NBANDSV">    -1</i>
   <i type="int" name="NELM">     1</i>
   <i type="int" name="NELMHF">     1</i>
   <i type="int" name="DIM">     3</i>
   <i type="int" name="ANTIRES">     0</i>
   <i name="OMEGAMAX">    -30.00000000</i>
   <i name="OMEGAMIN">    -30.00000000</i>
   <i name="OMEGATL">   -200.00000000</i>
   <i type="int" name="OMEGAGRID">     0</i>
   <i name="CSHIFT">     -0.10000000</i>
   <i type="logical" name="SELFENERGY"> F  </i>
   <i type="logical" name="LSPECTRAL"> F  </i>
   <i type="logical" name="LSPECTRALGW"> F  </i>
   <i type="logical" name="LSINGLES"> F  </i>
   <i type="logical" name="LFERMIGW"> F  </i>
   <i type="logical" name="ODDONLYGW"> F  </i>
   <i type="logical" name="EVENONLYGW"> F  </i>
   <i type="int" name="NKREDLFX">     1</i>
   <i type="int" name="NKREDLFY">     1</i>
   <i type="int" name="NKREDLFZ">     1</i>
   <i type="int" name="MAXMEM">  1800</i>
   <i type="int" name="TELESCOPE">     0</i>
   <i type="int" name="TAUPAR">     1</i>
   <i type="int" name="OMEGAPAR">    -1</i>
   <i name="LAMBDA">      1.00000000</i>
  </separator>
  <separator name="External order field" >
   <i name="OFIELD_KAPPA">      0.00000000</i>
   <v name="OFIELD_K">      0.00000000      0.00000000      0.00000000</v>
   <i name="OFIELD_Q6_NEAR">      0.00000000</i>
   <i name="OFIELD_Q6_FAR">      0.00000000</i>
   <i name="OFIELD_A">      0.00000000</i>
  </separator>
 </parameters>
 <atominfo>
  <atoms>       6 </atoms>
  <types>       4 </types>
  <array name="atoms" >
   <dimension dim="1">ion</dimension>
   <field type="string">element</field>
   <field type="int">atomtype</field>
   <set>
    <rc><c>Mo</c><c>   1</c></rc>
    <rc><c>S </c><c>   2</c></rc>
    <rc><c>S </c><c>   2</c></rc>
    <rc><c>Mo</c><c>   3</c></rc>
    <rc><c>S </c><c>   4</c></rc>
    <rc><c>S </c><c>   4</c></rc>
   </set>
  </array>
  <array name="atomtypes" >
   <dimension dim="1">type</dimension>
   <field type="int">atomspertype</field>
   <field type="string">element</field>
   <field>mass</field>
   <field>valence</field>
   <field type="string">pseudopotential</field>
   <set>
    <rc><c>   1</c><c>Mo</c><c>     95.94000000</c><c>     12.00000000</c><c> PAW_PBE Mo_pv 08Apr2002                </c></rc>
    <rc><c>   2</c><c>S </c><c>     32.06600000</c><c>      6.00000000</c><c>  PAW_PBE S 17Jan2003                   </c></rc>
    <rc><c>   1</c><c>Mo</c><c>     95.94000000</c><c>     12.00000000</c><c> PAW_PBE Mo_pv 08Apr2002                </c></rc>
    <rc><c>   2</c><c>S </c><c>     32.06600000</c><c>      6.00000000</c><c>  PAW_PBE S 17Jan2003                   </c></rc>
   </set>
  </array>
 </atominfo>
 <structure name="initialpos" >
  <crystal>
   <varray name="basis" >
    <v>       3.19031700       0.00000000       0.00000000 </v>
    <v>      -1.59515800       2.76289700       0.00000000 </v>
    <v>       0.00000000       0.00000000      23.14049200 </v>
   </varray>
   <i name="volume">    203.97226633 </i>
   <varray name="rec_basis" >
    <v>       0.31344848       0.18096941       0.00000000 </v>
    <v>       0.00000000       0.36193894       0.00000000 </v>
    <v>       0.00000000       0.00000000       0.04321429 </v>
   </varray>
  </crystal>
  <varray name="positions" >
   <v>       0.66666700       0.33333300       0.06785900 </v>
   <v>       0.33333300       0.66666700       0.00000000 </v>
   <v>       0.33333300       0.66666700       0.13571500 </v>
   <v>       0.52380986       0.04761871       0.35482300 </v>
   <v>       0.19047586       0.38095271       0.28696500 </v>
   <v>       0.19047586       0.38095271       0.42267900 </v>
  </varray>
 </structure>
 <calculation>
  <scstep>
   <time name="dav">   61.36   61.40</time>
   <time name="total">   80.87   80.95</time>
   <energy>
    <i name="alphaZ">    104.15310261 </i>
    <i name="ewald">   7699.20989260 </i>
    <i name="hartreedc"> -11109.25159704 </i>
    <i name="XCdc">    128.46785179 </i>
    <i name="pawpsdc">   2252.92270536 </i>
    <i name="pawaedc">  -2205.68654582 </i>
    <i name="eentropy">     -0.00192449 </i>
    <i name="bandstr">   -160.34796777 </i>
    <i name="atom">   3688.31848598 </i>
    <i name="e_fr_energy">    397.78400322 </i>
    <i name="e_wo_entrp">    397.78592771 </i>
    <i name="e_0_energy">    397.78464472 </i>
   </energy>
  </scstep>
  <scstep>
   <time name="dav">   66.87   66.93</time>
   <time name="total">   66.88   66.94</time>
   <energy>
    <i name="e_fr_energy">     -1.67931816 </i>
    <i name="e_wo_entrp">     -1.67898193 </i>
    <i name="e_0_energy">     -1.67920608 </i>
   </energy>
  </scstep>
  <scstep>
   <time name="dav">   68.99   69.04</time>
   <time name="total">   69.00   69.05</time>
   <energy>
    <i name="e_fr_energy">    -32.96925174 </i>
    <i name="e_wo_entrp">    -32.96974157 </i>
    <i name="e_0_energy">    -32.96941502 </i>
   </energy>
  </scstep>
  <scstep>
   <time name="dav">   65.49   65.54</time>
   <time name="total">   65.50   65.56</time>
   <energy>
    <i name="e_fr_energy">    -33.83545668 </i>
    <i name="e_wo_entrp">    -33.83631114 </i>
    <i name="e_0_energy">    -33.83574150 </i>
   </energy>
  </scstep>
  <scstep>
   <time name="dav">   68.47   68.53</time>
   <time name="total">   73.99   74.05</time>
   <energy>
    <i name="e_fr_energy">    -33.86228701 </i>
    <i name="e_wo_entrp">    -33.86316543 </i>
    <i name="e_0_energy">    -33.86257981 </i>
   </energy>
  </scstep>
  <scstep>
   <time name="diag">   12.66   12.67</time>
   <time name="diis">   43.48   43.52</time>
   <time name="orth">    0.41    0.41</time>
   <time name="total">   80.82   80.89</time>
   <energy>
    <i name="e_fr_energy">    -30.16308607 </i>
    <i name="e_wo_entrp">    -30.16289602 </i>
    <i name="e_0_energy">    -30.16302272 </i>
   </energy>
  </scstep>
  <scstep>
   <time name="diag">   12.61   12.62</time>
   <time name="diis">   44.38   44.41</time>
   <time name="orth">    0.41    0.41</time>
   <time name="total">   81.79   81.86</time>
   <energy>
    <i name="e_fr_energy">    -32.84056595 </i>
    <i name="e_wo_entrp">    -32.84120216 </i>
    <i name="e_0_energy">    -32.84077802 </i>
   </energy>
  </scstep>
  <scstep>
   <time name="diag">   12.63   12.64</time>
   <time name="diis">   46.44   46.48</time>
   <time name="orth">    0.41    0.41</time>
   <time name="total">   83.61   83.67</time>
   <energy>
    <i name="e_fr_energy">    -34.74032918 </i>
    <i name="e_wo_entrp">    -34.74049329 </i>
    <i name="e_0_energy">    -34.74038388 </i>
   </energy>
  </scstep>
  <scstep>
   <time name="diag">   12.60   12.61</time>
   <time name="diis">   41.58   41.61</time>
   <time name="orth">    0.40    0.40</time>
   <time name="total">   78.99   79.05</time>
   <energy>
    <i name="e_fr_energy">    -37.10937756 </i>
    <i name="e_wo_entrp">    -37.10954219 </i>
    <i name="e_0_energy">    -37.10943244 </i>
   </energy>
  </scstep>
  <scstep>
   <time name="diag">   12.63   12.64</time>
   <time name="diis">   40.45   40.48</time>
   <time name="orth">    0.44    0.44</time>
   <time name="total">   77.66   77.72</time>
   <energy>
    <i name="e_fr_energy">    -38.93376259 </i>
    <i name="e_wo_entrp">    -38.93392846 </i>
    <i name="e_0_energy">    -38.93381788 </i>
   </energy>
  </scstep>
  <scstep>
   <time name="diag">   12.79   12.80</time>
   <time name="diis">   43.10   43.13</time>
   <time name="orth">    0.40    0.40</time>
   <time name="total">   80.46   80.52</time>
   <energy>
    <i name="e_fr_energy">    -39.35364737 </i>
    <i name="e_wo_entrp">    -39.35397090 </i>
    <i name="e_0_energy">    -39.35375521 </i>
   </energy>
  </scstep>
  <scstep>
   <time name="diag">   12.65   12.66</time>
   <time name="diis">   44.20   44.24</time>
   <time name="orth">    0.43    0.43</time>
   <time name="total">   81.54   81.60</time>
   <energy>
    <i name="e_fr_energy">    -39.38322906 </i>
    <i name="e_wo_entrp">    -39.38355849 </i>
    <i name="e_0_energy">    -39.38333887 </i>
   </energy>
  </scstep>
  <scstep>
   <time name="diag">   12.62   12.63</time>
   <time name="diis">   47.87   47.91</time>
   <time name="orth">    0.40    0.40</time>
   <time name="total">   85.13   85.20</time>
   <energy>
    <i name="e_fr_energy">    -39.40032169 </i>
    <i name="e_wo_entrp">    -39.40065237 </i>
    <i name="e_0_energy">    -39.40043191 </i>
   </energy>
  </scstep>
  <scstep>
   <time name="diag">   12.64   12.65</time>
   <time name="diis">   44.37   44.41</time>
   <time name="orth">    0.40    0.41</time>
   <time name="total">   81.60   81.66</time>
   <energy>
    <i name="e_fr_energy">    -39.40486942 </i>
    <i name="e_wo_entrp">    -39.40520049 </i>
    <i name="e_0_energy">    -39.40497978 </i>
   </energy>
  </scstep>
  <scstep>
   <time name="diag">   12.55   12.56</time>
   <time name="diis">   40.92   40.95</time>
   <time name="orth">    0.40    0.40</time>
   <time name="total">   78.07   78.13</time>
   <energy>
    <i name="e_fr_energy">    -39.40445146 </i>
    <i name="e_wo_entrp">    -39.40478250 </i>
    <i name="e_0_energy">    -39.40456181 </i>
   </energy>
  </scstep>
  <scstep>
   <time name="diag">   12.63   12.64</time>
   <time name="diis">   32.45   32.47</time>
   <time name="orth">    0.40    0.40</time>
   <time name="total">   64.08   64.36</time>
   <energy>
    <i name="alphaZ">    104.15310261 </i>
    <i name="ewald">   7699.20989260 </i>
    <i name="hartreedc"> -11093.68218843 </i>
    <i name="XCdc">    122.67638912 </i>
    <i name="pawpsdc">   2398.89205817 </i>
    <i name="pawaedc">  -2361.06462532 </i>
    <i name="eentropy">      0.00033113 </i>
    <i name="bandstr">   -597.90786066 </i>
    <i name="atom">   3688.31848598 </i>
    <i name="e_fr_energy">    -39.40441481 </i>
    <i name="e_wo_entrp">    -39.40474594 </i>
    <i name="e_0_energy">    -39.40452519 </i>
   </energy>
  </scstep>
  <structure>
   <crystal>
    <varray name="basis" >
     <v>       3.19031700       0.00000000       0.00000000 </v>
     <v>      -1.59515800       2.76289700       0.00000000 </v>
     <v>       0.00000000       0.00000000      23.14049200 </v>
    </varray>
    <i name="volume">    203.97226633 </i>
    <varray name="rec_basis" >
     <v>       0.31344848       0.18096941       0.00000000 </v>
     <v>       0.00000000       0.36193894       0.00000000 </v>
     <v>       0.00000000       0.00000000       0.04321429 </v>
    </varray>
   </crystal>
   <varray name="positions" >
    <v>       0.66666700       0.33333300       0.06785900 </v>
    <v>       0.33333300       0.66666700       0.00000000 </v>
    <v>       0.33333300       0.66666700       0.13571500 </v>
    <v>       0.52380986       0.04761871       0.35482300 </v>
    <v>       0.19047586       0.38095271       0.28696500 </v>
    <v>       0.19047586       0.38095271       0.42267900 </v>
   </varray>
  </structure>
  <varray name="forces" >
   <v>       0.00000000       0.00571271      -0.00906551 </v>
   <v>       0.00000000       0.00012641      -0.06047824 </v>
   <v>       0.00000001       0.03717275       0.07076718 </v>
   <v>      -0.00000000      -0.00684422       0.01121108 </v>
   <v>      -0.00000001      -0.03540910      -0.07790813 </v>
   <v>      -0.00000000      -0.00075854       0.06547363 </v>
  </varray>
  <varray name="stress" >
   <v>       3.23476225       0.00000064      -0.00000023 </v>
   <v>       0.00000064       3.54527490      -1.29805448 </v>
   <v>      -0.00000023      -1.29805468       1.59392121 </v>
  </varray>
  <energy>
   <i name="e_fr_energy">    -39.40441481 </i>
   <i name="e_wo_entrp">    -39.40452519 </i>
   <i name="e_0_energy">      0.00033113 </i>
  </energy>
  <time name="totalsc"> 1357.54 1358.93</time>
  <eigenvalues>
   <array>
    <dimension dim="1">band</dimension>
    <dimension dim="2">kpoint</dimension>
    <dimension dim="3">spin</dimension>
    <field>eigene</field>
    <field>occ</field>
    <set>
     <set comment="spin 1">
      <set comment="kpoint 1">
       <r>  -34.9759    1.0000 </r>
       <r>  -34.9717    1.0000 </r>
       <r>  -34.7845    1.0000 </r>
       <r>  -34.7843    1.0000 </r>
       <r>  -34.7805    1.0000 </r>
       <r>  -34.7803    1.0000 </r>
       <r>  -13.9606    1.0000 </r>
       <r>  -13.9023    1.0000 </r>
       <r>  -12.6956    1.0000 </r>
       <r>  -12.5985    1.0000 </r>
       <r>   -5.6780    1.0000 </r>
       <r>   -5.3786    1.0000 </r>
       <r>   -2.6063    1.0000 </r>
       <r>   -2.6057    1.0000 </r>
       <r>   -2.6005    1.0000 </r>
       <r>   -2.5999    1.0000 </r>
       <r>   -2.1761    1.0000 </r>
       <r>   -1.5141    1.0000 </r>
       <r>   -1.5134    1.0000 </r>
       <r>   -1.5072    1.0000 </r>
       <r>   -1.5056    1.0000 </r>
       <r>   -1.4489    1.0000 </r>
       <r>   -0.2131    1.0000 </r>
       <r>    0.2455    0.8003 </r>
       <r>    2.7075   -0.0000 </r>
       <r>    2.7183   -0.0000 </r>
       <r>    2.7241   -0.0000 </r>
       <r>    2.7328   -0.0000 </r>
       <r>    2.8887   -0.0000 </r>
       <r>    2.9004   -0.0000 </r>
       <r>    2.9069   -0.0000 </r>
       <r>    2.9205   -0.0000 </r>
       <r>    5.3633    0.0000 </r>
       <r>    5.6883    0.0000 </r>
       <r>    6.2520    0.0000 </r>
       <r>    6.5908    0.0000 </r>
      </set>
      <set comment="kpoint 2">
       <r>  -34.9718    1.0000 </r>
       <r>  -34.9676    1.0000 </r>
       <r>  -34.8056    1.0000 </r>
       <r>  -34.8017    1.0000 </r>
       <r>  -34.7893    1.0000 </r>
       <r>  -34.7852    1.0000 </r>
       <r>  -13.8740    1.0000 </r>
       <r>  -13.8157    1.0000 </r>
       <r>  -12.6589    1.0000 </r>
       <r>  -12.5640    1.0000 </r>
       <r>   -5.5790    1.0000 </r>
       <r>   -5.2796    1.0000 </r>
       <r>   -2.7941    1.0000 </r>
       <r>   -2.7861    1.0000 </r>
       <r>   -2.5152    1.0000 </r>
       <r>   -2.5099    1.0000 </r>
       <r>   -2.4552    1.0000 </r>
       <r>   -2.0530    1.0000 </r>
       <r>   -1.6504    1.0000 </r>
       <r>   -1.6443    1.0000 </r>
       <r>   -1.3571    1.0000 </r>
       <r>   -1.0440    1.0000 </r>
       <r>   -0.2345    1.0000 </r>
       <r>    0.1740    1.0326 </r>
       <r>    2.5802   -0.0000 </r>
       <r>    2.6254   -0.0000 </r>
       <r>    2.6499   -0.0000 </r>
       <r>    2.7442   -0.0000 </r>
       <r>    2.8033   -0.0000 </r>
       <r>    2.8163   -0.0000 </r>
       <r>    2.8643   -0.0000 </r>
       <r>    2.8734   -0.0000 </r>
       <r>    5.4947    0.0000 </r>
       <r>    5.8334    0.0000 </r>
       <r>    6.5842    0.0000 </r>
       <r>    6.9637    0.0000 </r>
      </set>
      <set comment="kpoint 3">
       <r>  -34.9604    1.0000 </r>
       <r>  -34.9563    1.0000 </r>
       <r>  -34.8641    1.0000 </r>
       <r>  -34.8602    1.0000 </r>
       <r>  -34.8027    1.0000 </r>
       <r>  -34.7986    1.0000 </r>
       <r>  -13.6257    1.0000 </r>
       <r>  -13.5677    1.0000 </r>
       <r>  -12.5541    1.0000 </r>
       <r>  -12.4654    1.0000 </r>
       <r>   -5.3194    1.0000 </r>
       <r>   -5.0254    1.0000 </r>
       <r>   -3.2497    1.0000 </r>
       <r>   -3.2297    1.0000 </r>
       <r>   -2.9505    1.0000 </r>
       <r>   -2.6697    1.0000 </r>
       <r>   -2.2596    1.0000 </r>
       <r>   -2.2540    1.0000 </r>
       <r>   -1.9856    1.0000 </r>
       <r>   -1.9793    1.0000 </r>
       <r>   -1.2856    1.0000 </r>
       <r>   -0.9067    1.0000 </r>
       <r>   -0.3666    1.0000 </r>
       <r>   -0.0942    1.0000 </r>
       <r>    2.1698   -0.0000 </r>
       <r>    2.3802   -0.0000 </r>
       <r>    2.5015   -0.0000 </r>
       <r>    2.5746   -0.0000 </r>
       <r>    2.5879   -0.0000 </r>
       <r>    2.6509   -0.0000 </r>
       <r>    3.2118    0.0000 </r>
       <r>    3.2227    0.0000 </r>
       <r>    5.8484    0.0000 </r>
       <r>    6.1844    0.0000 </r>
       <r>    6.9698    0.0000 </r>
       <r>    7.8564    0.0000 </r>
      </set>
      <set comment="kpoint 4">
       <r>  -34.9457    1.0000 </r>
       <r>  -34.9443    1.0000 </r>
       <r>  -34.9418    1.0000 </r>
       <r>  -34.9400    1.0000 </r>
       <r>  -34.8216    1.0000 </r>
       <r>  -34.8174    1.0000 </r>
       <r>  -13.2509    1.0000 </r>
       <r>  -13.1941    1.0000 </r>
       <r>  -12.3968    1.0000 </r>
       <r>  -12.3175    1.0000 </r>
       <r>   -5.0543    1.0000 </r>
       <r>   -4.8099    1.0000 </r>
       <r>   -3.7270    1.0000 </r>
       <r>   -3.6481    1.0000 </r>
       <r>   -3.4788    1.0000 </r>
       <r>   -3.2872    1.0000 </r>
       <r>   -2.3807    1.0000 </r>
       <r>   -2.3743    1.0000 </r>
       <r>   -1.8906    1.0000 </r>
       <r>   -1.8846    1.0000 </r>
       <r>   -1.4704    1.0000 </r>
       <r>   -1.0862    1.0000 </r>
       <r>   -0.6866    1.0000 </r>
       <r>   -0.5389    1.0000 </r>
       <r>    1.9447   -0.0000 </r>
       <r>    2.2552   -0.0000 </r>
       <r>    2.3265   -0.0000 </r>
       <r>    2.3373   -0.0000 </r>
       <r>    2.6976   -0.0000 </r>
       <r>    2.9262   -0.0000 </r>
       <r>    3.5943    0.0000 </r>
       <r>    3.6077    0.0000 </r>
       <r>    6.3832    0.0000 </r>
       <r>    6.6790    0.0000 </r>
       <r>    7.3969    0.0000 </r>
       <r>    8.3030    0.0000 </r>
      </set>
      <set comment="kpoint 5">
       <r>  -35.0309    1.0000 </r>
       <r>  -35.0269    1.0000 </r>
       <r>  -34.9272    1.0000 </r>
       <r>  -34.9230    1.0000 </r>
       <r>  -34.8415    1.0000 </r>
       <r>  -34.8373    1.0000 </r>
       <r>  -12.8114    1.0000 </r>
       <r>  -12.7571    1.0000 </r>
       <r>  -12.2150    1.0000 </r>
       <r>  -12.1472    1.0000 </r>
       <r>   -5.1042    1.0000 </r>
       <r>   -4.9803    1.0000 </r>
       <r>   -4.0613    1.0000 </r>
       <r>   -3.9079    1.0000 </r>
       <r>   -3.8732    1.0000 </r>
       <r>   -3.7072    1.0000 </r>
       <r>   -2.7360    1.0000 </r>
       <r>   -2.7295    1.0000 </r>
       <r>   -1.7520    1.0000 </r>
       <r>   -1.4962    1.0000 </r>
       <r>   -1.4876    1.0000 </r>
       <r>   -1.3727    1.0000 </r>
       <r>   -0.9784    1.0000 </r>
       <r>   -0.8659    1.0000 </r>
       <r>    2.0425   -0.0000 </r>
       <r>    2.1576   -0.0000 </r>
       <r>    2.1679   -0.0000 </r>
       <r>    2.3365   -0.0000 </r>
       <r>    3.1007    0.0000 </r>
       <r>    3.3770    0.0000 </r>
       <r>    3.8979    0.0000 </r>
       <r>    3.9145    0.0000 </r>
       <r>    7.0461    0.0000 </r>
       <r>    7.2469    0.0000 </r>
       <r>    7.8263    0.0000 </r>
       <r>    8.0301    0.0000 </r>
      </set>
      <set comment="kpoint 6">
       <r>  -35.1007    1.0000 </r>
       <r>  -35.0967    1.0000 </r>
       <r>  -34.9130    1.0000 </r>
       <r>  -34.9088    1.0000 </r>
       <r>  -34.8579    1.0000 </r>
       <r>  -34.8538    1.0000 </r>
       <r>  -12.4016    1.0000 </r>
       <r>  -12.3511    1.0000 </r>
       <r>  -12.0498    1.0000 </r>
       <r>  -11.9931    1.0000 </r>
       <r>   -5.4214    1.0000 </r>
       <r>   -5.3497    1.0000 </r>
       <r>   -4.4756    1.0000 </r>
       <r>   -4.3622    1.0000 </r>
       <r>   -3.9758    1.0000 </r>
       <r>   -3.7768    1.0000 </r>
       <r>   -2.9959    1.0000 </r>
       <r>   -2.9893    1.0000 </r>
       <r>   -1.9681    1.0000 </r>
       <r>   -1.5978    1.0000 </r>
       <r>   -1.1782    1.0000 </r>
       <r>   -1.1693    1.0000 </r>
       <r>   -0.9386    1.0000 </r>
       <r>   -0.7994    1.0000 </r>
       <r>    2.1137   -0.0000 </r>
       <r>    2.1207   -0.0000 </r>
       <r>    2.3107   -0.0000 </r>
       <r>    2.5098   -0.0000 </r>
       <r>    3.4821    0.0000 </r>
       <r>    3.7724    0.0000 </r>
       <r>    4.0871    0.0000 </r>
       <r>    4.1067    0.0000 </r>
       <r>    6.7607    0.0000 </r>
       <r>    7.2398    0.0000 </r>
       <r>    7.6982    0.0000 </r>
       <r>    7.9339    0.0000 </r>
      </set>
      <set comment="kpoint 7">
       <r>  -35.1397    1.0000 </r>
       <r>  -35.1357    1.0000 </r>
       <r>  -34.9049    1.0000 </r>
       <r>  -34.9007    1.0000 </r>
       <r>  -34.8672    1.0000 </r>
       <r>  -34.8630    1.0000 </r>
       <r>  -12.1455    1.0000 </r>
       <r>  -12.0980    1.0000 </r>
       <r>  -11.9486    1.0000 </r>
       <r>  -11.8996    1.0000 </r>
       <r>   -5.6627    1.0000 </r>
       <r>   -5.6007    1.0000 </r>
       <r>   -4.7268    1.0000 </r>
       <r>   -4.6276    1.0000 </r>
       <r>   -4.0775    1.0000 </r>
       <r>   -3.8900    1.0000 </r>
       <r>   -3.1319    1.0000 </r>
       <r>   -3.1252    1.0000 </r>
       <r>   -2.0737    1.0000 </r>
       <r>   -1.7090    1.0000 </r>
       <r>   -1.0116    1.0000 </r>
       <r>   -1.0013    1.0000 </r>
       <r>   -0.7276    1.0000 </r>
       <r>   -0.5609    1.0000 </r>
       <r>    2.1401   -0.0000 </r>
       <r>    2.1454   -0.0000 </r>
       <r>    2.5648   -0.0000 </r>
       <r>    2.6605   -0.0000 </r>
       <r>    3.6818    0.0000 </r>
       <r>    3.9773    0.0000 </r>
       <r>    4.1726    0.0000 </r>
       <r>    4.1942    0.0000 </r>
       <r>    5.9749    0.0000 </r>
       <r>    6.5794    0.0000 </r>
       <r>    7.8853    0.0000 </r>
       <r>    8.0445    0.0000 </r>
      </set>
      <set comment="kpoint 8">
       <r>  -34.9718    1.0000 </r>
       <r>  -34.9676    1.0000 </r>
       <r>  -34.8058    1.0000 </r>
       <r>  -34.8016    1.0000 </r>
       <r>  -34.7892    1.0000 </r>
       <r>  -34.7853    1.0000 </r>
       <r>  -13.8739    1.0000 </r>
       <r>  -13.8157    1.0000 </r>
       <r>  -12.6589    1.0000 </r>
       <r>  -12.5641    1.0000 </r>
       <r>   -5.5789    1.0000 </r>
       <r>   -5.2798    1.0000 </r>
       <r>   -2.7939    1.0000 </r>
       <r>   -2.7862    1.0000 </r>
       <r>   -2.5158    1.0000 </r>
       <r>   -2.5090    1.0000 </r>
       <r>   -2.4561    1.0000 </r>
       <r>   -2.0530    1.0000 </r>
       <r>   -1.6520    1.0000 </r>
       <r>   -1.6426    1.0000 </r>
       <r>   -1.3522    1.0000 </r>
       <r>   -1.0479    1.0000 </r>
       <r>   -0.2339    1.0000 </r>
       <r>    0.1705    1.0340 </r>
       <r>    2.5947   -0.0000 </r>
       <r>    2.6242   -0.0000 </r>
       <r>    2.6549   -0.0000 </r>
       <r>    2.7307   -0.0000 </r>
       <r>    2.7867   -0.0000 </r>
       <r>    2.8244   -0.0000 </r>
       <r>    2.8602   -0.0000 </r>
       <r>    2.8840   -0.0000 </r>
       <r>    5.4948    0.0000 </r>
       <r>    5.8333    0.0000 </r>
       <r>    6.5857    0.0000 </r>
       <r>    6.9644    0.0000 </r>
      </set>
      <set comment="kpoint 9">
       <r>  -34.9641    1.0000 </r>
       <r>  -34.9599    1.0000 </r>
       <r>  -34.8447    1.0000 </r>
       <r>  -34.8405    1.0000 </r>
       <r>  -34.7993    1.0000 </r>
       <r>  -34.7953    1.0000 </r>
       <r>  -13.7063    1.0000 </r>
       <r>  -13.6485    1.0000 </r>
       <r>  -12.5880    1.0000 </r>
       <r>  -12.4976    1.0000 </r>
       <r>   -5.3975    1.0000 </r>
       <r>   -5.1007    1.0000 </r>
       <r>   -3.1106    1.0000 </r>
       <r>   -3.0968    1.0000 </r>
       <r>   -2.7904    1.0000 </r>
       <r>   -2.4674    1.0000 </r>
       <r>   -2.3478    1.0000 </r>
       <r>   -2.3407    1.0000 </r>
       <r>   -1.9672    1.0000 </r>
       <r>   -1.9536    1.0000 </r>
       <r>   -1.2032    1.0000 </r>
       <r>   -0.8608    1.0000 </r>
       <r>   -0.3091    1.0000 </r>
       <r>   -0.0020    1.0002 </r>
       <r>    2.2942   -0.0000 </r>
       <r>    2.4376   -0.0000 </r>
       <r>    2.4677   -0.0000 </r>
       <r>    2.5734   -0.0000 </r>
       <r>    2.6250   -0.0000 </r>
       <r>    2.6638   -0.0000 </r>
       <r>    3.1326    0.0000 </r>
       <r>    3.1657    0.0000 </r>
       <r>    5.7360    0.0000 </r>
       <r>    6.0773    0.0000 </r>
       <r>    6.9145    0.0000 </r>
       <r>    7.6092    0.0000 </r>
      </set>
      <set comment="kpoint 10">
       <r>  -34.9504    1.0000 </r>
       <r>  -34.9462    1.0000 </r>
       <r>  -34.9122    1.0000 </r>
       <r>  -34.9081    1.0000 </r>
       <r>  -34.8178    1.0000 </r>
       <r>  -34.8138    1.0000 </r>
       <r>  -13.3941    1.0000 </r>
       <r>  -13.3371    1.0000 </r>
       <r>  -12.4562    1.0000 </r>
       <r>  -12.3738    1.0000 </r>
       <r>   -5.1181    1.0000 </r>
       <r>   -4.8426    1.0000 </r>
       <r>   -3.5616    1.0000 </r>
       <r>   -3.5205    1.0000 </r>
       <r>   -3.2226    1.0000 </r>
       <r>   -2.9884    1.0000 </r>
       <r>   -2.4574    1.0000 </r>
       <r>   -2.4236    1.0000 </r>
       <r>   -2.0641    1.0000 </r>
       <r>   -2.0559    1.0000 </r>
       <r>   -1.1954    1.0000 </r>
       <r>   -0.8597    1.0000 </r>
       <r>   -0.5416    1.0000 </r>
       <r>   -0.3658    1.0000 </r>
       <r>    1.9546   -0.0000 </r>
       <r>    2.2047   -0.0000 </r>
       <r>    2.3960   -0.0000 </r>
       <r>    2.4390   -0.0000 </r>
       <r>    2.4775   -0.0000 </r>
       <r>    2.6496   -0.0000 </r>
       <r>    3.5353    0.0000 </r>
       <r>    3.5853    0.0000 </r>
       <r>    6.1775    0.0000 </r>
       <r>    6.5022    0.0000 </r>
       <r>    7.2399    0.0000 </r>
       <r>    8.2288    0.0000 </r>
      </set>
      <set comment="kpoint 11">
       <r>  -34.9925    1.0000 </r>
       <r>  -34.9885    1.0000 </r>
       <r>  -34.9337    1.0000 </r>
       <r>  -34.9295    1.0000 </r>
       <r>  -34.8402    1.0000 </r>
       <r>  -34.8361    1.0000 </r>
       <r>  -12.9848    1.0000 </r>
       <r>  -12.9297    1.0000 </r>
       <r>  -12.2847    1.0000 </r>
       <r>  -12.2128    1.0000 </r>
       <r>   -4.9904    1.0000 </r>
       <r>   -4.8146    1.0000 </r>
       <r>   -3.8828    1.0000 </r>
       <r>   -3.7411    1.0000 </r>
       <r>   -3.7097    1.0000 </r>
       <r>   -3.5775    1.0000 </r>
       <r>   -2.8533    1.0000 </r>
       <r>   -2.7851    1.0000 </r>
       <r>   -1.7840    1.0000 </r>
       <r>   -1.7695    1.0000 </r>
       <r>   -1.4168    1.0000 </r>
       <r>   -1.0979    1.0000 </r>
       <r>   -0.8457    1.0000 </r>
       <r>   -0.7461    1.0000 </r>
       <r>    1.8544   -0.0000 </r>
       <r>    2.0812   -0.0000 </r>
       <r>    2.2826   -0.0000 </r>
       <r>    2.3900   -0.0000 </r>
       <r>    2.7547   -0.0000 </r>
       <r>    2.9678   -0.0000 </r>
       <r>    3.8823    0.0000 </r>
       <r>    3.9545    0.0000 </r>
       <r>    6.8001    0.0000 </r>
       <r>    7.0548    0.0000 </r>
       <r>    7.7803    0.0000 </r>
       <r>    8.3130    0.0000 </r>
      </set>
      <set comment="kpoint 12">
       <r>  -35.0672    1.0000 </r>
       <r>  -35.0631    1.0000 </r>
       <r>  -34.9180    1.0000 </r>
       <r>  -34.9139    1.0000 </r>
       <r>  -34.8613    1.0000 </r>
       <r>  -34.8572    1.0000 </r>
       <r>  -12.5549    1.0000 </r>
       <r>  -12.5033    1.0000 </r>
       <r>  -12.1075    1.0000 </r>
       <r>  -12.0470    1.0000 </r>
       <r>   -5.2101    1.0000 </r>
       <r>   -5.1230    1.0000 </r>
       <r>   -4.2892    1.0000 </r>
       <r>   -4.1851    1.0000 </r>
       <r>   -3.8978    1.0000 </r>
       <r>   -3.6967    1.0000 </r>
       <r>   -3.0668    1.0000 </r>
       <r>   -2.9978    1.0000 </r>
       <r>   -1.7367    1.0000 </r>
       <r>   -1.6162    1.0000 </r>
       <r>   -1.6020    1.0000 </r>
       <r>   -1.3923    1.0000 </r>
       <r>   -0.8681    1.0000 </r>
       <r>   -0.7911    1.0000 </r>
       <r>    1.9650   -0.0000 </r>
       <r>    2.1157   -0.0000 </r>
       <r>    2.3244   -0.0000 </r>
       <r>    2.4511   -0.0000 </r>
       <r>    3.1771    0.0000 </r>
       <r>    3.3900    0.0000 </r>
       <r>    4.0742    0.0000 </r>
       <r>    4.1779    0.0000 </r>
       <r>    7.3266    0.0000 </r>
       <r>    7.5390    0.0000 </r>
       <r>    7.5990    0.0000 </r>
       <r>    8.1257    0.0000 </r>
      </set>
      <set comment="kpoint 13">
       <r>  -35.1195    1.0000 </r>
       <r>  -35.1155    1.0000 </r>
       <r>  -34.9069    1.0000 </r>
       <r>  -34.9027    1.0000 </r>
       <r>  -34.8761    1.0000 </r>
       <r>  -34.8720    1.0000 </r>
       <r>  -12.2142    1.0000 </r>
       <r>  -12.1662    1.0000 </r>
       <r>  -11.9699    1.0000 </r>
       <r>  -11.9189    1.0000 </r>
       <r>   -5.4930    1.0000 </r>
       <r>   -5.4291    1.0000 </r>
       <r>   -4.6755    1.0000 </r>
       <r>   -4.5911    1.0000 </r>
       <r>   -4.0019    1.0000 </r>
       <r>   -3.8058    1.0000 </r>
       <r>   -3.1540    1.0000 </r>
       <r>   -3.1043    1.0000 </r>
       <r>   -1.9697    1.0000 </r>
       <r>   -1.6424    1.0000 </r>
       <r>   -1.4906    1.0000 </r>
       <r>   -1.4291    1.0000 </r>
       <r>   -0.6588    1.0000 </r>
       <r>   -0.5614    1.0000 </r>
       <r>    2.1123   -0.0000 </r>
       <r>    2.1820   -0.0000 </r>
       <r>    2.5025   -0.0000 </r>
       <r>    2.6088   -0.0000 </r>
       <r>    3.5706    0.0000 </r>
       <r>    3.7565    0.0000 </r>
       <r>    4.0667    0.0000 </r>
       <r>    4.2182    0.0000 </r>
       <r>    6.3864    0.0000 </r>
       <r>    6.9776    0.0000 </r>
       <r>    8.0632    0.0000 </r>
       <r>    8.2745    0.0000 </r>
      </set>
      <set comment="kpoint 14">
       <r>  -35.1383    1.0000 </r>
       <r>  -35.1343    1.0000 </r>
       <r>  -34.9029    1.0000 </r>
       <r>  -34.8987    1.0000 </r>
       <r>  -34.8815    1.0000 </r>
       <r>  -34.8773    1.0000 </r>
       <r>  -12.0823    1.0000 </r>
       <r>  -12.0355    1.0000 </r>
       <r>  -11.9168    1.0000 </r>
       <r>  -11.8697    1.0000 </r>
       <r>   -5.6111    1.0000 </r>
       <r>   -5.5503    1.0000 </r>
       <r>   -4.8184    1.0000 </r>
       <r>   -4.7379    1.0000 </r>
       <r>   -4.0693    1.0000 </r>
       <r>   -3.8815    1.0000 </r>
       <r>   -3.1733    1.0000 </r>
       <r>   -3.1362    1.0000 </r>
       <r>   -2.0609    1.0000 </r>
       <r>   -1.7217    1.0000 </r>
       <r>   -1.4300    1.0000 </r>
       <r>   -1.3573    1.0000 </r>
       <r>   -0.5290    1.0000 </r>
       <r>   -0.4148    1.0000 </r>
       <r>    2.1508   -0.0000 </r>
       <r>    2.1793   -0.0000 </r>
       <r>    2.6500   -0.0000 </r>
       <r>    2.7280   -0.0000 </r>
       <r>    3.8164    0.0000 </r>
       <r>    3.9126    0.0000 </r>
       <r>    3.9832    0.0000 </r>
       <r>    4.1430    0.0000 </r>
       <r>    5.9501    0.0000 </r>
       <r>    6.5932    0.0000 </r>
       <r>    8.3349    0.0000 </r>
       <r>    8.4557    0.0000 </r>
      </set>
      <set comment="kpoint 15">
       <r>  -35.1195    1.0000 </r>
       <r>  -35.1155    1.0000 </r>
       <r>  -34.9069    1.0000 </r>
       <r>  -34.9027    1.0000 </r>
       <r>  -34.8762    1.0000 </r>
       <r>  -34.8720    1.0000 </r>
       <r>  -12.2146    1.0000 </r>
       <r>  -12.1659    1.0000 </r>
       <r>  -11.9702    1.0000 </r>
       <r>  -11.9184    1.0000 </r>
       <r>   -5.4931    1.0000 </r>
       <r>   -5.4289    1.0000 </r>
       <r>   -4.6760    1.0000 </r>
       <r>   -4.5906    1.0000 </r>
       <r>   -4.0020    1.0000 </r>
       <r>   -3.8055    1.0000 </r>
       <r>   -3.1537    1.0000 </r>
       <r>   -3.1052    1.0000 </r>
       <r>   -1.9723    1.0000 </r>
       <r>   -1.6434    1.0000 </r>
       <r>   -1.4963    1.0000 </r>
       <r>   -1.4181    1.0000 </r>
       <r>   -0.6581    1.0000 </r>
       <r>   -0.5621    1.0000 </r>
       <r>    2.1144   -0.0000 </r>
       <r>    2.1789   -0.0000 </r>
       <r>    2.5015   -0.0000 </r>
       <r>    2.6100   -0.0000 </r>
       <r>    3.5583    0.0000 </r>
       <r>    3.7682    0.0000 </r>
       <r>    4.0723    0.0000 </r>
       <r>    4.2147    0.0000 </r>
       <r>    6.3859    0.0000 </r>
       <r>    6.9782    0.0000 </r>
       <r>    8.0918    0.0000 </r>
       <r>    8.2153    0.0000 </r>
      </set>
      <set comment="kpoint 16">
       <r>  -35.0671    1.0000 </r>
       <r>  -35.0632    1.0000 </r>
       <r>  -34.9180    1.0000 </r>
       <r>  -34.9139    1.0000 </r>
       <r>  -34.8613    1.0000 </r>
       <r>  -34.8571    1.0000 </r>
       <r>  -12.5555    1.0000 </r>
       <r>  -12.5029    1.0000 </r>
       <r>  -12.1080    1.0000 </r>
       <r>  -12.0464    1.0000 </r>
       <r>   -5.2101    1.0000 </r>
       <r>   -5.1228    1.0000 </r>
       <r>   -4.2902    1.0000 </r>
       <r>   -4.1845    1.0000 </r>
       <r>   -3.8984    1.0000 </r>
       <r>   -3.6954    1.0000 </r>
       <r>   -3.0676    1.0000 </r>
       <r>   -2.9983    1.0000 </r>
       <r>   -1.7444    1.0000 </r>
       <r>   -1.6165    1.0000 </r>
       <r>   -1.5992    1.0000 </r>
       <r>   -1.3851    1.0000 </r>
       <r>   -0.8681    1.0000 </r>
       <r>   -0.7905    1.0000 </r>
       <r>    1.9635   -0.0000 </r>
       <r>    2.1152   -0.0000 </r>
       <r>    2.3244   -0.0000 </r>
       <r>    2.4524   -0.0000 </r>
       <r>    3.1661    0.0000 </r>
       <r>    3.4022    0.0000 </r>
       <r>    4.0760    0.0000 </r>
       <r>    4.1753    0.0000 </r>
       <r>    7.3257    0.0000 </r>
       <r>    7.5486    0.0000 </r>
       <r>    7.5904    0.0000 </r>
       <r>    8.1196    0.0000 </r>
      </set>
      <set comment="kpoint 17">
       <r>  -34.9925    1.0000 </r>
       <r>  -34.9885    1.0000 </r>
       <r>  -34.9337    1.0000 </r>
       <r>  -34.9295    1.0000 </r>
       <r>  -34.8403    1.0000 </r>
       <r>  -34.8361    1.0000 </r>
       <r>  -12.9852    1.0000 </r>
       <r>  -12.9294    1.0000 </r>
       <r>  -12.2852    1.0000 </r>
       <r>  -12.2122    1.0000 </r>
       <r>   -4.9904    1.0000 </r>
       <r>   -4.8147    1.0000 </r>
       <r>   -3.8848    1.0000 </r>
       <r>   -3.7389    1.0000 </r>
       <r>   -3.7109    1.0000 </r>
       <r>   -3.5763    1.0000 </r>
       <r>   -2.8549    1.0000 </r>
       <r>   -2.7846    1.0000 </r>
       <r>   -1.7830    1.0000 </r>
       <r>   -1.7717    1.0000 </r>
       <r>   -1.4198    1.0000 </r>
       <r>   -1.0937    1.0000 </r>
       <r>   -0.8456    1.0000 </r>
       <r>   -0.7428    1.0000 </r>
       <r>    1.8511   -0.0000 </r>
       <r>    2.0834   -0.0000 </r>
       <r>    2.2824   -0.0000 </r>
       <r>    2.3910   -0.0000 </r>
       <r>    2.7467   -0.0000 </r>
       <r>    2.9755   -0.0000 </r>
       <r>    3.8843    0.0000 </r>
       <r>    3.9510    0.0000 </r>
       <r>    6.8003    0.0000 </r>
       <r>    7.0547    0.0000 </r>
       <r>    7.8070    0.0000 </r>
       <r>    8.3526    0.0000 </r>
      </set>
      <set comment="kpoint 18">
       <r>  -34.9503    1.0000 </r>
       <r>  -34.9462    1.0000 </r>
       <r>  -34.9121    1.0000 </r>
       <r>  -34.9082    1.0000 </r>
       <r>  -34.8179    1.0000 </r>
       <r>  -34.8137    1.0000 </r>
       <r>  -13.3944    1.0000 </r>
       <r>  -13.3369    1.0000 </r>
       <r>  -12.4566    1.0000 </r>
       <r>  -12.3734    1.0000 </r>
       <r>   -5.1186    1.0000 </r>
       <r>   -4.8423    1.0000 </r>
       <r>   -3.5620    1.0000 </r>
       <r>   -3.5202    1.0000 </r>
       <r>   -3.2217    1.0000 </r>
       <r>   -2.9891    1.0000 </r>
       <r>   -2.4586    1.0000 </r>
       <r>   -2.4228    1.0000 </r>
       <r>   -2.0633    1.0000 </r>
       <r>   -2.0568    1.0000 </r>
       <r>   -1.2012    1.0000 </r>
       <r>   -0.8554    1.0000 </r>
       <r>   -0.5430    1.0000 </r>
       <r>   -0.3579    1.0000 </r>
       <r>    1.9504   -0.0000 </r>
       <r>    2.2039   -0.0000 </r>
       <r>    2.3983   -0.0000 </r>
       <r>    2.4416   -0.0000 </r>
       <r>    2.4707   -0.0000 </r>
       <r>    2.6529   -0.0000 </r>
       <r>    3.5398    0.0000 </r>
       <r>    3.5796    0.0000 </r>
       <r>    6.1807    0.0000 </r>
       <r>    6.5024    0.0000 </r>
       <r>    7.2335    0.0000 </r>
       <r>    8.1963    0.0000 </r>
      </set>
      <set comment="kpoint 19">
       <r>  -34.9641    1.0000 </r>
       <r>  -34.9599    1.0000 </r>
       <r>  -34.8445    1.0000 </r>
       <r>  -34.8407    1.0000 </r>
       <r>  -34.7994    1.0000 </r>
       <r>  -34.7952    1.0000 </r>
       <r>  -13.7065    1.0000 </r>
       <r>  -13.6483    1.0000 </r>
       <r>  -12.5882    1.0000 </r>
       <r>  -12.4973    1.0000 </r>
       <r>   -5.3980    1.0000 </r>
       <r>   -5.1003    1.0000 </r>
       <r>   -3.1102    1.0000 </r>
       <r>   -3.0972    1.0000 </r>
       <r>   -2.7894    1.0000 </r>
       <r>   -2.4684    1.0000 </r>
       <r>   -2.3468    1.0000 </r>
       <r>   -2.3416    1.0000 </r>
       <r>   -1.9664    1.0000 </r>
       <r>   -1.9548    1.0000 </r>
       <r>   -1.2098    1.0000 </r>
       <r>   -0.8555    1.0000 </r>
       <r>   -0.3108    1.0000 </r>
       <r>    0.0065    1.0003 </r>
       <r>    2.2815   -0.0000 </r>
       <r>    2.4364   -0.0000 </r>
       <r>    2.4650   -0.0000 </r>
       <r>    2.5833   -0.0000 </r>
       <r>    2.6318   -0.0000 </r>
       <r>    2.6586   -0.0000 </r>
       <r>    3.1406    0.0000 </r>
       <r>    3.1567    0.0000 </r>
       <r>    5.7352    0.0000 </r>
       <r>    6.0777    0.0000 </r>
       <r>    7.0028    0.0000 </r>
       <r>    7.6090    0.0000 </r>
      </set>
      <set comment="kpoint 20">
       <r>  -34.9604    1.0000 </r>
       <r>  -34.9563    1.0000 </r>
       <r>  -34.8643    1.0000 </r>
       <r>  -34.8600    1.0000 </r>
       <r>  -34.8026    1.0000 </r>
       <r>  -34.7987    1.0000 </r>
       <r>  -13.6254    1.0000 </r>
       <r>  -13.5679    1.0000 </r>
       <r>  -12.5538    1.0000 </r>
       <r>  -12.4658    1.0000 </r>
       <r>   -5.3188    1.0000 </r>
       <r>   -5.0259    1.0000 </r>
       <r>   -3.2487    1.0000 </r>
       <r>   -3.2305    1.0000 </r>
       <r>   -2.9510    1.0000 </r>
       <r>   -2.6699    1.0000 </r>
       <r>   -2.2611    1.0000 </r>
       <r>   -2.2526    1.0000 </r>
       <r>   -1.9880    1.0000 </r>
       <r>   -1.9767    1.0000 </r>
       <r>   -1.2728    1.0000 </r>
       <r>   -0.9165    1.0000 </r>
       <r>   -0.3640    1.0000 </r>
       <r>   -0.1068    1.0000 </r>
       <r>    2.1860   -0.0000 </r>
       <r>    2.3786   -0.0000 </r>
       <r>    2.5069   -0.0000 </r>
       <r>    2.5592   -0.0000 </r>
       <r>    2.6019   -0.0000 </r>
       <r>    2.6402   -0.0000 </r>
       <r>    3.2003    0.0000 </r>
       <r>    3.2351    0.0000 </r>
       <r>    5.8485    0.0000 </r>
       <r>    6.1836    0.0000 </r>
       <r>    7.0908    0.0000 </r>
       <r>    7.8259    0.0000 </r>
      </set>
      <set comment="kpoint 21">
       <r>  -34.9504    1.0000 </r>
       <r>  -34.9462    1.0000 </r>
       <r>  -34.9123    1.0000 </r>
       <r>  -34.9081    1.0000 </r>
       <r>  -34.8178    1.0000 </r>
       <r>  -34.8138    1.0000 </r>
       <r>  -13.3939    1.0000 </r>
       <r>  -13.3373    1.0000 </r>
       <r>  -12.4559    1.0000 </r>
       <r>  -12.3741    1.0000 </r>
       <r>   -5.1179    1.0000 </r>
       <r>   -4.8428    1.0000 </r>
       <r>   -3.5598    1.0000 </r>
       <r>   -3.5223    1.0000 </r>
       <r>   -3.2223    1.0000 </r>
       <r>   -2.9891    1.0000 </r>
       <r>   -2.4586    1.0000 </r>
       <r>   -2.4220    1.0000 </r>
       <r>   -2.0653    1.0000 </r>
       <r>   -2.0547    1.0000 </r>
       <r>   -1.1866    1.0000 </r>
       <r>   -0.8660    1.0000 </r>
       <r>   -0.5398    1.0000 </r>
       <r>   -0.3748    1.0000 </r>
       <r>    1.9604   -0.0000 </r>
       <r>    2.2047   -0.0000 </r>
       <r>    2.3923   -0.0000 </r>
       <r>    2.4481   -0.0000 </r>
       <r>    2.4739   -0.0000 </r>
       <r>    2.6475   -0.0000 </r>
       <r>    3.5295    0.0000 </r>
       <r>    3.5906    0.0000 </r>
       <r>    6.1817    0.0000 </r>
       <r>    6.5012    0.0000 </r>
       <r>    7.2412    0.0000 </r>
       <r>    8.2210    0.0000 </r>
      </set>
      <set comment="kpoint 22">
       <r>  -34.9744    1.0000 </r>
       <r>  -34.9702    1.0000 </r>
       <r>  -34.9361    1.0000 </r>
       <r>  -34.9319    1.0000 </r>
       <r>  -34.8441    1.0000 </r>
       <r>  -34.8402    1.0000 </r>
       <r>  -13.0456    1.0000 </r>
       <r>  -12.9907    1.0000 </r>
       <r>  -12.3084    1.0000 </r>
       <r>  -12.2358    1.0000 </r>
       <r>   -4.9429    1.0000 </r>
       <r>   -4.7388    1.0000 </r>
       <r>   -3.8164    1.0000 </r>
       <r>   -3.7068    1.0000 </r>
       <r>   -3.5121    1.0000 </r>
       <r>   -3.3838    1.0000 </r>
       <r>   -3.0898    1.0000 </r>
       <r>   -2.9746    1.0000 </r>
       <r>   -1.9378    1.0000 </r>
       <r>   -1.9197    1.0000 </r>
       <r>   -1.1732    1.0000 </r>
       <r>   -0.9001    1.0000 </r>
       <r>   -0.7776    1.0000 </r>
       <r>   -0.6829    1.0000 </r>
       <r>    1.7624   -0.0000 </r>
       <r>    2.0083   -0.0000 </r>
       <r>    2.3242   -0.0000 </r>
       <r>    2.4254   -0.0000 </r>
       <r>    2.5247   -0.0000 </r>
       <r>    2.7285   -0.0000 </r>
       <r>    3.9181    0.0000 </r>
       <r>    4.0176    0.0000 </r>
       <r>    6.7182    0.0000 </r>
       <r>    6.9946    0.0000 </r>
       <r>    7.7450    0.0000 </r>
       <r>    8.5404    0.0000 </r>
      </set>
      <set comment="kpoint 23">
       <r>  -35.0372    1.0000 </r>
       <r>  -35.0331    1.0000 </r>
       <r>  -34.9209    1.0000 </r>
       <r>  -34.9167    1.0000 </r>
       <r>  -34.8745    1.0000 </r>
       <r>  -34.8705    1.0000 </r>
       <r>  -12.6401    1.0000 </r>
       <r>  -12.5884    1.0000 </r>
       <r>  -12.1369    1.0000 </r>
       <r>  -12.0749    1.0000 </r>
       <r>   -5.0154    1.0000 </r>
       <r>   -4.9077    1.0000 </r>
       <r>   -4.0922    1.0000 </r>
       <r>   -4.0347    1.0000 </r>
       <r>   -3.8110    1.0000 </r>
       <r>   -3.6153    1.0000 </r>
       <r>   -3.3052    1.0000 </r>
       <r>   -3.1432    1.0000 </r>
       <r>   -2.0684    1.0000 </r>
       <r>   -2.0375    1.0000 </r>
       <r>   -1.3936    1.0000 </r>
       <r>   -1.1301    1.0000 </r>
       <r>   -0.8339    1.0000 </r>
       <r>   -0.7848    1.0000 </r>
       <r>    1.7924   -0.0000 </r>
       <r>    2.0609   -0.0000 </r>
       <r>    2.3951   -0.0000 </r>
       <r>    2.4656   -0.0000 </r>
       <r>    2.7871   -0.0000 </r>
       <r>    2.9831   -0.0000 </r>
       <r>    4.1660    0.0000 </r>
       <r>    4.3067    0.0000 </r>
       <r>    7.3937    0.0000 </r>
       <r>    7.5825    0.0000 </r>
       <r>    8.0567    0.0000 </r>
       <r>    8.5262    0.0000 </r>
      </set>
      <set comment="kpoint 24">
       <r>  -35.0878    1.0000 </r>
       <r>  -35.0837    1.0000 </r>
       <r>  -34.9083    1.0000 </r>
       <r>  -34.9042    1.0000 </r>
       <r>  -34.9005    1.0000 </r>
       <r>  -34.8964    1.0000 </r>
       <r>  -12.2672    1.0000 </r>
       <r>  -12.2194    1.0000 </r>
       <r>  -11.9798    1.0000 </r>
       <r>  -11.9278    1.0000 </r>
       <r>   -5.2153    1.0000 </r>
       <r>   -5.1453    1.0000 </r>
       <r>   -4.6347    1.0000 </r>
       <r>   -4.5858    1.0000 </r>
       <r>   -3.8430    1.0000 </r>
       <r>   -3.6320    1.0000 </r>
       <r>   -3.2763    1.0000 </r>
       <r>   -3.1409    1.0000 </r>
       <r>   -2.2091    1.0000 </r>
       <r>   -2.1546    1.0000 </r>
       <r>   -1.7328    1.0000 </r>
       <r>   -1.4606    1.0000 </r>
       <r>   -0.6602    1.0000 </r>
       <r>   -0.6144    1.0000 </r>
       <r>    2.0164   -0.0000 </r>
       <r>    2.2346   -0.0000 </r>
       <r>    2.5168   -0.0000 </r>
       <r>    2.5692   -0.0000 </r>
       <r>    3.1393    0.0000 </r>
       <r>    3.2988    0.0000 </r>
       <r>    4.2268    0.0000 </r>
       <r>    4.4191    0.0000 </r>
       <r>    7.0219    0.0000 </r>
       <r>    7.5707    0.0000 </r>
       <r>    8.1928    0.0000 </r>
       <r>    8.4974    0.0000 </r>
      </set>
      <set comment="kpoint 25">
       <r>  -35.1159    1.0000 </r>
       <r>  -35.1119    1.0000 </r>
       <r>  -34.9154    1.0000 </r>
       <r>  -34.9113    1.0000 </r>
       <r>  -34.9011    1.0000 </r>
       <r>  -34.8969    1.0000 </r>
       <r>  -12.0384    1.0000 </r>
       <r>  -11.9927    1.0000 </r>
       <r>  -11.8828    1.0000 </r>
       <r>  -11.8373    1.0000 </r>
       <r>   -5.3473    1.0000 </r>
       <r>   -5.2873    1.0000 </r>
       <r>   -4.9429    1.0000 </r>
       <r>   -4.8941    1.0000 </r>
       <r>   -3.9763    1.0000 </r>
       <r>   -3.7832    1.0000 </r>
       <r>   -3.1873    1.0000 </r>
       <r>   -3.0884    1.0000 </r>
       <r>   -2.2287    1.0000 </r>
       <r>   -2.1375    1.0000 </r>
       <r>   -1.9875    1.0000 </r>
       <r>   -1.6993    1.0000 </r>
       <r>   -0.4365    1.0000 </r>
       <r>   -0.3693    1.0000 </r>
       <r>    2.0688   -0.0000 </r>
       <r>    2.1287   -0.0000 </r>
       <r>    2.7630   -0.0000 </r>
       <r>    2.8849   -0.0000 </r>
       <r>    3.3977    0.0000 </r>
       <r>    3.5245    0.0000 </r>
       <r>    4.1633    0.0000 </r>
       <r>    4.4101    0.0000 </r>
       <r>    6.2908    0.0000 </r>
       <r>    6.9591    0.0000 </r>
       <r>    8.7370    0.0000 </r>
       <r>    8.8887    0.0000 </r>
      </set>
      <set comment="kpoint 26">
       <r>  -35.1159    1.0000 </r>
       <r>  -35.1119    1.0000 </r>
       <r>  -34.9154    1.0000 </r>
       <r>  -34.9113    1.0000 </r>
       <r>  -34.9011    1.0000 </r>
       <r>  -34.8969    1.0000 </r>
       <r>  -12.0390    1.0000 </r>
       <r>  -11.9923    1.0000 </r>
       <r>  -11.8832    1.0000 </r>
       <r>  -11.8367    1.0000 </r>
       <r>   -5.3474    1.0000 </r>
       <r>   -5.2870    1.0000 </r>
       <r>   -4.9431    1.0000 </r>
       <r>   -4.8939    1.0000 </r>
       <r>   -3.9764    1.0000 </r>
       <r>   -3.7831    1.0000 </r>
       <r>   -3.1870    1.0000 </r>
       <r>   -3.0893    1.0000 </r>
       <r>   -2.2362    1.0000 </r>
       <r>   -2.1336    1.0000 </r>
       <r>   -1.9844    1.0000 </r>
       <r>   -1.6973    1.0000 </r>
       <r>   -0.4366    1.0000 </r>
       <r>   -0.3694    1.0000 </r>
       <r>    2.0700   -0.0000 </r>
       <r>    2.1275   -0.0000 </r>
       <r>    2.7632   -0.0000 </r>
       <r>    2.8844   -0.0000 </r>
       <r>    3.3817    0.0000 </r>
       <r>    3.5422    0.0000 </r>
       <r>    4.1639    0.0000 </r>
       <r>    4.4096    0.0000 </r>
       <r>    6.2897    0.0000 </r>
       <r>    6.9592    0.0000 </r>
       <r>    8.7142    0.0000 </r>
       <r>    8.8799    0.0000 </r>
      </set>
      <set comment="kpoint 27">
       <r>  -35.0877    1.0000 </r>
       <r>  -35.0838    1.0000 </r>
       <r>  -34.9083    1.0000 </r>
       <r>  -34.9042    1.0000 </r>
       <r>  -34.9005    1.0000 </r>
       <r>  -34.8963    1.0000 </r>
       <r>  -12.2684    1.0000 </r>
       <r>  -12.2186    1.0000 </r>
       <r>  -11.9807    1.0000 </r>
       <r>  -11.9265    1.0000 </r>
       <r>   -5.2154    1.0000 </r>
       <r>   -5.1447    1.0000 </r>
       <r>   -4.6354    1.0000 </r>
       <r>   -4.5850    1.0000 </r>
       <r>   -3.8445    1.0000 </r>
       <r>   -3.6311    1.0000 </r>
       <r>   -3.2772    1.0000 </r>
       <r>   -3.1414    1.0000 </r>
       <r>   -2.2186    1.0000 </r>
       <r>   -2.1479    1.0000 </r>
       <r>   -1.7304    1.0000 </r>
       <r>   -1.4558    1.0000 </r>
       <r>   -0.6600    1.0000 </r>
       <r>   -0.6153    1.0000 </r>
       <r>    2.0185   -0.0000 </r>
       <r>    2.2308   -0.0000 </r>
       <r>    2.5158   -0.0000 </r>
       <r>    2.5715   -0.0000 </r>
       <r>    3.1208    0.0000 </r>
       <r>    3.3202    0.0000 </r>
       <r>    4.2274    0.0000 </r>
       <r>    4.4175    0.0000 </r>
       <r>    7.0219    0.0000 </r>
       <r>    7.5703    0.0000 </r>
       <r>    8.2208    0.0000 </r>
       <r>    8.4615    0.0000 </r>
      </set>
      <set comment="kpoint 28">
       <r>  -35.0370    1.0000 </r>
       <r>  -35.0332    1.0000 </r>
       <r>  -34.9209    1.0000 </r>
       <r>  -34.9167    1.0000 </r>
       <r>  -34.8746    1.0000 </r>
       <r>  -34.8704    1.0000 </r>
       <r>  -12.6412    1.0000 </r>
       <r>  -12.5876    1.0000 </r>
       <r>  -12.1380    1.0000 </r>
       <r>  -12.0736    1.0000 </r>
       <r>   -5.0149    1.0000 </r>
       <r>   -4.9078    1.0000 </r>
       <r>   -4.0930    1.0000 </r>
       <r>   -4.0319    1.0000 </r>
       <r>   -3.8177    1.0000 </r>
       <r>   -3.6120    1.0000 </r>
       <r>   -3.3068    1.0000 </r>
       <r>   -3.1421    1.0000 </r>
       <r>   -2.0663    1.0000 </r>
       <r>   -2.0403    1.0000 </r>
       <r>   -1.3971    1.0000 </r>
       <r>   -1.1220    1.0000 </r>
       <r>   -0.8307    1.0000 </r>
       <r>   -0.7869    1.0000 </r>
       <r>    1.7911   -0.0000 </r>
       <r>    2.0608   -0.0000 </r>
       <r>    2.3950   -0.0000 </r>
       <r>    2.4678   -0.0000 </r>
       <r>    2.7764   -0.0000 </r>
       <r>    2.9931   -0.0000 </r>
       <r>    4.1661    0.0000 </r>
       <r>    4.3051    0.0000 </r>
       <r>    7.3936    0.0000 </r>
       <r>    7.5824    0.0000 </r>
       <r>    8.0697    0.0000 </r>
       <r>    8.4909    0.0000 </r>
      </set>
      <set comment="kpoint 29">
       <r>  -34.9742    1.0000 </r>
       <r>  -34.9703    1.0000 </r>
       <r>  -34.9361    1.0000 </r>
       <r>  -34.9319    1.0000 </r>
       <r>  -34.8443    1.0000 </r>
       <r>  -34.8400    1.0000 </r>
       <r>  -13.0464    1.0000 </r>
       <r>  -12.9901    1.0000 </r>
       <r>  -12.3094    1.0000 </r>
       <r>  -12.2347    1.0000 </r>
       <r>   -4.9427    1.0000 </r>
       <r>   -4.7393    1.0000 </r>
       <r>   -3.8207    1.0000 </r>
       <r>   -3.7012    1.0000 </r>
       <r>   -3.5132    1.0000 </r>
       <r>   -3.3842    1.0000 </r>
       <r>   -3.0927    1.0000 </r>
       <r>   -2.9724    1.0000 </r>
       <r>   -1.9345    1.0000 </r>
       <r>   -1.9233    1.0000 </r>
       <r>   -1.1842    1.0000 </r>
       <r>   -0.8934    1.0000 </r>
       <r>   -0.7770    1.0000 </r>
       <r>   -0.6719    1.0000 </r>
       <r>    1.7590   -0.0000 </r>
       <r>    2.0091   -0.0000 </r>
       <r>    2.3236   -0.0000 </r>
       <r>    2.4272   -0.0000 </r>
       <r>    2.5188   -0.0000 </r>
       <r>    2.7310   -0.0000 </r>
       <r>    3.9218    0.0000 </r>
       <r>    4.0130    0.0000 </r>
       <r>    6.7180    0.0000 </r>
       <r>    6.9961    0.0000 </r>
       <r>    7.7420    0.0000 </r>
       <r>    8.5353    0.0000 </r>
      </set>
      <set comment="kpoint 30">
       <r>  -34.9459    1.0000 </r>
       <r>  -34.9442    1.0000 </r>
       <r>  -34.9420    1.0000 </r>
       <r>  -34.9397    1.0000 </r>
       <r>  -34.8214    1.0000 </r>
       <r>  -34.8175    1.0000 </r>
       <r>  -13.2502    1.0000 </r>
       <r>  -13.1946    1.0000 </r>
       <r>  -12.3959    1.0000 </r>
       <r>  -12.3185    1.0000 </r>
       <r>   -5.0539    1.0000 </r>
       <r>   -4.8101    1.0000 </r>
       <r>   -3.7204    1.0000 </r>
       <r>   -3.6545    1.0000 </r>
       <r>   -3.4777    1.0000 </r>
       <r>   -3.2895    1.0000 </r>
       <r>   -2.3841    1.0000 </r>
       <r>   -2.3709    1.0000 </r>
       <r>   -1.8935    1.0000 </r>
       <r>   -1.8813    1.0000 </r>
       <r>   -1.4484    1.0000 </r>
       <r>   -1.1040    1.0000 </r>
       <r>   -0.6820    1.0000 </r>
       <r>   -0.5567    1.0000 </r>
       <r>    1.9555   -0.0000 </r>
       <r>    2.2555   -0.0000 </r>
       <r>    2.3097   -0.0000 </r>
       <r>    2.3528   -0.0000 </r>
       <r>    2.7026   -0.0000 </r>
       <r>    2.9210   -0.0000 </r>
       <r>    3.5765    0.0000 </r>
       <r>    3.6261    0.0000 </r>
       <r>    6.3838    0.0000 </r>
       <r>    6.6757    0.0000 </r>
       <r>    7.4011    0.0000 </r>
       <r>    8.1925    0.0000 </r>
      </set>
      <set comment="kpoint 31">
       <r>  -34.9927    1.0000 </r>
       <r>  -34.9884    1.0000 </r>
       <r>  -34.9337    1.0000 </r>
       <r>  -34.9295    1.0000 </r>
       <r>  -34.8401    1.0000 </r>
       <r>  -34.8362    1.0000 </r>
       <r>  -12.9840    1.0000 </r>
       <r>  -12.9303    1.0000 </r>
       <r>  -12.2837    1.0000 </r>
       <r>  -12.2139    1.0000 </r>
       <r>   -4.9908    1.0000 </r>
       <r>   -4.8145    1.0000 </r>
       <r>   -3.8752    1.0000 </r>
       <r>   -3.7508    1.0000 </r>
       <r>   -3.7051    1.0000 </r>
       <r>   -3.5796    1.0000 </r>
       <r>   -2.8545    1.0000 </r>
       <r>   -2.7841    1.0000 </r>
       <r>   -1.7869    1.0000 </r>
       <r>   -1.7670    1.0000 </r>
       <r>   -1.3987    1.0000 </r>
       <r>   -1.1122    1.0000 </r>
       <r>   -0.8434    1.0000 </r>
       <r>   -0.7579    1.0000 </r>
       <r>    1.8544   -0.0000 </r>
       <r>    2.0853   -0.0000 </r>
       <r>    2.2807   -0.0000 </r>
       <r>    2.3945   -0.0000 </r>
       <r>    2.7507   -0.0000 </r>
       <r>    2.9730   -0.0000 </r>
       <r>    3.8727    0.0000 </r>
       <r>    3.9622    0.0000 </r>
       <r>    6.8016    0.0000 </r>
       <r>    7.0503    0.0000 </r>
       <r>    7.7933    0.0000 </r>
       <r>    8.3766    0.0000 </r>
      </set>
      <set comment="kpoint 32">
       <r>  -35.0372    1.0000 </r>
       <r>  -35.0330    1.0000 </r>
       <r>  -34.9209    1.0000 </r>
       <r>  -34.9167    1.0000 </r>
       <r>  -34.8744    1.0000 </r>
       <r>  -34.8705    1.0000 </r>
       <r>  -12.6395    1.0000 </r>
       <r>  -12.5889    1.0000 </r>
       <r>  -12.1362    1.0000 </r>
       <r>  -12.0757    1.0000 </r>
       <r>   -5.0155    1.0000 </r>
       <r>   -4.9080    1.0000 </r>
       <r>   -4.0917    1.0000 </r>
       <r>   -4.0403    1.0000 </r>
       <r>   -3.7962    1.0000 </r>
       <r>   -3.6206    1.0000 </r>
       <r>   -3.3071    1.0000 </r>
       <r>   -3.1457    1.0000 </r>
       <r>   -2.0698    1.0000 </r>
       <r>   -2.0365    1.0000 </r>
       <r>   -1.3839    1.0000 </r>
       <r>   -1.1378    1.0000 </r>
       <r>   -0.8347    1.0000 </r>
       <r>   -0.7870    1.0000 </r>
       <r>    1.7902   -0.0000 </r>
       <r>    2.0610   -0.0000 </r>
       <r>    2.3966   -0.0000 </r>
       <r>    2.4679   -0.0000 </r>
       <r>    2.7789   -0.0000 </r>
       <r>    2.9922   -0.0000 </r>
       <r>    4.1667    0.0000 </r>
       <r>    4.3045    0.0000 </r>
       <r>    7.3938    0.0000 </r>
       <r>    7.5810    0.0000 </r>
       <r>    8.0871    0.0000 </r>
       <r>    8.5095    0.0000 </r>
      </set>
      <set comment="kpoint 33">
       <r>  -35.0697    1.0000 </r>
       <r>  -35.0655    1.0000 </r>
       <r>  -34.9160    1.0000 </r>
       <r>  -34.9121    1.0000 </r>
       <r>  -34.9088    1.0000 </r>
       <r>  -34.9046    1.0000 </r>
       <r>  -12.2866    1.0000 </r>
       <r>  -12.2398    1.0000 </r>
       <r>  -11.9818    1.0000 </r>
       <r>  -11.9308    1.0000 </r>
       <r>   -5.0691    1.0000 </r>
       <r>   -4.9930    1.0000 </r>
       <r>   -4.6143    1.0000 </r>
       <r>   -4.5858    1.0000 </r>
       <r>   -3.6967    1.0000 </r>
       <r>   -3.4849    1.0000 </r>
       <r>   -3.3381    1.0000 </r>
       <r>   -3.1677    1.0000 </r>
       <r>   -2.6009    1.0000 </r>
       <r>   -2.5615    1.0000 </r>
       <r>   -1.6100    1.0000 </r>
       <r>   -1.3694    1.0000 </r>
       <r>   -0.6835    1.0000 </r>
       <r>   -0.6520    1.0000 </r>
       <r>    1.9612   -0.0000 </r>
       <r>    2.2424   -0.0000 </r>
       <r>    2.5340   -0.0000 </r>
       <r>    2.5632   -0.0000 </r>
       <r>    2.9121   -0.0000 </r>
       <r>    3.0992    0.0000 </r>
       <r>    4.3399    0.0000 </r>
       <r>    4.5163    0.0000 </r>
       <r>    7.4867    0.0000 </r>
       <r>    7.8871    0.0000 </r>
       <r>    8.1877    0.0000 </r>
       <r>    8.4905    0.0000 </r>
      </set>
      <set comment="kpoint 34">
       <r>  -35.0865    1.0000 </r>
       <r>  -35.0824    1.0000 </r>
       <r>  -34.9516    1.0000 </r>
       <r>  -34.9476    1.0000 </r>
       <r>  -34.9002    1.0000 </r>
       <r>  -34.8960    1.0000 </r>
       <r>  -12.0167    1.0000 </r>
       <r>  -11.9726    1.0000 </r>
       <r>  -11.8601    1.0000 </r>
       <r>  -11.8164    1.0000 </r>
       <r>   -5.0627    1.0000 </r>
       <r>   -5.0194    1.0000 </r>
       <r>   -5.0060    1.0000 </r>
       <r>   -4.9751    1.0000 </r>
       <r>   -3.7723    1.0000 </r>
       <r>   -3.5780    1.0000 </r>
       <r>   -3.1901    1.0000 </r>
       <r>   -3.0499    1.0000 </r>
       <r>   -2.9607    1.0000 </r>
       <r>   -2.8814    1.0000 </r>
       <r>   -1.9493    1.0000 </r>
       <r>   -1.6893    1.0000 </r>
       <r>   -0.4148    1.0000 </r>
       <r>   -0.3833    1.0000 </r>
       <r>    1.9549   -0.0000 </r>
       <r>    2.0389   -0.0000 </r>
       <r>    2.8366   -0.0000 </r>
       <r>    2.9845   -0.0000 </r>
       <r>    3.0598    0.0000 </r>
       <r>    3.2154    0.0000 </r>
       <r>    4.4431    0.0000 </r>
       <r>    4.6426    0.0000 </r>
       <r>    6.8533    0.0000 </r>
       <r>    7.4687    0.0000 </r>
       <r>    8.2627    0.0000 </r>
       <r>    8.7210    0.0000 </r>
      </set>
      <set comment="kpoint 35">
       <r>  -35.0908    1.0000 </r>
       <r>  -35.0868    1.0000 </r>
       <r>  -34.9662    1.0000 </r>
       <r>  -34.9620    1.0000 </r>
       <r>  -34.8971    1.0000 </r>
       <r>  -34.8929    1.0000 </r>
       <r>  -11.9164    1.0000 </r>
       <r>  -11.8717    1.0000 </r>
       <r>  -11.8124    1.0000 </r>
       <r>  -11.7712    1.0000 </r>
       <r>   -5.1930    1.0000 </r>
       <r>   -5.1597    1.0000 </r>
       <r>   -4.9858    1.0000 </r>
       <r>   -4.9342    1.0000 </r>
       <r>   -3.9238    1.0000 </r>
       <r>   -3.7518    1.0000 </r>
       <r>   -3.0802    1.0000 </r>
       <r>   -3.0351    1.0000 </r>
       <r>   -2.9543    1.0000 </r>
       <r>   -2.9078    1.0000 </r>
       <r>   -2.1351    1.0000 </r>
       <r>   -1.8588    1.0000 </r>
       <r>   -0.2452    1.0000 </r>
       <r>   -0.2029    1.0000 </r>
       <r>    1.8397   -0.0000 </r>
       <r>    1.8608   -0.0000 </r>
       <r>    3.0189    0.0000 </r>
       <r>    3.1060    0.0000 </r>
       <r>    3.2252    0.0000 </r>
       <r>    3.3042    0.0000 </r>
       <r>    4.4822    0.0000 </r>
       <r>    4.6894    0.0000 </r>
       <r>    6.5043    0.0000 </r>
       <r>    7.1818    0.0000 </r>
       <r>    8.1465    0.0000 </r>
       <r>    8.7192    0.0000 </r>
      </set>
      <set comment="kpoint 36">
       <r>  -35.0864    1.0000 </r>
       <r>  -35.0825    1.0000 </r>
       <r>  -34.9517    1.0000 </r>
       <r>  -34.9475    1.0000 </r>
       <r>  -34.9002    1.0000 </r>
       <r>  -34.8960    1.0000 </r>
       <r>  -12.0185    1.0000 </r>
       <r>  -11.9717    1.0000 </r>
       <r>  -11.8611    1.0000 </r>
       <r>  -11.8146    1.0000 </r>
       <r>   -5.0626    1.0000 </r>
       <r>   -5.0174    1.0000 </r>
       <r>   -5.0079    1.0000 </r>
       <r>   -4.9744    1.0000 </r>
       <r>   -3.7737    1.0000 </r>
       <r>   -3.5795    1.0000 </r>
       <r>   -3.1925    1.0000 </r>
       <r>   -3.0486    1.0000 </r>
       <r>   -2.9681    1.0000 </r>
       <r>   -2.8739    1.0000 </r>
       <r>   -1.9435    1.0000 </r>
       <r>   -1.6903    1.0000 </r>
       <r>   -0.4147    1.0000 </r>
       <r>   -0.3842    1.0000 </r>
       <r>    1.9560   -0.0000 </r>
       <r>    2.0384   -0.0000 </r>
       <r>    2.8322   -0.0000 </r>
       <r>    2.9911   -0.0000 </r>
       <r>    3.0457    0.0000 </r>
       <r>    3.2306    0.0000 </r>
       <r>    4.4412    0.0000 </r>
       <r>    4.6464    0.0000 </r>
       <r>    6.8418    0.0000 </r>
       <r>    7.4528    0.0000 </r>
       <r>    8.2384    0.0000 </r>
       <r>    8.6577    0.0000 </r>
      </set>
      <set comment="kpoint 37">
       <r>  -35.0695    1.0000 </r>
       <r>  -35.0656    1.0000 </r>
       <r>  -34.9162    1.0000 </r>
       <r>  -34.9121    1.0000 </r>
       <r>  -34.9088    1.0000 </r>
       <r>  -34.9045    1.0000 </r>
       <r>  -12.2887    1.0000 </r>
       <r>  -12.2383    1.0000 </r>
       <r>  -11.9835    1.0000 </r>
       <r>  -11.9284    1.0000 </r>
       <r>   -5.0691    1.0000 </r>
       <r>   -4.9923    1.0000 </r>
       <r>   -4.6143    1.0000 </r>
       <r>   -4.5839    1.0000 </r>
       <r>   -3.7103    1.0000 </r>
       <r>   -3.4804    1.0000 </r>
       <r>   -3.3380    1.0000 </r>
       <r>   -3.1635    1.0000 </r>
       <r>   -2.5954    1.0000 </r>
       <r>   -2.5665    1.0000 </r>
       <r>   -1.6112    1.0000 </r>
       <r>   -1.3629    1.0000 </r>
       <r>   -0.6788    1.0000 </r>
       <r>   -0.6574    1.0000 </r>
       <r>    1.9635   -0.0000 </r>
       <r>    2.2410   -0.0000 </r>
       <r>    2.5333   -0.0000 </r>
       <r>    2.5642   -0.0000 </r>
       <r>    2.9045   -0.0000 </r>
       <r>    3.1096    0.0000 </r>
       <r>    4.3344    0.0000 </r>
       <r>    4.5208    0.0000 </r>
       <r>    7.4664    0.0000 </r>
       <r>    7.8903    0.0000 </r>
       <r>    8.1695    0.0000 </r>
       <r>    8.4120    0.0000 </r>
      </set>
      <set comment="kpoint 38">
       <r>  -35.0310    1.0000 </r>
       <r>  -35.0268    1.0000 </r>
       <r>  -34.9272    1.0000 </r>
       <r>  -34.9230    1.0000 </r>
       <r>  -34.8413    1.0000 </r>
       <r>  -34.8374    1.0000 </r>
       <r>  -12.8098    1.0000 </r>
       <r>  -12.7583    1.0000 </r>
       <r>  -12.2132    1.0000 </r>
       <r>  -12.1493    1.0000 </r>
       <r>   -5.1041    1.0000 </r>
       <r>   -4.9816    1.0000 </r>
       <r>   -4.0529    1.0000 </r>
       <r>   -3.9192    1.0000 </r>
       <r>   -3.8546    1.0000 </r>
       <r>   -3.7223    1.0000 </r>
       <r>   -2.7400    1.0000 </r>
       <r>   -2.7256    1.0000 </r>
       <r>   -1.7217    1.0000 </r>
       <r>   -1.5013    1.0000 </r>
       <r>   -1.4818    1.0000 </r>
       <r>   -1.4009    1.0000 </r>
       <r>   -0.9739    1.0000 </r>
[...]
       <r>    -2.2786     1.6850    18.2753 </r>
       <r>    -2.1170     2.2677    18.6417 </r>
       <r>    -1.9554     4.2683    19.3314 </r>
       <r>    -1.7938     2.4898    19.7338 </r>
       <r>    -1.6322     3.7735    20.3435 </r>
       <r>    -1.4706     2.5046    20.7482 </r>
       <r>    -1.3091     3.3301    21.2863 </r>
       <r>    -1.1475     1.5249    21.5327 </r>
       <r>    -0.9859     1.7155    21.8099 </r>
       <r>    -0.8243     2.8514    22.2707 </r>
       <r>    -0.6627     3.2924    22.8027 </r>
       <r>    -0.5011     2.5196    23.2099 </r>
       <r>    -0.3395     2.5156    23.6163 </r>
       <r>    -0.1779     1.2241    23.8141 </r>
       <r>    -0.0163     0.7665    23.9380 </r>
       <r>     0.1452     0.1943    23.9694 </r>
       <r>     0.3068     0.1942    24.0008 </r>
       <r>     0.4684    -0.0046    24.0000 </r>
       <r>     0.6300    -0.0002    24.0000 </r>
       <r>     0.7916    -0.0000    24.0000 </r>
       <r>     0.9532    -0.0000    24.0000 </r>
       <r>     1.1148    -0.0000    24.0000 </r>
       <r>     1.2764    -0.0000    24.0000 </r>
       <r>     1.4380    -0.0003    23.9999 </r>
       <r>     1.5995    -0.0204    23.9966 </r>
       <r>     1.7611     0.6233    24.0974 </r>
       <r>     1.9227     1.6734    24.3678 </r>
       <r>     2.0843     3.9088    24.9994 </r>
       <r>     2.2459     4.9081    25.7925 </r>
       <r>     2.4075     3.8080    26.4078 </r>
       <r>     2.5691     5.2322    27.2533 </r>
       <r>     2.7307     4.2657    27.9426 </r>
       <r>     2.8923     3.1606    28.4533 </r>
       <r>     3.0538     2.6510    28.8817 </r>
       <r>     3.2154     2.8244    29.3381 </r>
       <r>     3.3770     1.9772    29.6575 </r>
       <r>     3.5386     1.7795    29.9451 </r>
       <r>     3.7002     1.7068    30.2209 </r>
       <r>     3.8618     1.1297    30.4035 </r>
       <r>     4.0234     2.1406    30.7494 </r>
       <r>     4.1850     2.7555    31.1946 </r>
       <r>     4.3466     2.0716    31.5294 </r>
       <r>     4.5081     1.5784    31.7844 </r>
       <r>     4.6697     0.8093    31.9152 </r>
       <r>     4.8313     0.4620    31.9898 </r>
       <r>     4.9929     0.0660    32.0005 </r>
       <r>     5.1545    -0.0034    32.0000 </r>
       <r>     5.3161     0.0023    32.0003 </r>
       <r>     5.4777     0.1141    32.0188 </r>
       <r>     5.6393     0.1438    32.0420 </r>
       <r>     5.8009     0.3187    32.0935 </r>
       <r>     5.9624     0.5249    32.1783 </r>
       <r>     6.1240     0.5312    32.2641 </r>
       <r>     6.2856     0.7969    32.3929 </r>
       <r>     6.4472     0.8902    32.5368 </r>
       <r>     6.6088     1.2416    32.7374 </r>
       <r>     6.7704     0.8060    32.8676 </r>
       <r>     6.9320     1.5551    33.1189 </r>
       <r>     7.0936     2.2695    33.4856 </r>
       <r>     7.2552     0.9610    33.6409 </r>
       <r>     7.4167     1.5173    33.8861 </r>
       <r>     7.5783     1.8654    34.1875 </r>
       <r>     7.7399     1.4626    34.4239 </r>
       <r>     7.9015     1.2754    34.6300 </r>
       <r>     8.0631     1.0869    34.8056 </r>
       <r>     8.2247     2.5188    35.2126 </r>
       <r>     8.3863     1.7123    35.4893 </r>
       <r>     8.5479     1.3191    35.7025 </r>
       <r>     8.7095     0.8175    35.8346 </r>
       <r>     8.8710     0.8202    35.9671 </r>
       <r>     9.0326     0.2142    36.0017 </r>
       <r>     9.1942    -0.0105    36.0000 </r>
       <r>     9.3558    -0.0000    36.0000 </r>
       <r>     9.5174    -0.0000    36.0000 </r>
       <r>     9.6790     0.0000    36.0000 </r>
       <r>     9.8406     0.0000    36.0000 </r>
       <r>    10.0022     0.0000    36.0000 </r>
       <r>    10.1638     0.0000    36.0000 </r>
       <r>    10.3253     0.0000    36.0000 </r>
       <r>    10.4869     0.0000    36.0000 </r>
       <r>    10.6485     0.0000    36.0000 </r>
       <r>    10.8101     0.0000    36.0000 </r>
       <r>    10.9717     0.0000    36.0000 </r>
       <r>    11.1333     0.0000    36.0000 </r>
      </set>
      <set comment="spin 2">
       <r>   -37.3434     0.0000     0.0000 </r>
       <r>   -37.1818     0.0000     0.0000 </r>
       <r>   -37.0202     0.0000     0.0000 </r>
       <r>   -36.8586     0.0000     0.0000 </r>
       <r>   -36.6970     0.0000     0.0000 </r>
       <r>   -36.5354     0.0000     0.0000 </r>
       <r>   -36.3738     0.0000     0.0000 </r>
       <r>   -36.2122     0.0000     0.0000 </r>
       <r>   -36.0507    -0.0000    -0.0000 </r>
       <r>   -35.8891    -0.0000    -0.0000 </r>
       <r>   -35.7275    -0.0000    -0.0000 </r>
       <r>   -35.5659    -0.0000    -0.0000 </r>
       <r>   -35.4043    -0.0009    -0.0001 </r>
       <r>   -35.2427    -0.1922    -0.0312 </r>
       <r>   -35.0811     4.2208     0.6508 </r>
       <r>   -34.9195    15.3651     3.1337 </r>
       <r>   -34.7579    17.7528     6.0023 </r>
       <r>   -34.5964     0.0124     6.0043 </r>
       <r>   -34.4348    -0.0268     6.0000 </r>
       <r>   -34.2732    -0.0000     6.0000 </r>
       <r>   -34.1116    -0.0000     6.0000 </r>
       <r>   -33.9500     0.0000     6.0000 </r>
       <r>   -33.7884     0.0000     6.0000 </r>
       <r>   -33.6268     0.0000     6.0000 </r>
       <r>   -33.4652     0.0000     6.0000 </r>
       <r>   -33.3036     0.0000     6.0000 </r>
       <r>   -33.1421     0.0000     6.0000 </r>
       <r>   -32.9805     0.0000     6.0000 </r>
       <r>   -32.8189     0.0000     6.0000 </r>
       <r>   -32.6573     0.0000     6.0000 </r>
       <r>   -32.4957     0.0000     6.0000 </r>
       <r>   -32.3341     0.0000     6.0000 </r>
       <r>   -32.1725     0.0000     6.0000 </r>
       <r>   -32.0109     0.0000     6.0000 </r>
       <r>   -31.8493     0.0000     6.0000 </r>
       <r>   -31.6878     0.0000     6.0000 </r>
       <r>   -31.5262     0.0000     6.0000 </r>
       <r>   -31.3646     0.0000     6.0000 </r>
       <r>   -31.2030     0.0000     6.0000 </r>
       <r>   -31.0414     0.0000     6.0000 </r>
       <r>   -30.8798     0.0000     6.0000 </r>
       <r>   -30.7182     0.0000     6.0000 </r>
       <r>   -30.5566     0.0000     6.0000 </r>
       <r>   -30.3950     0.0000     6.0000 </r>
       <r>   -30.2335     0.0000     6.0000 </r>
       <r>   -30.0719     0.0000     6.0000 </r>
       <r>   -29.9103     0.0000     6.0000 </r>
       <r>   -29.7487     0.0000     6.0000 </r>
       <r>   -29.5871     0.0000     6.0000 </r>
       <r>   -29.4255     0.0000     6.0000 </r>
       <r>   -29.2639     0.0000     6.0000 </r>
       <r>   -29.1023     0.0000     6.0000 </r>
       <r>   -28.9407     0.0000     6.0000 </r>
       <r>   -28.7792     0.0000     6.0000 </r>
       <r>   -28.6176     0.0000     6.0000 </r>
       <r>   -28.4560     0.0000     6.0000 </r>
       <r>   -28.2944     0.0000     6.0000 </r>
       <r>   -28.1328     0.0000     6.0000 </r>
       <r>   -27.9712     0.0000     6.0000 </r>
       <r>   -27.8096     0.0000     6.0000 </r>
       <r>   -27.6480     0.0000     6.0000 </r>
       <r>   -27.4864     0.0000     6.0000 </r>
       <r>   -27.3249     0.0000     6.0000 </r>
       <r>   -27.1633     0.0000     6.0000 </r>
       <r>   -27.0017     0.0000     6.0000 </r>
       <r>   -26.8401     0.0000     6.0000 </r>
       <r>   -26.6785     0.0000     6.0000 </r>
       <r>   -26.5169     0.0000     6.0000 </r>
       <r>   -26.3553     0.0000     6.0000 </r>
       <r>   -26.1937     0.0000     6.0000 </r>
       <r>   -26.0321     0.0000     6.0000 </r>
       <r>   -25.8706     0.0000     6.0000 </r>
       <r>   -25.7090     0.0000     6.0000 </r>
       <r>   -25.5474     0.0000     6.0000 </r>
       <r>   -25.3858     0.0000     6.0000 </r>
       <r>   -25.2242     0.0000     6.0000 </r>
       <r>   -25.0626     0.0000     6.0000 </r>
       <r>   -24.9010     0.0000     6.0000 </r>
       <r>   -24.7394     0.0000     6.0000 </r>
       <r>   -24.5778     0.0000     6.0000 </r>
       <r>   -24.4163     0.0000     6.0000 </r>
       <r>   -24.2547     0.0000     6.0000 </r>
       <r>   -24.0931     0.0000     6.0000 </r>
       <r>   -23.9315     0.0000     6.0000 </r>
       <r>   -23.7699     0.0000     6.0000 </r>
       <r>   -23.6083     0.0000     6.0000 </r>
       <r>   -23.4467     0.0000     6.0000 </r>
       <r>   -23.2851     0.0000     6.0000 </r>
       <r>   -23.1235     0.0000     6.0000 </r>
       <r>   -22.9620     0.0000     6.0000 </r>
       <r>   -22.8004     0.0000     6.0000 </r>
       <r>   -22.6388     0.0000     6.0000 </r>
       <r>   -22.4772     0.0000     6.0000 </r>
       <r>   -22.3156     0.0000     6.0000 </r>
       <r>   -22.1540     0.0000     6.0000 </r>
       <r>   -21.9924     0.0000     6.0000 </r>
       <r>   -21.8308     0.0000     6.0000 </r>
       <r>   -21.6693     0.0000     6.0000 </r>
       <r>   -21.5077     0.0000     6.0000 </r>
       <r>   -21.3461     0.0000     6.0000 </r>
       <r>   -21.1845     0.0000     6.0000 </r>
       <r>   -21.0229     0.0000     6.0000 </r>
       <r>   -20.8613     0.0000     6.0000 </r>
       <r>   -20.6997     0.0000     6.0000 </r>
       <r>   -20.5381     0.0000     6.0000 </r>
       <r>   -20.3765     0.0000     6.0000 </r>
       <r>   -20.2150     0.0000     6.0000 </r>
       <r>   -20.0534     0.0000     6.0000 </r>
       <r>   -19.8918     0.0000     6.0000 </r>
       <r>   -19.7302     0.0000     6.0000 </r>
       <r>   -19.5686     0.0000     6.0000 </r>
       <r>   -19.4070     0.0000     6.0000 </r>
       <r>   -19.2454     0.0000     6.0000 </r>
       <r>   -19.0838     0.0000     6.0000 </r>
       <r>   -18.9222     0.0000     6.0000 </r>
       <r>   -18.7607     0.0000     6.0000 </r>
       <r>   -18.5991     0.0000     6.0000 </r>
       <r>   -18.4375     0.0000     6.0000 </r>
       <r>   -18.2759     0.0000     6.0000 </r>
       <r>   -18.1143     0.0000     6.0000 </r>
       <r>   -17.9527     0.0000     6.0000 </r>
       <r>   -17.7911     0.0000     6.0000 </r>
       <r>   -17.6295     0.0000     6.0000 </r>
       <r>   -17.4679     0.0000     6.0000 </r>
       <r>   -17.3064     0.0000     6.0000 </r>
       <r>   -17.1448     0.0000     6.0000 </r>
       <r>   -16.9832     0.0000     6.0000 </r>
       <r>   -16.8216     0.0000     6.0000 </r>
       <r>   -16.6600     0.0000     6.0000 </r>
       <r>   -16.4984     0.0000     6.0000 </r>
       <r>   -16.3368     0.0000     6.0000 </r>
       <r>   -16.1752     0.0000     6.0000 </r>
       <r>   -16.0136     0.0000     6.0000 </r>
       <r>   -15.8521     0.0000     6.0000 </r>
       <r>   -15.6905     0.0000     6.0000 </r>
       <r>   -15.5289     0.0000     6.0000 </r>
       <r>   -15.3673     0.0000     6.0000 </r>
       <r>   -15.2057     0.0000     6.0000 </r>
       <r>   -15.0441     0.0000     6.0000 </r>
       <r>   -14.8825    -0.0000     6.0000 </r>
       <r>   -14.7209    -0.0000     6.0000 </r>
       <r>   -14.5593    -0.0000     6.0000 </r>
       <r>   -14.3978    -0.0000     6.0000 </r>
       <r>   -14.2362    -0.0000     6.0000 </r>
       <r>   -14.0746    -0.0038     5.9994 </r>
       <r>   -13.9130     0.0874     6.0135 </r>
       <r>   -13.7514     0.4433     6.0851 </r>
       <r>   -13.5898     0.6535     6.1907 </r>
       <r>   -13.4282     0.3130     6.2413 </r>
       <r>   -13.2666     0.8634     6.3808 </r>
       <r>   -13.1050     0.3512     6.4376 </r>
       <r>   -12.9435     0.9367     6.5889 </r>
       <r>   -12.7819     0.5970     6.6854 </r>
       <r>   -12.6203     0.9335     6.8363 </r>
       <r>   -12.4587     2.4923     7.2390 </r>
       <r>   -12.2971     2.1457     7.5857 </r>
       <r>   -12.1355     3.8322     8.2050 </r>
       <r>   -11.9739     4.7579     8.9738 </r>
       <r>   -11.8123     5.2666     9.8248 </r>
       <r>   -11.6507     1.1330    10.0079 </r>
       <r>   -11.4892    -0.0485    10.0000 </r>
       <r>   -11.3276    -0.0003    10.0000 </r>
       <r>   -11.1660    -0.0000    10.0000 </r>
       <r>   -11.0044    -0.0000    10.0000 </r>
       <r>   -10.8428     0.0000    10.0000 </r>
       <r>   -10.6812     0.0000    10.0000 </r>
       <r>   -10.5196     0.0000    10.0000 </r>
       <r>   -10.3580     0.0000    10.0000 </r>
       <r>   -10.1964     0.0000    10.0000 </r>
       <r>   -10.0349     0.0000    10.0000 </r>
       <r>    -9.8733     0.0000    10.0000 </r>
       <r>    -9.7117     0.0000    10.0000 </r>
       <r>    -9.5501     0.0000    10.0000 </r>
       <r>    -9.3885     0.0000    10.0000 </r>
       <r>    -9.2269     0.0000    10.0000 </r>
       <r>    -9.0653     0.0000    10.0000 </r>
       <r>    -8.9037     0.0000    10.0000 </r>
       <r>    -8.7421     0.0000    10.0000 </r>
       <r>    -8.5806     0.0000    10.0000 </r>
       <r>    -8.4190     0.0000    10.0000 </r>
       <r>    -8.2574     0.0000    10.0000 </r>
       <r>    -8.0958     0.0000    10.0000 </r>
       <r>    -7.9342     0.0000    10.0000 </r>
       <r>    -7.7726     0.0000    10.0000 </r>
       <r>    -7.6110     0.0000    10.0000 </r>
       <r>    -7.4494     0.0000    10.0000 </r>
       <r>    -7.2878     0.0000    10.0000 </r>
       <r>    -7.1263     0.0000    10.0000 </r>
       <r>    -6.9647     0.0000    10.0000 </r>
       <r>    -6.8031     0.0000    10.0000 </r>
       <r>    -6.6415     0.0000    10.0000 </r>
       <r>    -6.4799    -0.0000    10.0000 </r>
       <r>    -6.3183    -0.0000    10.0000 </r>
       <r>    -6.1567    -0.0000    10.0000 </r>
       <r>    -5.9951    -0.0000    10.0000 </r>
       <r>    -5.8335    -0.0064     9.9990 </r>
       <r>    -5.6720     0.1226    10.0188 </r>
       <r>    -5.5104     1.1139    10.1988 </r>
       <r>    -5.3488     1.6300    10.4622 </r>
       <r>    -5.1872     2.5099    10.8677 </r>
       <r>    -5.0256     3.7998    11.4817 </r>
       <r>    -4.8640     4.2206    12.1637 </r>
       <r>    -4.7024     1.9667    12.4815 </r>
       <r>    -4.5408     2.6289    12.9063 </r>
       <r>    -4.3792     0.4102    12.9726 </r>
       <r>    -4.2177     0.6365    13.0755 </r>
       <r>    -4.0561     1.2348    13.2750 </r>
       <r>    -3.8945     2.7323    13.7165 </r>
       <r>    -3.7329     4.8299    14.4970 </r>
       <r>    -3.5713     3.5917    15.0773 </r>
       <r>    -3.4097     1.9144    15.3867 </r>
       <r>    -3.2481     1.7738    15.6733 </r>
       <r>    -3.0865     5.1440    16.5045 </r>
       <r>    -2.9249     4.2920    17.1981 </r>
       <r>    -2.7634     2.3620    17.5797 </r>
       <r>    -2.6018     1.0474    17.7490 </r>
       <r>    -2.4402     1.5744    18.0034 </r>
       <r>    -2.2786     1.6844    18.2756 </r>
       <r>    -2.1170     2.2728    18.6429 </r>
       <r>    -1.9554     4.2679    19.3325 </r>
       <r>    -1.7938     2.4865    19.7343 </r>
       <r>    -1.6322     3.7798    20.3451 </r>
       <r>    -1.4706     2.5016    20.7493 </r>
       <r>    -1.3091     3.3247    21.2865 </r>
       <r>    -1.1475     1.5292    21.5336 </r>
       <r>    -0.9859     1.7143    21.8106 </r>
       <r>    -0.8243     2.8562    22.2722 </r>
       <r>    -0.6627     3.2866    22.8032 </r>
       <r>    -0.5011     2.5189    23.2103 </r>
       <r>    -0.3395     2.5154    23.6167 </r>
       <r>    -0.1779     1.2230    23.8143 </r>
       <r>    -0.0163     0.7648    23.9379 </r>
       <r>     0.1452     0.1945    23.9694 </r>
       <r>     0.3068     0.1943    24.0008 </r>
       <r>     0.4684    -0.0046    24.0000 </r>
       <r>     0.6300    -0.0002    24.0000 </r>
       <r>     0.7916    -0.0000    24.0000 </r>
       <r>     0.9532    -0.0000    24.0000 </r>
       <r>     1.1148    -0.0000    24.0000 </r>
       <r>     1.2764    -0.0000    24.0000 </r>
       <r>     1.4380    -0.0003    23.9999 </r>
       <r>     1.5995    -0.0203    23.9967 </r>
       <r>     1.7611     0.6226    24.0973 </r>
       <r>     1.9227     1.6724    24.3675 </r>
       <r>     2.0843     3.9164    25.0003 </r>
       <r>     2.2459     4.9073    25.7933 </r>
       <r>     2.4075     3.8123    26.4093 </r>
       <r>     2.5691     5.2259    27.2538 </r>
       <r>     2.7307     4.2638    27.9428 </r>
       <r>     2.8923     3.1604    28.4535 </r>
       <r>     3.0538     2.6522    28.8820 </r>
       <r>     3.2154     2.8241    29.3384 </r>
       <r>     3.3770     1.9762    29.6577 </r>
       <r>     3.5386     1.7792    29.9452 </r>
       <r>     3.7002     1.7065    30.2209 </r>
       <r>     3.8618     1.1294    30.4034 </r>
       <r>     4.0234     2.1411    30.7494 </r>
       <r>     4.1850     2.7552    31.1946 </r>
       <r>     4.3466     2.0722    31.5295 </r>
       <r>     4.5081     1.5775    31.7844 </r>
       <r>     4.6697     0.8099    31.9152 </r>
       <r>     4.8313     0.4617    31.9898 </r>
       <r>     4.9929     0.0661    32.0005 </r>
       <r>     5.1545    -0.0033    32.0000 </r>
       <r>     5.3161     0.0008    32.0001 </r>
       <r>     5.4777     0.0994    32.0162 </r>
       <r>     5.6393     0.1550    32.0412 </r>
       <r>     5.8009     0.2394    32.0799 </r>
       <r>     5.9624     0.5752    32.1728 </r>
       <r>     6.1240     0.3852    32.2351 </r>
       <r>     6.2856     0.8953    32.3798 </r>
       <r>     6.4472     1.0746    32.5534 </r>
       <r>     6.6088     1.0284    32.7196 </r>
       <r>     6.7704     0.9765    32.8774 </r>
       <r>     6.9320     1.7860    33.1660 </r>
       <r>     7.0936     1.7103    33.4423 </r>
       <r>     7.2552     1.3320    33.6576 </r>
       <r>     7.4167     1.3937    33.8828 </r>
       <r>     7.5783     1.6142    34.1436 </r>
       <r>     7.7399     2.3912    34.5300 </r>
       <r>     7.9015     0.5277    34.6153 </r>
       <r>     8.0631     0.9867    34.7747 </r>
       <r>     8.2247     2.7734    35.2229 </r>
       <r>     8.3863     2.0648    35.5565 </r>
       <r>     8.5479     1.0052    35.7190 </r>
       <r>     8.7095     0.4356    35.7893 </r>
       <r>     8.8710     0.9835    35.9483 </r>
       <r>     9.0326     0.3345    36.0023 </r>
       <r>     9.1942    -0.0142    36.0000 </r>
       <r>     9.3558    -0.0001    36.0000 </r>
       <r>     9.5174    -0.0000    36.0000 </r>
       <r>     9.6790    -0.0000    36.0000 </r>
       <r>     9.8406     0.0000    36.0000 </r>
       <r>    10.0022     0.0000    36.0000 </r>
       <r>    10.1638     0.0000    36.0000 </r>
       <r>    10.3253     0.0000    36.0000 </r>
       <r>    10.4869     0.0000    36.0000 </r>
       <r>    10.6485     0.0000    36.0000 </r>
       <r>    10.8101     0.0000    36.0000 </r>
       <r>    10.9717     0.0000    36.0000 </r>
       <r>    11.1333     0.0000    36.0000 </r>
      </set>
     </set>
    </array>
   </total>
  </dos>
 </calculation>
 <structure name="finalpos" >
  <crystal>
   <varray name="basis" >
    <v>       3.19031700       0.00000000       0.00000000 </v>
    <v>      -1.59515800       2.76289700       0.00000000 </v>
    <v>       0.00000000       0.00000000      23.14049200 </v>
   </varray>
   <i name="volume">    203.97226633 </i>
   <varray name="rec_basis" >
    <v>       0.31344848       0.18096941       0.00000000 </v>
    <v>       0.00000000       0.36193894       0.00000000 </v>
    <v>       0.00000000       0.00000000       0.04321429 </v>
   </varray>
  </crystal>
  <varray name="positions" >
   <v>       0.66666700       0.33333300       0.06785900 </v>
   <v>       0.33333300       0.66666700       0.00000000 </v>
   <v>       0.33333300       0.66666700       0.13571500 </v>
   <v>       0.52380986       0.04761871       0.35482300 </v>
   <v>       0.19047586       0.38095271       0.28696500 </v>
   <v>       0.19047586       0.38095271       0.42267900 </v>
  </varray>
 </structure>
</modeling>
