  24  24   0   0
  0.4176334E+02  0.3540400E-09  0.1044544E-08  0.2750143E-08  0.5000000E-15
  1.000000000000000E-004
  CAR 
 unknown system                          
      4.24969006    -14.86864869  301     -0.15776209      1.00000000
    -14.869  0.0000E+00  0.0000E+00
    -14.805  0.0000E+00  0.0000E+00
    -14.741  0.0000E+00  0.0000E+00
    -14.677  0.0000E+00  0.0000E+00
    -14.614  0.0000E+00  0.0000E+00
    -14.550  0.0000E+00  0.0000E+00
    -14.486  0.0000E+00  0.0000E+00
    -14.423  0.1943E-14  0.1238E-15
    -14.359  0.1766E-11  0.1127E-12
    -14.295  0.7463E-09  0.4767E-10
    -14.231  0.1447E-06  0.9271E-08
    -14.168  0.1300E-04  0.8378E-06
    -14.104  0.5485E-03  0.3579E-04
    -14.040  0.1110E-01  0.7429E-03
    -13.976  0.1109E+00  0.7811E-02
    -13.913  0.5691E+00  0.4408E-01
    -13.849  0.1557E+01  0.1433E+00
    -13.785  0.2340E+01  0.2924E+00
    -13.722  0.2169E+01  0.4306E+00
    -13.658  0.2165E+01  0.5686E+00
    -13.594  0.3063E+01  0.7638E+00
    -13.530  0.3336E+01  0.9764E+00
    -13.467  0.2639E+01  0.1145E+01
    -13.403  0.2355E+01  0.1295E+01
    -13.339  0.2901E+01  0.1480E+01
    -13.275  0.3298E+01  0.1690E+01
    -13.212  0.2673E+01  0.1860E+01
    -13.148  0.1989E+01  0.1987E+01
    -13.084  0.2316E+01  0.2134E+01
    -13.021  0.3117E+01  0.2333E+01
    -12.957  0.3798E+01  0.2575E+01
    -12.893  0.4421E+01  0.2857E+01
    -12.829  0.4604E+01  0.3150E+01
    -12.766  0.4428E+01  0.3432E+01
    -12.702  0.4908E+01  0.3745E+01
    -12.638  0.5606E+01  0.4102E+01
    -12.574  0.5652E+01  0.4463E+01
    -12.511  0.5283E+01  0.4799E+01
    -12.447  0.5583E+01  0.5155E+01
    -12.383  0.7261E+01  0.5618E+01
    -12.320  0.7866E+01  0.6119E+01
    -12.256  0.6324E+01  0.6522E+01
    -12.192  0.5555E+01  0.6876E+01
    -12.128  0.6404E+01  0.7284E+01
    -12.065  0.6473E+01  0.7697E+01
    -12.001  0.5584E+01  0.8053E+01
    -11.937  0.5922E+01  0.8430E+01
    -11.873  0.7248E+01  0.8892E+01
    -11.810  0.8081E+01  0.9407E+01
    -11.746  0.8427E+01  0.9944E+01
    -11.682  0.8582E+01  0.1049E+02
    -11.619  0.9113E+01  0.1107E+02
    -11.555  0.9738E+01  0.1169E+02
    -11.491  0.8798E+01  0.1225E+02
    -11.427  0.7684E+01  0.1274E+02
    -11.364  0.8592E+01  0.1329E+02
    -11.300  0.9512E+01  0.1390E+02
    -11.236  0.9391E+01  0.1449E+02
    -11.172  0.1030E+02  0.1515E+02
    -11.109  0.1202E+02  0.1592E+02
    -11.045  0.1197E+02  0.1668E+02
    -10.981  0.1057E+02  0.1735E+02
    -10.918  0.1061E+02  0.1803E+02
    -10.854  0.1099E+02  0.1873E+02
    -10.790  0.1013E+02  0.1938E+02
    -10.726  0.9554E+01  0.1998E+02
    -10.663  0.9618E+01  0.2060E+02
    -10.599  0.9862E+01  0.2123E+02
    -10.535  0.1003E+02  0.2187E+02
    -10.471  0.8045E+01  0.2238E+02
    -10.408  0.4598E+01  0.2267E+02
    -10.344  0.2506E+01  0.2283E+02
    -10.280  0.1928E+01  0.2295E+02
    -10.217  0.1915E+01  0.2308E+02
    -10.153  0.2437E+01  0.2323E+02
    -10.089  0.3636E+01  0.2346E+02
    -10.025  0.4251E+01  0.2373E+02
     -9.962  0.2930E+01  0.2392E+02
     -9.898  0.1052E+01  0.2399E+02
     -9.834  0.1859E+00  0.2400E+02
     -9.770  0.1573E-01  0.2400E+02
     -9.707  0.6805E-03  0.2400E+02
     -9.643  0.1957E-02  0.2400E+02
     -9.579  0.3217E-01  0.2400E+02
     -9.516  0.2502E+00  0.2402E+02
     -9.452  0.9223E+00  0.2408E+02
     -9.388  0.1635E+01  0.2418E+02
     -9.324  0.1512E+01  0.2428E+02
     -9.261  0.1186E+01  0.2435E+02
     -9.197  0.1515E+01  0.2445E+02
     -9.133  0.1942E+01  0.2457E+02
     -9.069  0.2127E+01  0.2471E+02
     -9.006  0.2255E+01  0.2485E+02
     -8.942  0.2631E+01  0.2502E+02
     -8.878  0.3724E+01  0.2526E+02
     -8.815  0.4981E+01  0.2557E+02
     -8.751  0.5705E+01  0.2594E+02
     -8.687  0.6095E+01  0.2633E+02
     -8.623  0.6340E+01  0.2673E+02
     -8.560  0.6313E+01  0.2713E+02
     -8.496  0.5850E+01  0.2751E+02
     -8.432  0.4779E+01  0.2781E+02
     -8.368  0.4124E+01  0.2807E+02
     -8.305  0.4632E+01  0.2837E+02
     -8.241  0.5377E+01  0.2871E+02
     -8.177  0.5764E+01  0.2908E+02
     -8.114  0.5045E+01  0.2940E+02
     -8.050  0.3631E+01  0.2963E+02
     -7.986  0.2855E+01  0.2981E+02
     -7.922  0.3113E+01  0.3001E+02
     -7.859  0.3998E+01  0.3027E+02
     -7.795  0.4796E+01  0.3057E+02
     -7.731  0.5908E+01  0.3095E+02
     -7.667  0.6846E+01  0.3139E+02
     -7.604  0.6461E+01  0.3180E+02
     -7.540  0.6367E+01  0.3220E+02
     -7.476  0.7943E+01  0.3271E+02
     -7.412  0.9372E+01  0.3331E+02
     -7.349  0.8576E+01  0.3385E+02
     -7.285  0.6481E+01  0.3427E+02
     -7.221  0.5255E+01  0.3460E+02
     -7.158  0.5643E+01  0.3496E+02
     -7.094  0.6868E+01  0.3540E+02
     -7.030  0.7542E+01  0.3588E+02
     -6.966  0.7558E+01  0.3636E+02
     -6.903  0.8038E+01  0.3687E+02
     -6.839  0.9910E+01  0.3750E+02
     -6.775  0.1253E+02  0.3830E+02
     -6.711  0.1285E+02  0.3912E+02
     -6.648  0.1032E+02  0.3978E+02
     -6.584  0.7591E+01  0.4026E+02
     -6.520  0.5351E+01  0.4060E+02
     -6.457  0.4209E+01  0.4087E+02
     -6.393  0.4805E+01  0.4118E+02
     -6.329  0.5845E+01  0.4155E+02
     -6.265  0.6218E+01  0.4195E+02
     -6.202  0.5711E+01  0.4231E+02
     -6.138  0.4786E+01  0.4262E+02
     -6.074  0.4153E+01  0.4288E+02
     -6.010  0.3824E+01  0.4312E+02
     -5.947  0.3817E+01  0.4337E+02
     -5.883  0.4597E+01  0.4366E+02
     -5.819  0.5944E+01  0.4404E+02
     -5.756  0.6837E+01  0.4448E+02
     -5.692  0.6586E+01  0.4489E+02
     -5.628  0.5105E+01  0.4522E+02
     -5.564  0.3748E+01  0.4546E+02
     -5.501  0.3960E+01  0.4571E+02
     -5.437  0.4516E+01  0.4600E+02
     -5.373  0.4069E+01  0.4626E+02
     -5.309  0.3482E+01  0.4648E+02
     -5.246  0.3518E+01  0.4670E+02
     -5.182  0.4027E+01  0.4696E+02
     -5.118  0.5033E+01  0.4728E+02
     -5.055  0.6594E+01  0.4770E+02
     -4.991  0.8728E+01  0.4826E+02
     -4.927  0.1040E+02  0.4892E+02
     -4.863  0.1053E+02  0.4959E+02
     -4.800  0.1049E+02  0.5026E+02
     -4.736  0.1121E+02  0.5098E+02
     -4.672  0.1190E+02  0.5173E+02
     -4.608  0.1241E+02  0.5252E+02
     -4.545  0.1287E+02  0.5334E+02
     -4.481  0.1348E+02  0.5420E+02
     -4.417  0.1374E+02  0.5508E+02
     -4.354  0.1348E+02  0.5594E+02
     -4.290  0.1344E+02  0.5680E+02
     -4.226  0.1364E+02  0.5766E+02
     -4.162  0.1391E+02  0.5855E+02
     -4.099  0.1415E+02  0.5945E+02
     -4.035  0.1314E+02  0.6029E+02
     -3.971  0.1081E+02  0.6098E+02
     -3.907  0.9364E+01  0.6158E+02
     -3.844  0.1068E+02  0.6226E+02
     -3.780  0.1357E+02  0.6312E+02
     -3.716  0.1503E+02  0.6408E+02
     -3.653  0.1432E+02  0.6499E+02
     -3.589  0.1312E+02  0.6583E+02
     -3.525  0.1218E+02  0.6660E+02
     -3.461  0.1195E+02  0.6736E+02
     -3.398  0.1313E+02  0.6820E+02
     -3.334  0.1542E+02  0.6918E+02
     -3.270  0.1706E+02  0.7027E+02
     -3.206  0.1669E+02  0.7134E+02
     -3.143  0.1533E+02  0.7231E+02
     -3.079  0.1491E+02  0.7326E+02
     -3.015  0.1512E+02  0.7423E+02
     -2.952  0.1491E+02  0.7518E+02
     -2.888  0.1460E+02  0.7611E+02
     -2.824  0.1526E+02  0.7708E+02
     -2.760  0.1659E+02  0.7814E+02
     -2.697  0.1647E+02  0.7919E+02
     -2.633  0.1531E+02  0.8016E+02
     -2.569  0.1487E+02  0.8111E+02
     -2.505  0.1535E+02  0.8209E+02
     -2.442  0.1606E+02  0.8311E+02
     -2.378  0.1552E+02  0.8410E+02
     -2.314  0.1467E+02  0.8504E+02
     -2.251  0.1542E+02  0.8602E+02
     -2.187  0.1627E+02  0.8705E+02
     -2.123  0.1585E+02  0.8807E+02
     -2.059  0.1616E+02  0.8909E+02
     -1.996  0.1789E+02  0.9023E+02
     -1.932  0.1832E+02  0.9140E+02
     -1.868  0.1658E+02  0.9246E+02
     -1.804  0.1463E+02  0.9339E+02
     -1.741  0.1267E+02  0.9420E+02
     -1.677  0.1092E+02  0.9489E+02
     -1.613  0.1141E+02  0.9562E+02
     -1.550  0.1375E+02  0.9650E+02
     -1.486  0.1439E+02  0.9742E+02
     -1.422  0.1271E+02  0.9823E+02
     -1.358  0.1104E+02  0.9893E+02
     -1.295  0.9837E+01  0.9956E+02
     -1.231  0.9245E+01  0.1001E+03
     -1.167  0.1001E+02  0.1008E+03
     -1.103  0.1123E+02  0.1015E+03
     -1.040  0.1167E+02  0.1022E+03
     -0.976  0.1050E+02  0.1029E+03
     -0.912  0.7830E+01  0.1034E+03
     -0.849  0.6043E+01  0.1038E+03
     -0.785  0.5508E+01  0.1041E+03
     -0.721  0.5322E+01  0.1045E+03
     -0.657  0.5676E+01  0.1048E+03
     -0.594  0.6414E+01  0.1053E+03
     -0.530  0.7223E+01  0.1057E+03
     -0.466  0.6668E+01  0.1061E+03
     -0.402  0.4981E+01  0.1065E+03
     -0.339  0.4642E+01  0.1068E+03
     -0.275  0.5964E+01  0.1071E+03
     -0.211  0.7346E+01  0.1076E+03
     -0.148  0.7364E+01  0.1081E+03
     -0.084  0.6336E+01  0.1085E+03
     -0.020  0.5123E+01  0.1088E+03
      0.044  0.4160E+01  0.1091E+03
      0.107  0.4435E+01  0.1093E+03
      0.171  0.5129E+01  0.1097E+03
      0.235  0.4767E+01  0.1100E+03
      0.299  0.3921E+01  0.1102E+03
      0.362  0.3454E+01  0.1105E+03
      0.426  0.2865E+01  0.1106E+03
      0.490  0.2174E+01  0.1108E+03
      0.553  0.1964E+01  0.1109E+03
      0.617  0.2290E+01  0.1110E+03
      0.681  0.3048E+01  0.1112E+03
      0.745  0.3628E+01  0.1115E+03
      0.808  0.3615E+01  0.1117E+03
      0.872  0.3429E+01  0.1119E+03
      0.936  0.3861E+01  0.1122E+03
      1.000  0.4840E+01  0.1125E+03
      1.063  0.5793E+01  0.1128E+03
      1.127  0.6565E+01  0.1133E+03
      1.191  0.7455E+01  0.1137E+03
      1.254  0.8877E+01  0.1143E+03
      1.318  0.9517E+01  0.1149E+03
      1.382  0.8739E+01  0.1155E+03
      1.446  0.8889E+01  0.1160E+03
      1.509  0.1034E+02  0.1167E+03
      1.573  0.1090E+02  0.1174E+03
      1.637  0.1101E+02  0.1181E+03
      1.701  0.1175E+02  0.1188E+03
      1.764  0.1213E+02  0.1196E+03
      1.828  0.1140E+02  0.1203E+03
      1.892  0.1018E+02  0.1210E+03
      1.955  0.1032E+02  0.1216E+03
      2.019  0.1207E+02  0.1224E+03
      2.083  0.1369E+02  0.1233E+03
      2.147  0.1454E+02  0.1242E+03
      2.210  0.1457E+02  0.1251E+03
      2.274  0.1368E+02  0.1260E+03
      2.338  0.1253E+02  0.1268E+03
      2.402  0.1173E+02  0.1276E+03
      2.465  0.1190E+02  0.1283E+03
      2.529  0.1360E+02  0.1292E+03
      2.593  0.1549E+02  0.1302E+03
      2.656  0.1514E+02  0.1311E+03
      2.720  0.1277E+02  0.1319E+03
      2.784  0.1106E+02  0.1326E+03
      2.848  0.1081E+02  0.1333E+03
      2.911  0.1015E+02  0.1340E+03
      2.975  0.8523E+01  0.1345E+03
      3.039  0.6753E+01  0.1350E+03
      3.103  0.5346E+01  0.1353E+03
      3.166  0.4549E+01  0.1356E+03
      3.230  0.3587E+01  0.1358E+03
      3.294  0.2024E+01  0.1359E+03
      3.358  0.6948E+00  0.1360E+03
      3.421  0.1318E+00  0.1360E+03
      3.485  0.1298E-01  0.1360E+03
      3.549  0.6348E-03  0.1360E+03
      3.612  0.1498E-04  0.1360E+03
      3.676  0.1668E-06  0.1360E+03
      3.740  0.8635E-09  0.1360E+03
      3.804  0.2055E-11  0.1360E+03
      3.867  0.2211E-14  0.1360E+03
      3.931  0.0000E+00  0.1360E+03
      3.995  0.0000E+00  0.1360E+03
      4.059  0.0000E+00  0.1360E+03
      4.122  0.0000E+00  0.1360E+03
      4.186  0.0000E+00  0.1360E+03
      4.250  0.0000E+00  0.1360E+03
