   24   24    1    1
  0.4176334E+02  0.3540400E-09  0.1044544E-08  0.2750143E-08  0.5000000E-15
  1.000000000000000E-004
  CAR 
 unknown system                          
    108     54     68
 
  0.0000000E+00  0.0000000E+00  0.0000000E+00  0.9615385E-02
    1      -13.868649
    2      -13.642369
    3      -12.900710
    4      -12.734035
    5      -12.597741
    6      -12.394363
    7      -12.184462
    8      -11.970133
    9      -11.533544
   10      -11.264380
   11      -11.090920
   12      -10.681422
   13       -8.179300
   14       -8.107144
   15       -7.931199
   16       -7.635592
   17       -6.961675
   18       -6.714375
   19       -6.594753
   20       -6.300660
   21       -5.923006
   22       -5.714329
   23       -4.937141
   24       -4.796859
   25       -4.116867
   26       -3.867298
   27       -3.784841
   28       -3.437304
   29       -3.376613
   30       -3.159667
   31       -3.054841
   32       -2.942292
   33       -2.906204
   34       -2.571243
   35       -2.542620
   36       -2.503302
   37       -2.434903
   38       -2.395458
   39       -2.195280
   40       -2.131885
   41       -1.956599
   42       -1.827135
   43       -1.751083
   44       -1.744326
   45       -1.658677
   46       -1.533045
   47       -1.507686
   48       -1.453432
   49       -1.189647
   50       -1.170750
   51       -1.102334
   52       -0.520693
   53       -0.338426
   54       -0.076131
   55        0.150607
   56        0.828796
   57        1.080218
   58        1.217962
   59        1.475625
   60        1.598466
   61        1.674601
   62        1.880782
   63        1.999561
   64        2.152063
   65        2.321333
   66        2.332187
   67        2.544521
   68        2.678945
 
  0.7692308E-01 -0.1387779E-16  0.0000000E+00  0.1923077E-01
    1      -13.806624
    2      -13.581020
    3      -12.848554
    4      -12.682629
    5      -12.542010
    6      -12.339372
    7      -12.122616
    8      -11.915499
    9      -11.484570
   10      -11.218411
   11      -11.042567
   12      -10.639236
   13       -8.197128
   14       -8.137388
   15       -7.894763
   16       -7.567398
   17       -6.930546
   18       -6.725520
   19       -6.589157
   20       -6.327192
   21       -5.889788
   22       -5.722271
   23       -4.923933
   24       -4.796745
   25       -4.117626
   26       -3.900238
   27       -3.822929
   28       -3.747316
   29       -3.611420
   30       -3.408808
   31       -3.333742
   32       -3.146599
   33       -3.017994
   34       -2.907565
   35       -2.826402
   36       -2.767505
   37       -2.576909
   38       -2.521626
   39       -2.303574
   40       -2.218620
   41       -2.163755
   42       -2.063469
   43       -1.954104
   44       -1.939932
   45       -1.836937
   46       -1.662066
   47       -1.574290
   48       -1.396123
   49       -1.154646
   50       -1.126665
   51       -1.028147
   52       -0.554777
   53       -0.330056
   54       -0.082165
   55        0.082854
   56        1.037907
   57        1.412804
   58        1.493272
   59        1.662537
   60        1.987113
   61        2.040488
   62        2.108986
   63        2.165852
   64        2.318229
   65        2.507093
   66        2.618983
   67        2.665330
   68        2.890955
 
  0.1538462E+00 -0.2775558E-16  0.0000000E+00  0.1923077E-01
    1      -13.621462
    2      -13.398042
    3      -12.692797
    4      -12.531331
    5      -12.376848
    6      -12.176692
    7      -11.941240
    8      -11.755467
    9      -11.342464
   10      -11.085563
   11      -10.903833
   12      -10.518157
   13       -8.273780
   14       -8.188857
   15       -7.853949
   16       -7.412922
   17       -6.927231
   18       -6.804176
   19       -6.601673
   20       -6.412644
   21       -5.817381
   22       -5.755670
   23       -4.979165
   24       -4.876317
   25       -4.427677
   26       -4.315368
   27       -4.190066
   28       -4.092209
   29       -4.018916
   30       -3.834082
   31       -3.683009
   32       -3.642356
   33       -3.559445
   34       -3.408813
   35       -3.307187
   36       -3.126870
   37       -3.059988
   38       -2.938733
   39       -2.730417
   40       -2.595566
   41       -2.473381
   42       -2.254746
   43       -2.239087
   44       -2.061634
   45       -1.865459
   46       -1.772832
   47       -1.579785
   48       -1.385881
   49       -1.242960
   50       -1.169318
   51       -1.040320
   52       -0.786719
   53       -0.629231
   54       -0.168701
   55        0.360198
   56        0.934823
   57        1.467924
   58        1.856305
   59        2.150353
   60        2.235627
   61        2.310218
   62        2.494004
   63        2.530482
   64        2.597977
   65        2.827890
   66        2.947762
   67        3.029060
   68        3.133597
 
  0.2307692E+00 -0.4163336E-16  0.0000000E+00  0.1923077E-01
    1      -13.316251
    2      -13.097009
    3      -12.436506
    4      -12.290643
    5      -12.109470
    6      -11.914053
    7      -11.655077
    8      -11.503797
    9      -11.125358
   10      -10.883816
   11      -10.700860
   12      -10.339306
   13       -8.461304
   14       -8.322187
   15       -7.928036
   16       -7.449016
   17       -7.152170
   18       -6.796005
   19       -6.736003
   20       -6.593619
   21       -5.842868
   22       -5.813708
   23       -5.439230
   24       -5.192452
   25       -4.910915
   26       -4.717132
   27       -4.616883
   28       -4.584318
   29       -4.468600
   30       -4.292499
   31       -4.258759
   32       -4.102011
   33       -3.881916
   34       -3.746734
   35       -3.570895
   36       -3.520585
   37       -3.251798
   38       -3.087169
   39       -2.826603
   40       -2.781351
   41       -2.632164
   42       -2.524877
   43       -2.377805
   44       -2.010371
   45       -1.927273
   46       -1.857201
   47       -1.793971
   48       -1.594826
   49       -1.549855
   50       -1.275017
   51       -1.166911
   52       -1.031854
   53       -0.689428
   54       -0.288721
   55        0.175219
   56        0.703929
   57        1.264289
   58        1.756122
   59        1.852639
   60        1.926770
   61        2.151406
   62        2.263776
   63        2.572829
   64        2.629700
   65        2.766909
   66        2.819987
   67        2.931773
   68        3.118993
 
  0.3076923E+00 -0.5551115E-16  0.0000000E+00  0.1923077E-01
    1      -12.897804
    2      -12.685230
    3      -12.088150
    4      -11.985306
    5      -11.756703
    6      -11.568651
    7      -11.299053
    8      -11.192939
    9      -10.880584
   10      -10.658723
   11      -10.515188
   12      -10.159272
   13       -8.756455
   14       -8.743719
   15       -8.187675
   16       -7.772835
   17       -7.284170
   18       -7.097737
   19       -7.002098
   20       -6.893850
   21       -6.259830
   22       -6.156687
   23       -6.066155
   24       -5.540339
   25       -5.310570
   26       -4.948286
   27       -4.900225
   28       -4.803877
   29       -4.688425
   30       -4.561049
   31       -4.398641
   32       -4.313962
   33       -4.237766
   34       -3.739191
   35       -3.492401
   36       -3.402991
   37       -3.233522
   38       -3.159216
   39       -3.058779
   40       -2.952567
   41       -2.745752
   42       -2.682937
   43       -2.417414
   44       -2.248260
   45       -2.154287
   46       -1.983961
   47       -1.959360
   48       -1.820804
   49       -1.796266
   50       -1.551013
   51       -1.374808
   52       -1.148382
   53       -0.674760
   54       -0.536650
   55       -0.065269
   56        0.658396
   57        0.942548
   58        1.320622
   59        1.501001
   60        1.687269
   61        1.876808
   62        2.099149
   63        2.190530
   64        2.267856
   65        2.557864
   66        2.683768
   67        2.751587
   68        2.872386
 
  0.3846154E+00 -0.8326673E-16  0.0000000E+00  0.1923077E-01
    1      -12.382331
    2      -12.176925
    3      -11.673198
    4      -11.665162
    5      -11.357431
    6      -11.183475
    7      -10.957633
    8      -10.906833
    9      -10.725271
   10      -10.558615
   11      -10.552484
   12      -10.073123
   13       -9.217262
   14       -8.931561
   15       -8.479960
   16       -8.034157
   17       -7.657086
   18       -7.559037
   19       -7.515353
   20       -7.145356
   21       -6.857431
   22       -6.766649
   23       -6.699465
   24       -5.967237
   25       -5.314035
   26       -4.971829
   27       -4.775646
   28       -4.636423
   29       -4.616725
   30       -4.438986
   31       -4.310871
   32       -4.174004
   33       -3.980817
   34       -3.778074
   35       -3.746429
   36       -3.549955
   37       -3.370954
   38       -3.306697
   39       -3.258287
   40       -2.897191
   41       -2.885135
   42       -2.688330
   43       -2.557175
   44       -2.454263
   45       -2.373651
   46       -2.166836
   47       -2.117970
   48       -1.988687
   49       -1.966938
   50       -1.813639
   51       -1.505563
   52       -1.380239
   53       -0.848582
   54       -0.508275
   55       -0.186809
   56        0.522250
   57        0.813713
   58        1.043029
   59        1.316106
   60        1.602645
   61        1.615944
   62        1.749488
   63        1.969519
   64        2.137846
   65        2.182920
   66        2.503323
   67        2.589671
   68        2.729284
 
  0.4615385E+00 -0.8326673E-16  0.0000000E+00  0.1923077E-01
    1      -11.835286
    2      -11.603790
    3      -11.436556
    4      -11.245954
    5      -11.095279
    6      -11.054096
    7      -10.942579
    8      -10.830010
    9      -10.786509
   10      -10.735942
   11      -10.593327
   12      -10.033691
   13       -9.406633
   14       -8.787940
   15       -8.543034
   16       -8.317028
   17       -8.179044
   18       -7.721897
   19       -7.673357
   20       -7.422932
   21       -7.387835
   22       -7.277566
   23       -7.126427
   24       -6.235444
   25       -5.019359
   26       -4.763583
   27       -4.606360
   28       -4.524397
   29       -4.370019
   30       -4.187850
   31       -4.138551
   32       -4.052039
   33       -3.967965
   34       -3.920612
   35       -3.760006
   36       -3.667837
   37       -3.614108
   38       -3.361194
   39       -3.329829
   40       -3.225989
   41       -3.095058
   42       -2.818632
   43       -2.782880
   44       -2.466270
   45       -2.387104
   46       -2.277273
   47       -2.200833
   48       -2.098491
   49       -2.000382
   50       -1.787118
   51       -1.632061
   52       -1.459169
   53       -1.051302
   54       -0.434169
   55       -0.254384
   56        0.369790
   57        0.796427
   58        0.951361
   59        1.276059
   60        1.438261
   61        1.504960
   62        1.578896
   63        1.760124
   64        1.968840
   65        2.236218
   66        2.383078
   67        2.506433
   68        2.643823
 
  0.0000000E+00  0.2500000E+00  0.0000000E+00  0.1923077E-01
    1      -13.852306
    2      -13.587386
    3      -13.074398
    4      -12.828933
    5      -12.595473
    6      -12.391641
    7      -11.975154
    8      -11.840969
    9      -11.578600
   10      -11.301820
   11      -11.099974
   12      -10.615682
   13       -8.650813
   14       -8.612125
   15       -7.499438
   16       -7.087949
   17       -6.774261
   18       -6.725452
   19       -6.638970
   20       -6.433664
   21       -5.848642
   22       -5.685982
   23       -4.774891
   24       -4.622324
   25       -4.277151
   26       -4.114643
   27       -3.872080
   28       -3.550001
   29       -3.460003
   30       -3.272127
   31       -3.229558
   32       -3.015102
   33       -2.808914
   34       -2.577841
   35       -2.502081
   36       -2.465916
   37       -2.383796
   38       -2.291512
   39       -2.219934
   40       -2.082679
   41       -2.070998
   42       -1.979872
   43       -1.729876
   44       -1.723778
   45       -1.602348
   46       -1.519481
   47       -1.462759
   48       -1.363272
   49       -1.174247
   50       -1.100969
   51       -1.043698
   52       -0.771725
   53       -0.194784
   54       -0.069337
   55        0.146356
   56        0.903478
   57        1.105575
   58        1.281011
   59        1.536334
   60        1.628199
   61        1.699183
   62        1.746481
   63        2.141229
   64        2.156198
   65        2.423206
   66        2.529669
   67        2.558990
   68        2.793806
 
  0.7692308E-01  0.2500000E+00  0.0000000E+00  0.1923077E-01
    1      -13.786226
    2      -13.510682
    3      -13.055180
    4      -12.796469
    5      -12.538269
    6      -12.335482
    7      -11.875807
    8      -11.761019
    9      -11.537304
   10      -11.261982
   11      -11.055734
   12      -10.560200
   13       -8.703845
   14       -8.671938
   15       -7.450122
   16       -6.991705
   17       -6.781346
   18       -6.678900
   19       -6.619185
   20       -6.412492
   21       -5.802816
   22       -5.695808
   23       -4.802544
   24       -4.642518
   25       -4.361437
   26       -4.176963
   27       -4.018626
   28       -3.759945
   29       -3.653850
   30       -3.486346
   31       -3.291305
   32       -3.133544
   33       -3.050658
   34       -2.949199
   35       -2.809169
   36       -2.746310
   37       -2.593262
   38       -2.417239
   39       -2.397851
   40       -2.278619
   41       -2.189240
   42       -2.110204
   43       -1.988376
   44       -1.933025
   45       -1.847392
   46       -1.550974
   47       -1.481675
   48       -1.303715
   49       -1.149368
   50       -1.067328
   51       -0.980880
   52       -0.818429
   53       -0.187608
   54       -0.065545
   55        0.108327
   56        1.147136
   57        1.430696
   58        1.518753
   59        1.681468
   60        1.843217
   61        2.032888
   62        2.107724
   63        2.299778
   64        2.408585
   65        2.551045
   66        2.706530
   67        2.833957
   68        2.891366
 
  0.1538462E+00  0.2500000E+00  0.0000000E+00  0.1923077E-01
    1      -13.597650
    2      -13.314306
    3      -12.918483
    4      -12.656766
    5      -12.371714
    6      -12.170946
    7      -11.678788
    8      -11.585438
    9      -11.397876
   10      -11.135615
   11      -10.914560
   12      -10.432425
   13       -8.742181
   14       -8.682464
   15       -7.416953
   16       -6.996603
   17       -6.832459
   18       -6.758919
   19       -6.595577
   20       -6.350418
   21       -5.763625
   22       -5.694724
   23       -4.946277
   24       -4.814870
   25       -4.533176
   26       -4.482185
   27       -4.408082
   28       -4.330804
   29       -4.078107
   30       -3.773636
   31       -3.728285
   32       -3.604951
   33       -3.448313
   34       -3.330025
   35       -3.209222
   36       -3.061158
   37       -3.000770
   38       -2.898765
   39       -2.745551
   40       -2.703771
   41       -2.625434
   42       -2.415048
   43       -2.228849
   44       -2.052471
   45       -1.983092
   46       -1.600556
   47       -1.492360
   48       -1.366428
   49       -1.299056
   50       -1.153827
   51       -0.989285
   52       -0.876647
   53       -0.526488
   54       -0.158726
   55        0.344033
   56        1.071102
   57        1.435984
   58        1.573196
   59        1.972472
   60        2.026575
   61        2.238287
   62        2.606688
   63        2.639429
   64        2.753055
   65        2.933377
   66        2.991910
   67        3.107900
   68        3.224393
 
  0.2307692E+00  0.2500000E+00  0.0000000E+00  0.1923077E-01
    1      -13.289664
    2      -13.003123
    3      -12.666833
    4      -12.419153
    5      -12.103632
    6      -11.905876
    7      -11.403624
    8      -11.329779
    9      -11.176040
   10      -10.941434
   11      -10.697302
   12      -10.257246
   13       -8.872922
   14       -8.643162
   15       -7.542103
   16       -7.489973
   17       -6.916654
   18       -6.798687
   19       -6.742161
   20       -6.378681
   21       -5.922904
   22       -5.759400
   23       -5.312760
   24       -5.175119
   25       -5.124134
   26       -4.801902
   27       -4.755770
   28       -4.659762
   29       -4.488129
   30       -4.328400
   31       -4.179478
   32       -4.098744
   33       -3.851186
   34       -3.774376
   35       -3.365421
   36       -3.294874
   37       -3.226444
   38       -3.191378
   39       -2.835202
   40       -2.759529
   41       -2.633594
   42       -2.593634
   43       -2.346684
   44       -2.090381
   45       -2.007137
   46       -1.966161
   47       -1.868314
   48       -1.510078
   49       -1.489638
   50       -1.302338
   51       -1.128042
   52       -0.961027
   53       -0.674068
   54       -0.297350
   55        0.109342
   56        0.638016
   57        1.181475
   58        1.355283
   59        1.504819
   60        1.666831
   61        2.103552
   62        2.433101
   63        2.545803
   64        2.636563
   65        2.877560
   66        3.003456
   67        3.098886
   68        3.194963
 
  0.3076923E+00  0.2500000E+00  0.0000000E+00  0.1923077E-01
    1      -12.869134
    2      -12.586668
    3      -12.307421
    4      -12.104957
    5      -11.751637
    6      -11.558056
    7      -11.091925
    8      -11.037894
    9      -10.912202
   10      -10.718061
   11      -10.491816
   12      -10.099483
   13       -9.072320
   14       -8.764270
   15       -8.060890
   16       -7.811293
   17       -7.278867
   18       -7.210734
   19       -7.063513
   20       -6.573674
   21       -6.287958
   22       -6.191017
   23       -6.019530
   24       -5.562355
   25       -5.479239
   26       -5.042317
   27       -4.900217
   28       -4.704001
   29       -4.603780
   30       -4.524085
   31       -4.423424
   32       -4.275816
   33       -4.107941
   34       -3.849566
   35       -3.441778
   36       -3.252604
   37       -3.172988
   38       -3.087863
   39       -2.985040
   40       -2.950855
   41       -2.713276
   42       -2.596575
   43       -2.479025
   44       -2.448467
   45       -2.305523
   46       -2.049237
   47       -1.978812
   48       -1.845576
   49       -1.711803
   50       -1.505876
   51       -1.393166
   52       -1.079078
   53       -0.691365
   54       -0.519272
   55       -0.211258
   56        0.282613
   57        0.965552
   58        1.132288
   59        1.195634
   60        1.266604
   61        2.020935
   62        2.105638
   63        2.193362
   64        2.362751
   65        2.500737
   66        2.650547
   67        2.838327
   68        3.014215
 
  0.3846154E+00  0.2500000E+00  0.0000000E+00  0.1923077E-01
    1      -12.352918
    2      -12.083487
    3      -11.856985
    4      -11.759868
    5      -11.355630
    6      -11.173112
    7      -10.856125
    8      -10.820109
    9      -10.701722
   10      -10.569744
   11      -10.559040
   12      -10.052522
   13       -9.152604
   14       -9.062143
   15       -8.220032
   16       -8.199152
   17       -7.879165
   18       -7.724518
   19       -7.460091
   20       -7.016787
   21       -6.800648
   22       -6.758261
   23       -6.647137
   24       -6.077831
   25       -5.443898
   26       -4.889289
   27       -4.835803
   28       -4.675426
   29       -4.507450
   30       -4.457030
   31       -4.220749
   32       -4.035241
   33       -3.957844
   34       -3.755304
   35       -3.503935
   36       -3.451788
   37       -3.378295
   38       -3.270097
   39       -3.224740
   40       -3.028772
   41       -2.957386
   42       -2.795510
   43       -2.634512
   44       -2.495057
   45       -2.383190
   46       -2.178259
   47       -2.158010
   48       -1.982061
   49       -1.857336
   50       -1.749933
   51       -1.556323
   52       -1.326210
   53       -0.840156
   54       -0.542924
   55       -0.409715
   56        0.211199
   57        0.824128
   58        1.016327
   59        1.114778
   60        1.242408
   61        1.713492
   62        1.782957
   63        1.956241
   64        2.064256
   65        2.371190
   66        2.520943
   67        2.564015
   68        2.823048
 
  0.4615385E+00  0.2500000E+00  0.0000000E+00  0.1923077E-01
    1      -11.815425
    2      -11.535261
    3      -11.465894
    4      -11.361526
    5      -11.113882
    6      -11.065830
    7      -10.963749
    8      -10.800245
    9      -10.791028
   10      -10.682160
   11      -10.551616
   12      -10.036117
   13       -9.385994
   14       -8.654770
   15       -8.500476
   16       -8.433250
   17       -8.357214
   18       -7.720264
   19       -7.620177
   20       -7.459179
   21       -7.417902
   22       -7.236249
   23       -7.054882
   24       -6.265820
   25       -5.119881
   26       -4.742964
   27       -4.575780
   28       -4.507626
   29       -4.324145
   30       -4.256192
   31       -4.217580
   32       -4.041807
   33       -3.971037
   34       -3.759748
   35       -3.726084
   36       -3.631397
   37       -3.578512
   38       -3.383153
   39       -3.352543
   40       -3.117758
   41       -3.057945
   42       -2.851414
   43       -2.741611
   44       -2.696594
   45       -2.390973
   46       -2.252990
   47       -2.201989
   48       -2.116272
   49       -1.915297
   50       -1.784854
   51       -1.655256
   52       -1.412923
   53       -1.032034
   54       -0.512578
   55       -0.349617
   56        0.214110
   57        0.727950
   58        1.114969
   59        1.327418
   60        1.405542
   61        1.468833
   62        1.614130
   63        1.740266
   64        2.020605
   65        2.292326
   66        2.354696
   67        2.423749
   68        2.568207
 
 -0.4615385E+00  0.2500000E+00  0.0000000E+00  0.1923077E-01
    1      -11.866082
    2      -11.636952
    3      -11.353867
    4      -11.169667
    5      -11.111731
    6      -11.040464
    7      -10.906848
    8      -10.859586
    9      -10.808368
   10      -10.798597
   11      -10.621197
   12      -10.031857
   13       -9.419595
   14       -8.856684
   15       -8.536853
   16       -8.316110
   17       -8.044947
   18       -7.710086
   19       -7.685359
   20       -7.430580
   21       -7.380161
   22       -7.318053
   23       -7.106744
   24       -6.172799
   25       -4.954429
   26       -4.839772
   27       -4.679648
   28       -4.482231
   29       -4.431704
   30       -4.283395
   31       -4.107632
   32       -4.094660
   33       -3.985887
   34       -3.950199
   35       -3.807819
   36       -3.733712
   37       -3.627106
   38       -3.451806
   39       -3.243082
   40       -3.073171
   41       -2.901176
   42       -2.831038
   43       -2.776472
   44       -2.493014
   45       -2.395834
   46       -2.271060
   47       -2.225425
   48       -2.189870
   49       -1.943255
   50       -1.750176
   51       -1.616490
   52       -1.465015
   53       -1.006807
   54       -0.403041
   55       -0.252755
   56        0.259637
   57        0.668715
   58        1.229353
   59        1.298442
   60        1.544623
   61        1.647407
   62        1.676110
   63        1.783945
   64        2.120265
   65        2.235944
   66        2.315367
   67        2.449323
   68        2.503984
 
 -0.3846154E+00  0.2500000E+00  0.0000000E+00  0.1923077E-01
    1      -12.400798
    2      -12.203258
    3      -11.584127
    4      -11.579877
    5      -11.356142
    6      -11.191570
    7      -11.047536
    8      -11.005284
    9      -10.727823
   10      -10.551757
   11      -10.534261
   12      -10.059796
   13       -9.218364
   14       -8.842839
   15       -8.594157
   16       -7.998004
   17       -7.678620
   18       -7.541636
   19       -7.430696
   20       -7.165158
   21       -6.905399
   22       -6.769078
   23       -6.632540
   24       -5.885199
   25       -5.249766
   26       -5.157534
   27       -4.954333
   28       -4.602537
   29       -4.490211
   30       -4.357567
   31       -4.286689
   32       -4.184657
   33       -4.036139
   34       -3.830265
   35       -3.815145
   36       -3.674753
   37       -3.504467
   38       -3.276946
   39       -3.133185
   40       -2.980752
   41       -2.847785
   42       -2.651155
   43       -2.551161
   44       -2.445762
   45       -2.341907
   46       -2.180090
   47       -2.043626
   48       -1.997751
   49       -1.941681
   50       -1.775555
   51       -1.483311
   52       -1.350480
   53       -0.844438
   54       -0.466969
   55       -0.113250
   56        0.407290
   57        0.742100
   58        1.229817
   59        1.308450
   60        1.672435
   61        1.795657
   62        1.963040
   63        2.021492
   64        2.182484
   65        2.289152
   66        2.400751
   67        2.493395
   68        2.626062
 
 -0.3076923E+00  0.2500000E+00  0.0000000E+00  0.1923077E-01
    1      -12.905812
    2      -12.697430
    3      -12.046451
    4      -11.937119
    5      -11.756691
    6      -11.566809
    7      -11.347518
    8      -11.262488
    9      -10.872280
   10      -10.643162
   11      -10.521254
   12      -10.169049
   13       -8.657958
   14       -8.633793
   15       -8.289968
   16       -7.841027
   17       -7.417987
   18       -7.103936
   19       -6.972306
   20       -6.789217
   21       -6.252432
   22       -6.119127
   23       -6.076270
   24       -5.416567
   25       -5.248344
   26       -5.187859
   27       -4.992565
   28       -4.757109
   29       -4.667883
   30       -4.474247
   31       -4.401563
   32       -4.331634
   33       -4.213605
   34       -3.772340
   35       -3.556416
   36       -3.385008
   37       -3.267693
   38       -3.176212
   39       -3.073425
   40       -2.932251
   41       -2.775654
   42       -2.705821
   43       -2.443680
   44       -2.232828
   45       -2.120584
   46       -1.974364
   47       -1.953329
   48       -1.814131
   49       -1.713101
   50       -1.575148
   51       -1.373928
   52       -1.081012
   53       -0.652449
   54       -0.529057
   55       -0.063854
   56        0.476824
   57        1.234348
   58        1.344208
   59        1.531537
   60        1.807432
   61        1.881590
   62        2.030940
   63        2.167289
   64        2.282355
   65        2.549413
   66        2.634912
   67        2.759282
   68        2.857329
 
 -0.2307692E+00  0.2500000E+00  0.0000000E+00  0.1923077E-01
    1      -13.316476
    2      -13.092792
    3      -12.451136
    4      -12.287942
    5      -12.109612
    6      -11.911203
    7      -11.638614
    8      -11.511999
    9      -11.129094
   10      -10.886281
   11      -10.699426
   12      -10.337423
   13       -8.501456
   14       -8.126818
   15       -7.885515
   16       -7.799879
   17       -7.114767
   18       -6.792784
   19       -6.739481
   20       -6.488883
   21       -5.839204
   22       -5.779832
   23       -5.434809
   24       -5.088059
   25       -4.930055
   26       -4.708798
   27       -4.678223
   28       -4.615222
   29       -4.494018
   30       -4.322867
   31       -4.265655
   32       -4.130278
   33       -3.877704
   34       -3.666753
   35       -3.552590
   36       -3.523165
   37       -3.225907
   38       -3.082582
   39       -2.811685
   40       -2.764142
   41       -2.672334
   42       -2.579012
   43       -2.481755
   44       -2.002827
   45       -1.928427
   46       -1.859685
   47       -1.805638
   48       -1.586444
   49       -1.531305
   50       -1.250955
   51       -1.204176
   52       -0.922978
   53       -0.602798
   54       -0.304853
   55        0.033178
   56        0.714912
   57        1.565699
   58        1.722980
   59        1.814818
   60        1.899532
   61        2.074798
   62        2.166718
   63        2.297217
   64        2.611139
   65        2.816269
   66        2.847686
   67        2.960617
   68        3.170995
 
 -0.1538462E+00  0.2500000E+00  0.0000000E+00  0.1923077E-01
    1      -13.615318
    2      -13.376689
    3      -12.766415
    4      -12.567928
    5      -12.376553
    6      -12.174323
    7      -11.853609
    8      -11.707503
    9      -11.361821
   10      -11.104076
   11      -10.901889
   12      -10.493079
   13       -8.482057
   14       -8.306290
   15       -7.643604
   16       -7.363367
   17       -6.924971
   18       -6.756157
   19       -6.654020
   20       -6.379120
   21       -5.791947
   22       -5.690067
   23       -4.948983
   24       -4.801802
   25       -4.439543
   26       -4.383589
   27       -4.266812
   28       -4.114837
   29       -4.043145
   30       -3.827886
   31       -3.765352
   32       -3.650425
   33       -3.588104
   34       -3.300554
   35       -3.273255
   36       -3.097286
   37       -3.002864
   38       -2.937596
   39       -2.787564
   40       -2.632299
   41       -2.581807
   42       -2.290200
   43       -2.275966
   44       -2.054242
   45       -1.877941
   46       -1.724325
   47       -1.594115
   48       -1.364007
   49       -1.196036
   50       -1.140463
   51       -1.057547
   52       -0.798265
   53       -0.520914
   54       -0.240624
   55        0.332497
   56        0.961143
   57        1.673445
   58        1.790322
   59        2.076772
   60        2.145055
   61        2.298789
   62        2.398186
   63        2.591999
   64        2.682250
   65        2.815231
   66        2.934595
   67        3.021192
   68        3.111981
 
 -0.7692308E-01  0.2500000E+00  0.0000000E+00  0.1923077E-01
    1      -13.795028
    2      -13.542566
    3      -12.976870
    4      -12.751728
    5      -12.540921