 vasp.5.3.5 31Mar14 (build Oct 29 2014 16:16:03) complex                        
  
 executed on          Linux-UFHPC date 2016.02.09  18:23:30
 running on    8 total cores
 distrk:  each k-point on    8 cores,    1 groups
 distr:  one band on NCORES_PER_BAND=   2 cores,    4 groups


--------------------------------------------------------------------------------------------------------


 INCAR:
 POTCAR:    PAW_PBE P 17Jan2003                   
 POTCAR:   PAW_PBE Si 05Jan2001                   

 ----------------------------------------------------------------------------- 
|                                                                             |
|  ADVICE TO THIS USER RUNNING 'VASP/VAMP'   (HEAR YOUR MASTER'S VOICE ...):  |
|                                                                             |
|      You have switched on vdW-DFT.                                          |
|      This routine was written and supplied by Jiri Klimes.                  |
|      We recommed that you carefully read and cite the following             |
|      publication                                                            |
|      J. Klimes, D.R. Bowler, A. Michelides                                  |
|        J. Phys.: Cond Matt. 22 022201 (2010)                                |
|      J. Klimes, D.R. Bowler, A. Michelides                                  |
|        Phys. Rev. B. 83, 195131 (2011)                                      |
|      and references therein.                                                |
|                                                                             |
 ----------------------------------------------------------------------------- 

 POTCAR:    PAW_PBE P 17Jan2003                   
   VRHFIN =P : s2p3                                                             
   LEXCH  = PE                                                                  
   EATOM  =   176.0430 eV,   12.9388 Ry                                         
                                                                                
   TITEL  = PAW_PBE P 17Jan2003                                                 
   LULTRA =        F    use ultrasoft PP ?                                      
   IUNSCR =        1    unscreen: 0-lin 1-nonlin 2-no                           
   RPACOR =    1.500    partial core radius                                     
   POMASS =   30.974; ZVAL   =    5.000    mass and valenz                      
   RCORE  =    1.900    outmost cutoff radius                                   
   RWIGS  =    2.330; RWIGS  =    1.233    wigner-seitz radius (au A)           
   ENMAX  =  270.000; ENMIN  =  191.280 eV                                      
   ICORE  =        2    local potential                                         
   LCOR   =        T    correct aug charges                                     
   LPAW   =        T    paw PP                                                  
   EAUG   =  342.924                                                            
   DEXC   =    -.002                                                            
   RMAX   =    2.887    core radius for proj-oper                               
   RAUG   =    1.300    factor for augmentation sphere                          
   RDEP   =    1.931    radius for radial grids                                 
   QCUT   =   -4.330; QGAM   =    8.659    optimization parameters              
                                                                                
   Description                                                                  
     l     E      TYP  RCUT    TYP  RCUT                                        
     0   .000     23  1.900                                                     
     0   .000     23  1.900                                                     
     1   .000     23  1.900                                                     
     1   .000     23  1.900                                                     
     2   .000     23  1.900                                                     
  local pseudopotential read in
  partial core-charges read in
  atomic valenz-charges read in
  non local Contribution for L=           0  read in
    real space projection operators read in
  non local Contribution for L=           0  read in
    real space projection operators read in
  non local Contribution for L=           1  read in
    real space projection operators read in
  non local Contribution for L=           1  read in
    real space projection operators read in
    PAW grid and wavefunctions read in
 
   number of l-projection  operators is LMAX  =           4
   number of lm-projection operators is LMMAX =           8
 
 POTCAR:   PAW_PBE Si 05Jan2001                   
   VRHFIN =Si: s2p2                                                             
   LEXCH  = PE                                                                  
   EATOM  =   103.0669 eV,    7.5752 Ry                                         
                                                                                
   TITEL  = PAW_PBE Si 05Jan2001                                                
   LULTRA =        F    use ultrasoft PP ?                                      
   IUNSCR =        1    unscreen: 0-lin 1-nonlin 2-no                           
   RPACOR =    1.500    partial core radius                                     
   POMASS =   28.085; ZVAL   =    4.000    mass and valenz                      
   RCORE  =    1.900    outmost cutoff radius                                   
   RWIGS  =    2.480; RWIGS  =    1.312    wigner-seitz radius (au A)           
   ENMAX  =  245.345; ENMIN  =  184.009 eV                                      
   ICORE  =        2    local potential                                         
   LCOR   =        T    correct aug charges                                     
   LPAW   =        T    paw PP                                                  
   EAUG   =  322.069                                                            
   DEXC   =    -.007                                                            
   RMAX   =    2.944    core radius for proj-oper                               
   RAUG   =    1.300    factor for augmentation sphere                          
   RDEP   =    1.993    radius for radial grids                                 
   QCUT   =   -4.246; QGAM   =    8.493    optimization parameters              
                                                                                
   Description                                                                  
     l     E      TYP  RCUT    TYP  RCUT                                        
     0   .000     23  1.900                                                     
     0   .000     23  1.900                                                     
     1   .000     23  1.900                                                     
     1   .000     23  1.900                                                     
     2   .000      7  1.900                                                     
  local pseudopotential read in
  partial core-charges read in
  atomic valenz-charges read in
  non local Contribution for L=           0  read in
    real space projection operators read in
  non local Contribution for L=           0  read in
    real space projection operators read in
  non local Contribution for L=           1  read in
    real space projection operators read in
  non local Contribution for L=           1  read in
    real space projection operators read in
    PAW grid and wavefunctions read in
 
   number of l-projection  operators is LMAX  =           4
   number of lm-projection operators is LMMAX =           8
 
 Optimization of the real space projectors (new method)

 maximal supplied QI-value         = 19.84
 optimisation between [QCUT,QGAM] = [  8.73, 17.66] = [ 21.34, 87.33] Ry 
 Optimized for a Real-space Cutoff    1.50 Angstroem

   l    n(q)    QCUT    max X(q) W(low)/X(q) W(high)/X(q)  e(spline) 
   0      8     8.731     6.651    0.16E-04    0.15E-04    0.77E-08
   0      8     8.731    90.285    0.16E-03    0.90E-04    0.16E-06
   1      7     8.731     4.328    0.47E-04    0.36E-04    0.45E-07
   1      7     8.731    54.583    0.13E-03    0.39E-03    0.20E-06
 Optimization of the real space projectors (new method)

 maximal supplied QI-value         = 19.84
 optimisation between [QCUT,QGAM] = [  8.73, 17.66] = [ 21.34, 87.33] Ry 
 Optimized for a Real-space Cutoff    1.46 Angstroem

   l    n(q)    QCUT    max X(q) W(low)/X(q) W(high)/X(q)  e(spline) 
   0      8     8.731     8.708    0.16E-04    0.11E-04    0.68E-08
   0      8     8.731   106.241    0.24E-03    0.77E-04    0.13E-06
   1      7     8.731     5.901    0.34E-04    0.38E-04    0.36E-07
   1      7     8.731    73.241    0.12E-03    0.39E-03    0.15E-06

 ----------------------------------------------------------------------------- 
|                                                                             |
|  ADVICE TO THIS USER RUNNING 'VASP/VAMP'   (HEAR YOUR MASTER'S VOICE ...):  |
|                                                                             |
|      You enforced a specific xc-type in the INCAR file,                     |
|      a different type was found on the POTCAR file                          |
|          I HOPE YOU KNOW, WHAT YOU ARE  DOING                               |
|                                                                             |
 ----------------------------------------------------------------------------- 

  PAW_PBE P 17Jan2003                   :
 energy of atom  1       EATOM= -176.0430
 kinetic energy error for atom=    0.0040 (will be added to EATOM!!)
 PAW_PBE Si 05Jan2001                   :
 energy of atom  2       EATOM= -103.0669
 kinetic energy error for atom=    0.0021 (will be added to EATOM!!)
 
 
 POSCAR: Si12                                    
  positions in direct lattice
  No initial velocities read in
 exchange correlation table for  LEXCH =       42
   RHO(1)=    0.500       N(1)  =     2000
   RHO(2)=  100.500       N(2)  =     4000
 


--------------------------------------------------------------------------------------------------------


 ion  position               nearest neighbor table
   1  0.114  0.228  0.233-  15 2.28  21 2.29  21 2.29
   2  0.814  0.328  0.515-  16 2.28  22 2.29  22 2.29
   3  0.458  0.916  0.209-  21 2.28  13 2.30  13 2.30
   4  0.158  0.016  0.491-  22 2.28  14 2.30  14 2.30
   5  0.311  0.622  0.084-  17 2.28  23 2.30  23 2.30
   6  0.311  0.622  0.366-  24 2.07  18 2.28
   7  0.999  0.998  0.086-  19 2.29  19 2.29  13 2.32
   8  0.999  0.998  0.368-  20 2.29  20 2.29  14 2.33  14 3.03
   9  0.655  0.310  0.060-  19 2.28  17 2.29  17 2.29
  10  0.655  0.310  0.342-  20 2.28  18 2.29  18 2.29
  11  0.770  0.539  0.207-  15 2.29  15 2.29  23 2.32
  12  0.470  0.639  0.489-  16 2.29  16 2.29  24 2.32
  13  0.940  0.879  0.158-   3 2.30   3 2.30   7 2.32  23 2.35
  14  0.640  0.979  0.440-  20 2.12   4 2.30   4 2.30   8 2.33  24 2.35   8 3.03
  15  0.205  0.410  0.186-   1 2.28  11 2.29  11 2.29  17 2.37
  16  0.905  0.510  0.468-   2 2.28  12 2.29  12 2.29  18 2.89
  17  0.202  0.404  0.100-   5 2.28   9 2.29   9 2.29  15 2.37
  18  0.202  0.404  0.382-   6 2.28  10 2.29  10 2.29  16 2.89
  19  0.564  0.128  0.108-   9 2.28   7 2.29   7 2.29  21 2.37
  20  0.564  0.128  0.390-  14 2.12  10 2.28   8 2.29   8 2.29  22 2.89
  21  0.567  0.134  0.194-   3 2.28   1 2.29   1 2.29  19 2.37
  22  0.267  0.234  0.476-   4 2.28   2 2.29   2 2.29  20 2.89
  23  0.829  0.658  0.136-   5 2.30   5 2.30  11 2.32  13 2.35
  24  0.529  0.758  0.418-   6 2.07  12 2.32  14 2.35
 
  LATTYP: Found a base centered orthorhombic cell.
 ALAT       =     3.5404000000
 B/A-ratio  =     5.8153587165
 C/A-ratio  =     7.7678875268
  
  Lattice vectors:
  
 A1 = (   1.7702000000,  10.2943480000,   0.0000000000)
 A2 = (   1.7702000000, -10.2943480000,   0.0000000000)
 A3 = (   0.0000000000,   0.0000000000, -27.5014290000)


Analysis of symmetry for initial positions (statically):
=====================================================================
 Subroutine PRICEL returns:
 Original cell was already a primitive cell.
 

 Routine SETGRP: Setting up the symmetry group for a 
 base centered orthorhombic supercell.


 Subroutine GETGRP returns: Found  1 space group operations
 (whereof  1 operations were pure point group operations)
 out of a pool of  8 trial point group operations.


The static configuration has the point symmetry C_1 .


Analysis of symmetry for dynamics (positions and initial velocities):
=====================================================================
 Subroutine PRICEL returns:
 Original cell was already a primitive cell.
 

 Routine SETGRP: Setting up the symmetry group for a 
 base centered orthorhombic supercell.


 Subroutine GETGRP returns: Found  1 space group operations
 (whereof  1 operations were pure point group operations)
 out of a pool of  8 trial point group operations.


The dynamic configuration has the point symmetry C_1 .
 
 
 KPOINTS: pymatgen generated KPOINTS with grid den

Automatic generation of k-mesh.
Space group operators:
 irot       det(A)        alpha          n_x          n_y          n_z        tau_x        tau_y        tau_z
    1     1.000000     0.000000     1.000000     0.000000     0.000000     0.000000     0.000000     0.000000
 
 Subroutine IBZKPT returns following result:
 ===========================================
 
 Found     54 irreducible k-points:
 
 Following reciprocal coordinates:
            Coordinates               Weight
  0.000000  0.000000  0.000000      1.000000
  0.076923 -0.000000  0.000000      2.000000
  0.153846 -0.000000  0.000000      2.000000
  0.230769 -0.000000  0.000000      2.000000
  0.307692 -0.000000  0.000000      2.000000
  0.384615 -0.000000  0.000000      2.000000
  0.461538 -0.000000  0.000000      2.000000
  0.000000  0.250000  0.000000      2.000000
  0.076923  0.250000  0.000000      2.000000
  0.153846  0.250000  0.000000      2.000000
  0.230769  0.250000  0.000000      2.000000
  0.307692  0.250000  0.000000      2.000000
  0.384615  0.250000  0.000000      2.000000
  0.461538  0.250000  0.000000      2.000000
 -0.461538  0.250000  0.000000      2.000000
 -0.384615  0.250000  0.000000      2.000000
 -0.307692  0.250000  0.000000      2.000000
 -0.230769  0.250000  0.000000      2.000000
 -0.153846  0.250000  0.000000      2.000000
 -0.076923  0.250000  0.000000      2.000000
  0.000000  0.500000  0.000000      1.000000
  0.076923  0.500000  0.000000      2.000000
  0.153846  0.500000  0.000000      2.000000
  0.230769  0.500000  0.000000      2.000000
  0.307692  0.500000  0.000000      2.000000
  0.384615  0.500000  0.000000      2.000000
  0.461538  0.500000  0.000000      2.000000
  0.000000  0.000000  0.500000      1.000000
  0.076923 -0.000000  0.500000      2.000000
  0.153846 -0.000000  0.500000      2.000000
  0.230769 -0.000000  0.500000      2.000000
  0.307692 -0.000000  0.500000      2.000000
  0.384615 -0.000000  0.500000      2.000000
  0.461538 -0.000000  0.500000      2.000000
  0.000000  0.250000  0.500000      2.000000
  0.076923  0.250000  0.500000      2.000000
  0.153846  0.250000  0.500000      2.000000
  0.230769  0.250000  0.500000      2.000000
  0.307692  0.250000  0.500000      2.000000
  0.384615  0.250000  0.500000      2.000000
  0.461538  0.250000  0.500000      2.000000
 -0.461538  0.250000  0.500000      2.000000
 -0.384615  0.250000  0.500000      2.000000
 -0.307692  0.250000  0.500000      2.000000
 -0.230769  0.250000  0.500000      2.000000
 -0.153846  0.250000  0.500000      2.000000
 -0.076923  0.250000  0.500000      2.000000
  0.000000  0.500000  0.500000      1.000000
  0.076923  0.500000  0.500000      2.000000
  0.153846  0.500000  0.500000      2.000000
  0.230769  0.500000  0.500000      2.000000
  0.307692  0.500000  0.500000      2.000000
  0.384615  0.500000  0.500000      2.000000
  0.461538  0.500000  0.500000      2.000000
 
 Following cartesian coordinates:
            Coordinates               Weight
  0.000000  0.000000  0.000000      1.000000
  0.021727  0.003736  0.000000      2.000000
  0.043454  0.007472  0.000000      2.000000
  0.065182  0.011209  0.000000      2.000000
  0.086909  0.014945  0.000000      2.000000
  0.108636  0.018681  0.000000      2.000000
  0.130363  0.022417  0.000000      2.000000
  0.000000  0.024285  0.000000      2.000000
  0.021727  0.028021  0.000000      2.000000
  0.043454  0.031758  0.000000      2.000000
  0.065182  0.035494  0.000000      2.000000
  0.086909  0.039230  0.000000      2.000000
  0.108636  0.042966  0.000000      2.000000
  0.130363  0.046702  0.000000      2.000000
 -0.130363  0.001868  0.000000      2.000000
 -0.108636  0.005604  0.000000      2.000000
 -0.086909  0.009340  0.000000      2.000000
 -0.065182  0.013077  0.000000      2.000000
 -0.043454  0.016813  0.000000      2.000000
 -0.021727  0.020549  0.000000      2.000000
  0.000000  0.048570  0.000000      1.000000
  0.021727  0.052307  0.000000      2.000000
  0.043454  0.056043  0.000000      2.000000
  0.065182  0.059779  0.000000      2.000000
  0.086909  0.063515  0.000000      2.000000
  0.108636  0.067251  0.000000      2.000000
  0.130363  0.070987  0.000000      2.000000
  0.000000  0.000000  0.018181      1.000000
  0.021727  0.003736  0.018181      2.000000
  0.043454  0.007472  0.018181      2.000000
  0.065182  0.011209  0.018181      2.000000
  0.086909  0.014945  0.018181      2.000000
  0.108636  0.018681  0.018181      2.000000
  0.130363  0.022417  0.018181      2.000000
  0.000000  0.024285  0.018181      2.000000
  0.021727  0.028021  0.018181      2.000000
  0.043454  0.031758  0.018181      2.000000
  0.065182  0.035494  0.018181      2.000000
  0.086909  0.039230  0.018181      2.000000
  0.108636  0.042966  0.018181      2.000000
  0.130363  0.046702  0.018181      2.000000
 -0.130363  0.001868  0.018181      2.000000
 -0.108636  0.005604  0.018181      2.000000
 -0.086909  0.009340  0.018181      2.000000
 -0.065182  0.013077  0.018181      2.000000
 -0.043454  0.016813  0.018181      2.000000
 -0.021727  0.020549  0.018181      2.000000
  0.000000  0.048570  0.018181      1.000000
  0.021727  0.052307  0.018181      2.000000
  0.043454  0.056043  0.018181      2.000000
  0.065182  0.059779  0.018181      2.000000
  0.086909  0.063515  0.018181      2.000000
  0.108636  0.067251  0.018181      2.000000
  0.130363  0.070987  0.018181      2.000000
 


--------------------------------------------------------------------------------------------------------




 Dimension of arrays:
   k-points           NKPTS =     54   k-points in BZ     NKDIM =     54   number of bands    NBANDS=     68
   number of dos      NEDOS =    301   number of ions     NIONS =     24
   non local maximal  LDIM  =      4   non local SUM 2l+1 LMDIM =      8
   total plane-waves  NPLWV = 192000
   max r-space proj   IRMAX =   2772   max aug-charges    IRDMAX=   6603
   dimension x,y,z NGX =    20 NGY =   60 NGZ =  160
   dimension x,y,z NGXF=    40 NGYF=  120 NGZF=  320
   support grid    NGXF=    40 NGYF=  120 NGZF=  320
   ions per type =              12  12
 NGX,Y,Z   is equivalent  to a cutoff of   9.39,  9.55,  9.67 a.u.
 NGXF,Y,Z  is equivalent  to a cutoff of  18.78, 19.10, 19.34 a.u.


 I would recommend the setting:
   dimension x,y,z NGX =    20 NGY =   59 NGZ =  155
 SYSTEM =  unknown system                          
 POSCAR =  Si12                                    

 Startparameter for this run:
   NWRITE =      2    write-flag & timer
   PREC   = accura    normal or accurate (medium, high low for compatibility)
   ISTART =      0    job   : 0-new  1-cont  2-samecut
   ICHARG =      2    charge: 1-file 2-atom 10-const
   ISPIN  =      1    spin polarized calculation?
   LNONCOLLINEAR =      F non collinear calculations
   LSORBIT =      F    spin-orbit coupling
   INIWAV =      1    electr: 0-lowe 1-rand  2-diag
   LASPH  =      F    aspherical Exc in radial PAW
   METAGGA=      F    non-selfconsistent MetaGGA calc.

 Electronic Relaxation 1
   ENCUT  =  300.0 eV  22.05 Ry    4.70 a.u.   5.00 14.75 38.84*2*pi/ulx,y,z
   ENINI  =  300.0     initial cutoff
   ENAUG  =  342.9 eV  augmentation charge cutoff
   NELM   =     60;   NELMIN=  2; NELMDL= -5     # of ELM steps 
   EDIFF  = 0.1E-05   stopping-criterion for ELM
   LREAL  =      T    real-space projection
   NLSPLINE    = F    spline interpolate recip. space projectors
   LCOMPAT=      F    compatible to vasp.4.4
   GGA_COMPAT  = T    GGA compatible to vasp.4.4-vasp.4.6
   LMAXPAW     = -100 max onsite density
   LMAXMIX     =    2 max onsite mixed and CHGCAR
   VOSKOWN=      0    Vosko Wilk Nusair interpolation
   ROPT   =   -0.00025  -0.00025
 Ionic relaxation
   EDIFFG = 0.1E-04   stopping-criterion for IOM
   NSW    =      0    number of steps for IOM
   NBLOCK =      1;   KBLOCK =      1    inner block; outer block 
   IBRION =     -1    ionic relax: 0-MD 1-quasi-New 2-CG
   NFREE  =      1    steps in history (QN), initial steepest desc. (CG)
   ISIF   =      3    stress and relaxation
   IWAVPR =     10    prediction:  0-non 1-charg 2-wave 3-comb
   ISYM   =      2    0-nonsym 1-usesym 2-fastsym
   LCORR  =      T    Harris-Foulkes like correction to forces

   POTIM  = 0.5000    time-step for ionic-motion
   TEIN   =    0.0    initial temperature
   TEBEG  =    0.0;   TEEND  =   0.0 temperature during run
   SMASS  =  -3.00    Nose mass-parameter (am)
   estimated Nose-frequenzy (Omega)   =  0.10E-29 period in steps =****** mass=  -0.286E-27a.u.
   SCALEE = 1.0000    scale energy and forces
   NPACO  =    256;   APACO  = 16.0  distance and # of slots for P.C.
   PSTRESS=    0.0 pullay stress

  Mass of Ions in am
   POMASS =  30.97 28.09
  Ionic Valenz
   ZVAL   =   5.00  4.00
  Atomic Wigner-Seitz radii
   RWIGS  =  -1.00 -1.00
  virtual crystal weights 
   VCA    =   1.00  1.00
   NELECT =     108.0000    total number of electrons
   NUPDOWN=      -1.0000    fix difference up-down

 DOS related values:
   EMIN   =  10.00;   EMAX   =-10.00  energy-range for DOS
   EFERMI =   0.00
   ISMEAR =     0;   SIGMA  =   0.10  broadening in eV -4-tet -1-fermi 0-gaus

 Electronic relaxation 2 (details)
   IALGO  =     38    algorithm
   LDIAG  =      T    sub-space diagonalisation (order eigenvalues)
   LSUBROT=      F    optimize rotation matrix (better conditioning)
   TURBO    =      0    0=normal 1=particle mesh
   IRESTART =      0    0=no restart 2=restart with 2 vectors
   NREBOOT  =      0    no. of reboots
   NMIN     =      0    reboot dimension
   EREF     =   0.00    reference energy to select bands
   IMIX   =      4    mixing-type and parameters
     AMIX     =   0.40;   BMIX     =  1.00
     AMIX_MAG =   1.60;   BMIX_MAG =  1.00
     AMIN     =   0.10
     WC   =   100.;   INIMIX=   1;  MIXPRE=   1;  MAXMIX= -45

 Intra band minimization:
   WEIMIN = 0.0000     energy-eigenvalue tresh-hold
   EBREAK =  0.37E-08  absolut break condition
   DEPER  =   0.30     relativ break condition  

   TIME   =   0.40     timestep for ELM

  volume/ion in A,a.u.               =      41.76       281.83
  Fermi-wavevector in a.u.,A,eV,Ry     =   0.779018  1.472130  8.256946  0.606868
  Thomas-Fermi vector in A             =   1.882034
 
 Write flags
   LWAVE  =      F    write WAVECAR
   LCHARG =      F    write CHGCAR
   LVTOT  =      F    write LOCPOT, total local potential
   LVHAR  =      F    write LOCPOT, Hartree potential only
   LELF   =      F    write electronic localiz. function (ELF)
   LORBIT =      0    0 simple, 1 ext, 2 COOP (PROOUT)


 Dipole corrections
   LMONO  =      F    monopole corrections only (constant potential shift)
   LDIPOL =      F    correct potential (dipole corrections)
   IDIPOL =      0    1-x, 2-y, 3-z, 4-all directions 
   EPSILON=  1.0000000 bulk dielectric constant

 Exchange correlation treatment:
   GGA     =    BO    GGA type
   LEXCH   =    42    internal setting for exchange type
   VOSKOWN=      0    Vosko Wilk Nusair interpolation
   LHFCALC =     F    Hartree Fock is set to
   LHFONE  =     F    Hartree Fock one center treatment
   AEXX    =    0.0000 exact exchange contribution

 vdW DFT:
   LUSE_VDW   =     T    switch on vdW DFT
   Zab_VDW    =-.8491    correlation parameter
   PARAM1     =0.1833
   PARAM2     =0.2200
   PARAM3     =0.0000

 Linear response parameters
   LEPSILON=     F    determine dielectric tensor
   LRPA    =     F    only Hartree local field effects (RPA)
   LNABLA  =     F    use nabla operator in PAW spheres
   LVEL    =     F    velocity operator in full k-point grid
   LINTERFAST=   F  fast interpolation
   KINTER  =     0    interpolate to denser k-point grid
   CSHIFT  =0.1000    complex shift for real part using Kramers Kronig
   OMEGAMAX=  -1.0    maximum frequency
   DEG_THRESHOLD= 0.2000000E-02 threshold for treating states as degnerate
   RTIME   =    0.100 relaxation time in fs

 Orbital magnetization related:
   ORBITALMAG=     F  switch on orbital magnetization
   LCHIMAG   =     F  perturbation theory with respect to B field
   DQ        =  0.001000  dq finite difference perturbation B field



--------------------------------------------------------------------------------------------------------


 Static calculation
 charge density and potential will be updated during run
 non-spin polarized calculation
 Variant of blocked Davidson
 Davidson routine will perform the subspace rotation
 perform sub-space diagonalisation
    after iterative eigenvector-optimisation
 modified Broyden-mixing scheme, WC =      100.0
 initial mixing is a Kerker type mixing with AMIX =  0.4000 and BMIX =      1.0000
 Hartree-type preconditioning will be used
 using additional bands           14
 real space projection scheme for non local part
 use partial core corrections
 calculate Harris-corrections to forces 
   (improved forces if not selfconsistent)
 use gradient corrections 
 use of overlap-Matrix (Vanderbilt PP)
 Gauss-broadening in eV      SIGMA  =   0.10


--------------------------------------------------------------------------------------------------------


  energy-cutoff  :      300.00
  volume of cell :     1002.32
      direct lattice vectors                 reciprocal lattice vectors
     3.540400000  0.000000000  0.000000000     0.282453960  0.048570342  0.000000000
    -1.770200000 10.294348000  0.000000000     0.000000000  0.097140683  0.000000000
     0.000000000  0.000000000 27.501429000     0.000000000  0.000000000  0.036361747

  length of vectors
     3.540400000 10.445439617 27.501429000     0.286599577  0.097140683  0.036361747


 
 k-points in units of 2pi/SCALE and weight: pymatgen generated KPOINTS with grid den
   0.00000000  0.00000000  0.00000000       0.010
   0.02172723  0.00373618  0.00000000       0.019
   0.04345446  0.00747236  0.00000000       0.019
   0.06518168  0.01120854  0.00000000       0.019
   0.08690891  0.01494472  0.00000000       0.019
   0.10863614  0.01868090  0.00000000       0.019
   0.13036337  0.02241708  0.00000000       0.019
   0.00000000  0.02428517  0.00000000       0.019
   0.02172723  0.02802135  0.00000000       0.019
   0.04345446  0.03175753  0.00000000       0.019
   0.06518168  0.03549371  0.00000000       0.019
   0.08690891  0.03922989  0.00000000       0.019
   0.10863614  0.04296607  0.00000000       0.019
   0.13036337  0.04670225  0.00000000       0.019
  -0.13036337  0.00186809  0.00000000       0.019
  -0.10863614  0.00560427  0.00000000       0.019
  -0.08690891  0.00934045  0.00000000       0.019
  -0.06518168  0.01307663  0.00000000       0.019
  -0.04345446  0.01681281  0.00000000       0.019
  -0.02172723  0.02054899  0.00000000       0.019
   0.00000000  0.04857034  0.00000000       0.010
   0.02172723  0.05230652  0.00000000       0.019
   0.04345446  0.05604270  0.00000000       0.019
   0.06518168  0.05977888  0.00000000       0.019
   0.08690891  0.06351506  0.00000000       0.019
   0.10863614  0.06725124  0.00000000       0.019
   0.13036337  0.07098742  0.00000000       0.019
   0.00000000  0.00000000  0.01818087       0.010
   0.02172723  0.00373618  0.01818087       0.019
   0.04345446  0.00747236  0.01818087       0.019
   0.06518168  0.01120854  0.01818087       0.019
   0.08690891  0.01494472  0.01818087       0.019
   0.10863614  0.01868090  0.01818087       0.019
   0.13036337  0.02241708  0.01818087       0.019
   0.00000000  0.02428517  0.01818087       0.019
   0.02172723  0.02802135  0.01818087       0.019
   0.04345446  0.03175753  0.01818087       0.019
   0.06518168  0.03549371  0.01818087       0.019
   0.08690891  0.03922989  0.01818087       0.019
   0.10863614  0.04296607  0.01818087       0.019
   0.13036337  0.04670225  0.01818087       0.019
  -0.13036337  0.00186809  0.01818087       0.019
  -0.10863614  0.00560427  0.01818087       0.019
  -0.08690891  0.00934045  0.01818087       0.019
  -0.06518168  0.01307663  0.01818087       0.019
  -0.04345446  0.01681281  0.01818087       0.019
  -0.02172723  0.02054899  0.01818087       0.019
   0.00000000  0.04857034  0.01818087       0.010
   0.02172723  0.05230652  0.01818087       0.019
   0.04345446  0.05604270  0.01818087       0.019
   0.06518168  0.05977888  0.01818087       0.019
   0.08690891  0.06351506  0.01818087       0.019
   0.10863614  0.06725124  0.01818087       0.019
   0.13036337  0.07098742  0.01818087       0.019
 
 k-points in reciprocal lattice and weights: pymatgen generated KPOINTS with grid den
   0.00000000  0.00000000  0.00000000       0.010
   0.07692308 -0.00000000  0.00000000       0.019
   0.15384615 -0.00000000  0.00000000       0.019
   0.23076923 -0.00000000  0.00000000       0.019
   0.30769231 -0.00000000  0.00000000       0.019
   0.38461538 -0.00000000  0.00000000       0.019
   0.46153846 -0.00000000  0.00000000       0.019
   0.00000000  0.25000000  0.00000000       0.019
   0.07692308  0.25000000  0.00000000       0.019
   0.15384615  0.25000000  0.00000000       0.019
   0.23076923  0.25000000  0.00000000       0.019
   0.30769231  0.25000000  0.00000000       0.019
   0.38461538  0.25000000  0.00000000       0.019
   0.46153846  0.25000000  0.00000000       0.019
  -0.46153846  0.25000000  0.00000000       0.019
  -0.38461538  0.25000000  0.00000000       0.019
  -0.30769231  0.25000000  0.00000000       0.019
  -0.23076923  0.25000000  0.00000000       0.019
  -0.15384615  0.25000000  0.00000000       0.019
  -0.07692308  0.25000000  0.00000000       0.019
   0.00000000  0.50000000  0.00000000       0.010
   0.07692308  0.50000000  0.00000000       0.019
   0.15384615  0.50000000  0.00000000       0.019
   0.23076923  0.50000000  0.00000000       0.019
   0.30769231  0.50000000  0.00000000       0.019
   0.38461538  0.50000000  0.00000000       0.019
   0.46153846  0.50000000  0.00000000       0.019
   0.00000000  0.00000000  0.50000000       0.010
   0.07692308 -0.00000000  0.50000000       0.019
   0.15384615 -0.00000000  0.50000000       0.019
   0.23076923 -0.00000000  0.50000000       0.019
   0.30769231 -0.00000000  0.50000000       0.019
   0.38461538 -0.00000000  0.50000000       0.019
   0.46153846 -0.00000000  0.50000000       0.019
   0.00000000  0.25000000  0.50000000       0.019
   0.07692308  0.25000000  0.50000000       0.019
   0.15384615  0.25000000  0.50000000       0.019
   0.23076923  0.25000000  0.50000000       0.019
   0.30769231  0.25000000  0.50000000       0.019
   0.38461538  0.25000000  0.50000000       0.019
   0.46153846  0.25000000  0.50000000       0.019
  -0.46153846  0.25000000  0.50000000       0.019
  -0.38461538  0.25000000  0.50000000       0.019
  -0.30769231  0.25000000  0.50000000       0.019
  -0.23076923  0.25000000  0.50000000       0.019
  -0.15384615  0.25000000  0.50000000       0.019
  -0.07692308  0.25000000  0.50000000       0.019
   0.00000000  0.50000000  0.50000000       0.010
   0.07692308  0.50000000  0.50000000       0.019
   0.15384615  0.50000000  0.50000000       0.019
   0.23076923  0.50000000  0.50000000       0.019
   0.30769231  0.50000000  0.50000000       0.019
   0.38461538  0.50000000  0.50000000       0.019
   0.46153846  0.50000000  0.50000000       0.019
 
 position of ions in fractional coordinates (direct lattice) 
   0.11402300  0.22804500  0.23316207
   0.81402300  0.32804500  0.51499159
   0.45808900  0.91617900  0.20939482
   0.15808900  0.01617900  0.49122434
   0.31085400  0.62170900  0.08414979
   0.31085400  0.62170900  0.36597930
   0.99923000  0.99846000  0.08631254
   0.99923000  0.99846000  0.36814206
   0.65492700  0.30985400  0.06041748
   0.65492700  0.30985400  0.34224700
   0.76973800  0.53947500  0.20725292
   0.46973800  0.63947500  0.48908244
   0.93971600  0.87943300  0.15783749
   0.63971600  0.97943300  0.43966701
   0.20515200  0.41030300  0.18578822
   0.90515200  0.51030300  0.46761774
   0.20184900  0.40369900  0.09969156
   0.20184900  0.40369900  0.38152107
   0.56380500  0.12761000  0.10779021
   0.56380500  0.12761000  0.38961973
   0.56710600  0.13421200  0.19387616
   0.26710600  0.23421200  0.47570568
   0.82923400  0.65846800  0.13571444
   0.52923400  0.75846800  0.41754396
 
 position of ions in cartesian coordinates  (Angst):
   0.00000177  2.34757459  6.41229012
   2.30126177  3.37700939 14.16300462
  -0.00000177  9.43146546  5.75865686
   0.53105823  0.16655226 13.50937136
  -0.00000177  6.40008880  2.31423934
  -0.00000177  6.40008880 10.06495384
   1.77020000 10.27849470  2.37371832
   1.77020000 10.27849470 10.12443282
   1.77020000  3.18974491  1.66156717
   1.77020000  3.18974491  9.41228167
   1.77020177  5.55354339  5.69975143
   0.53106177  6.58297819 13.45046593
   1.77019823  9.05318934  4.34075665
   0.53105823 10.08262414 12.09147115
   0.00000177  4.22380187  5.10944151
   2.30126177  5.25323667 12.86015601
  -0.00000177  4.15581799  2.74166024
  -0.00000177  4.15581799 10.49237474
   1.77020000  1.31366175  2.96438477
   1.77020000  1.31366175 10.71509927
   1.77020000  1.38162503  5.33187152
   0.53106000  2.41105983 13.08258602
   1.77020000  6.77849874  3.73234107
   0.53106000  7.80793354 11.48305557
 


--------------------------------------------------------------------------------------------------------


 k-point  1 :   0.0000 0.0000 0.0000  plane waves:   11717
 k-point  2 :   0.0769-0.0000 0.0000  plane waves:   11762
 k-point  3 :   0.1538-0.0000 0.0000  plane waves:   11805
 k-point  4 :   0.2308-0.0000 0.0000  plane waves:   11824
 k-point  5 :   0.3077-0.0000 0.0000  plane waves:   11875
 k-point  6 :   0.3846-0.0000 0.0000  plane waves:   11864
 k-point  7 :   0.4615-0.0000 0.0000  plane waves:   11883
 k-point  8 :   0.0000 0.2500 0.0000  plane waves:   11683
 k-point  9 :   0.0769 0.2500 0.0000  plane waves:   11756
 k-point 10 :   0.1538 0.2500 0.0000  plane waves:   11807
 k-point 11 :   0.2308 0.2500 0.0000  plane waves:   11853
 k-point 12 :   0.3077 0.2500 0.0000  plane waves:   11866
 k-point 13 :   0.3846 0.2500 0.0000  plane waves:   11889
 k-point 14 :   0.4615 0.2500 0.0000  plane waves:   11885
 k-point 15 :  -0.4615 0.2500 0.0000  plane waves:   11886
 k-point 16 :  -0.3846 0.2500 0.0000  plane waves:   11867
 k-point 17 :  -0.3077 0.2500 0.0000  plane waves:   11849
 k-point 18 :  -0.2308 0.2500 0.0000  plane waves:   11827
 k-point 19 :  -0.1538 0.2500 0.0000  plane waves:   11801
 k-point 20 :  -0.0769 0.2500 0.0000  plane waves:   11757
 k-point 21 :   0.0000 0.5000 0.0000  plane waves:   11710
 k-point 22 :   0.0769 0.5000 0.0000  plane waves:   11762
 k-point 23 :   0.1538 0.5000 0.0000  plane waves:   11782
 k-point 24 :   0.2308 0.5000 0.0000  plane waves:   11841
 k-point 25 :   0.3077 0.5000 0.0000  plane waves:   11876
 k-point 26 :   0.3846 0.5000 0.0000  plane waves:   11889
 k-point 27 :   0.4615 0.5000 0.0000  plane waves:   11881
 k-point 28 :   0.0000 0.0000 0.5000  plane waves:   11698
 k-point 29 :   0.0769-0.0000 0.5000  plane waves:   11752
 k-point 30 :   0.1538-0.0000 0.5000  plane waves:   11800
 k-point 31 :   0.2308-0.0000 0.5000  plane waves:   11834
 k-point 32 :   0.3077-0.0000 0.5000  plane waves:   11850
 k-point 33 :   0.3846-0.0000 0.5000  plane waves:   11888
 k-point 34 :   0.4615-0.0000 0.5000  plane waves:   11896
 k-point 35 :   0.0000 0.2500 0.5000  plane waves:   11714
 k-point 36 :   0.0769 0.2500 0.5000  plane waves:   11754
 k-point 37 :   0.1538 0.2500 0.5000  plane waves:   11802
 k-point 38 :   0.2308 0.2500 0.5000  plane waves:   11840
 k-point 39 :   0.3077 0.2500 0.5000  plane waves:   11858
 k-point 40 :   0.3846 0.2500 0.5000  plane waves:   11896
 k-point 41 :   0.4615 0.2500 0.5000  plane waves:   11886
 k-point 42 :  -0.4615 0.2500 0.5000  plane waves:   11852
 k-point 43 :  -0.3846 0.2500 0.5000  plane waves:   11838
 k-point 44 :  -0.3077 0.2500 0.5000  plane waves:   11842
 k-point 45 :  -0.2308 0.2500 0.5000  plane waves:   11840
 k-point 46 :  -0.1538 0.2500 0.5000  plane waves:   11804
 k-point 47 :  -0.0769 0.2500 0.5000  plane waves:   11748
 k-point 48 :   0.0000 0.5000 0.5000  plane waves:   11724
 k-point 49 :   0.0769 0.5000 0.5000  plane waves:   11748
 k-point 50 :   0.1538 0.5000 0.5000  plane waves:   11814
 k-point 51 :   0.2308 0.5000 0.5000  plane waves:   11832
 k-point 52 :   0.3077 0.5000 0.5000  plane waves:   11868
 k-point 53 :   0.3846 0.5000 0.5000  plane waves:   11892
 k-point 54 :   0.4615 0.5000 0.5000  plane waves:   11878

 maximum and minimum number of plane-waves per node :      5964     5832

 maximum number of plane-waves:     11896
 maximum index in each direction: 
   IXMAX=    5   IYMAX=   14   IZMAX=   38
   IXMIN=   -5   IYMIN=  -15   IZMIN=  -39

 WARNING: aliasing errors must be expected set NGX to  22 to avoid them
 NGY is ok and might be reduce to  60
 NGZ is ok and might be reduce to 156
 aliasing errors are usually negligible using standard VASP settings
 and one can safely disregard these warnings

 real space projection operators:
  total allocation   :       3793.25 KBytes
  max/ min on nodes  :       1899.38       1893.88


 parallel 3D FFT for wavefunctions:
    minimum data exchange during FFTs selected (reduces bandwidth)
 parallel 3D FFT for charge:
    minimum data exchange during FFTs selected (reduces bandwidth)


 total amount of memory used by VASP on root node   146493. kBytes
========================================================================

   base      :      30000. kBytes
   nonlr-proj:       3452. kBytes
   fftplans  :       9347. kBytes
   grid      :      14649. kBytes
   one-center:         36. kBytes
   wavefun   :      89009. kBytes
 
     INWAV:  cpu time    0.00: real time    0.00
 Broyden mixing: mesh for mixing (old mesh)
   NGX =  9   NGY = 29   NGZ = 77
  (NGX  = 40   NGY  =120   NGZ  =320)
  gives a total of  20097 points

 initial charge density was supplied:
 charge density of overlapping atoms calculated
 number of electron     108.0000000 magnetization 
 keeping initial charge density in first step


--------------------------------------------------------------------------------------------------------


 Maximum index for non-local projection operator         1333
 Maximum index for augmentation-charges          822 (set IRDMAX)


--------------------------------------------------------------------------------------------------------


 First call to EWALD:  gamma=   0.177
 Maximum number of real-space cells 7x 3x 1
 Maximum number of reciprocal cells 1x 3x 7

 FEWALD executed in parallel
    FEWALD:  cpu time    0.00: real time    0.00


----------------------------------------- Iteration    1(   1)  ---------------------------------------


vdW kernel read from vdw_kernel.bindat
  0.0000  0.2424  0.5071  0.7962  1.1119  1.4567  1.8333  2.2446  2.6937  3.1842
  3.7199  4.3049  4.9438  5.6415  6.4036  7.2358  8.1446  9.1372 10.2212 11.4050
 12.6979 14.1099 15.6519 17.3360 19.1751 21.1837 23.3773 25.7729 28.3892 31.2465
 34.3669 37.7748 41.4965 45.5611 50.0000
 
    POTLOK:  cpu time   16.14: real time   16.14
    SETDIJ:  cpu time    0.01: real time    0.01
     EDDAV:  cpu time   65.99: real time   66.01
       DOS:  cpu time    0.01: real time    0.01
    --------------------------------------------
      LOOP:  cpu time   82.15: real time   82.19

 eigenvalue-minimisations  :  7368
 total energy-change (2. order) : 0.4842527E+03  (-0.2862634E+04)
 number of electron     108.0000000 magnetization 
 augmentation part      108.0000000 magnetization 

 Free energy of the ion-electron system (eV)
  ---------------------------------------------------
  alpha Z        PSCENC =        36.80884744
  Ewald energy   TEWEN  =     11893.86887445
  -Hartree energ DENC   =    -14950.34611268
  -exchange      EXHF   =         0.00000000
  -V(xc)+E(xc)   XCENC  =       -88.26009907
  PAW double counting   =      1056.43050070     -732.41190547
  entropy T*S    EENTRO =        -0.04561634
  eigenvalues    EBANDS =       -85.83307775
  atomic energy  EATOM  =      3354.04126044
  ---------------------------------------------------
  free energy    TOTEN  =       484.25267173 eV

  energy without entropy =      484.29828807  energy(sigma->0) =      484.27547990


--------------------------------------------------------------------------------------------------------




----------------------------------------- Iteration    1(   2)  ---------------------------------------


     EDDAV:  cpu time   81.12: real time   81.15
       DOS:  cpu time    0.01: real time    0.01
    --------------------------------------------
      LOOP:  cpu time   81.14: real time   81.16

 eigenvalue-minimisations  :  9752
 total energy-change (2. order) :-0.5542934E+03  (-0.5398109E+03)
 number of electron     108.0000000 magnetization 
 augmentation part      108.0000000 magnetization 

 Free energy of the ion-electron system (eV)
  ---------------------------------------------------
  alpha Z        PSCENC =        36.80884744
  Ewald energy   TEWEN  =     11893.86887445
  -Hartree energ DENC   =    -14950.34611268
  -exchange      EXHF   =         0.00000000
  -V(xc)+E(xc)   XCENC  =       -88.26009907
  PAW double counting   =      1056.43050070     -732.41190547
  entropy T*S    EENTRO =        -0.02794395
  eigenvalues    EBANDS =      -640.14411851
  atomic energy  EATOM  =      3354.04126044
  ---------------------------------------------------
  free energy    TOTEN  =       -70.04069664 eV

  energy without entropy =      -70.01275269  energy(sigma->0) =      -70.02672467


--------------------------------------------------------------------------------------------------------




----------------------------------------- Iteration    1(   3)  ---------------------------------------


     EDDAV:  cpu time   74.59: real time   74.61
       DOS:  cpu time    0.01: real time    0.01
    --------------------------------------------
      LOOP:  cpu time   74.60: real time   74.72

 eigenvalue-minimisations  :  8828
 total energy-change (2. order) :-0.5502261E+02  (-0.5425186E+02)
 number of electron     108.0000000 magnetization 
 augmentation part      108.0000000 magnetization 

 Free energy of the ion-electron system (eV)
  ---------------------------------------------------
  alpha Z        PSCENC =        36.80884744
  Ewald energy   TEWEN  =     11893.86887445
  -Hartree energ DENC   =    -14950.34611268
  -exchange      EXHF   =         0.00000000
  -V(xc)+E(xc)   XCENC  =       -88.26009907
  PAW double counting   =      1056.43050070     -732.41190547
  entropy T*S    EENTRO =        -0.03783313
  eigenvalues    EBANDS =      -695.15684207
  atomic energy  EATOM  =      3354.04126044
  ---------------------------------------------------
  free energy    TOTEN  =      -125.06330939 eV

  energy without entropy =     -125.02547625  energy(sigma->0) =     -125.04439282


--------------------------------------------------------------------------------------------------------




----------------------------------------- Iteration    1(   4)  ---------------------------------------


     EDDAV:  cpu time   87.51: real time   87.53
       DOS:  cpu time    0.01: real time    0.01
    --------------------------------------------
      LOOP:  cpu time   87.52: real time   87.55

 eigenvalue-minimisations  : 10784
 total energy-change (2. order) :-0.2421482E+01  (-0.2406210E+01)
 number of electron     108.0000000 magnetization 
 augmentation part      108.0000000 magnetization 

 Free energy of the ion-electron system (eV)
  ---------------------------------------------------
  alpha Z        PSCENC =        36.80884744
  Ewald energy   TEWEN  =     11893.86887445
  -Hartree energ DENC   =    -14950.34611268
  -exchange      EXHF   =         0.00000000
  -V(xc)+E(xc)   XCENC  =       -88.26009907
  PAW double counting   =      1056.43050070     -732.41190547
  entropy T*S    EENTRO =        -0.03859205
  eigenvalues    EBANDS =      -697.57756522
  atomic energy  EATOM  =      3354.04126044
  ---------------------------------------------------
  free energy    TOTEN  =      -127.48479145 eV

  energy without entropy =     -127.44619940  energy(sigma->0) =     -127.46549542


--------------------------------------------------------------------------------------------------------




----------------------------------------- Iteration    1(   5)  ---------------------------------------


     EDDAV:  cpu time   82.33: real time   82.36
       DOS:  cpu time    0.01: real time    0.01
    CHARGE:  cpu time    4.40: real time    4.40
    MIXING:  cpu time    0.01: real time    0.01
    --------------------------------------------
      LOOP:  cpu time   86.76: real time   86.79

 eigenvalue-minimisations  : 10008
 total energy-change (2. order) :-0.6328584E-01  (-0.6322408E-01)
 number of electron     107.9999994 magnetization 
 augmentation part       -9.5236511 magnetization 

 Broyden mixing:
  rms(total) = 0.98193E+00    rms(broyden)= 0.98174E+00
  rms(prec ) = 0.10450E+01
  weight for this iteration     100.00

 Free energy of the ion-electron system (eV)
  ---------------------------------------------------
  alpha Z        PSCENC =        36.80884744
  Ewald energy   TEWEN  =     11893.86887445
  -Hartree energ DENC   =    -14950.34611268
  -exchange      EXHF   =         0.00000000
  -V(xc)+E(xc)   XCENC  =       -88.26009907
  PAW double counting   =      1056.43050070     -732.41190547
  entropy T*S    EENTRO =        -0.03860701
  eigenvalues    EBANDS =      -697.64083610
  atomic energy  EATOM  =      3354.04126044
  ---------------------------------------------------
  free energy    TOTEN  =      -127.54807729 eV

  energy without entropy =     -127.50947028  energy(sigma->0) =     -127.52877378


--------------------------------------------------------------------------------------------------------




----------------------------------------- Iteration    1(   6)  ---------------------------------------


    POTLOK:  cpu time   14.61: real time   14.62
    SETDIJ:  cpu time    0.01: real time    0.01
     EDDAV:  cpu time   74.61: real time   74.64
       DOS:  cpu time    0.01: real time    0.01
    CHARGE:  cpu time    4.45: real time    4.45
    MIXING:  cpu time    0.01: real time    0.01
    --------------------------------------------
      LOOP:  cpu time   93.72: real time   93.75

 eigenvalue-minimisations  :  8840
 total energy-change (2. order) : 0.1747116E+01  (-0.6589258E+00)
 number of electron     107.9999995 magnetization 
 augmentation part       -9.3896682 magnetization 

 Broyden mixing:
  rms(total) = 0.55716E+00    rms(broyden)= 0.55714E+00
  rms(prec ) = 0.59109E+00
  weight for this iteration     100.00

 eigenvalues of (default mixing * dielectric matrix)
  average eigenvalue GAMMA=   1.7542
  1.7542

 Free energy of the ion-electron system (eV)
  ---------------------------------------------------
  alpha Z        PSCENC =        36.80884744
  Ewald energy   TEWEN  =     11893.86887445
  -Hartree energ DENC   =    -14985.89274747
  -exchange      EXHF   =         0.00000000
  -V(xc)+E(xc)   XCENC  =       -85.20663441
  PAW double counting   =      1114.24822027     -791.77708696
  entropy T*S    EENTRO =        -0.03124694
  eigenvalues    EBANDS =      -661.86044857
  atomic energy  EATOM  =      3354.04126044
  ---------------------------------------------------
  free energy    TOTEN  =      -125.80096175 eV

  energy without entropy =     -125.76971481  energy(sigma->0) =     -125.78533828


--------------------------------------------------------------------------------------------------------




----------------------------------------- Iteration    1(   7)  ---------------------------------------


    POTLOK:  cpu time   14.58: real time   14.59
    SETDIJ:  cpu time    0.01: real time    0.01
     EDDAV:  cpu time   75.51: real time   75.53
       DOS:  cpu time    0.01: real time    0.01
    CHARGE:  cpu time    4.23: real time    4.23
    MIXING:  cpu time    0.01: real time    0.01
    --------------------------------------------
      LOOP:  cpu time   94.45: real time   94.48

 eigenvalue-minimisations  :  8976
 total energy-change (2. order) : 0.2059567E+00  (-0.3809354E+00)
 number of electron     107.9999994 magnetization 
 augmentation part       -9.3052777 magnetization 

 Broyden mixing:
  rms(total) = 0.24745E+00    rms(broyden)= 0.24743E+00
  rms(prec ) = 0.27947E+00
  weight for this iteration     100.00

 eigenvalues of (default mixing * dielectric matrix)
  average eigenvalue GAMMA=   1.4935
  0.7550  2.2321

 Free energy of the ion-electron system (eV)
  ---------------------------------------------------
  alpha Z        PSCENC =        36.80884744
  Ewald energy   TEWEN  =     11893.86887445
  -Hartree energ DENC   =    -15009.13871304
  -exchange      EXHF   =         0.00000000
  -V(xc)+E(xc)   XCENC  =       -82.60607410
  PAW double counting   =      1151.99235540     -830.58399106
  entropy T*S    EENTRO =        -0.03325060
  eigenvalues    EBANDS =      -639.94431402
  atomic energy  EATOM  =      3354.04126044
  ---------------------------------------------------
  free energy    TOTEN  =      -125.59500508 eV

  energy without entropy =     -125.56175448  energy(sigma->0) =     -125.57837978


--------------------------------------------------------------------------------------------------------




----------------------------------------- Iteration    1(   8)  ---------------------------------------


    POTLOK:  cpu time   14.59: real time   14.60
    SETDIJ:  cpu time    0.01: real time    0.01
     EDDAV:  cpu time   74.24: real time   74.26
       DOS:  cpu time    0.01: real time    0.01
    CHARGE:  cpu time    4.41: real time    4.41
    MIXING:  cpu time    0.01: real time    0.01
    --------------------------------------------
      LOOP:  cpu time   93.27: real time   93.30

 eigenvalue-minimisations  :  8744
 total energy-change (2. order) : 0.4912400E-01  (-0.1285806E+00)
 number of electron     107.9999995 magnetization 
 augmentation part       -9.2660485 magnetization 

 Broyden mixing:
  rms(total) = 0.92001E-01    rms(broyden)= 0.91989E-01
  rms(prec ) = 0.96868E-01
  weight for this iteration     100.00

 eigenvalues of (default mixing * dielectric matrix)
  average eigenvalue GAMMA=   1.5025
  2.4285  1.3928  0.6861

 Free energy of the ion-electron system (eV)
  ---------------------------------------------------
  alpha Z        PSCENC =        36.80884744
  Ewald energy   TEWEN  =     11893.86887445
  -Hartree energ DENC   =    -15025.73984103
  -exchange      EXHF   =         0.00000000
  -V(xc)+E(xc)   XCENC  =       -81.30379182
  PAW double counting   =      1164.72487992     -843.68845990
  entropy T*S    EENTRO =        -0.03486959
  eigenvalues    EBANDS =      -624.22278098
  atomic energy  EATOM  =      3354.04126044
  ---------------------------------------------------
  free energy    TOTEN  =      -125.54588108 eV

  energy without entropy =     -125.51101148  energy(sigma->0) =     -125.52844628


--------------------------------------------------------------------------------------------------------




----------------------------------------- Iteration    1(   9)  ---------------------------------------


    POTLOK:  cpu time   14.58: real time   14.59
    SETDIJ:  cpu time    0.01: real time    0.01
     EDDAV:  cpu time   78.60: real time   78.67
       DOS:  cpu time    0.01: real time    0.01
    CHARGE:  cpu time    4.32: real time    4.32
    MIXING:  cpu time    0.01: real time    0.01
    --------------------------------------------
      LOOP:  cpu time   97.53: real time   97.61

 eigenvalue-minimisations  :  9360
 total energy-change (2. order) : 0.2177334E-01  (-0.1804005E-01)
 number of electron     107.9999995 magnetization 
 augmentation part       -9.2743456 magnetization 

 Broyden mixing:
  rms(total) = 0.42438E-01    rms(broyden)= 0.42430E-01
  rms(prec ) = 0.47832E-01
  weight for this iteration     100.00

 eigenvalues of (default mixing * dielectric matrix)
  average eigenvalue GAMMA=   1.4515
  2.5527  1.6715  0.7908  0.7908

 Free energy of the ion-electron system (eV)
  ---------------------------------------------------
  alpha Z        PSCENC =        36.80884744
  Ewald energy   TEWEN  =     11893.86887445
  -Hartree energ DENC   =    -15028.82158562
  -exchange      EXHF   =         0.00000000
  -V(xc)+E(xc)   XCENC  =       -80.99852767
  PAW double counting   =      1160.36321691     -839.21786272
  entropy T*S    EENTRO =        -0.03436927
  eigenvalues    EBANDS =      -621.53396171
  atomic energy  EATOM  =      3354.04126044
  ---------------------------------------------------
  free energy    TOTEN  =      -125.52410774 eV

  energy without entropy =     -125.48973847  energy(sigma->0) =     -125.50692310


--------------------------------------------------------------------------------------------------------




----------------------------------------- Iteration    1(  10)  ---------------------------------------


    POTLOK:  cpu time   14.59: real time   14.60
    SETDIJ:  cpu time    0.01: real time    0.01
     EDDAV:  cpu time   77.13: real time   77.15
       DOS:  cpu time    0.01: real time    0.01
    CHARGE:  cpu time    4.40: real time    4.41
    MIXING:  cpu time    0.01: real time    0.01
    --------------------------------------------
      LOOP:  cpu time   96.28: real time   96.31

 eigenvalue-minimisations  :  9088
 total energy-change (2. order) : 0.1955138E-01  (-0.4139453E-02)
 number of electron     107.9999995 magnetization 
 augmentation part       -9.2785202 magnetization 

 Broyden mixing:
  rms(total) = 0.18300E-01    rms(broyden)= 0.18298E-01
  rms(prec ) = 0.21625E-01
  weight for this iteration     100.00

 eigenvalues of (default mixing * dielectric matrix)
  average eigenvalue GAMMA=   1.4010
  2.5600  1.7784  1.1584  0.7541  0.7541

 Free energy of the ion-electron system (eV)
  ---------------------------------------------------
  alpha Z        PSCENC =        36.80884744
  Ewald energy   TEWEN  =     11893.86887445
  -Hartree energ DENC   =    -15028.57430417
  -exchange      EXHF   =         0.00000000
  -V(xc)+E(xc)   XCENC  =       -80.92570119
  PAW double counting   =      1157.65393267     -836.43268406
  entropy T*S    EENTRO =        -0.03583900
  eigenvalues    EBANDS =      -621.90894295
  atomic energy  EATOM  =      3354.04126044
  ---------------------------------------------------
  free energy    TOTEN  =      -125.50455636 eV

  energy without entropy =     -125.46871736  energy(sigma->0) =     -125.48663686


--------------------------------------------------------------------------------------------------------




----------------------------------------- Iteration    1(  11)  ---------------------------------------


    POTLOK:  cpu time   14.59: real time   14.59
    SETDIJ:  cpu time    0.01: real time    0.01
     EDDAV:  cpu time   75.66: real time   75.69
       DOS:  cpu time    0.01: real time    0.01
    CHARGE:  cpu time    4.43: real time    4.43
    MIXING:  cpu time    0.01: real time    0.01
    --------------------------------------------
      LOOP:  cpu time   94.72: real time   94.75

 eigenvalue-minimisations  :  8952
 total energy-change (2. order) : 0.8123653E-02  (-0.1452864E-02)
 number of electron     107.9999995 magnetization 
 augmentation part       -9.2796396 magnetization 

 Broyden mixing:
  rms(total) = 0.91828E-02    rms(broyden)= 0.91803E-02
  rms(prec ) = 0.11489E-01
  weight for this iteration     100.00

 eigenvalues of (default mixing * dielectric matrix)
  average eigenvalue GAMMA=   1.3258
  2.6401  1.8560  1.2732  0.8198  0.8198  0.5458

 Free energy of the ion-electron system (eV)
  ---------------------------------------------------
  alpha Z        PSCENC =        36.80884744
  Ewald energy   TEWEN  =     11893.86887445
  -Hartree energ DENC   =    -15029.75881599
  -exchange      EXHF   =         0.00000000
  -V(xc)+E(xc)   XCENC  =       -80.90594356
  PAW double counting   =      1156.54289876     -835.28901847
  entropy T*S    EENTRO =        -0.03537103
  eigenvalues    EBANDS =      -620.76916476
  atomic energy  EATOM  =      3354.04126044
  ---------------------------------------------------
  free energy    TOTEN  =      -125.49643271 eV

  energy without entropy =     -125.46106168  energy(sigma->0) =     -125.47874719


--------------------------------------------------------------------------------------------------------




----------------------------------------- Iteration    1(  12)  ---------------------------------------


    POTLOK:  cpu time   14.59: real time   14.60
    SETDIJ:  cpu time    0.01: real time    0.01
     EDDAV:  cpu time   75.08: real time   75.10
       DOS:  cpu time    0.01: real time    0.01
    CHARGE:  cpu time    4.50: real time    4.50
    MIXING:  cpu time    0.01: real time    0.01
    --------------------------------------------
      LOOP:  cpu time   94.21: real time   94.24

 eigenvalue-minimisations  :  8808
 total energy-change (2. order) : 0.4798466E-02  (-0.2642089E-03)
 number of electron     107.9999995 magnetization 
 augmentation part       -9.2797134 magnetization 

 Broyden mixing:
  rms(total) = 0.40861E-02    rms(broyden)= 0.40856E-02
  rms(prec ) = 0.52600E-02
  weight for this iteration     100.00

 eigenvalues of (default mixing * dielectric matrix)
  average eigenvalue GAMMA=   1.3581
  2.6651  1.8530  1.5277  1.2768  0.8152  0.8152  0.5534

 Free energy of the ion-electron system (eV)
  ---------------------------------------------------
  alpha Z        PSCENC =        36.80884744
  Ewald energy   TEWEN  =     11893.86887445
  -Hartree energ DENC   =    -15030.63603875
  -exchange      EXHF   =         0.00000000
  -V(xc)+E(xc)   XCENC  =       -80.89015032
  PAW double counting   =      1155.94456399     -834.67416797
  entropy T*S    EENTRO =        -0.03552486
  eigenvalues    EBANDS =      -619.91929866
  atomic energy  EATOM  =      3354.04126044
  ---------------------------------------------------
  free energy    TOTEN  =      -125.49163424 eV

  energy without entropy =     -125.45610938  energy(sigma->0) =     -125.47387181


--------------------------------------------------------------------------------------------------------




----------------------------------------- Iteration    1(  13)  ---------------------------------------


    POTLOK:  cpu time   14.64: real time   14.65
    SETDIJ:  cpu time    0.01: real time    0.01
     EDDAV:  cpu time   79.18: real time   79.21
       DOS:  cpu time    0.01: real time    0.01
    CHARGE:  cpu time    4.62: real time    4.62
    MIXING:  cpu time    0.01: real time    0.01
    --------------------------------------------
      LOOP:  cpu time   98.48: real time   98.51

 eigenvalue-minimisations  :  9240
 total energy-change (2. order) : 0.2748651E-02  (-0.5251128E-04)
 number of electron     107.9999995 magnetization 
 augmentation part       -9.2795032 magnetization 

 Broyden mixing:
  rms(total) = 0.22464E-02    rms(broyden)= 0.22461E-02
  rms(prec ) = 0.32810E-02
  weight for this iteration     100.00

 eigenvalues of (default mixing * dielectric matrix)
  average eigenvalue GAMMA=   1.3751
  2.7268  2.1671  1.6162  1.2937  0.9295  0.9295  0.7687  0.5698

 Free energy of the ion-electron system (eV)
  ---------------------------------------------------
  alpha Z        PSCENC =        36.80884744
  Ewald energy   TEWEN  =     11893.86887445
  -Hartree energ DENC   =    -15031.51777723
  -exchange      EXHF   =         0.00000000
  -V(xc)+E(xc)   XCENC  =       -80.88550976
  PAW double counting   =      1155.56576576     -834.28611477
  entropy T*S    EENTRO =        -0.03549870
  eigenvalues    EBANDS =      -619.04873322
  atomic energy  EATOM  =      3354.04126044
  ---------------------------------------------------
  free energy    TOTEN  =      -125.48888559 eV

  energy without entropy =     -125.45338689  energy(sigma->0) =     -125.47113624


--------------------------------------------------------------------------------------------------------




----------------------------------------- Iteration    1(  14)  ---------------------------------------


    POTLOK:  cpu time   14.66: real time   14.67
    SETDIJ:  cpu time    0.01: real time    0.01
     EDDAV:  cpu time   80.74: real time   80.76
       DOS:  cpu time    0.01: real time    0.01
    CHARGE:  cpu time    4.49: real time    4.50
    MIXING:  cpu time    0.01: real time    0.01
    --------------------------------------------
      LOOP:  cpu time   99.96: real time   99.99

 eigenvalue-minimisations  :  9336
 total energy-change (2. order) : 0.1770410E-02  (-0.1325551E-04)
 number of electron     107.9999995 magnetization 
 augmentation part       -9.2794859 magnetization 

 Broyden mixing:
  rms(total) = 0.11882E-02    rms(broyden)= 0.11881E-02
  rms(prec ) = 0.20516E-02
  weight for this iteration     100.00

 eigenvalues of (default mixing * dielectric matrix)
  average eigenvalue GAMMA=   1.4274
  2.8980  2.5080  1.4884  1.4884  1.2707  0.9222  0.9222  0.7756  0.5731

 Free energy of the ion-electron system (eV)
  ---------------------------------------------------
  alpha Z        PSCENC =        36.80884744
  Ewald energy   TEWEN  =     11893.86887445
  -Hartree energ DENC   =    -15032.28961989
  -exchange      EXHF   =         0.00000000
  -V(xc)+E(xc)   XCENC  =       -80.88135329
  PAW double counting   =      1155.30411675     -834.01816813
  entropy T*S    EENTRO =        -0.03544960
  eigenvalues    EBANDS =      -618.28562335
  atomic energy  EATOM  =      3354.04126044
  ---------------------------------------------------
  free energy    TOTEN  =      -125.48711518 eV

  energy without entropy =     -125.45166558  energy(sigma->0) =     -125.46939038


--------------------------------------------------------------------------------------------------------




----------------------------------------- Iteration    1(  15)  ---------------------------------------


    POTLOK:  cpu time   14.67: real time   14.67
    SETDIJ:  cpu time    0.01: real time    0.01
     EDDAV:  cpu time   73.74: real time   73.76
       DOS:  cpu time    0.01: real time    0.01
    CHARGE:  cpu time    4.25: real time    4.25
    MIXING:  cpu time    0.01: real time    0.01
    --------------------------------------------
      LOOP:  cpu time   92.70: real time   92.73

 eigenvalue-minimisations  :  8328
 total energy-change (2. order) : 0.6258553E-03  (-0.4983286E-05)
 number of electron     107.9999995 magnetization 
 augmentation part       -9.2794100 magnetization 

 Broyden mixing:
  rms(total) = 0.68313E-03    rms(broyden)= 0.68311E-03
  rms(prec ) = 0.13055E-02
  weight for this iteration     100.00

 eigenvalues of (default mixing * dielectric matrix)
  average eigenvalue GAMMA=   1.4943
  3.2913  2.6376  1.7293  1.7005  1.3260  1.0370  1.0370  0.8057  0.8057  0.5729

 Free energy of the ion-electron system (eV)
  ---------------------------------------------------
  alpha Z        PSCENC =        36.80884744
  Ewald energy   TEWEN  =     11893.86887445
  -Hartree energ DENC   =    -15032.99040515
  -exchange      EXHF   =         0.00000000
  -V(xc)+E(xc)   XCENC  =       -80.87767252
  PAW double counting   =      1155.18455994     -833.89588592
  entropy T*S    EENTRO =        -0.03546773
  eigenvalues    EBANDS =      -617.59060027
  atomic energy  EATOM  =      3354.04126044
  ---------------------------------------------------
  free energy    TOTEN  =      -125.48648933 eV

  energy without entropy =     -125.45102159  energy(sigma->0) =     -125.46875546


--------------------------------------------------------------------------------------------------------




----------------------------------------- Iteration    1(  16)  ---------------------------------------


    POTLOK:  cpu time   14.67: real time   14.68
    SETDIJ:  cpu time    0.01: real time    0.01
     EDDAV:  cpu time   72.99: real time   73.01
       DOS:  cpu time    0.01: real time    0.01
    CHARGE:  cpu time    4.44: real time    4.44
    MIXING:  cpu time    0.01: real time    0.01
    --------------------------------------------
      LOOP:  cpu time   92.14: real time   92.17

 eigenvalue-minimisations  :  8224
 total energy-change (2. order) :-0.4037836E-03  (-0.9030020E-05)
 number of electron     107.9999995 magnetization 
 augmentation part       -9.2792582 magnetization 

 Broyden mixing:
  rms(total) = 0.40517E-03    rms(broyden)= 0.40515E-03
  rms(prec ) = 0.71869E-03
  weight for this iteration     100.00

 eigenvalues of (default mixing * dielectric matrix)
  average eigenvalue GAMMA=   1.6057
  4.2273  2.7503  2.2493  1.5580  1.3735  1.1604  1.1604  0.9165  0.9165  0.7776
  0.5730

 Free energy of the ion-electron system (eV)
  ---------------------------------------------------
  alpha Z        PSCENC =        36.80884744
  Ewald energy   TEWEN  =     11893.86887445
  -Hartree energ DENC   =    -15033.76922882
  -exchange      EXHF   =         0.00000000
  -V(xc)+E(xc)   XCENC  =       -80.87349269
  PAW double counting   =      1155.18614801     -833.89780442
  entropy T*S    EENTRO =        -0.03546209
  eigenvalues    EBANDS =      -616.81603543
  atomic energy  EATOM  =      3354.04126044
  ---------------------------------------------------
  free energy    TOTEN  =      -125.48689311 eV

  energy without entropy =     -125.45143102  energy(sigma->0) =     -125.46916206


--------------------------------------------------------------------------------------------------------




----------------------------------------- Iteration    1(  17)  ---------------------------------------


    POTLOK:  cpu time   14.62: real time   14.63
    SETDIJ:  cpu time    0.01: real time    0.01
     EDDAV:  cpu time   67.14: real time   67.16
       DOS:  cpu time    0.01: real time    0.01
    CHARGE:  cpu time    4.42: real time    4.42
    MIXING:  cpu time    0.01: real time    0.01
    --------------------------------------------
      LOOP:  cpu time   86.22: real time   86.25

 eigenvalue-minimisations  :  7584
 total energy-change (2. order) :-0.4220460E-03  (-0.1578934E-04)
 number of electron     107.9999995 magnetization 
 augmentation part       -9.2791763 magnetization 

 Broyden mixing:
  rms(total) = 0.23643E-03    rms(broyden)= 0.23642E-03
  rms(prec ) = 0.40401E-03
  weight for this iteration     100.00

 eigenvalues of (default mixing * dielectric matrix)
  average eigenvalue GAMMA=   1.7583
  5.6871  2.8319  2.4898  1.7041  1.7041  1.2376  1.2376  0.9923  0.9923  0.8693
  0.7800  0.5729

 Free energy of the ion-electron system (eV)
  ---------------------------------------------------
  alpha Z        PSCENC =        36.80884744
  Ewald energy   TEWEN  =     11893.86887445
  -Hartree energ DENC   =    -15034.22824608
  -exchange      EXHF   =         0.00000000
  -V(xc)+E(xc)   XCENC  =       -80.87125404
  PAW double counting   =      1155.20946015     -833.92164144
  entropy T*S    EENTRO =        -0.03546016
  eigenvalues    EBANDS =      -616.35915592
  atomic energy  EATOM  =      3354.04126044
  ---------------------------------------------------
  free energy    TOTEN  =      -125.48731515 eV

  energy without entropy =     -125.45185499  energy(sigma->0) =     -125.46958507


--------------------------------------------------------------------------------------------------------




----------------------------------------- Iteration    1(  18)  ---------------------------------------


    POTLOK:  cpu time   14.62: real time   14.63
    SETDIJ:  cpu time    0.01: real time    0.01
     EDDAV:  cpu time   66.02: real time   66.04
       DOS:  cpu time    0.01: real time    0.01
    CHARGE:  cpu time    4.27: real time    4.27
    MIXING:  cpu time    0.01: real time    0.02
    --------------------------------------------
      LOOP:  cpu time   84.95: real time   84.98

 eigenvalue-minimisations  :  7376
 total energy-change (2. order) :-0.9048039E-04  (-0.6035158E-05)
 number of electron     107.9999995 magnetization 
 augmentation part       -9.2791652 magnetization 

 Broyden mixing:
  rms(total) = 0.13013E-03    rms(broyden)= 0.13012E-03
  rms(prec ) = 0.23559E-03
  weight for this iteration     100.00

 eigenvalues of (default mixing * dielectric matrix)
  average eigenvalue GAMMA=   1.8039
  6.2085  2.9492  2.5931  2.0996  1.5815  1.3613  1.3613  0.5730  1.0327  1.0327
  1.0051  0.7794  0.8733

 Free energy of the ion-electron system (eV)
  ---------------------------------------------------
  alpha Z        PSCENC =        36.80884744
  Ewald energy   TEWEN  =     11893.86887445
  -Hartree energ DENC   =    -15034.46866207
  -exchange      EXHF   =         0.00000000
  -V(xc)+E(xc)   XCENC  =       -80.87013713
  PAW double counting   =      1155.21729637     -833.92946645
  entropy T*S    EENTRO =        -0.03546123
  eigenvalues    EBANDS =      -616.11995746
  atomic energy  EATOM  =      3354.04126044
  ---------------------------------------------------
  free energy    TOTEN  =      -125.48740564 eV

  energy without entropy =     -125.45194440  energy(sigma->0) =     -125.46967502


--------------------------------------------------------------------------------------------------------




----------------------------------------- Iteration    1(  19)  ---------------------------------------


    POTLOK:  cpu time   14.61: real time   14.61
    SETDIJ:  cpu time    0.01: real time    0.01
     EDDAV:  cpu time   60.39: real time   60.41
       DOS:  cpu time    0.01: real time    0.01
    CHARGE:  cpu time    4.43: real time    4.43
    MIXING:  cpu time    0.02: real time    0.02
    --------------------------------------------
      LOOP:  cpu time   79.46: real time   79.49

 eigenvalue-minimisations  :  6560
 total energy-change (2. order) :-0.1067790E-04  (-0.1916415E-05)
 number of electron     107.9999995 magnetization 
 augmentation part       -9.2791717 magnetization 

 Broyden mixing:
  rms(total) = 0.84588E-04    rms(broyden)= 0.84581E-04
  rms(prec ) = 0.15470E-03
  weight for this iteration     100.00

 eigenvalues of (default mixing * dielectric matrix)
  average eigenvalue GAMMA=   1.8625
  6.8309  3.1110  2.7011  2.2193  1.7285  1.7285  1.2671  1.2671  0.5730  1.0221
  1.0221  0.7792  0.9482  0.8772

 Free energy of the ion-electron system (eV)
  ---------------------------------------------------
  alpha Z        PSCENC =        36.80884744
  Ewald energy   TEWEN  =     11893.86887445
  -Hartree energ DENC   =    -15034.56258385
  -exchange      EXHF   =         0.00000000
  -V(xc)+E(xc)   XCENC  =       -80.86989804
  PAW double counting   =      1155.21463825     -833.92665857
  entropy T*S    EENTRO =        -0.03546092
  eigenvalues    EBANDS =      -616.02643551
  atomic energy  EATOM  =      3354.04126044
  ---------------------------------------------------
  free energy    TOTEN  =      -125.48741631 eV

  energy without entropy =     -125.45195539  energy(sigma->0) =     -125.46968585


--------------------------------------------------------------------------------------------------------




----------------------------------------- Iteration    1(  20)  ---------------------------------------


    POTLOK:  cpu time   14.62: real time   14.63
    SETDIJ:  cpu time    0.01: real time    0.01
     EDDAV:  cpu time   62.73: real time   62.75
       DOS:  cpu time    0.01: real time    0.01
    CHARGE:  cpu time    4.43: real time    4.43
    MIXING:  cpu time    0.02: real time    0.02
    --------------------------------------------
      LOOP:  cpu time   81.82: real time   81.85

 eigenvalue-minimisations  :  6884
 total energy-change (2. order) :-0.1851057E-04  (-0.2195695E-05)
 number of electron     107.9999995 magnetization 
 augmentation part       -9.2791715 magnetization 

 Broyden mixing:
  rms(total) = 0.58894E-04    rms(broyden)= 0.58892E-04
  rms(prec ) = 0.95426E-04
  weight for this iteration     100.00

 eigenvalues of (default mixing * dielectric matrix)
  average eigenvalue GAMMA=   1.9202
  6.8689  3.8914  2.8068  2.4898  1.9057  1.5029  1.5029  0.5730  1.2801  1.2801
  0.7793  0.8769  0.9889  1.0279  1.0279

 Free energy of the ion-electron system (eV)
  ---------------------------------------------------
  alpha Z        PSCENC =        36.80884744
  Ewald energy   TEWEN  =     11893.86887445
  -Hartree energ DENC   =    -15034.61756082
  -exchange      EXHF   =         0.00000000
  -V(xc)+E(xc)   XCENC  =       -80.86986200
  PAW double counting   =      1155.21170669     -833.92367516
  entropy T*S    EENTRO =        -0.03546198
  eigenvalues    EBANDS =      -615.97156389
  atomic energy  EATOM  =      3354.04126044
  ---------------------------------------------------
  free energy    TOTEN  =      -125.48743482 eV

  energy without entropy =     -125.45197285  energy(sigma->0) =     -125.46970383


--------------------------------------------------------------------------------------------------------




----------------------------------------- Iteration    1(  21)  ---------------------------------------


    POTLOK:  cpu time   14.62: real time   14.63
    SETDIJ:  cpu time    0.01: real time    0.01
     EDDAV:  cpu time   61.36: real time   61.39
       DOS:  cpu time    0.01: real time    0.01
    CHARGE:  cpu time    4.40: real time    4.40
    MIXING:  cpu time    0.02: real time    0.02
    --------------------------------------------
      LOOP:  cpu time   80.43: real time   80.46

 eigenvalue-minimisations  :  6696
 total energy-change (2. order) : 0.2675334E-04  (-0.2133457E-05)
 number of electron     107.9999995 magnetization 
 augmentation part       -9.2791695 magnetization 

 Broyden mixing:
  rms(total) = 0.33560E-04    rms(broyden)= 0.33558E-04
  rms(prec ) = 0.46121E-04
  weight for this iteration     100.00

 eigenvalues of (default mixing * dielectric matrix)
  average eigenvalue GAMMA=   2.0388
  7.5671  5.1698  2.9031  2.6403  1.9669  1.7192  1.7192  0.5730  1.3099  1.3099
  0.7794  0.8710  1.0496  1.0496  0.9962  0.9962

 Free energy of the ion-electron system (eV)
  ---------------------------------------------------
  alpha Z        PSCENC =        36.80884744
  Ewald energy   TEWEN  =     11893.86887445
  -Hartree energ DENC   =    -15034.63757931
  -exchange      EXHF   =         0.00000000
  -V(xc)+E(xc)   XCENC  =       -80.86997700
  PAW double counting   =      1155.21067711     -833.92265413
  entropy T*S    EENTRO =        -0.03546218
  eigenvalues    EBANDS =      -615.95139490
  atomic energy  EATOM  =      3354.04126044
  ---------------------------------------------------
  free energy    TOTEN  =      -125.48740807 eV

  energy without entropy =     -125.45194589  energy(sigma->0) =     -125.46967698


--------------------------------------------------------------------------------------------------------




----------------------------------------- Iteration    1(  22)  ---------------------------------------


    POTLOK:  cpu time   14.61: real time   14.62
    SETDIJ:  cpu time    0.01: real time    0.01
     EDDAV:  cpu time   60.27: real time   60.29
       DOS:  cpu time    0.01: real time    0.01
    CHARGE:  cpu time    4.44: real time    4.45
    MIXING:  cpu time    0.02: real time    0.02
    --------------------------------------------
      LOOP:  cpu time   79.37: real time   79.40

 eigenvalue-minimisations  :  6496
 total energy-change (2. order) : 0.5506867E-04  (-0.1471330E-05)
 number of electron     107.9999995 magnetization 
 augmentation part       -9.2791690 magnetization 

 Broyden mixing:
  rms(total) = 0.17295E-04    rms(broyden)= 0.17293E-04
  rms(prec ) = 0.21758E-04
  weight for this iteration     100.00

 eigenvalues of (default mixing * dielectric matrix)
  average eigenvalue GAMMA=   2.1081
  8.0574  6.1251  3.0236  2.6664  2.1708  1.9406  1.5411  1.5411  0.5730  1.2817
  1.2817  0.7794  1.0371  1.0371  0.8709  0.9551  0.9551

 Free energy of the ion-electron system (eV)
  ---------------------------------------------------
  alpha Z        PSCENC =        36.80884744
  Ewald energy   TEWEN  =     11893.86887445
  -Hartree energ DENC   =    -15034.64919239
  -exchange      EXHF   =         0.00000000
  -V(xc)+E(xc)   XCENC  =       -80.86999067
  PAW double counting   =      1155.21019937     -833.92217245
  entropy T*S    EENTRO =        -0.03546210
  eigenvalues    EBANDS =      -615.93971709
  atomic energy  EATOM  =      3354.04126044
  ---------------------------------------------------
  free energy    TOTEN  =      -125.48735300 eV

  energy without entropy =     -125.45189090  energy(sigma->0) =     -125.46962195


--------------------------------------------------------------------------------------------------------




----------------------------------------- Iteration    1(  23)  ---------------------------------------


    POTLOK:  cpu time   14.62: real time   14.62
    SETDIJ:  cpu time    0.01: real time    0.01
     EDDAV:  cpu time   60.95: real time   60.97
       DOS:  cpu time    0.01: real time    0.01
    CHARGE:  cpu time    4.44: real time    4.45
    MIXING:  cpu time    0.02: real time    0.02
    --------------------------------------------
      LOOP:  cpu time   80.06: real time   80.09

 eigenvalue-minimisations  :  6624
 total energy-change (2. order) : 0.2839352E-04  (-0.9056723E-06)
 number of electron     107.9999995 magnetization 
 augmentation part       -9.2791697 magnetization 

 Broyden mixing:
  rms(total) = 0.95097E-05    rms(broyden)= 0.95071E-05
  rms(prec ) = 0.11409E-04
  weight for this iteration     100.00

 eigenvalues of (default mixing * dielectric matrix)
  average eigenvalue GAMMA=   2.1679
  8.8064  6.6364  3.0915  2.7018  2.2601  1.9586  1.9586  1.4793  1.3475  1.3475
  0.5730  0.7794  1.1108  1.1108  0.8730  1.0046  1.0046  0.9785

 Free energy of the ion-electron system (eV)
  ---------------------------------------------------
  alpha Z        PSCENC =        36.80884744
  Ewald energy   TEWEN  =     11893.86887445
  -Hartree energ DENC   =    -15034.64730031
  -exchange      EXHF   =         0.00000000
  -V(xc)+E(xc)   XCENC  =       -80.87002220
  PAW double counting   =      1155.20997990     -833.92194793
  entropy T*S    EENTRO =        -0.03546234
  eigenvalues    EBANDS =      -615.94155407
  atomic energy  EATOM  =      3354.04126044
  ---------------------------------------------------
  free energy    TOTEN  =      -125.48732461 eV

  energy without entropy =     -125.45186227  energy(sigma->0) =     -125.46959344


[...]
     31      -4.2223      2.00000
     32      -4.0934      2.00000
     33      -3.8376      2.00000
     34      -3.7102      2.00000
     35      -3.4060      2.00000
     36      -3.3253      2.00000
     37      -3.2058      2.00000
     38      -3.1625      2.00000
     39      -2.8524      2.00000
     40      -2.7496      2.00000
     41      -2.6428      2.00000
     42      -2.5971      2.00000
     43      -2.4432      2.00000
     44      -2.1087      2.00000
     45      -2.0175      2.00000
     46      -1.8909      2.00000
     47      -1.8597      2.00000
     48      -1.5191      2.00000
     49      -1.4855      2.00000
     50      -1.2894      2.00000
     51      -1.1546      2.00000
     52      -0.8653      2.00000
     53      -0.6361      2.00000
     54      -0.3314      1.98596
     55       0.0258      0.00945
     56       0.6082      0.00000
     57       1.3395      0.00000
     58       1.4481      0.00000
     59       1.4793      0.00000
     60       1.6624      0.00000
     61       2.0757      0.00000
     62       2.2528      0.00000
     63       2.4661      0.00000
     64       2.6151      0.00000
     65       2.8803      0.00000
     66       2.9789      0.00000
     67       3.1616      0.00000
     68       3.2497      0.00000

 k-point    52 :       0.3077    0.5000    0.5000
  band No.  band energies     occupation 
      1     -12.8785      2.00000
      2     -12.6119      2.00000
      3     -12.2635      2.00000
      4     -12.0677      2.00000
      5     -11.7530      2.00000
      6     -11.5586      2.00000
      7     -11.1344      2.00000
      8     -11.0905      2.00000
      9     -10.9094      2.00000
     10     -10.7044      2.00000
     11     -10.4948      2.00000
     12     -10.1062      2.00000
     13      -9.0245      2.00000
     14      -8.6115      2.00000
     15      -8.1895      2.00000
     16      -7.8788      2.00000
     17      -7.3306      2.00000
     18      -7.1652      2.00000
     19      -7.0698      2.00000
     20      -6.5482      2.00000
     21      -6.2840      2.00000
     22      -6.1349      2.00000
     23      -6.0272      2.00000
     24      -5.4829      2.00000
     25      -5.4543      2.00000
     26      -5.0489      2.00000
     27      -4.9878      2.00000
     28      -4.7260      2.00000
     29      -4.6406      2.00000
     30      -4.5561      2.00000
     31      -4.4254      2.00000
     32      -4.2568      2.00000
     33      -4.1755      2.00000
     34      -3.6903      2.00000
     35      -3.3677      2.00000
     36      -3.3336      2.00000
     37      -3.2139      2.00000
     38      -3.1445      2.00000
     39      -3.0453      2.00000
     40      -2.9833      2.00000
     41      -2.7338      2.00000
     42      -2.6181      2.00000
     43      -2.4913      2.00000
     44      -2.3625      2.00000
     45      -2.2877      2.00000
     46      -2.0400      2.00000
     47      -1.9765      2.00000
     48      -1.8424      2.00000
     49      -1.6571      2.00000
     50      -1.5439      2.00000
     51      -1.3869      2.00000
     52      -0.9853      2.00000
     53      -0.6864      2.00000
     54      -0.5176      2.00000
     55      -0.1842      1.29144
     56       0.1908      0.00000
     57       1.1128      0.00000
     58       1.1990      0.00000
     59       1.2674      0.00000
     60       1.3198      0.00000
     61       1.9088      0.00000
     62       2.0710      0.00000
     63       2.2001      0.00000
     64       2.3498      0.00000
     65       2.4154      0.00000
     66       2.6673      0.00000
     67       2.8821      0.00000
     68       3.0137      0.00000

 k-point    53 :       0.3846    0.5000    0.5000
  band No.  band energies     occupation 
      1     -12.3748      2.00000
      2     -12.1353      2.00000
      3     -11.7667      2.00000
      4     -11.6851      2.00000
      5     -11.3570      2.00000
      6     -11.1787      2.00000
      7     -10.9451      2.00000
      8     -10.8703      2.00000
      9     -10.7175      2.00000
     10     -10.5625      2.00000
     11     -10.5426      2.00000
     12     -10.0391      2.00000
     13      -9.1545      2.00000
     14      -9.0085      2.00000
     15      -8.3532      2.00000
     16      -8.1650      2.00000
     17      -7.7514      2.00000
     18      -7.7150      2.00000
     19      -7.4870      2.00000
     20      -7.0383      2.00000
     21      -6.8197      2.00000
     22      -6.7605      2.00000
     23      -6.5849      2.00000
     24      -6.0103      2.00000
     25      -5.4003      2.00000
     26      -5.0576      2.00000
     27      -4.7773      2.00000
     28      -4.6956      2.00000
     29      -4.5260      2.00000
     30      -4.4255      2.00000
     31      -4.2341      2.00000
     32      -4.1387      2.00000
     33      -4.0222      2.00000
     34      -3.8245      2.00000
     35      -3.6309      2.00000
     36      -3.4416      2.00000
     37      -3.2967      2.00000
     38      -3.2497      2.00000
     39      -3.2220      2.00000
     40      -2.9847      2.00000
     41      -2.9192      2.00000
     42      -2.7246      2.00000
     43      -2.6355      2.00000
     44      -2.4988      2.00000
     45      -2.3879      2.00000
     46      -2.1904      2.00000
     47      -2.1399      2.00000
     48      -1.9833      2.00000
     49      -1.9055      2.00000
     50      -1.7253      2.00000
     51      -1.5219      2.00000
     52      -1.2920      2.00000
     53      -0.8347      2.00000
     54      -0.5650      2.00000
     55      -0.2375      1.74030
     56       0.1436      0.00002
     57       0.7775      0.00000
     58       1.1723      0.00000
     59       1.2483      0.00000
     60       1.4270      0.00000
     61       1.6890      0.00000
     62       1.8304      0.00000
     63       1.9931      0.00000
     64       2.0417      0.00000
     65       2.2185      0.00000
     66       2.4025      0.00000
     67       2.5924      0.00000
     68       2.6711      0.00000

 k-point    54 :       0.4615    0.5000    0.5000
  band No.  band energies     occupation 
      1     -11.8508      2.00000
      2     -11.5924      2.00000
      3     -11.3799      2.00000
      4     -11.2680      2.00000
      5     -11.1345      2.00000
      6     -11.0569      2.00000
      7     -10.9485      2.00000
      8     -10.8227      2.00000
      9     -10.8052      2.00000
     10     -10.7227      2.00000
     11     -10.5789      2.00000
     12     -10.0342      2.00000
     13      -9.4011      2.00000
     14      -8.7650      2.00000
     15      -8.5434      2.00000
     16      -8.3501      2.00000
     17      -8.2191      2.00000
     18      -7.7076      2.00000
     19      -7.6628      2.00000
     20      -7.4565      2.00000
     21      -7.3925      2.00000
     22      -7.2672      2.00000
     23      -7.0397      2.00000
     24      -6.1819      2.00000
     25      -5.0489      2.00000
     26      -4.9679      2.00000
     27      -4.5793      2.00000
     28      -4.5594      2.00000
     29      -4.4039      2.00000
     30      -4.2143      2.00000
     31      -4.1134      2.00000
     32      -4.0425      2.00000
     33      -4.0138      2.00000
     34      -3.8685      2.00000
     35      -3.7098      2.00000
     36      -3.6335      2.00000
     37      -3.5764      2.00000
     38      -3.3573      2.00000
     39      -3.3254      2.00000
     40      -3.1244      2.00000
     41      -3.0248      2.00000
     42      -2.8888      2.00000
     43      -2.7892      2.00000
     44      -2.4854      2.00000
     45      -2.4303      2.00000
     46      -2.2921      2.00000
     47      -2.2154      2.00000
     48      -2.1514      2.00000
     49      -1.8800      2.00000
     50      -1.7490      2.00000
     51      -1.6342      2.00000
     52      -1.4088      2.00000
     53      -0.9928      2.00000
     54      -0.5679      2.00000
     55      -0.1962      1.41309
     56       0.2185      0.00000
     57       0.5245      0.00000
     58       1.2489      0.00000
     59       1.2941      0.00000
     60       1.4929      0.00000
     61       1.5298      0.00000
     62       1.7410      0.00000
     63       1.8198      0.00000
     64       1.9570      0.00000
     65       2.2127      0.00000
     66       2.2599      0.00000
     67       2.4066      0.00000
     68       2.5524      0.00000


--------------------------------------------------------------------------------------------------------


 soft charge-density along one line, spin component           1
         0         1         2         3         4         5         6         7         8         9
 total charge-density along one line
 
 pseudopotential strength for first ion, spin component:           1
 29.804   0.008  -0.001  -0.022  -0.000  -0.000  -0.001  -0.000
  0.008   0.009  -0.000  -0.000  -0.000   0.000   0.000   0.000
 -0.001  -0.000   6.553  -0.001  -0.000  -0.003   0.000   0.000
 -0.022  -0.000  -0.001   6.548   0.000   0.000  -0.003  -0.000
 -0.000  -0.000  -0.000   0.000   6.554   0.000  -0.000  -0.003
 -0.000   0.000  -0.003   0.000   0.000   0.015  -0.000   0.000
 -0.001   0.000   0.000  -0.003  -0.000  -0.000   0.015   0.000
 -0.000   0.000   0.000  -0.000  -0.003   0.000   0.000   0.015
 total augmentation occupancy for first ion, spin component:           1
  1.815  -0.352   0.005   0.252   0.000   0.004   0.116  -0.000
 -0.352   1.287   0.021   0.853   0.001   0.004  -0.432   0.000
  0.005   0.021   1.144   0.010   0.000  -0.502   0.014   0.000
  0.252   0.853   0.010   1.284   0.001   0.014  -0.416  -0.000
  0.000   0.001   0.000   0.001   1.146   0.000  -0.000  -0.526
  0.004   0.004  -0.502   0.014   0.000   0.290  -0.015  -0.000
  0.116  -0.432   0.014  -0.416  -0.000  -0.015   0.226   0.000
 -0.000   0.000   0.000  -0.000  -0.526  -0.000   0.000   0.324


------------------------ aborting loop because EDIFF is reached ----------------------------------------


    CHARGE:  cpu time    4.40: real time    4.40
    FORLOC:  cpu time    0.06: real time    0.06
    FORNL :  cpu time   20.01: real time   20.02
    STRESS:  cpu time   60.26: real time   60.27
    FORCOR:  cpu time   14.68: real time   14.69
    FORHAR:  cpu time    0.14: real time    0.14
    MIXING:  cpu time    0.02: real time    0.02
    OFIELD:  cpu time    0.00: real time    0.00

  FORCE on cell =-STRESS in cart. coord.  units (eV):
  Direction    XX          YY          ZZ          XY          YZ          ZX
  --------------------------------------------------------------------------------------
  Alpha Z    36.80885    36.80885    36.80885
  Ewald   14339.60701 13995.20436-16440.95011     8.55929    -4.99432    -5.35095
  Hartree 14870.87844 14592.54589-14428.77501     2.98085    -2.63029    -1.43198
  E(xc)    -356.13575  -356.03385  -354.61676    -0.05587    -0.03354    -0.22291
  Local  -30752.87467-30141.56153 29281.82176   -12.31886     4.19859     3.71605
  n-local  1142.71436  1156.09772  1138.01747     1.26378     2.32168     3.00843
  augment  -199.86300  -201.87548  -204.13460    -0.07838    -0.14095    -0.58062
  Kinetic   914.31681   922.83768   981.28160    -0.74161    -3.84511     2.96424
  Fock        0.00000     0.00000     0.00000     0.00000     0.00000     0.00000
  -------------------------------------------------------------------------------------
  Total      -4.54795     4.02364     9.45320    -0.39079    -5.12393     2.10225
  in kB      -7.26976     6.43166    15.11064    -0.62466    -8.19044     3.36039
  external pressure =        4.76 kB  Pullay stress =        0.00 kB


 VOLUME and BASIS-vectors are now :
 -----------------------------------------------------------------------------
  energy-cutoff  :      300.00
  volume of cell :     1002.32
      direct lattice vectors                 reciprocal lattice vectors
     3.540400000  0.000000000  0.000000000     0.282453960  0.048570342  0.000000000
    -1.770200000 10.294348000  0.000000000     0.000000000  0.097140683  0.000000000
     0.000000000  0.000000000 27.501429000     0.000000000  0.000000000  0.036361747

  length of vectors
     3.540400000 10.445439617 27.501429000     0.286599577  0.097140683  0.036361747


 FORCES acting on ions
    electron-ion (+dipol)            ewald-force                    non-local-force                 convergence-correction
 -----------------------------------------------------------------------------------------------
   0.122E-01 0.597E+01 0.270E+02   0.211E-02 -.582E+01 -.226E+02   -.251E-01 -.182E+00 -.441E+01   0.585E-07 0.876E-06 0.581E-05
   -.387E-01 -.884E+01 -.571E+03   -.108E+00 0.951E+01 0.575E+03   -.552E-02 -.808E+00 -.374E+01   -.417E-06 0.491E-05 0.134E-04
   0.992E-02 0.630E+02 0.505E+02   -.652E-02 -.646E+02 -.463E+02   -.417E-02 0.156E+01 -.417E+01   -.371E-07 -.257E-05 0.447E-06
   0.658E+00 0.584E+02 -.543E+03   -.457E+00 -.598E+02 0.548E+03   -.519E+00 0.987E+00 -.333E+01   0.630E-06 0.199E-05 0.632E-05
   -.212E-02 -.570E+02 0.526E+03   0.761E-04 0.586E+02 -.531E+03   0.150E-03 -.154E+01 0.428E+01   0.136E-06 0.281E-05 -.352E-05
   0.727E+01 -.348E+02 -.534E+02   -.878E+01 0.370E+02 0.485E+02   0.552E+00 -.277E+01 0.220E+01   -.433E-06 -.580E-05 -.204E-05
   0.171E-02 0.538E+02 0.526E+03   0.275E-04 -.557E+02 -.530E+03   -.390E-03 0.192E+01 0.416E+01   -.321E-07 -.305E-05 -.265E-05
   -.101E+02 0.715E+02 -.487E+02   0.940E+01 -.746E+02 0.455E+02   0.110E+01 0.302E+01 0.140E+01   0.829E-06 0.450E-05 0.430E-06
   0.404E-03 0.170E+01 0.572E+03   -.848E-04 -.190E+01 -.577E+03   0.924E-03 0.203E+00 0.477E+01   0.248E-06 0.281E-05 -.900E-05
   -.431E+00 -.206E+02 -.275E+02   0.324E-01 0.200E+02 0.236E+02   0.690E+00 0.934E+00 0.343E+01   -.590E-07 0.103E-05 0.355E-05
   -.749E-02 -.629E+02 0.580E+02   0.274E-02 0.648E+02 -.538E+02   0.389E-02 -.194E+01 -.408E+01   0.533E-07 0.504E-05 0.237E-05
   -.471E+00 -.487E+02 -.516E+03   0.912E+00 0.508E+02 0.520E+03   -.862E-01 -.203E+01 -.345E+01   0.395E-07 -.546E-05 0.126E-04
   0.343E-02 0.310E+02 0.209E+03   0.411E-03 -.331E+02 -.210E+03   -.542E-03 0.212E+01 0.324E+00   0.150E-07 -.264E-05 -.527E-06
   0.227E+01 0.509E+02 -.285E+03   -.196E+01 -.500E+02 0.286E+03   0.869E+00 -.332E+01 0.244E+01   -.663E-06 0.199E-05 0.228E-05
   0.177E-02 -.122E+02 0.138E+03   -.199E-03 0.125E+02 -.140E+03   -.346E-02 -.282E+00 0.253E+01   -.669E-07 0.542E-05 0.419E-05
   0.322E+01 -.163E+02 -.312E+03   -.296E+01 0.164E+02 0.313E+03   0.266E-01 -.414E+00 -.652E+00   -.131E-06 -.306E-05 0.987E-05
   0.875E-03 -.520E+01 0.345E+03   0.684E-04 0.566E+01 -.343E+03   -.277E-03 -.469E+00 -.252E+01   -.297E-07 0.672E-05 -.726E-06
   -.124E+01 -.231E+02 -.140E+03   0.110E+01 0.232E+02 0.141E+03   -.395E-01 0.277E+00 0.724E+00   -.531E-07 -.370E-05 0.111E-05
   -.154E-02 0.955E+01 0.335E+03   -.189E-04 -.977E+01 -.333E+03   -.182E-02 0.223E+00 -.247E+01   0.405E-07 -.509E-05 0.496E-06
   0.327E+01 -.130E+02 -.131E+03   -.370E+01 0.113E+02 0.133E+03   -.770E+00 0.499E+01 -.529E+01   -.441E-06 0.325E-05 0.335E-06
   -.196E-02 0.101E+02 0.127E+03   -.659E-03 -.106E+02 -.129E+03   0.682E-02 0.415E+00 0.254E+01   0.115E-08 -.111E-05 0.137E-05
   0.119E+01 -.663E+01 -.336E+03   -.128E+01 0.650E+01 0.336E+03   0.349E-01 0.213E+00 -.100E+01   0.183E-06 0.529E-05 0.670E-05
   0.269E-02 -.310E+02 0.254E+03   0.364E-04 0.331E+02 -.254E+03   -.870E-03 -.212E+01 -.366E+00   -.615E-07 -.569E-08 0.131E-05
   -.944E+01 -.181E+02 -.199E+03   0.779E+01 0.165E+02 0.199E+03   0.204E+01 0.155E+01 0.131E+01   0.232E-06 0.314E-06 0.648E-05
 -----------------------------------------------------------------------------------------------
   -.386E+01 -.252E+01 0.538E+01   -.160E-13 -.142E-13 0.568E-13   0.387E+01 0.252E+01 -.537E+01   0.420E-07 0.145E-04 0.606E-04
 
 
 POSITION                                       TOTAL-FORCE (eV/Angst)
 -----------------------------------------------------------------------------------
      0.00000      2.34757      6.41229        -0.011018     -0.030164      0.017044
      2.30126      3.37701     14.16300        -0.151983     -0.139788      0.189647
     -0.00000      9.43147      5.75866        -0.000980     -0.013689      0.094509
      0.53106      0.16655     13.50937        -0.317725     -0.408295      1.345889
     -0.00000      6.40009      2.31424        -0.002104     -0.005358      0.005797
     -0.00000      6.40009     10.06495        -0.953306     -0.572357     -2.676999
      1.77020     10.27849      2.37372         0.001137      0.007779      0.009051
      1.77020     10.27849     10.12443         0.351529     -0.061091     -1.766887
      1.77020      3.18974      1.66157         0.001029     -0.001570      0.021889
      1.77020      3.18974      9.41228         0.290573      0.273915     -0.379032
      1.77020      5.55354      5.69975        -0.001076      0.004502      0.096212
      0.53106      6.58298     13.45047         0.354415      0.037876      0.294841
      1.77020      9.05319      4.34076         0.003086     -0.004907      0.015197
      0.53106     10.08262     12.09147         1.182270     -2.441790      2.824575
      0.00000      4.22380      5.10944        -0.002108      0.033267      0.054277
      2.30126      5.25324     12.86016         0.295515     -0.290042     -0.215413
     -0.00000      4.15582      2.74166         0.000452     -0.001252     -0.032067
     -0.00000      4.15582     10.49237        -0.176516      0.339456      1.297445
      1.77020      1.31366      2.96438        -0.003597     -0.001891     -0.047379
      1.77020      1.31366     10.71510        -1.206093      3.273120     -2.705375
      1.77020      1.38163      5.33187         0.003984     -0.042357      0.044534
      0.53106      2.41106     13.08259        -0.051712      0.082972     -0.623906
      1.77020      6.77850      3.73234         0.001637      0.004792      0.000761
      0.53106      7.80793     11.48306         0.392589     -0.043128      2.135390
 -----------------------------------------------------------------------------------
    total drift:                                0.005150      0.000345      0.002864


--------------------------------------------------------------------------------------------------------



  FREE ENERGIE OF THE ION-ELECTRON SYSTEM (eV)
  ---------------------------------------------------
  free  energy   TOTEN  =      -125.48730348 eV

  energy  without entropy=     -125.45184126  energy(sigma->0) =     -125.46957237
 


--------------------------------------------------------------------------------------------------------


    POTLOK:  cpu time   14.64: real time   14.64


--------------------------------------------------------------------------------------------------------


     LOOP+:  cpu time 2446.16: real time 2447.11
    4ORBIT:  cpu time    0.00: real time    0.00

 total amount of memory used by VASP on root node   146493. kBytes
========================================================================

   base      :      30000. kBytes
   nonlr-proj:       3452. kBytes
   fftplans  :       9347. kBytes
   grid      :      14649. kBytes
   one-center:         36. kBytes
   wavefun   :      89009. kBytes
 
  
  
 General timing and accounting informations for this job:
 ========================================================
  
                  Total CPU time used (sec):     2462.510
                            User time (sec):     2429.764
                          System time (sec):       32.746
                         Elapsed time (sec):     2464.572
  
                   Maximum memory used (kb):      335468.
                   Average memory used (kb):           0.
  
                          Minor page faults:      7889801
                          Major page faults:           14
                 Voluntary context switches:         1614
