<?xml version="1.0" encoding="ISO-8859-1"?>
<modeling>
 <generator>
  <i name="program" type="string">vasp </i>
  <i name="version" type="string">5.3.5  </i>
  <i name="subversion" type="string">31Mar14 (build Oct 29 2014 16:16:03) complex                          parallel </i>
  <i name="platform" type="string">Linux-UFHPC </i>
  <i name="date" type="string">2016 02 09 </i>
  <i name="time" type="string">18:36:53 </i>
 </generator>
 <incar>
  <i type="string" name="PREC">accurate</i>
  <i type="int" name="IBRION">     2</i>
  <i name="EDIFF">      0.00000100</i>
  <i type="int" name="NSW">     0</i>
  <i type="int" name="ISIF">     3</i>
  <i name="ENCUT">    300.00000000</i>
  <i type="string" name="LREAL"> Auto</i>
  <i type="int" name="ISMEAR">     0</i>
  <i name="SIGMA">      0.10000000</i>
  <i type="logical" name="LWAVE"> F  </i>
  <i type="logical" name="LCHARG"> F  </i>
  <i type="logical" name="LAECHG"> F  </i>
  <i type="string" name="GGA"> Bo</i>
  <i name="PARAM1">      0.18333333</i>
  <i name="PARAM2">      0.22000000</i>
  <i type="logical" name="LUSE_VDW"> T  </i>
  <i name="AGGAC">      0.00000000</i>
 </incar>
 <kpoints>
  <generation param="Gamma">
   <v type="int" name="divisions">      13        4        2 </v>
   <v name="usershift">      0.00000000       0.00000000       0.00000000 </v>
   <v name="genvec1">      0.07692308      -0.00000000       0.00000000 </v>
   <v name="genvec2">      0.00000000       0.25000000       0.00000000 </v>
   <v name="genvec3">      0.00000000       0.00000000       0.50000000 </v>
   <v name="shift">      0.00000000       0.00000000       0.00000000 </v>
  </generation>
  <varray name="kpointlist" >
   <v>       0.00000000       0.00000000       0.00000000 </v>
   <v>       0.07692308      -0.00000000       0.00000000 </v>
   <v>       0.15384615      -0.00000000       0.00000000 </v>
   <v>       0.23076923      -0.00000000       0.00000000 </v>
   <v>       0.30769231      -0.00000000       0.00000000 </v>
   <v>       0.38461538      -0.00000000       0.00000000 </v>
   <v>       0.46153846      -0.00000000       0.00000000 </v>
   <v>       0.00000000       0.25000000       0.00000000 </v>
   <v>       0.07692308       0.25000000       0.00000000 </v>
   <v>       0.15384615       0.25000000       0.00000000 </v>
   <v>       0.23076923       0.25000000       0.00000000 </v>
   <v>       0.30769231       0.25000000       0.00000000 </v>
   <v>       0.38461538       0.25000000       0.00000000 </v>
   <v>       0.46153846       0.25000000       0.00000000 </v>
   <v>      -0.46153846       0.25000000       0.00000000 </v>
   <v>      -0.38461538       0.25000000       0.00000000 </v>
   <v>      -0.30769231       0.25000000       0.00000000 </v>
   <v>      -0.23076923       0.25000000       0.00000000 </v>
   <v>      -0.15384615       0.25000000       0.00000000 </v>
   <v>      -0.07692308       0.25000000       0.00000000 </v>
   <v>       0.00000000       0.50000000       0.00000000 </v>
   <v>       0.07692308       0.50000000       0.00000000 </v>
   <v>       0.15384615       0.50000000       0.00000000 </v>
   <v>       0.23076923       0.50000000       0.00000000 </v>
   <v>       0.30769231       0.50000000       0.00000000 </v>
   <v>       0.38461538       0.50000000       0.00000000 </v>
   <v>       0.46153846       0.50000000       0.00000000 </v>
   <v>       0.00000000       0.00000000       0.50000000 </v>
   <v>       0.07692308      -0.00000000       0.50000000 </v>
   <v>       0.15384615      -0.00000000       0.50000000 </v>
   <v>       0.23076923      -0.00000000       0.50000000 </v>
   <v>       0.30769231      -0.00000000       0.50000000 </v>
   <v>       0.38461538      -0.00000000       0.50000000 </v>
   <v>       0.46153846      -0.00000000       0.50000000 </v>
   <v>       0.00000000       0.25000000       0.50000000 </v>
   <v>       0.07692308       0.25000000       0.50000000 </v>
   <v>       0.15384615       0.25000000       0.50000000 </v>
   <v>       0.23076923       0.25000000       0.50000000 </v>
   <v>       0.30769231       0.25000000       0.50000000 </v>
   <v>       0.38461538       0.25000000       0.50000000 </v>
   <v>       0.46153846       0.25000000       0.50000000 </v>
   <v>      -0.46153846       0.25000000       0.50000000 </v>
   <v>      -0.38461538       0.25000000       0.50000000 </v>
   <v>      -0.30769231       0.25000000       0.50000000 </v>
   <v>      -0.23076923       0.25000000       0.50000000 </v>
   <v>      -0.15384615       0.25000000       0.50000000 </v>
   <v>      -0.07692308       0.25000000       0.50000000 </v>
   <v>       0.00000000       0.50000000       0.50000000 </v>
   <v>       0.07692308       0.50000000       0.50000000 </v>
   <v>       0.15384615       0.50000000       0.50000000 </v>
   <v>       0.23076923       0.50000000       0.50000000 </v>
   <v>       0.30769231       0.50000000       0.50000000 </v>
   <v>       0.38461538       0.50000000       0.50000000 </v>
   <v>       0.46153846       0.50000000       0.50000000 </v>
  </varray>
  <varray name="weights" >
   <v>       0.00961538 </v>
   <v>       0.01923077 </v>
   <v>       0.01923077 </v>
   <v>       0.01923077 </v>
   <v>       0.01923077 </v>
   <v>       0.01923077 </v>
   <v>       0.01923077 </v>
   <v>       0.01923077 </v>
   <v>       0.01923077 </v>
   <v>       0.01923077 </v>
   <v>       0.01923077 </v>
   <v>       0.01923077 </v>
   <v>       0.01923077 </v>
   <v>       0.01923077 </v>
   <v>       0.01923077 </v>
   <v>       0.01923077 </v>
   <v>       0.01923077 </v>
   <v>       0.01923077 </v>
   <v>       0.01923077 </v>
   <v>       0.01923077 </v>
   <v>       0.00961538 </v>
   <v>       0.01923077 </v>
   <v>       0.01923077 </v>
   <v>       0.01923077 </v>
   <v>       0.01923077 </v>
   <v>       0.01923077 </v>
   <v>       0.01923077 </v>
   <v>       0.00961538 </v>
   <v>       0.01923077 </v>
   <v>       0.01923077 </v>
   <v>       0.01923077 </v>
   <v>       0.01923077 </v>
   <v>       0.01923077 </v>
   <v>       0.01923077 </v>
   <v>       0.01923077 </v>
   <v>       0.01923077 </v>
   <v>       0.01923077 </v>
   <v>       0.01923077 </v>
   <v>       0.01923077 </v>
   <v>       0.01923077 </v>
   <v>       0.01923077 </v>
   <v>       0.01923077 </v>
   <v>       0.01923077 </v>
   <v>       0.01923077 </v>
   <v>       0.01923077 </v>
   <v>       0.01923077 </v>
   <v>       0.01923077 </v>
   <v>       0.00961538 </v>
   <v>       0.01923077 </v>
   <v>       0.01923077 </v>
   <v>       0.01923077 </v>
   <v>       0.01923077 </v>
   <v>       0.01923077 </v>
   <v>       0.01923077 </v>
  </varray>
 </kpoints>
 <parameters>
  <separator name="general" >
   <i type="string" name="SYSTEM">unknown system</i>
   <i type="logical" name="LCOMPAT"> F  </i>
  </separator>
  <separator name="electronic" >
   <i type="string" name="PREC">accura</i>
   <i name="ENMAX">    300.00000000</i>
   <i name="ENAUG">    342.92400000</i>
   <i name="EDIFF">      0.00000100</i>
   <i type="int" name="IALGO">    38</i>
   <i type="int" name="IWAVPR">    10</i>
   <i type="int" name="NBANDS">    68</i>
   <i name="NELECT">    108.00000000</i>
   <i type="int" name="TURBO">     0</i>
   <i type="int" name="IRESTART">     0</i>
   <i type="int" name="NREBOOT">     0</i>
   <i type="int" name="NMIN">     0</i>
   <i name="EREF">      0.00000000</i>
   <separator name="electronic smearing" >
    <i type="int" name="ISMEAR">     0</i>
    <i name="SIGMA">      0.10000000</i>
    <i name="KSPACING">      0.50000000</i>
    <i type="logical" name="KGAMMA"> T  </i>
   </separator>
   <separator name="electronic projectors" >
    <i type="logical" name="LREAL"> T  </i>
    <v name="ROPT">     -0.00025000     -0.00025000</v>
    <i type="int" name="LMAXPAW">  -100</i>
    <i type="int" name="LMAXMIX">     2</i>
    <i type="logical" name="NLSPLINE"> F  </i>
   </separator>
   <separator name="electronic startup" >
    <i type="int" name="ISTART">     0</i>
    <i type="int" name="ICHARG">     2</i>
    <i type="int" name="INIWAV">     1</i>
   </separator>
   <separator name="electronic spin" >
    <i type="int" name="ISPIN">     1</i>
    <i type="logical" name="LNONCOLLINEAR"> F  </i>
    <v name="MAGMOM">      1.00000000      1.00000000      1.00000000      1.00000000      1.00000000      1.00000000      1.00000000      1.00000000      1.00000000      1.00000000      1.00000000      1.00000000      1.00000000      1.00000000      1.00000000      1.00000000      1.00000000      1.00000000      1.00000000      1.00000000
      1.00000000      1.00000000      1.00000000      1.00000000</v>
    <i name="NUPDOWN">     -1.00000000</i>
    <i type="logical" name="LSORBIT"> F  </i>
    <v name="SAXIS">      0.00000000      0.00000000      1.00000000</v>
    <i type="logical" name="LSPIRAL"> F  </i>
    <v name="QSPIRAL">      0.00000000      0.00000000      0.00000000</v>
    <i type="logical" name="LZEROZ"> F  </i>
   </separator>
   <separator name="electronic exchange-correlation" >
    <i type="logical" name="LASPH"> F  </i>
    <i type="logical" name="LMETAGGA"> F  </i>
   </separator>
   <separator name="electronic convergence" >
    <i type="int" name="NELM">    60</i>
    <i type="int" name="NELMDL">    -5</i>
    <i type="int" name="NELMIN">     2</i>
    <i name="ENINI">    300.00000000</i>
    <separator name="electronic convergence detail" >
     <i type="logical" name="LDIAG"> T  </i>
     <i type="logical" name="LSUBROT"> F  </i>
     <i name="WEIMIN">      0.00000000</i>
     <i name="EBREAK">      0.00000000</i>
     <i name="DEPER">      0.30000000</i>
     <i type="int" name="NRMM">     4</i>
     <i name="TIME">      0.40000000</i>
    </separator>
   </separator>
   <separator name="electronic mixer" >
    <i name="AMIX">      0.40000000</i>
    <i name="BMIX">      1.00000000</i>
    <i name="AMIN">      0.10000000</i>
    <i name="AMIX_MAG">      1.60000000</i>
    <i name="BMIX_MAG">      1.00000000</i>
    <separator name="electronic mixer details" >
     <i type="int" name="IMIX">     4</i>
     <i type="int" name="MAXMIX">   -45</i>
     <i name="WC">    100.00000000</i>
     <i type="int" name="INIMIX">     1</i>
     <i type="int" name="MIXPRE">     1</i>
     <i type="int" name="MREMOVE">     5</i>
    </separator>
   </separator>
   <separator name="electronic dipolcorrection" >
    <i type="logical" name="LDIPOL"> F  </i>
    <i type="logical" name="LMONO"> F  </i>
    <i type="int" name="IDIPOL">     0</i>
    <i name="EPSILON">      1.00000000</i>
    <v name="DIPOL">   -100.00000000   -100.00000000   -100.00000000</v>
    <i name="EFIELD">      0.00000000</i>
   </separator>
  </separator>
  <separator name="grids" >
   <i type="int" name="NGX">    20</i>
   <i type="int" name="NGY">    60</i>
   <i type="int" name="NGZ">   160</i>
   <i type="int" name="NGXF">    40</i>
   <i type="int" name="NGYF">   120</i>
   <i type="int" name="NGZF">   320</i>
   <i type="logical" name="ADDGRID"> F  </i>
  </separator>
  <separator name="ionic" >
   <i type="int" name="NSW">     0</i>
   <i type="int" name="IBRION">    -1</i>
   <i type="int" name="ISIF">     3</i>
   <i name="PSTRESS">      0.00000000</i>
   <i name="EDIFFG">      0.00001000</i>
   <i type="int" name="NFREE">     1</i>
   <i name="POTIM">      0.50000000</i>
   <i name="SMASS">     -3.00000000</i>
   <i name="SCALEE">      1.00000000</i>
  </separator>
  <separator name="ionic md" >
   <i name="TEBEG">      0.00010000</i>
   <i name="TEEND">      0.00010000</i>
   <i type="int" name="NBLOCK">     1</i>
   <i type="int" name="KBLOCK">     1</i>
   <i type="int" name="NPACO">   256</i>
   <i name="APACO">     16.00000000</i>
  </separator>
  <separator name="symmetry" >
   <i type="int" name="ISYM">     2</i>
   <i name="SYMPREC">      0.00001000</i>
  </separator>
  <separator name="dos" >
   <i type="logical" name="LORBIT"> F  </i>
   <v name="RWIGS">     -1.00000000     -1.00000000</v>
   <i type="int" name="NEDOS">   301</i>
   <i name="EMIN">     10.00000000</i>
   <i name="EMAX">    -10.00000000</i>
   <i name="EFERMI">      0.00000000</i>
  </separator>
  <separator name="writing" >
   <i type="int" name="NWRITE">     2</i>
   <i type="logical" name="LWAVE"> F  </i>
   <i type="logical" name="LCHARG"> F  </i>
   <i type="logical" name="LPARD"> F  </i>
   <i type="logical" name="LVTOT"> F  </i>
   <i type="logical" name="LVHAR"> F  </i>
   <i type="logical" name="LELF"> F  </i>
   <i type="logical" name="LOPTICS"> F  </i>
   <v name="STM">      0.00000000      0.00000000      0.00000000      0.00000000      0.00000000      0.00000000      0.00000000</v>
  </separator>
  <separator name="performance" >
   <i type="int" name="NPAR">     4</i>
   <i type="int" name="NSIM">     4</i>
   <i type="int" name="NBLK">    -1</i>
   <i type="logical" name="LPLANE"> T  </i>
   <i type="logical" name="LSCALAPACK"> T  </i>
   <i type="logical" name="LSCAAWARE"> F  </i>
   <i type="logical" name="LSCALU"> F  </i>
   <i type="logical" name="LASYNC"> F  </i>
   <i type="logical" name="LORBITALREAL"> F  </i>
  </separator>
  <separator name="miscellaneous" >
   <i type="int" name="IDIOT">     3</i>
   <i type="logical" name="LMUSIC"> F  </i>
   <v name="POMASS">     30.97400000     28.08500000</v>
   <v name="DARWINR">      0.00000000      0.00000000</v>
   <v name="DARWINV">      1.00000000      1.00000000</v>
   <i type="logical" name="LCORR"> T  </i>
  </separator>
  <i type="logical" name="GGA_COMPAT"> T  </i>
  <i type="logical" name="LBERRY"> F  </i>
  <i type="int" name="ICORELEVEL">     0</i>
  <i type="logical" name="LDAU"> F  </i>
  <i type="int" name="I_CONSTRAINED_M">     0</i>
  <separator name="electronic exchange-correlation" >
   <i type="string" name="GGA">BO</i>
   <i type="int" name="VOSKOWN">     0</i>
   <i type="logical" name="LHFCALC"> F  </i>
   <i type="string" name="PRECFOCK"></i>
   <i type="logical" name="LSYMGRAD"> F  </i>
   <i type="logical" name="LHFONE"> F  </i>
   <i type="logical" name="LRHFCALC"> F  </i>
   <i type="logical" name="LTHOMAS"> F  </i>
   <i type="logical" name="LMODELHF"> F  </i>
   <i name="ENCUT4O">     -1.00000000</i>
   <i type="int" name="EXXOEP">     0</i>
   <i type="int" name="FOURORBIT">     0</i>
   <i name="AEXX">      0.00000000</i>
   <i name="HFALPHA">      0.00000000</i>
   <i name="MCALPHA">      0.00000000</i>
   <i name="ALDAX">      1.00000000</i>
   <i name="AGGAX">      1.00000000</i>
   <i name="ALDAC">      1.00000000</i>
   <i name="AGGAC">      0.00000000</i>
   <i type="int" name="NKREDX">     1</i>
   <i type="int" name="NKREDY">     1</i>
   <i type="int" name="NKREDZ">     1</i>
   <i type="logical" name="SHIFTRED"> F  </i>
   <i type="logical" name="ODDONLY"> F  </i>
   <i type="logical" name="EVENONLY"> F  </i>
   <i type="int" name="LMAXFOCK">     0</i>
   <i type="int" name="NMAXFOCKAE">     0</i>
   <i type="logical" name="LFOCKAEDFT"> F  </i>
   <i name="HFSCREEN">      0.00000000</i>
   <i name="HFSCREENC">      0.00000000</i>
   <i type="int" name="NBANDSGWLOW">     0</i>
  </separator>
  <separator name="vdW DFT" >
   <i type="logical" name="LUSE_VDW"> T  </i>
   <i name="Zab_VDW">     -0.84910000</i>
   <i name="PARAM1">      0.18333333</i>
   <i name="PARAM2">      0.22000000</i>
   <i name="PARAM3">      0.00000000</i>
  </separator>
  <separator name="model GW" >
   <i type="int" name="MODEL_GW">     0</i>
   <i name="MODEL_EPS0">     25.05800243</i>
   <i name="MODEL_ALPHA">      1.00000000</i>
  </separator>
  <separator name="linear response parameters" >
   <i type="logical" name="LEPSILON"> F  </i>
   <i type="logical" name="LRPA"> F  </i>
   <i type="logical" name="LNABLA"> F  </i>
   <i type="logical" name="LVEL"> F  </i>
   <i type="int" name="KINTER">     0</i>
   <i name="CSHIFT">      0.10000000</i>
   <i name="OMEGAMAX">     -1.00000000</i>
   <i name="DEG_THRESHOLD">      0.00200000</i>
  </separator>
  <separator name="orbital magnetization" >
   <i type="logical" name="NUCIND"> F  </i>
   <v name="MAGPOS">      0.00000000      0.00000000      0.00000000</v>
   <i type="logical" name="LNICSALL"> T  </i>
   <i type="logical" name="ORBITALMAG"> F  </i>
   <i type="logical" name="LMAGBLOCH"> F  </i>
   <i type="logical" name="LCHIMAG"> F  </i>
   <i type="logical" name="LGAUGE"> T  </i>
   <i type="int" name="MAGATOM">     0</i>
   <v name="MAGDIPOL">      0.00000000      0.00000000      0.00000000</v>
   <v name="AVECCONST">      0.00000000      0.00000000      0.00000000</v>
  </separator>
  <separator name="response functions" >
   <i type="logical" name="LADDER"> F  </i>
   <i type="logical" name="LFXC"> F  </i>
   <i type="logical" name="LHARTREE"> T  </i>
   <i type="int" name="IBSE">     0</i>
   <i type="logical" name="LTCTE"> F  </i>
   <i type="logical" name="LTETE"> F  </i>
   <i type="logical" name="LTRIPLET"> F  </i>
   <i type="logical" name="LFXCEPS"> F  </i>
   <i type="logical" name="LFXHEG"> F  </i>
   <i type="logical" name="L2ORDER"> F  </i>
   <i type="logical" name="LUSEW"> F  </i>
   <i name="ENCUTGW">     -2.00000000</i>
   <i name="ENCUTGWSOFT">     -2.00000000</i>
   <i name="ENCUTLF">     -1.00000000</i>
   <i type="int" name="LMAXMP2">    -1</i>
   <i name="SCISSOR">      0.00000000</i>
   <i type="int" name="NOMEGA">     0</i>
   <i type="int" name="NOMEGAR">     0</i>
   <i type="int" name="NBANDSGW">    -1</i>
   <i type="int" name="NBANDSO">    -1</i>
   <i type="int" name="NBANDSV">    -1</i>
   <i type="int" name="NELM">     1</i>
   <i type="int" name="DIM">     3</i>
   <i type="int" name="ANTIRES">     0</i>
   <i name="OMEGAMAX">    -30.00000000</i>
   <i name="OMEGAMIN">    -30.00000000</i>
   <i name="OMEGATL">   -200.00000000</i>
   <i type="int" name="OMEGAGRID">     0</i>
   <i name="CSHIFT">     -0.10000000</i>
   <i type="logical" name="SELFENERGY"> F  </i>
   <i type="logical" name="LSPECTRAL"> F  </i>
   <i type="logical" name="ODDONLYGW"> F  </i>
   <i type="logical" name="EVENONLYGW"> F  </i>
   <i type="int" name="NKREDLFX">     1</i>
   <i type="int" name="NKREDLFY">     1</i>
   <i type="int" name="NKREDLFZ">     1</i>
   <i type="int" name="MAXMEM">  1800</i>
   <i type="int" name="TELESCOPE">     0</i>
   <i type="int" name="TAUPAR">     1</i>
  </separator>
  <separator name="External order field" >
   <i name="OFIELD_KAPPA">      0.00000000</i>
   <v name="OFIELD_K">      0.00000000      0.00000000      0.00000000</v>
   <i name="OFIELD_Q6_NEAR">      0.00000000</i>
   <i name="OFIELD_Q6_FAR">      0.00000000</i>
   <i name="OFIELD_A">      0.00000000</i>
  </separator>
 </parameters>
 <atominfo>
  <atoms>      24 </atoms>
  <types>       2 </types>
  <array name="atoms" >
   <dimension dim="1">ion</dimension>
   <field type="string">element</field>
   <field type="int">atomtype</field>
   <set>
    <rc><c>P </c><c>   1</c></rc>
    <rc><c>P </c><c>   1</c></rc>
    <rc><c>P </c><c>   1</c></rc>
    <rc><c>P </c><c>   1</c></rc>
    <rc><c>P </c><c>   1</c></rc>
    <rc><c>P </c><c>   1</c></rc>
    <rc><c>P </c><c>   1</c></rc>
    <rc><c>P </c><c>   1</c></rc>
    <rc><c>P </c><c>   1</c></rc>
    <rc><c>P </c><c>   1</c></rc>
    <rc><c>P </c><c>   1</c></rc>
    <rc><c>P </c><c>   1</c></rc>
    <rc><c>Si</c><c>   2</c></rc>
    <rc><c>Si</c><c>   2</c></rc>
    <rc><c>Si</c><c>   2</c></rc>
    <rc><c>Si</c><c>   2</c></rc>
    <rc><c>Si</c><c>   2</c></rc>
    <rc><c>Si</c><c>   2</c></rc>
    <rc><c>Si</c><c>   2</c></rc>
    <rc><c>Si</c><c>   2</c></rc>
    <rc><c>Si</c><c>   2</c></rc>
    <rc><c>Si</c><c>   2</c></rc>
    <rc><c>Si</c><c>   2</c></rc>
    <rc><c>Si</c><c>   2</c></rc>
   </set>
  </array>
  <array name="atomtypes" >
   <dimension dim="1">type</dimension>
   <field type="int">atomspertype</field>
   <field type="string">element</field>
   <field>mass</field>
   <field>valence</field>
   <field type="string">pseudopotential</field>
   <set>
    <rc><c>  12</c><c>P </c><c>     30.97400000</c><c>      5.00000000</c><c>  PAW_PBE P 17Jan2003                   </c></rc>
    <rc><c>  12</c><c>Si</c><c>     28.08500000</c><c>      4.00000000</c><c> PAW_PBE Si 05Jan2001                   </c></rc>
   </set>
  </array>
 </atominfo>
 <structure name="initialpos" >
  <crystal>
   <varray name="basis" >
    <v>       3.54040000       0.00000000       0.00000000 </v>
    <v>      -1.77020000      10.29434800       0.00000000 </v>
    <v>       0.00000000       0.00000000      27.50142900 </v>
   </varray>
   <i name="volume">   1002.32009712 </i>
   <varray name="rec_basis" >
    <v>       0.28245396       0.04857034       0.00000000 </v>
    <v>       0.00000000       0.09714068       0.00000000 </v>
    <v>       0.00000000       0.00000000       0.03636175 </v>
   </varray>
  </crystal>
  <varray name="positions" >
   <v>       0.11402300       0.22804500       0.23316207 </v>
   <v>       0.91402300       0.42804500       0.51499159 </v>
   <v>       0.45808900       0.91617900       0.20939482 </v>
   <v>       0.25808900       0.11617900       0.49122434 </v>
   <v>       0.31085400       0.62170900       0.08414979 </v>
   <v>       0.31085400       0.62170900       0.36597930 </v>
   <v>       0.99923000       0.99846000       0.08631254 </v>
   <v>       0.99923000       0.99846000       0.36814206 </v>
   <v>       0.65492700       0.30985400       0.06041748 </v>
   <v>       0.65492700       0.30985400       0.34224700 </v>
   <v>       0.76973800       0.53947500       0.20725292 </v>
   <v>       0.56973800       0.73947500       0.48908244 </v>
   <v>       0.93971600       0.87943300       0.15783749 </v>
   <v>       0.73971600       0.07943300       0.43966701 </v>
   <v>       0.20515200       0.41030300       0.18578822 </v>
   <v>       0.00515200       0.61030300       0.46761774 </v>
   <v>       0.20184900       0.40369900       0.09969156 </v>
   <v>       0.20184900       0.40369900       0.38152107 </v>
   <v>       0.56380500       0.12761000       0.10779021 </v>
   <v>       0.56380500       0.12761000       0.38961973 </v>
   <v>       0.56710600       0.13421200       0.19387616 </v>
   <v>       0.36710600       0.33421200       0.47570568 </v>
   <v>       0.82923400       0.65846800       0.13571444 </v>
   <v>       0.62923400       0.85846800       0.41754396 </v>
  </varray>
 </structure>
 <calculation>
  <scstep>
   <time name="dav">   60.69   60.73</time>
   <time name="total">   76.58   76.71</time>
   <energy>
    <i name="alphaZ">     36.80884744 </i>
    <i name="ewald">  11930.55298512 </i>
    <i name="hartreedc"> -14973.93723896 </i>
    <i name="XCdc">    -88.01187462 </i>
    <i name="pawpsdc">   1056.43050070 </i>
    <i name="pawaedc">   -732.41190547 </i>
    <i name="eentropy">     -0.04528661 </i>
    <i name="bandstr">    -89.42020453 </i>
    <i name="atom">   3354.04126044 </i>
    <i name="e_fr_energy">    494.00708350 </i>
    <i name="e_wo_entrp">    494.05237012 </i>
    <i name="e_0_energy">    494.02972681 </i>
   </energy>
  </scstep>
  <scstep>
   <time name="dav">   77.18   77.23</time>
   <time name="total">   77.19   77.24</time>
   <energy>
    <i name="e_fr_energy">    -63.80018785 </i>
    <i name="e_wo_entrp">    -63.78338399 </i>
    <i name="e_0_energy">    -63.79178592 </i>
   </energy>
  </scstep>
  <scstep>
   <time name="dav">   71.14   71.18</time>
   <time name="total">   71.15   71.19</time>
   <energy>
    <i name="e_fr_energy">   -120.28193431 </i>
    <i name="e_wo_entrp">   -120.25625268 </i>
    <i name="e_0_energy">   -120.26909349 </i>
   </energy>
  </scstep>
  <scstep>
   <time name="dav">   85.53   85.58</time>
   <time name="total">   85.54   85.59</time>
   <energy>
    <i name="e_fr_energy">   -122.89840834 </i>
    <i name="e_wo_entrp">   -122.87232887 </i>
    <i name="e_0_energy">   -122.88536860 </i>
   </energy>
  </scstep>
  <scstep>
   <time name="dav">   79.40   79.44</time>
   <time name="total">   83.48   83.52</time>
   <energy>
    <i name="e_fr_energy">   -122.95971773 </i>
    <i name="e_wo_entrp">   -122.93360547 </i>
    <i name="e_0_energy">   -122.94666160 </i>
   </energy>
  </scstep>
  <scstep>
   <time name="dav">   72.03   72.08</time>
   <time name="total">   90.54   90.60</time>
   <energy>
    <i name="e_fr_energy">   -119.60741967 </i>
    <i name="e_wo_entrp">   -119.58292595 </i>
    <i name="e_0_energy">   -119.59517281 </i>
   </energy>
  </scstep>
  <scstep>
   <time name="dav">   69.73   69.78</time>
   <time name="total">   88.25   88.30</time>
   <energy>
    <i name="e_fr_energy">   -119.54730549 </i>
    <i name="e_wo_entrp">   -119.52559958 </i>
    <i name="e_0_energy">   -119.53645254 </i>
   </energy>
  </scstep>
  <scstep>
   <time name="dav">   74.95   75.00</time>
   <time name="total">   93.46   93.52</time>
   <energy>
    <i name="e_fr_energy">   -119.54644939 </i>
    <i name="e_wo_entrp">   -119.52129494 </i>
    <i name="e_0_energy">   -119.53387217 </i>
   </energy>
  </scstep>
  <scstep>
   <time name="dav">   71.69   71.74</time>
   <time name="total">   90.22   90.28</time>
   <energy>
    <i name="e_fr_energy">   -119.52759407 </i>
    <i name="e_wo_entrp">   -119.50289090 </i>
    <i name="e_0_energy">   -119.51524248 </i>
   </energy>
  </scstep>
  <scstep>
   <time name="dav">   71.98   72.01</time>
   <time name="total">   90.48   90.54</time>
   <energy>
    <i name="e_fr_energy">   -119.52120131 </i>
    <i name="e_wo_entrp">   -119.49622630 </i>
    <i name="e_0_energy">   -119.50871381 </i>
   </energy>
  </scstep>
  <scstep>
   <time name="dav">   74.48   74.53</time>
   <time name="total">   93.01   93.07</time>
   <energy>
    <i name="e_fr_energy">   -119.51139531 </i>
    <i name="e_wo_entrp">   -119.48651027 </i>
    <i name="e_0_energy">   -119.49895279 </i>
   </energy>
  </scstep>
  <scstep>
   <time name="dav">   73.73   73.77</time>
   <time name="total">   92.24   92.30</time>
   <energy>
    <i name="e_fr_energy">   -119.50589304 </i>
    <i name="e_wo_entrp">   -119.48109238 </i>
    <i name="e_0_energy">   -119.49349271 </i>
   </energy>
  </scstep>
  <scstep>
   <time name="dav">   72.40   72.45</time>
   <time name="total">   90.91   90.96</time>
   <energy>
    <i name="e_fr_energy">   -119.50182178 </i>
    <i name="e_wo_entrp">   -119.47699034 </i>
    <i name="e_0_energy">   -119.48940606 </i>
   </energy>
  </scstep>
  <scstep>
   <time name="dav">   75.94   76.01</time>
   <time name="total">   94.44   94.53</time>
   <energy>
    <i name="e_fr_energy">   -119.50015515 </i>
    <i name="e_wo_entrp">   -119.47535472 </i>
    <i name="e_0_energy">   -119.48775494 </i>
   </energy>
  </scstep>
  <scstep>
   <time name="dav">   68.23   68.28</time>
   <time name="total">   86.66   86.71</time>
   <energy>
    <i name="e_fr_energy">   -119.49987361 </i>
    <i name="e_wo_entrp">   -119.47506325 </i>
    <i name="e_0_energy">   -119.48746843 </i>
   </energy>
  </scstep>
  <scstep>
   <time name="dav">   65.86   65.92</time>
   <time name="total">   84.27   84.34</time>
   <energy>
    <i name="e_fr_energy">   -119.50026352 </i>
    <i name="e_wo_entrp">   -119.47545181 </i>
    <i name="e_0_energy">   -119.48785766 </i>
   </energy>
  </scstep>
  <scstep>
   <time name="dav">   65.32   65.35</time>
   <time name="total">   83.76   83.80</time>
   <energy>
    <i name="e_fr_energy">   -119.50065955 </i>
    <i name="e_wo_entrp">   -119.47584829 </i>
    <i name="e_0_energy">   -119.48825392 </i>
   </energy>
  </scstep>
  <scstep>
   <time name="dav">   64.81   64.86</time>
   <time name="total">   83.17   83.24</time>
   <energy>
    <i name="e_fr_energy">   -119.50082405 </i>
    <i name="e_wo_entrp">   -119.47601100 </i>
    <i name="e_0_energy">   -119.48841752 </i>
   </energy>
  </scstep>
  <scstep>
   <time name="dav">   53.07   53.11</time>
   <time name="total">   71.43   71.48</time>
   <energy>
    <i name="e_fr_energy">   -119.50085964 </i>
    <i name="e_wo_entrp">   -119.47604576 </i>
    <i name="e_0_energy">   -119.48845270 </i>
   </energy>
  </scstep>
  <scstep>
   <time name="dav">   59.22   59.26</time>
   <time name="total">   77.56   77.61</time>
   <energy>
    <i name="e_fr_energy">   -119.50088503 </i>
    <i name="e_wo_entrp">   -119.47607152 </i>
    <i name="e_0_energy">   -119.48847828 </i>
   </energy>
  </scstep>
  <scstep>
   <time name="dav">   56.39   56.43</time>
   <time name="total">   74.75   74.80</time>
   <energy>
    <i name="e_fr_energy">   -119.50084149 </i>
    <i name="e_wo_entrp">   -119.47602604 </i>
    <i name="e_0_energy">   -119.48843377 </i>
   </energy>
  </scstep>
  <scstep>
   <time name="dav">   59.49   59.53</time>
   <time name="total">   77.85   77.90</time>
   <energy>
    <i name="e_fr_energy">   -119.50078442 </i>
    <i name="e_wo_entrp">   -119.47596929 </i>
    <i name="e_0_energy">   -119.48837685 </i>
   </energy>
  </scstep>
  <scstep>
   <time name="dav">   56.10   56.15</time>
   <time name="total">   74.50   74.55</time>
   <energy>
    <i name="e_fr_energy">   -119.50074776 </i>
    <i name="e_wo_entrp">   -119.47593280 </i>
    <i name="e_0_energy">   -119.48834028 </i>
   </energy>
  </scstep>
  <scstep>
   <time name="dav">   58.56   58.61</time>
   <time name="total">   76.91   76.96</time>
   <energy>
    <i name="e_fr_energy">   -119.50072045 </i>
    <i name="e_wo_entrp">   -119.47590567 </i>
    <i name="e_0_energy">   -119.48831306 </i>
   </energy>
  </scstep>
  <scstep>
   <time name="dav">   50.63   50.66</time>
   <time name="total">   69.03   69.08</time>
   <energy>
    <i name="e_fr_energy">   -119.50071545 </i>
    <i name="e_wo_entrp">   -119.47590069 </i>
    <i name="e_0_energy">   -119.48830807 </i>
   </energy>
  </scstep>
  <scstep>
   <time name="dav">   49.11   49.15</time>
   <time name="total">   63.54   63.75</time>
   <energy>
    <i name="alphaZ">     36.80884744 </i>
    <i name="ewald">  11930.55298512 </i>
    <i name="hartreedc"> -15067.85108139 </i>
    <i name="XCdc">    -80.37125458 </i>
    <i name="pawpsdc">   1168.08242317 </i>
    <i name="pawaedc">   -847.33474704 </i>
    <i name="eentropy">     -0.02481470 </i>
    <i name="bandstr">   -613.40433415 </i>
    <i name="atom">   3354.04126044 </i>
    <i name="e_fr_energy">   -119.50071567 </i>
    <i name="e_wo_entrp">   -119.47590097 </i>
    <i name="e_0_energy">   -119.48830832 </i>
   </energy>
  </scstep>
  <structure>
   <crystal>
    <varray name="basis" >
     <v>       3.54040000       0.00000000       0.00000000 </v>
     <v>      -1.77020000      10.29434800       0.00000000 </v>
     <v>       0.00000000       0.00000000      27.50142900 </v>
    </varray>
    <i name="volume">   1002.32009712 </i>
    <varray name="rec_basis" >
     <v>       0.28245396       0.04857034       0.00000000 </v>
     <v>       0.00000000       0.09714068       0.00000000 </v>
     <v>       0.00000000       0.00000000       0.03636175 </v>
    </varray>
   </crystal>
   <varray name="positions" >
    <v>       0.11402300       0.22804500       0.23316207 </v>
    <v>       0.91402300       0.42804500       0.51499159 </v>
    <v>       0.45808900       0.91617900       0.20939482 </v>
    <v>       0.25808900       0.11617900       0.49122434 </v>
    <v>       0.31085400       0.62170900       0.08414979 </v>
    <v>       0.31085400       0.62170900       0.36597930 </v>
    <v>       0.99923000       0.99846000       0.08631254 </v>
    <v>       0.99923000       0.99846000       0.36814206 </v>
    <v>       0.65492700       0.30985400       0.06041748 </v>
    <v>       0.65492700       0.30985400       0.34224700 </v>
    <v>       0.76973800       0.53947500       0.20725292 </v>
    <v>       0.56973800       0.73947500       0.48908244 </v>
    <v>       0.93971600       0.87943300       0.15783749 </v>
    <v>       0.73971600       0.07943300       0.43966701 </v>
    <v>       0.20515200       0.41030300       0.18578822 </v>
    <v>       0.00515200       0.61030300       0.46761774 </v>
    <v>       0.20184900       0.40369900       0.09969156 </v>
    <v>       0.20184900       0.40369900       0.38152107 </v>
    <v>       0.56380500       0.12761000       0.10779021 </v>
    <v>       0.56380500       0.12761000       0.38961973 </v>
    <v>       0.56710600       0.13421200       0.19387616 </v>
    <v>       0.36710600       0.33421200       0.47570568 </v>
    <v>       0.82923400       0.65846800       0.13571444 </v>
    <v>       0.62923400       0.85846800       0.41754396 </v>
   </varray>
  </structure>
  <varray name="forces" >
   <v>       0.02377306      -0.05586168       0.00527633 </v>
   <v>      -0.01731420       0.32458072      -0.10378394 </v>
   <v>       0.00044073      -0.01201949       0.08382034 </v>
   <v>      -0.92420462       0.51757768       1.21049716 </v>
   <v>      -0.00042925      -0.00486413       0.00649817 </v>
   <v>      -0.93500951      -0.40622798       1.02711975 </v>
   <v>       0.00303684      -0.00108848      -0.00114621 </v>
   <v>       1.31045915      -0.84423126      -2.00224839 </v>
   <v>       0.00084971       0.00002311       0.01767331 </v>
   <v>       0.15888576      -0.13306564      -0.23271575 </v>
   <v>      -0.00116318       0.00771789       0.09249798 </v>
   <v>       0.83082614       0.23131155       0.40413494 </v>
   <v>       0.00316581      -0.00051412       0.00671626 </v>
   <v>      11.95062838      -8.08995041      24.98054651 </v>
   <v>      -0.00101522       0.01314293       0.06710818 </v>
   <v>       0.25598568       0.38042369      -1.01126796 </v>
   <v>      -0.00180257       0.00125117      -0.02806390 </v>
   <v>       0.85287063       0.23981706       0.97596185 </v>
   <v>       0.00045873      -0.01633894      -0.01526700 </v>
   <v>     -11.90858940       8.82370024     -24.51812088 </v>
   <v>      -0.00447507      -0.01794275       0.00726408 </v>
   <v>      -0.75757299       0.02184215      -0.93681462 </v>
   <v>       0.00173282       0.00919412      -0.00141959 </v>
   <v>      -0.84153744      -0.98847742      -0.03426661 </v>
  </varray>
  <varray name="stress" >
   <v>      16.20150947     -13.57274443      21.59109822 </v>
   <v>     -13.57274445       4.67006616     -10.48218487 </v>
   <v>      21.59109798     -10.48218495      51.90951446 </v>
  </varray>
  <energy>
   <i name="e_fr_energy">   -119.50071567 </i>
   <i name="e_wo_entrp">   -119.48830832 </i>
   <i name="e_0_energy">     -0.02481470 </i>
  </energy>
  <time name="totalsc"> 2244.40 2246.15</time>
  <eigenvalues>
   <array>
    <dimension dim="1">band</dimension>
    <dimension dim="2">kpoint</dimension>
    <dimension dim="3">spin</dimension>
    <field>eigene</field>
    <field>occ</field>
    <set>
     <set comment="spin 1">
      <set comment="kpoint 1">
       <r>  -14.4870    1.0000 </r>
       <r>  -13.5718    1.0000 </r>
       <r>  -12.8324    1.0000 </r>
       <r>  -12.8054    1.0000 </r>
       <r>  -12.5207    1.0000 </r>
       <r>  -12.2104    1.0000 </r>
       <r>  -12.1123    1.0000 </r>
       <r>  -12.0853    1.0000 </r>
       <r>  -11.4642    1.0000 </r>
       <r>  -11.2292    1.0000 </r>
       <r>  -11.0221    1.0000 </r>
       <r>  -10.0833    1.0000 </r>
       <r>   -8.4797    1.0000 </r>
       <r>   -8.0638    1.0000 </r>
       <r>   -7.8604    1.0000 </r>
       <r>   -7.5028    1.0000 </r>
       <r>   -6.9543    1.0000 </r>
       <r>   -6.8618    1.0000 </r>
       <r>   -6.5242    1.0000 </r>
       <r>   -6.4978    1.0000 </r>
       <r>   -5.8571    1.0000 </r>
       <r>   -5.6649    1.0000 </r>
       <r>   -4.7972    1.0000 </r>
       <r>   -4.5726    1.0000 </r>
       <r>   -4.1061    1.0000 </r>
       <r>   -3.8287    1.0000 </r>
       <r>   -3.7254    1.0000 </r>
       <r>   -3.6294    1.0000 </r>
       <r>   -3.4649    1.0000 </r>
       <r>   -3.0881    1.0000 </r>
       <r>   -3.0748    1.0000 </r>
       <r>   -2.8756    1.0000 </r>
       <r>   -2.8580    1.0000 </r>
       <r>   -2.7283    1.0000 </r>
       <r>   -2.5739    1.0000 </r>
       <r>   -2.4853    1.0000 </r>
       <r>   -2.4216    1.0000 </r>
       <r>   -2.4124    1.0000 </r>
       <r>   -2.2158    1.0000 </r>
       <r>   -2.0465    1.0000 </r>
       <r>   -1.9459    1.0000 </r>
       <r>   -1.8870    1.0000 </r>
       <r>   -1.7593    1.0000 </r>
       <r>   -1.7524    1.0000 </r>
       <r>   -1.6729    1.0000 </r>
       <r>   -1.6093    1.0000 </r>
       <r>   -1.4630    1.0000 </r>
       <r>   -1.3844    1.0000 </r>
       <r>   -1.1464    1.0000 </r>
       <r>   -1.1056    1.0000 </r>
       <r>   -0.9650    1.0000 </r>
       <r>   -0.4209    1.0000 </r>
       <r>   -0.2516    0.9916 </r>
       <r>    0.0185    0.0769 </r>
       <r>    0.7394    0.0000 </r>
       <r>    0.9537    0.0000 </r>
       <r>    1.1509    0.0000 </r>
       <r>    1.2854    0.0000 </r>
       <r>    1.4695    0.0000 </r>
       <r>    1.5836    0.0000 </r>
       <r>    1.6862    0.0000 </r>
       <r>    1.7970    0.0000 </r>
       <r>    1.9538    0.0000 </r>
       <r>    2.0559    0.0000 </r>
       <r>    2.1254    0.0000 </r>
       <r>    2.4007    0.0000 </r>
       <r>    2.5117    0.0000 </r>
       <r>    2.5691    0.0000 </r>
      </set>
      <set comment="kpoint 2">
       <r>  -14.4285    1.0000 </r>
       <r>  -13.5104    1.0000 </r>
       <r>  -12.7803    1.0000 </r>
       <r>  -12.7501    1.0000 </r>
       <r>  -12.4650    1.0000 </r>
       <r>  -12.1553    1.0000 </r>
       <r>  -12.0544    1.0000 </r>
       <r>  -12.0257    1.0000 </r>
       <r>  -11.4152    1.0000 </r>
       <r>  -11.1842    1.0000 </r>
       <r>  -10.9737    1.0000 </r>
       <r>  -10.0511    1.0000 </r>
       <r>   -8.4541    1.0000 </r>
       <r>   -8.1007    1.0000 </r>
       <r>   -7.8232    1.0000 </r>
       <r>   -7.5545    1.0000 </r>
       <r>   -6.9174    1.0000 </r>
       <r>   -6.8262    1.0000 </r>
       <r>   -6.5179    1.0000 </r>
       <r>   -6.4810    1.0000 </r>
       <r>   -5.8234    1.0000 </r>
       <r>   -5.6583    1.0000 </r>
       <r>   -4.8049    1.0000 </r>
       <r>   -4.6564    1.0000 </r>
       <r>   -4.1639    1.0000 </r>
       <r>   -3.9831    1.0000 </r>
       <r>   -3.7579    1.0000 </r>
       <r>   -3.6874    1.0000 </r>
       <r>   -3.5855    1.0000 </r>
       <r>   -3.4390    1.0000 </r>
       <r>   -3.3144    1.0000 </r>
       <r>   -3.2611    1.0000 </r>
       <r>   -3.0609    1.0000 </r>
       <r>   -2.9230    1.0000 </r>
       <r>   -2.7721    1.0000 </r>
       <r>   -2.6440    1.0000 </r>
       <r>   -2.5082    1.0000 </r>
       <r>   -2.4569    1.0000 </r>
       <r>   -2.2542    1.0000 </r>
       <r>   -2.2297    1.0000 </r>
       <r>   -2.1707    1.0000 </r>
       <r>   -2.0848    1.0000 </r>
       <r>   -1.9970    1.0000 </r>
       <r>   -1.9522    1.0000 </r>
       <r>   -1.8493    1.0000 </r>
       <r>   -1.7666    1.0000 </r>
       <r>   -1.5412    1.0000 </r>
       <r>   -1.3235    1.0000 </r>
       <r>   -1.1473    1.0000 </r>
       <r>   -1.1018    1.0000 </r>
       <r>   -0.9362    1.0000 </r>
       <r>   -0.3753    1.0000 </r>
       <r>   -0.2488    0.9907 </r>
       <r>    0.0281    0.0590 </r>
       <r>    0.7708    0.0000 </r>
       <r>    0.9546    0.0000 </r>
       <r>    1.4799    0.0000 </r>
       <r>    1.5291    0.0000 </r>
       <r>    1.7276    0.0000 </r>
       <r>    1.7633    0.0000 </r>
       <r>    2.0663    0.0000 </r>
       <r>    2.1113    0.0000 </r>
       <r>    2.2025    0.0000 </r>
       <r>    2.2429    0.0000 </r>
       <r>    2.3412    0.0000 </r>
       <r>    2.5004    0.0000 </r>
       <r>    2.5848    0.0000 </r>
       <r>    2.7373    0.0000 </r>
      </set>
      <set comment="kpoint 3">
       <r>  -14.2549    1.0000 </r>
       <r>  -13.3274    1.0000 </r>
       <r>  -12.6246    1.0000 </r>
       <r>  -12.5859    1.0000 </r>
       <r>  -12.3001    1.0000 </r>
       <r>  -11.9944    1.0000 </r>
       <r>  -11.8847    1.0000 </r>
       <r>  -11.8492    1.0000 </r>
       <r>  -11.2733    1.0000 </r>
       <r>  -11.0553    1.0000 </r>
       <r>  -10.8349    1.0000 </r>
       <r>   -9.9638    1.0000 </r>
       <r>   -8.4129    1.0000 </r>
       <r>   -8.1974    1.0000 </r>
       <r>   -7.7810    1.0000 </r>
       <r>   -7.7165    1.0000 </r>
       <r>   -6.8596    1.0000 </r>
       <r>   -6.7483    1.0000 </r>
       <r>   -6.5297    1.0000 </r>
       <r>   -6.4392    1.0000 </r>
       <r>   -5.7509    1.0000 </r>
       <r>   -5.7005    1.0000 </r>
       <r>   -5.0908    1.0000 </r>
       <r>   -4.8967    1.0000 </r>
       <r>   -4.3872    1.0000 </r>
       <r>   -4.2469    1.0000 </r>
       <r>   -4.1161    1.0000 </r>
       <r>   -4.0698    1.0000 </r>
       <r>   -3.9828    1.0000 </r>
       <r>   -3.8021    1.0000 </r>
       <r>   -3.7591    1.0000 </r>
       <r>   -3.6330    1.0000 </r>
       <r>   -3.4671    1.0000 </r>
       <r>   -3.3436    1.0000 </r>
       <r>   -3.1942    1.0000 </r>
       <r>   -3.1137    1.0000 </r>
       <r>   -2.9985    1.0000 </r>
       <r>   -2.9686    1.0000 </r>
       <r>   -2.7225    1.0000 </r>
       <r>   -2.6345    1.0000 </r>
       <r>   -2.4126    1.0000 </r>
       <r>   -2.2338    1.0000 </r>
       <r>   -2.1639    1.0000 </r>
       <r>   -2.0891    1.0000 </r>
       <r>   -1.9287    1.0000 </r>
       <r>   -1.7932    1.0000 </r>
       <r>   -1.6805    1.0000 </r>
       <r>   -1.3602    1.0000 </r>
       <r>   -1.2711    1.0000 </r>
       <r>   -1.1305    1.0000 </r>
       <r>   -0.9373    1.0000 </r>
       <r>   -0.4734    1.0000 </r>
       <r>   -0.1457    0.8147 </r>
       <r>    0.0007    0.1201 </r>
       <r>    0.4065    0.0000 </r>
       <r>    1.1658    0.0000 </r>
       <r>    1.4701    0.0000 </r>
       <r>    1.8191    0.0000 </r>
       <r>    1.9244    0.0000 </r>
       <r>    2.0154    0.0000 </r>
       <r>    2.2252    0.0000 </r>
       <r>    2.3956    0.0000 </r>
       <r>    2.5742    0.0000 </r>
       <r>    2.6377    0.0000 </r>
       <r>    2.7636    0.0000 </r>
       <r>    2.9115    0.0000 </r>
       <r>    3.0195    0.0000 </r>
       <r>    3.0616    0.0000 </r>
      </set>
      <set comment="kpoint 4">
       <r>  -13.9720    1.0000 </r>
       <r>  -13.0263    1.0000 </r>
       <r>  -12.3683    1.0000 </r>
       <r>  -12.3191    1.0000 </r>
       <r>  -12.0331    1.0000 </r>
       <r>  -11.7416    1.0000 </r>
       <r>  -11.6159    1.0000 </r>
       <r>  -11.5670    1.0000 </r>
       <r>  -11.0566    1.0000 </r>
       <r>  -10.8671    1.0000 </r>
       <r>  -10.6318    1.0000 </r>
       <r>   -9.8557    1.0000 </r>
       <r>   -8.5684    1.0000 </r>
       <r>   -8.3898    1.0000 </r>
       <r>   -7.8553    1.0000 </r>
       <r>   -7.8439    1.0000 </r>
       <r>   -6.9440    1.0000 </r>
       <r>   -6.7240    1.0000 </r>
       <r>   -6.6638    1.0000 </r>
       <r>   -6.4205    1.0000 </r>
       <r>   -5.9993    1.0000 </r>
       <r>   -5.7684    1.0000 </r>
       <r>   -5.3757    1.0000 </r>
       <r>   -5.3643    1.0000 </r>
       <r>   -4.8484    1.0000 </r>
       <r>   -4.7702    1.0000 </r>
       <r>   -4.6383    1.0000 </r>
       <r>   -4.5477    1.0000 </r>
       <r>   -4.4883    1.0000 </r>
       <r>   -4.2238    1.0000 </r>
       <r>   -4.1761    1.0000 </r>
       <r>   -4.0101    1.0000 </r>
       <r>   -3.8053    1.0000 </r>
       <r>   -3.6196    1.0000 </r>
       <r>   -3.4978    1.0000 </r>
       <r>   -3.4554    1.0000 </r>
       <r>   -3.2322    1.0000 </r>
       <r>   -3.0334    1.0000 </r>
       <r>   -2.8767    1.0000 </r>
       <r>   -2.7634    1.0000 </r>
       <r>   -2.5975    1.0000 </r>
       <r>   -2.4715    1.0000 </r>
       <r>   -2.2912    1.0000 </r>
       <r>   -2.1284    1.0000 </r>
       <r>   -1.9400    1.0000 </r>
       <r>   -1.8557    1.0000 </r>
       <r>   -1.7718    1.0000 </r>
       <r>   -1.5840    1.0000 </r>
       <r>   -1.4982    1.0000 </r>
       <r>   -1.2098    1.0000 </r>
       <r>   -1.1405    1.0000 </r>
       <r>   -0.8338    1.0000 </r>
       <r>   -0.4297    1.0000 </r>
       <r>   -0.1643    0.8765 </r>
       <r>    0.2115    0.0000 </r>
       <r>    1.0819    0.0000 </r>
       <r>    1.5706    0.0000 </r>
       <r>    1.7022    0.0000 </r>
       <r>    1.8593    0.0000 </r>
       <r>    1.9910    0.0000 </r>
       <r>    2.1619    0.0000 </r>
       <r>    2.2211    0.0000 </r>
       <r>    2.3560    0.0000 </r>
       <r>    2.4547    0.0000 </r>
       <r>    2.6490    0.0000 </r>
       <r>    2.8494    0.0000 </r>
       <r>    2.9286    0.0000 </r>
       <r>    3.0082    0.0000 </r>
      </set>
      <set comment="kpoint 5">
       <r>  -13.5940    1.0000 </r>
       <r>  -12.6145    1.0000 </r>
       <r>  -12.0201    1.0000 </r>
       <r>  -11.9649    1.0000 </r>
       <r>  -11.6809    1.0000 </r>
       <r>  -11.4344    1.0000 </r>
       <r>  -11.2723    1.0000 </r>
       <r>  -11.2119    1.0000 </r>
       <r>  -10.8124    1.0000 </r>
       <r>  -10.6854    1.0000 </r>
       <r>  -10.4458    1.0000 </r>
       <r>   -9.8039    1.0000 </r>
       <r>   -9.0214    1.0000 </r>
       <r>   -8.6850    1.0000 </r>
       <r>   -8.1153    1.0000 </r>
       <r>   -7.7542    1.0000 </r>
       <r>   -7.2536    1.0000 </r>
       <r>   -7.0267    1.0000 </r>
       <r>   -6.9305    1.0000 </r>
       <r>   -6.6500    1.0000 </r>
       <r>   -6.5059    1.0000 </r>
       <r>   -6.1942    1.0000 </r>
       <r>   -5.9934    1.0000 </r>
       <r>   -5.6168    1.0000 </r>
       <r>   -5.2436    1.0000 </r>
       <r>   -4.9840    1.0000 </r>
       <r>   -4.9397    1.0000 </r>
       <r>   -4.8272    1.0000 </r>
       <r>   -4.7311    1.0000 </r>
       <r>   -4.4677    1.0000 </r>
       <r>   -4.3345    1.0000 </r>
       <r>   -4.2426    1.0000 </r>
       <r>   -4.1294    1.0000 </r>
       <r>   -3.5395    1.0000 </r>
       <r>   -3.4594    1.0000 </r>
       <r>   -3.3988    1.0000 </r>
       <r>   -3.1685    1.0000 </r>
       <r>   -3.1015    1.0000 </r>
       <r>   -2.9768    1.0000 </r>
       <r>   -2.8897    1.0000 </r>
       <r>   -2.7155    1.0000 </r>
       <r>   -2.6220    1.0000 </r>
       <r>   -2.4359    1.0000 </r>
       <r>   -2.2505    1.0000 </r>
       <r>   -2.0860    1.0000 </r>
       <r>   -1.9463    1.0000 </r>
       <r>   -1.9193    1.0000 </r>
       <r>   -1.8484    1.0000 </r>
       <r>   -1.7437    1.0000 </r>
       <r>   -1.5588    1.0000 </r>
       <r>   -1.3540    1.0000 </r>
       <r>   -1.0892    1.0000 </r>
       <r>   -0.7143    1.0000 </r>
       <r>   -0.3659    1.0000 </r>
       <r>   -0.0638    0.3961 </r>
       <r>    0.9838    0.0000 </r>
       <r>    1.2702    0.0000 </r>
       <r>    1.5075    0.0000 </r>
       <r>    1.5744    0.0000 </r>
       <r>    1.7726    0.0000 </r>
       <r>    1.9741    0.0000 </r>
       <r>    2.1298    0.0000 </r>
       <r>    2.2467    0.0000 </r>
       <r>    2.3376    0.0000 </r>
       <r>    2.4304    0.0000 </r>
       <r>    2.6463    0.0000 </r>
       <r>    2.7224    0.0000 </r>
       <r>    2.8522    0.0000 </r>
      </set>
      <set comment="kpoint 6">
       <r>  -13.1576    1.0000 </r>
       <r>  -12.1061    1.0000 </r>
       <r>  -11.6011    1.0000 </r>
       <r>  -11.5675    1.0000 </r>
       <r>  -11.2839    1.0000 </r>
       <r>  -11.1911    1.0000 </r>
       <r>  -10.9040    1.0000 </r>
       <r>  -10.8630    1.0000 </r>
       <r>  -10.6580    1.0000 </r>
       <r>  -10.6417    1.0000 </r>
       <r>  -10.4860    1.0000 </r>
       <r>   -9.8616    1.0000 </r>
       <r>   -9.3785    1.0000 </r>
       <r>   -8.8615    1.0000 </r>
       <r>   -8.4078    1.0000 </r>
       <r>   -7.7986    1.0000 </r>
       <r>   -7.4905    1.0000 </r>
       <r>   -7.4503    1.0000 </r>
       <r>   -7.4091    1.0000 </r>
       <r>   -7.2340    1.0000 </r>
       <r>   -6.8546    1.0000 </r>
       <r>   -6.7906    1.0000 </r>
       <r>   -6.6888    1.0000 </r>
       <r>   -6.2267    1.0000 </r>
       <r>   -5.2441    1.0000 </r>
       <r>   -4.9078    1.0000 </r>
       <r>   -4.7958    1.0000 </r>
       <r>   -4.6880    1.0000 </r>
       <r>   -4.5564    1.0000 </r>
       <r>   -4.4112    1.0000 </r>
       <r>   -4.2543    1.0000 </r>
       <r>   -4.1075    1.0000 </r>
       <r>   -4.0192    1.0000 </r>
       <r>   -3.6918    1.0000 </r>
       <r>   -3.6775    1.0000 </r>
       <r>   -3.3899    1.0000 </r>
       <r>   -3.2993    1.0000 </r>
       <r>   -3.2087    1.0000 </r>
       <r>   -3.1606    1.0000 </r>
       <r>   -2.9791    1.0000 </r>
       <r>   -2.8228    1.0000 </r>
       <r>   -2.6148    1.0000 </r>
       <r>   -2.5065    1.0000 </r>
       <r>   -2.3900    1.0000 </r>
       <r>   -2.2806    1.0000 </r>
       <r>   -2.1609    1.0000 </r>
       <r>   -2.0917    1.0000 </r>
       <r>   -2.0494    1.0000 </r>
       <r>   -1.8780    1.0000 </r>
       <r>   -1.8215    1.0000 </r>
       <r>   -1.4537    1.0000 </r>
       <r>   -1.3490    1.0000 </r>
       <r>   -0.7896    1.0000 </r>
       <r>   -0.5052    1.0000 </r>
       <r>   -0.3785    1.0000 </r>
       <r>    0.8527    0.0000 </r>
       <r>    0.9252    0.0000 </r>
       <r>    1.3229    0.0000 </r>
       <r>    1.3741    0.0000 </r>
       <r>    1.6654    0.0000 </r>
       <r>    1.7260    0.0000 </r>
       <r>    1.9773    0.0000 </r>
       <r>    2.0832    0.0000 </r>
       <r>    2.2328    0.0000 </r>
       <r>    2.2979    0.0000 </r>
       <r>    2.4365    0.0000 </r>
       <r>    2.6201    0.0000 </r>
       <r>    2.7825    0.0000 </r>
      </set>
      <set comment="kpoint 7">
       <r>  -12.7834    1.0000 </r>
       <r>  -11.5326    1.0000 </r>
       <r>  -11.3951    1.0000 </r>
       <r>  -11.1784    1.0000 </r>
       <r>  -11.0518    1.0000 </r>
       <r>  -10.9762    1.0000 </r>
       <r>  -10.8747    1.0000 </r>
       <r>  -10.7609    1.0000 </r>
       <r>  -10.7318    1.0000 </r>
       <r>  -10.6656    1.0000 </r>
       <r>  -10.5695    1.0000 </r>
       <r>   -9.8501    1.0000 </r>
       <r>   -9.6145    1.0000 </r>
       <r>   -8.7193    1.0000 </r>
       <r>   -8.4705    1.0000 </r>
       <r>   -8.1105    1.0000 </r>
       <r>   -7.9149    1.0000 </r>
       <r>   -7.7193    1.0000 </r>
       <r>   -7.6007    1.0000 </r>
       <r>   -7.3288    1.0000 </r>
       <r>   -7.3060    1.0000 </r>
       <r>   -7.2105    1.0000 </r>
       <r>   -7.0265    1.0000 </r>
       <r>   -6.6908    1.0000 </r>
       <r>   -4.9498    1.0000 </r>
       <r>   -4.7949    1.0000 </r>
       <r>   -4.5933    1.0000 </r>
       <r>   -4.5331    1.0000 </r>
       <r>   -4.3401    1.0000 </r>
       <r>   -4.2137    1.0000 </r>
       <r>   -4.0823    1.0000 </r>
       <r>   -3.9873    1.0000 </r>
       <r>   -3.9008    1.0000 </r>
       <r>   -3.8607    1.0000 </r>
       <r>   -3.6972    1.0000 </r>
       <r>   -3.6142    1.0000 </r>
       <r>   -3.5253    1.0000 </r>
       <r>   -3.3141    1.0000 </r>
       <r>   -3.2751    1.0000 </r>
       <r>   -3.1304    1.0000 </r>
       <r>   -3.0298    1.0000 </r>
       <r>   -2.8242    1.0000 </r>
       <r>   -2.7027    1.0000 </r>
       <r>   -2.3919    1.0000 </r>
       <r>   -2.3576    1.0000 </r>
       <r>   -2.2764    1.0000 </r>
       <r>   -2.1947    1.0000 </r>
       <r>   -2.0843    1.0000 </r>
       <r>   -1.9001    1.0000 </r>
       <r>   -1.7244    1.0000 </r>
       <r>   -1.5464    1.0000 </r>
       <r>   -1.3851    1.0000 </r>
       <r>   -0.8733    1.0000 </r>
       <r>   -0.6823    1.0000 </r>
       <r>   -0.4896    1.0000 </r>
       <r>    0.6891    0.0000 </r>
       <r>    0.7363    0.0000 </r>
       <r>    1.1832    0.0000 </r>
       <r>    1.3452    0.0000 </r>
       <r>    1.5321    0.0000 </r>
       <r>    1.6486    0.0000 </r>
       <r>    1.8036    0.0000 </r>
       <r>    1.9204    0.0000 </r>
       <r>    2.0563    0.0000 </r>
       <r>    2.3678    0.0000 </r>
       <r>    2.4432    0.0000 </r>
       <r>    2.5795    0.0000 </r>
       <r>    2.6893    0.0000 </r>
      </set>
      <set comment="kpoint 8">
       <r>  -14.4828    1.0000 </r>
       <r>  -13.5163    1.0000 </r>
       <r>  -13.0062    1.0000 </r>
       <r>  -12.8592    1.0000 </r>
       <r>  -12.5192    1.0000 </r>
       <r>  -12.2041    1.0000 </r>
       <r>  -12.0030    1.0000 </r>
       <r>  -11.8970    1.0000 </r>
       <r>  -11.5093    1.0000 </r>
       <r>  -11.2660    1.0000 </r>
       <r>  -11.0309    1.0000 </r>
       <r>  -10.0377    1.0000 </r>
       <r>   -8.5779    1.0000 </r>
       <r>   -8.5408    1.0000 </r>
       <r>   -7.7223    1.0000 </r>
       <r>   -7.4166    1.0000 </r>
       <r>   -6.7616    1.0000 </r>
       <r>   -6.6991    1.0000 </r>
       <r>   -6.6227    1.0000 </r>
       <r>   -6.3983    1.0000 </r>
       <r>   -5.7796    1.0000 </r>
       <r>   -5.5722    1.0000 </r>
       <r>   -4.6946    1.0000 </r>
       <r>   -4.4995    1.0000 </r>
       <r>   -4.0739    1.0000 </r>
       <r>   -3.9910    1.0000 </r>
       <r>   -3.8008    1.0000 </r>
       <r>   -3.7020    1.0000 </r>
       <r>   -3.4655    1.0000 </r>
       <r>   -3.2972    1.0000 </r>
       <r>   -3.1587    1.0000 </r>
       <r>   -3.0200    1.0000 </r>
       <r>   -2.8384    1.0000 </r>
       <r>   -2.7404    1.0000 </r>
       <r>   -2.5518    1.0000 </r>
       <r>   -2.4272    1.0000 </r>
       <r>   -2.4200    1.0000 </r>
       <r>   -2.3544    1.0000 </r>
       <r>   -2.2453    1.0000 </r>
       <r>   -2.1648    1.0000 </r>
       <r>   -2.0267    1.0000 </r>
       <r>   -1.9315    1.0000 </r>
       <r>   -1.8997    1.0000 </r>
       <r>   -1.7831    1.0000 </r>
       <r>   -1.6586    1.0000 </r>
       <r>   -1.5469    1.0000 </r>
       <r>   -1.3938    1.0000 </r>
       <r>   -1.3468    1.0000 </r>
       <r>   -1.1637    1.0000 </r>
       <r>   -1.0405    1.0000 </r>
       <r>   -0.9473    1.0000 </r>
       <r>   -0.3045    0.9992 </r>
       <r>   -0.1840    0.9247 </r>
       <r>    0.1042    0.0042 </r>
       <r>    0.7984    0.0000 </r>
       <r>    1.0397    0.0000 </r>
       <r>    1.1729    0.0000 </r>
       <r>    1.3418    0.0000 </r>
       <r>    1.4280    0.0000 </r>
       <r>    1.6372    0.0000 </r>
       <r>    1.7358    0.0000 </r>
       <r>    1.7737    0.0000 </r>
       <r>    1.8587    0.0000 </r>
       <r>    2.1330    0.0000 </r>
       <r>    2.2232    0.0000 </r>
       <r>    2.4829    0.0000 </r>
       <r>    2.5333    0.0000 </r>
       <r>    2.6254    0.0000 </r>
      </set>
      <set comment="kpoint 9">
       <r>  -14.4236    1.0000 </r>
       <r>  -13.4394    1.0000 </r>
       <r>  -12.9871    1.0000 </r>
       <r>  -12.8142    1.0000 </r>
       <r>  -12.4621    1.0000 </r>
       <r>  -12.1478    1.0000 </r>
       <r>  -11.9294    1.0000 </r>
       <r>  -11.7980    1.0000 </r>
       <r>  -11.4679    1.0000 </r>
       <r>  -11.2286    1.0000 </r>
       <r>  -10.9866    1.0000 </r>
       <r>   -9.9986    1.0000 </r>
       <r>   -8.6084    1.0000 </r>
       <r>   -8.5423    1.0000 </r>
       <r>   -7.8102    1.0000 </r>
       <r>   -7.3679    1.0000 </r>
       <r>   -6.7460    1.0000 </r>
       <r>   -6.7080    1.0000 </r>
       <r>   -6.5557    1.0000 </r>
       <r>   -6.2775    1.0000 </r>
       <r>   -5.7315    1.0000 </r>
       <r>   -5.5637    1.0000 </r>
       <r>   -4.7548    1.0000 </r>
       <r>   -4.6564    1.0000 </r>
       <r>   -4.1654    1.0000 </r>
       <r>   -4.0863    1.0000 </r>
       <r>   -3.8920    1.0000 </r>
       <r>   -3.7657    1.0000 </r>
       <r>   -3.6377    1.0000 </r>
       <r>   -3.4340    1.0000 </r>
       <r>   -3.3753    1.0000 </r>
       <r>   -3.1325    1.0000 </r>
       <r>   -3.0731    1.0000 </r>
       <r>   -3.0305    1.0000 </r>
       <r>   -2.7729    1.0000 </r>
       <r>   -2.7306    1.0000 </r>
       <r>   -2.5350    1.0000 </r>
       <r>   -2.4770    1.0000 </r>
       <r>   -2.3830    1.0000 </r>
       <r>   -2.3157    1.0000 </r>
       <r>   -2.2125    1.0000 </r>
       <r>   -2.1588    1.0000 </r>
       <r>   -2.0411    1.0000 </r>
       <r>   -1.9015    1.0000 </r>
       <r>   -1.8342    1.0000 </r>
       <r>   -1.7784    1.0000 </r>
       <r>   -1.4831    1.0000 </r>
       <r>   -1.3110    1.0000 </r>
       <r>   -1.1141    1.0000 </r>
       <r>   -1.0143    1.0000 </r>
       <r>   -0.9188    1.0000 </r>
       <r>   -0.3393    0.9999 </r>
       <r>   -0.2035    0.9567 </r>
       <r>    0.0940    0.0063 </r>
       <r>    0.8950    0.0000 </r>
       <r>    1.0489    0.0000 </r>
       <r>    1.3816    0.0000 </r>
       <r>    1.5640    0.0000 </r>
       <r>    1.7579    0.0000 </r>
       <r>    1.8957    0.0000 </r>
       <r>    1.9301    0.0000 </r>
       <r>    2.1066    0.0000 </r>
       <r>    2.2108    0.0000 </r>
       <r>    2.2977    0.0000 </r>
       <r>    2.4854    0.0000 </r>
       <r>    2.5635    0.0000 </r>
       <r>    2.6286    0.0000 </r>
       <r>    2.8421    0.0000 </r>
      </set>
      <set comment="kpoint 10">
       <r>  -14.2494    1.0000 </r>
       <r>  -13.2428    1.0000 </r>
       <r>  -12.8506    1.0000 </r>
       <r>  -12.6560    1.0000 </r>
       <r>  -12.2957    1.0000 </r>
       <r>  -11.9846    1.0000 </r>
       <r>  -11.7553    1.0000 </r>
       <r>  -11.6006    1.0000 </r>
       <r>  -11.3285    1.0000 </r>
       <r>  -11.1041    1.0000 </r>
       <r>  -10.8453    1.0000 </r>
       <r>   -9.9149    1.0000 </r>
       <r>   -8.6721    1.0000 </r>
       <r>   -8.4648    1.0000 </r>
       <r>   -7.9606    1.0000 </r>
       <r>   -7.3368    1.0000 </r>
       <r>   -6.7560    1.0000 </r>
       <r>   -6.6877    1.0000 </r>
       <r>   -6.5275    1.0000 </r>
       <r>   -6.1788    1.0000 </r>
       <r>   -5.7049    1.0000 </r>
       <r>   -5.6623    1.0000 </r>
       <r>   -5.0487    1.0000 </r>
       <r>   -4.8692    1.0000 </r>
       <r>   -4.4647    1.0000 </r>
       <r>   -4.4101    1.0000 </r>
       <r>   -4.3192    1.0000 </r>
       <r>   -4.1073    1.0000 </r>
       <r>   -4.0169    1.0000 </r>
       <r>   -3.7824    1.0000 </r>
       <r>   -3.6924    1.0000 </r>
       <r>   -3.5874    1.0000 </r>
       <r>   -3.3802    1.0000 </r>
       <r>   -3.2764    1.0000 </r>
       <r>   -3.1262    1.0000 </r>
       <r>   -3.0846    1.0000 </r>
       <r>   -2.9952    1.0000 </r>
       <r>   -2.8585    1.0000 </r>
       <r>   -2.7789    1.0000 </r>
       <r>   -2.7072    1.0000 </r>
       <r>   -2.6331    1.0000 </r>
       <r>   -2.4371    1.0000 </r>
       <r>   -2.3299    1.0000 </r>
       <r>   -2.0187    1.0000 </r>
       <r>   -1.9359    1.0000 </r>
       <r>   -1.8451    1.0000 </r>
       <r>   -1.5454    1.0000 </r>
       <r>   -1.4135    1.0000 </r>
       <r>   -1.1766    1.0000 </r>
       <r>   -1.0484    1.0000 </r>
       <r>   -0.9188    1.0000 </r>
       <r>   -0.4982    1.0000 </r>
       <r>   -0.1977    0.9485 </r>
       <r>   -0.0004    0.1232 </r>
       <r>    0.5592    0.0000 </r>
       <r>    1.1404    0.0000 </r>
       <r>    1.4169    0.0000 </r>
       <r>    1.6368    0.0000 </r>
       <r>    1.8678    0.0000 </r>
       <r>    2.0700    0.0000 </r>
       <r>    2.1338    0.0000 </r>
       <r>    2.3109    0.0000 </r>
       <r>    2.6215    0.0000 </r>
       <r>    2.7208    0.0000 </r>
       <r>    2.8522    0.0000 </r>
       <r>    3.0321    0.0000 </r>
       <r>    3.0528    0.0000 </r>
       <r>    3.1108    0.0000 </r>
      </set>
      <set comment="kpoint 11">
       <r>  -13.9665    1.0000 </r>
       <r>  -12.9314    1.0000 </r>
       <r>  -12.5992    1.0000 </r>
       <r>  -12.3909    1.0000 </r>
       <r>  -12.0277    1.0000 </r>
       <r>  -11.7241    1.0000 </r>
       <r>  -11.4953    1.0000 </r>
       <r>  -11.3243    1.0000 </r>
       <r>  -11.1067    1.0000 </r>
       <r>  -10.9165    1.0000 </r>
       <r>  -10.6280    1.0000 </r>
       <r>   -9.8214    1.0000 </r>
       <r>   -8.8030    1.0000 </r>
       <r>   -8.5821    1.0000 </r>
       <r>   -8.0213    1.0000 </r>
       <r>   -7.4239    1.0000 </r>
       <r>   -6.9058    1.0000 </r>
       <r>   -6.7271    1.0000 </r>
       <r>   -6.6749    1.0000 </r>
       <r>   -6.2895    1.0000 </r>
       <r>   -6.0037    1.0000 </r>
       <r>   -5.8507    1.0000 </r>
       <r>   -5.2662    1.0000 </r>
       <r>   -5.2350    1.0000 </r>
       <r>   -5.0605    1.0000 </r>
       <r>   -4.8057    1.0000 </r>
       <r>   -4.6970    1.0000 </r>
       <r>   -4.5865    1.0000 </r>
       <r>   -4.5024    1.0000 </r>
       <r>   -4.2332    1.0000 </r>
       <r>   -4.1362    1.0000 </r>
       <r>   -4.0393    1.0000 </r>
       <r>   -3.7709    1.0000 </r>
       <r>   -3.5681    1.0000 </r>
       <r>   -3.3221    1.0000 </r>
       <r>   -3.2372    1.0000 </r>
       <r>   -3.1459    1.0000 </r>
       <r>   -3.1217    1.0000 </r>
       <r>   -2.9406    1.0000 </r>
       <r>   -2.7344    1.0000 </r>
       <r>   -2.6546    1.0000 </r>
       <r>   -2.5604    1.0000 </r>
       <r>   -2.3992    1.0000 </r>
       <r>   -2.0447    1.0000 </r>
       <r>   -2.0016    1.0000 </r>
       <r>   -1.9334    1.0000 </r>
       <r>   -1.8024    1.0000 </r>
       <r>   -1.5931    1.0000 </r>
       <r>   -1.4222    1.0000 </r>
       <r>   -1.2225    1.0000 </r>
       <r>   -1.1193    1.0000 </r>
       <r>   -0.8337    1.0000 </r>
       <r>   -0.4423    1.0000 </r>
       <r>   -0.2131    0.9678 </r>
       <r>    0.0551    0.0259 </r>
       <r>    1.0586    0.0000 </r>
       <r>    1.3691    0.0000 </r>
       <r>    1.4253    0.0000 </r>
       <r>    1.5731    0.0000 </r>
       <r>    1.8645    0.0000 </r>
       <r>    2.0929    0.0000 </r>
       <r>    2.2166    0.0000 </r>
       <r>    2.4556    0.0000 </r>
       <r>    2.5800    0.0000 </r>
       <r>    2.6825    0.0000 </r>
       <r>    2.9088    0.0000 </r>
       <r>    3.0159    0.0000 </r>
       <r>    3.1523    0.0000 </r>
      </set>
      <set comment="kpoint 12">
       <r>  -13.5890    1.0000 </r>
       <r>  -12.5146    1.0000 </r>
       <r>  -12.2402    1.0000 </r>
       <r>  -12.0340    1.0000 </r>
       <r>  -11.6759    1.0000 </r>
       <r>  -11.3909    1.0000 </r>
       <r>  -11.1885    1.0000 </r>
       <r>  -11.0113    1.0000 </r>
       <r>  -10.8430    1.0000 </r>
       <r>  -10.7282    1.0000 </r>
       <r>  -10.4223    1.0000 </r>
       <r>   -9.7892    1.0000 </r>
       <r>   -9.0281    1.0000 </r>
       <r>   -9.0019    1.0000 </r>
       <r>   -7.8179    1.0000 </r>
       <r>   -7.7378    1.0000 </r>
       <r>   -7.2645    1.0000 </r>
       <r>   -7.1436    1.0000 </r>
       <r>   -6.9930    1.0000 </r>
       <r>   -6.7048    1.0000 </r>
       <r>   -6.4031    1.0000 </r>
       <r>   -6.2214    1.0000 </r>
       <r>   -5.9483    1.0000 </r>
       <r>   -5.6801    1.0000 </r>
       <r>   -5.4122    1.0000 </r>
       <r>   -5.0379    1.0000 </r>
       <r>   -4.9707    1.0000 </r>
       <r>   -4.7228    1.0000 </r>
       <r>   -4.5598    1.0000 </r>
       <r>   -4.4384    1.0000 </r>
       <r>   -4.3511    1.0000 </r>
       <r>   -4.1908    1.0000 </r>
       <r>   -4.0416    1.0000 </r>
       <r>   -3.6370    1.0000 </r>
       <r>   -3.3729    1.0000 </r>
       <r>   -3.2643    1.0000 </r>
       <r>   -3.1242    1.0000 </r>
       <r>   -3.0272    1.0000 </r>
       <r>   -2.9236    1.0000 </r>
       <r>   -2.8914    1.0000 </r>
       <r>   -2.6667    1.0000 </r>
       <r>   -2.5233    1.0000 </r>
       <r>   -2.4227    1.0000 </r>
       <r>   -2.3134    1.0000 </r>
       <r>   -2.2286    1.0000 </r>
       <r>   -1.9954    1.0000 </r>
       <r>   -1.9387    1.0000 </r>
       <r>   -1.8150    1.0000 </r>
       <r>   -1.7778    1.0000 </r>
       <r>   -1.5852    1.0000 </r>
       <r>   -1.3643    1.0000 </r>
       <r>   -1.1087    1.0000 </r>
       <r>   -0.7141    1.0000 </r>
       <r>   -0.4654    1.0000 </r>
       <r>   -0.3391    0.9999 </r>
       <r>    0.8336    0.0000 </r>
       <r>    1.1417    0.0000 </r>
       <r>    1.2143    0.0000 </r>
       <r>    1.2732    0.0000 </r>
       <r>    1.5824    0.0000 </r>
       <r>    1.9947    0.0000 </r>
       <r>    2.1347    0.0000 </r>
       <r>    2.2876    0.0000 </r>
       <r>    2.3938    0.0000 </r>
       <r>    2.4999    0.0000 </r>
       <r>    2.6048    0.0000 </r>
       <r>    2.8134    0.0000 </r>
       <r>    2.9497    0.0000 </r>
      </set>
      <set comment="kpoint 13">
       <r>  -13.1539    1.0000 </r>
       <r>  -12.0110    1.0000 </r>
       <r>  -11.7901    1.0000 </r>
       <r>  -11.6277    1.0000 </r>
       <r>  -11.2801    1.0000 </r>
       <r>  -11.1029    1.0000 </r>
       <r>  -10.9268    1.0000 </r>
       <r>  -10.7551    1.0000 </r>
       <r>  -10.6338    1.0000 </r>
       <r>  -10.6247    1.0000 </r>
       <r>  -10.4987    1.0000 </r>
       <r>   -9.8536    1.0000 </r>
       <r>   -9.3790    1.0000 </r>
       <r>   -8.9919    1.0000 </r>
       <r>   -8.1426    1.0000 </r>
       <r>   -7.8124    1.0000 </r>
       <r>   -7.7822    1.0000 </r>
       <r>   -7.5629    1.0000 </r>
       <r>   -7.3885    1.0000 </r>
       <r>   -7.0795    1.0000 </r>
       <r>   -6.8640    1.0000 </r>
       <r>   -6.7243    1.0000 </r>
       <r>   -6.6898    1.0000 </r>
       <r>   -6.3129    1.0000 </r>
       <r>   -5.3754    1.0000 </r>
       <r>   -4.9851    1.0000 </r>
       <r>   -4.8185    1.0000 </r>
       <r>   -4.6532    1.0000 </r>
       <r>   -4.5403    1.0000 </r>
       <r>   -4.4109    1.0000 </r>
       <r>   -4.1493    1.0000 </r>
       <r>   -4.0178    1.0000 </r>
       <r>   -3.8906    1.0000 </r>
       <r>   -3.6897    1.0000 </r>
       <r>   -3.3843    1.0000 </r>
       <r>   -3.3286    1.0000 </r>
       <r>   -3.2680    1.0000 </r>
       <r>   -3.1767    1.0000 </r>
       <r>   -3.1580    1.0000 </r>
       <r>   -3.0006    1.0000 </r>
       <r>   -2.9499    1.0000 </r>
       <r>   -2.7215    1.0000 </r>
       <r>   -2.5419    1.0000 </r>
       <r>   -2.3651    1.0000 </r>
       <r>   -2.2926    1.0000 </r>
       <r>   -2.1219    1.0000 </r>
       <r>   -2.0917    1.0000 </r>
       <r>   -2.0087    1.0000 </r>
       <r>   -1.8764    1.0000 </r>
       <r>   -1.7267    1.0000 </r>
       <r>   -1.5125    1.0000 </r>
       <r>   -1.4659    1.0000 </r>
       <r>   -0.8595    1.0000 </r>
       <r>   -0.6271    1.0000 </r>
       <r>   -0.4879    1.0000 </r>
       <r>    0.6764    0.0000 </r>
       <r>    0.9027    0.0000 </r>
       <r>    1.1674    0.0000 </r>
       <r>    1.2773    0.0000 </r>
       <r>    1.3586    0.0000 </r>
       <r>    1.7838    0.0000 </r>
       <r>    1.9637    0.0000 </r>
       <r>    2.0017    0.0000 </r>
       <r>    2.1515    0.0000 </r>
       <r>    2.3374    0.0000 </r>
       <r>    2.5557    0.0000 </r>
       <r>    2.6106    0.0000 </r>
       <r>    2.7397    0.0000 </r>
      </set>
      <set comment="kpoint 14">
       <r>  -12.7822    1.0000 </r>
       <r>  -11.4624    1.0000 </r>
       <r>  -11.4055    1.0000 </r>
       <r>  -11.2950    1.0000 </r>
       <r>  -11.0473    1.0000 </r>
       <r>  -10.9890    1.0000 </r>
       <r>  -10.8953    1.0000 </r>
       <r>  -10.7430    1.0000 </r>
       <r>  -10.7300    1.0000 </r>
       <r>  -10.6111    1.0000 </r>
       <r>  -10.5524    1.0000 </r>
       <r>   -9.8445    1.0000 </r>
       <r>   -9.6094    1.0000 </r>
       <r>   -8.5858    1.0000 </r>
       <r>   -8.4306    1.0000 </r>
       <r>   -8.3591    1.0000 </r>
       <r>   -7.9298    1.0000 </r>
       <r>   -7.7898    1.0000 </r>
       <r>   -7.5464    1.0000 </r>
       <r>   -7.3471    1.0000 </r>
       <r>   -7.2556    1.0000 </r>
       <r>   -7.1708    1.0000 </r>
       <r>   -6.9865    1.0000 </r>
       <r>   -6.7077    1.0000 </r>
       <r>   -5.0511    1.0000 </r>
       <r>   -4.7787    1.0000 </r>
       <r>   -4.5808    1.0000 </r>
       <r>   -4.5000    1.0000 </r>
       <r>   -4.3698    1.0000 </r>
       <r>   -4.2225    1.0000 </r>
       <r>   -4.1704    1.0000 </r>
       <r>   -3.9685    1.0000 </r>
       <r>   -3.8985    1.0000 </r>
       <r>   -3.7091    1.0000 </r>
       <r>   -3.6876    1.0000 </r>
       <r>   -3.5579    1.0000 </r>
       <r>   -3.5228    1.0000 </r>
       <r>   -3.3414    1.0000 </r>
       <r>   -3.2853    1.0000 </r>
       <r>   -3.0819    1.0000 </r>
       <r>   -3.0135    1.0000 </r>
       <r>   -2.8065    1.0000 </r>
       <r>   -2.6566    1.0000 </r>
       <r>   -2.6204    1.0000 </r>
       <r>   -2.2689    1.0000 </r>
       <r>   -2.2196    1.0000 </r>
       <r>   -2.1534    1.0000 </r>
       <r>   -2.0664    1.0000 </r>
       <r>   -1.8799    1.0000 </r>
       <r>   -1.7217    1.0000 </r>
       <r>   -1.5787    1.0000 </r>
       <r>   -1.4999    1.0000 </r>
       <r>   -0.8821    1.0000 </r>
       <r>   -0.6829    1.0000 </r>
       <r>   -0.5196    1.0000 </r>
       <r>    0.6793    0.0000 </r>
       <r>    0.8178    0.0000 </r>
       <r>    1.1544    0.0000 </r>
       <r>    1.3928    0.0000 </r>
       <r>    1.4896    0.0000 </r>
       <r>    1.5380    0.0000 </r>
       <r>    1.7357    0.0000 </r>
       <r>    1.9142    0.0000 </r>
       <r>    2.0943    0.0000 </r>
       <r>    2.3136    0.0000 </r>
       <r>    2.3968    0.0000 </r>
       <r>    2.4563    0.0000 </r>
       <r>    2.6390    0.0000 </r>
      </set>
      <set comment="kpoint 15">
       <r>  -12.7847    1.0000 </r>
       <r>  -11.5663    1.0000 </r>
       <r>  -11.3913    1.0000 </r>
       <r>  -11.1020    1.0000 </r>
       <r>  -11.0373    1.0000 </r>
       <r>  -10.9624    1.0000 </r>
       <r>  -10.8392    1.0000 </r>
       <r>  -10.7876    1.0000 </r>
       <r>  -10.7393    1.0000 </r>
       <r>  -10.7318    1.0000 </r>
       <r>  -10.5854    1.0000 </r>
       <r>   -9.8426    1.0000 </r>
       <r>   -9.6227    1.0000 </r>
       <r>   -8.7878    1.0000 </r>
       <r>   -8.4643    1.0000 </r>
       <r>   -7.9772    1.0000 </r>
       <r>   -7.9386    1.0000 </r>
       <r>   -7.6792    1.0000 </r>
       <r>   -7.6339    1.0000 </r>
       <r>   -7.4551    1.0000 </r>
       <r>   -7.3104    1.0000 </r>
       <r>   -7.2494    1.0000 </r>
       <r>   -6.9363    1.0000 </r>
       <r>   -6.5789    1.0000 </r>
       <r>   -4.7919    1.0000 </r>
       <r>   -4.7612    1.0000 </r>
       <r>   -4.6093    1.0000 </r>
       <r>   -4.5501    1.0000 </r>
       <r>   -4.4027    1.0000 </r>
       <r>   -4.2810    1.0000 </r>
       <r>   -4.1049    1.0000 </r>
       <r>   -4.0387    1.0000 </r>
       <r>   -3.9887    1.0000 </r>
       <r>   -3.9167    1.0000 </r>
       <r>   -3.8389    1.0000 </r>
       <r>   -3.6849    1.0000 </r>
       <r>   -3.5364    1.0000 </r>
       <r>   -3.3997    1.0000 </r>
       <r>   -3.3293    1.0000 </r>
       <r>   -2.9792    1.0000 </r>
       <r>   -2.8315    1.0000 </r>
       <r>   -2.7758    1.0000 </r>
       <r>   -2.7025    1.0000 </r>
       <r>   -2.4197    1.0000 </r>
       <r>   -2.2911    1.0000 </r>
       <r>   -2.2695    1.0000 </r>
       <r>   -2.1889    1.0000 </r>
       <r>   -2.0905    1.0000 </r>
       <r>   -1.9839    1.0000 </r>
       <r>   -1.7128    1.0000 </r>
       <r>   -1.5253    1.0000 </r>
       <r>   -1.3638    1.0000 </r>
       <r>   -0.8246    1.0000 </r>
       <r>   -0.6418    1.0000 </r>
       <r>   -0.4509    1.0000 </r>
       <r>    0.7585    0.0000 </r>
       <r>    0.9879    0.0000 </r>
       <r>    1.1212    0.0000 </r>
       <r>    1.3444    0.0000 </r>
       <r>    1.6171    0.0000 </r>
       <r>    1.7286    0.0000 </r>
       <r>    1.7645    0.0000 </r>
       <r>    2.0285    0.0000 </r>
       <r>    2.1948    0.0000 </r>
       <r>    2.2856    0.0000 </r>
       <r>    2.3444    0.0000 </r>
       <r>    2.5193    0.0000 </r>
       <r>    2.5681    0.0000 </r>
      </set>
      <set comment="kpoint 16">
       <r>  -13.1595    1.0000 </r>
       <r>  -12.1327    1.0000 </r>
       <r>  -11.5305    1.0000 </r>
       <r>  -11.5162    1.0000 </r>
       <r>  -11.2831    1.0000 </r>
       <r>  -11.2136    1.0000 </r>
       <r>  -10.9746    1.0000 </r>
       <r>  -10.9240    1.0000 </r>
       <r>  -10.6608    1.0000 </r>
       <r>  -10.6053    1.0000 </r>
       <r>  -10.4814    1.0000 </r>
       <r>   -9.8290    1.0000 </r>
       <r>   -9.4255    1.0000 </r>
       <r>   -8.7731    1.0000 </r>
       <r>   -8.5217    1.0000 </r>
       <r>   -7.7781    1.0000 </r>
       <r>   -7.5296    1.0000 </r>
       <r>   -7.4655    1.0000 </r>
       <r>   -7.3600    1.0000 </r>
       <r>   -7.1432    1.0000 </r>
       <r>   -6.8410    1.0000 </r>
       <r>   -6.8075    1.0000 </r>
       <r>   -6.6931    1.0000 </r>
       <r>   -6.1665    1.0000 </r>
       <r>   -5.0888    1.0000 </r>
       <r>   -4.9562    1.0000 </r>
       <r>   -4.8767    1.0000 </r>
       <r>   -4.8053    1.0000 </r>
       <r>   -4.4433    1.0000 </r>
       <r>   -4.3518    1.0000 </r>
       <r>   -4.2619    1.0000 </r>
       <r>   -4.1479    1.0000 </r>
       <r>   -4.0927    1.0000 </r>
       <r>   -3.8063    1.0000 </r>
       <r>   -3.7527    1.0000 </r>
       <r>   -3.4451    1.0000 </r>
       <r>   -3.4264    1.0000 </r>
       <r>   -3.3127    1.0000 </r>
       <r>   -3.1944    1.0000 </r>
       <r>   -2.8098    1.0000 </r>
       <r>   -2.7806    1.0000 </r>
       <r>   -2.6205    1.0000 </r>
       <r>   -2.5088    1.0000 </r>
       <r>   -2.3964    1.0000 </r>
       <r>   -2.2575    1.0000 </r>
       <r>   -2.1459    1.0000 </r>
       <r>   -2.0867    1.0000 </r>
       <r>   -1.9797    1.0000 </r>
       <r>   -1.9192    1.0000 </r>
       <r>   -1.8243    1.0000 </r>
       <r>   -1.4234    1.0000 </r>
       <r>   -1.1439    1.0000 </r>
       <r>   -0.7658    1.0000 </r>
       <r>   -0.5482    1.0000 </r>
       <r>   -0.2727    0.9964 </r>
       <r>    0.8614    0.0000 </r>
       <r>    1.1961    0.0000 </r>
       <r>    1.2665    0.0000 </r>
       <r>    1.3949    0.0000 </r>
       <r>    1.7567    0.0000 </r>
       <r>    1.8670    0.0000 </r>
       <r>    2.0564    0.0000 </r>
       <r>    2.1113    0.0000 </r>
       <r>    2.2347    0.0000 </r>
       <r>    2.2935    0.0000 </r>
       <r>    2.3816    0.0000 </r>
       <r>    2.5710    0.0000 </r>
       <r>    2.6417    0.0000 </r>
      </set>
      <set comment="kpoint 17">
       <r>  -13.5950    1.0000 </r>
       <r>  -12.6268    1.0000 </r>
       <r>  -11.9785    1.0000 </r>
       <r>  -11.9481    1.0000 </r>
       <r>  -11.6804    1.0000 </r>
       <r>  -11.4287    1.0000 </r>
       <r>  -11.3154    1.0000 </r>
       <r>  -11.2553    1.0000 </r>
       <r>  -10.8042    1.0000 </r>
       <r>  -10.6687    1.0000 </r>
       <r>  -10.4520    1.0000 </r>
       <r>   -9.7859    1.0000 </r>
       <r>   -9.0674    1.0000 </r>
       <r>   -8.5859    1.0000 </r>
       <r>   -8.2181    1.0000 </r>
       <r>   -7.6459    1.0000 </r>
       <r>   -7.3431    1.0000 </r>
       <r>   -7.0322    1.0000 </r>
       <r>   -6.9010    1.0000 </r>
       <r>   -6.6918    1.0000 </r>
       <r>   -6.4344    1.0000 </r>
       <r>   -6.1870    1.0000 </r>
       <r>   -6.0027    1.0000 </r>
       <r>   -5.5378    1.0000 </r>
       <r>   -5.1841    1.0000 </r>
       <r>   -5.0818    1.0000 </r>
       <r>   -4.9331    1.0000 </r>
       <r>   -4.9065    1.0000 </r>
       <r>   -4.6772    1.0000 </r>
       <r>   -4.4393    1.0000 </r>
       <r>   -4.3348    1.0000 </r>
       <r>   -4.2683    1.0000 </r>
       <r>   -4.1531    1.0000 </r>
       <r>   -3.6779    1.0000 </r>
       <r>   -3.5022    1.0000 </r>
       <r>   -3.4252    1.0000 </r>
       <r>   -3.1379    1.0000 </r>
       <r>   -3.0884    1.0000 </r>
       <r>   -3.0305    1.0000 </r>
       <r>   -2.8580    1.0000 </r>
       <r>   -2.6943    1.0000 </r>
       <r>   -2.5934    1.0000 </r>
       <r>   -2.4905    1.0000 </r>
       <r>   -2.2178    1.0000 </r>
       <r>   -2.0552    1.0000 </r>
       <r>   -1.9535    1.0000 </r>
       <r>   -1.9047    1.0000 </r>
       <r>   -1.8874    1.0000 </r>
       <r>   -1.7298    1.0000 </r>
       <r>   -1.5526    1.0000 </r>
       <r>   -1.3246    1.0000 </r>
       <r>   -0.9127    1.0000 </r>
       <r>   -0.6324    1.0000 </r>
       <r>   -0.4018    1.0000 </r>
       <r>   -0.0854    0.5171 </r>
       <r>    0.9120    0.0000 </r>
       <r>    1.4256    0.0000 </r>
       <r>    1.5565    0.0000 </r>
       <r>    1.6488    0.0000 </r>
       <r>    1.8916    0.0000 </r>
       <r>    1.9504    0.0000 </r>
       <r>    2.0024    0.0000 </r>
       <r>    2.2204    0.0000 </r>
       <r>    2.3443    0.0000 </r>
       <r>    2.4605    0.0000 </r>
       <r>    2.5786    0.0000 </r>
       <r>    2.6484    0.0000 </r>
       <r>    2.7387    0.0000 </r>
      </set>
      <set comment="kpoint 18">
       <r>  -13.9718    1.0000 </r>
       <r>  -13.0221    1.0000 </r>
       <r>  -12.3829    1.0000 </r>
       <r>  -12.3227    1.0000 </r>
       <r>  -12.0332    1.0000 </r>
       <r>  -11.7357    1.0000 </r>
       <r>  -11.6143    1.0000 </r>
       <r>  -11.5533    1.0000 </r>
       <r>  -11.0603    1.0000 </r>
       <r>  -10.8663    1.0000 </r>
       <r>  -10.6304    1.0000 </r>
       <r>   -9.8497    1.0000 </r>
       <r>   -8.6242    1.0000 </r>
       <r>   -8.4297    1.0000 </r>
       <r>   -7.8138    1.0000 </r>
       <r>   -7.7244    1.0000 </r>
       <r>   -7.0284    1.0000 </r>
       <r>   -6.7314    1.0000 </r>
       <r>   -6.6673    1.0000 </r>
       <r>   -6.5184    1.0000 </r>
       <r>   -5.8833    1.0000 </r>
       <r>   -5.7699    1.0000 </r>
       <r>   -5.3653    1.0000 </r>
       <r>   -5.2395    1.0000 </r>
       <r>   -4.8705    1.0000 </r>
       <r>   -4.7864    1.0000 </r>
       <r>   -4.6303    1.0000 </r>
       <r>   -4.5688    1.0000 </r>
       <r>   -4.5332    1.0000 </r>
       <r>   -4.2341    1.0000 </r>
       <r>   -4.1901    1.0000 </r>
       <r>   -4.0988    1.0000 </r>
       <r>   -3.8137    1.0000 </r>
       <r>   -3.6369    1.0000 </r>
       <r>   -3.4779    1.0000 </r>
       <r>   -3.4329    1.0000 </r>
       <r>   -3.2146    1.0000 </r>
       <r>   -3.0279    1.0000 </r>
       <r>   -2.7957    1.0000 </r>
       <r>   -2.7157    1.0000 </r>
       <r>   -2.6201    1.0000 </r>
       <r>   -2.5160    1.0000 </r>
       <r>   -2.4386    1.0000 </r>
       <r>   -2.0754    1.0000 </r>
       <r>   -1.9311    1.0000 </r>
       <r>   -1.8644    1.0000 </r>
       <r>   -1.7793    1.0000 </r>
       <r>   -1.6154    1.0000 </r>
       <r>   -1.4910    1.0000 </r>
       <r>   -1.1514    1.0000 </r>
       <r>   -1.0698    1.0000 </r>
       <r>   -0.7271    1.0000 </r>
       <r>   -0.3980    1.0000 </r>
       <r>   -0.1380    0.7841 </r>
       <r>    0.1118    0.0030 </r>
       <r>    0.9434    0.0000 </r>
       <r>    1.4885    0.0000 </r>
       <r>    1.8032    0.0000 </r>
       <r>    1.8347    0.0000 </r>
       <r>    1.9708    0.0000 </r>
       <r>    2.0295    0.0000 </r>
       <r>    2.2144    0.0000 </r>
       <r>    2.3497    0.0000 </r>
       <r>    2.6652    0.0000 </r>
       <r>    2.6927    0.0000 </r>
       <r>    2.7612    0.0000 </r>
       <r>    2.8833    0.0000 </r>
       <r>    2.9462    0.0000 </r>
      </set>
      <set comment="kpoint 19">
       <r>  -14.2533    1.0000 </r>
       <r>  -13.3059    1.0000 </r>
       <r>  -12.6981    1.0000 </r>
       <r>  -12.6086    1.0000 </r>
       <r>  -12.3001    1.0000 </r>
[...]
       <r>    2.6613    0.0000 </r>
      </set>
      <set comment="kpoint 54">
       <r>  -12.7835    1.0000 </r>
       <r>  -11.5213    1.0000 </r>
       <r>  -11.4023    1.0000 </r>
       <r>  -11.2003    1.0000 </r>
       <r>  -11.0327    1.0000 </r>
       <r>  -10.9792    1.0000 </r>
       <r>  -10.8806    1.0000 </r>
       <r>  -10.7550    1.0000 </r>
       <r>  -10.7461    1.0000 </r>
       <r>  -10.6522    1.0000 </r>
       <r>  -10.5672    1.0000 </r>
       <r>   -9.8366    1.0000 </r>
       <r>   -9.6180    1.0000 </r>
       <r>   -8.6963    1.0000 </r>
       <r>   -8.4711    1.0000 </r>
       <r>   -8.1506    1.0000 </r>
       <r>   -7.9496    1.0000 </r>
       <r>   -7.7741    1.0000 </r>
       <r>   -7.5903    1.0000 </r>
       <r>   -7.3844    1.0000 </r>
       <r>   -7.3179    1.0000 </r>
       <r>   -7.2017    1.0000 </r>
       <r>   -6.8869    1.0000 </r>
       <r>   -6.5948    1.0000 </r>
       <r>   -4.9779    1.0000 </r>
       <r>   -4.7455    1.0000 </r>
       <r>   -4.5829    1.0000 </r>
       <r>   -4.5093    1.0000 </r>
       <r>   -4.3951    1.0000 </r>
       <r>   -4.3102    1.0000 </r>
       <r>   -4.1208    1.0000 </r>
       <r>   -4.0315    1.0000 </r>
       <r>   -3.9581    1.0000 </r>
       <r>   -3.8489    1.0000 </r>
       <r>   -3.7975    1.0000 </r>
       <r>   -3.6005    1.0000 </r>
       <r>   -3.5488    1.0000 </r>
       <r>   -3.3102    1.0000 </r>
       <r>   -3.2864    1.0000 </r>
       <r>   -3.0836    1.0000 </r>
       <r>   -3.0141    1.0000 </r>
       <r>   -2.7425    1.0000 </r>
       <r>   -2.6998    1.0000 </r>
       <r>   -2.4073    1.0000 </r>
       <r>   -2.2733    1.0000 </r>
       <r>   -2.1775    1.0000 </r>
       <r>   -2.1369    1.0000 </r>
       <r>   -2.0145    1.0000 </r>
       <r>   -1.9759    1.0000 </r>
       <r>   -1.7336    1.0000 </r>
       <r>   -1.5769    1.0000 </r>
       <r>   -1.5244    1.0000 </r>
       <r>   -0.8431    1.0000 </r>
       <r>   -0.6304    1.0000 </r>
       <r>   -0.4188    1.0000 </r>
       <r>    0.7928    0.0000 </r>
       <r>    0.9023    0.0000 </r>
       <r>    1.1900    0.0000 </r>
       <r>    1.3317    0.0000 </r>
       <r>    1.5671    0.0000 </r>
       <r>    1.6342    0.0000 </r>
       <r>    1.8428    0.0000 </r>
       <r>    1.9813    0.0000 </r>
       <r>    2.0197    0.0000 </r>
       <r>    2.1550    0.0000 </r>
       <r>    2.2885    0.0000 </r>
       <r>    2.3935    0.0000 </r>
       <r>    2.4877    0.0000 </r>
      </set>
     </set>
    </set>
   </array>
  </eigenvalues>
  <separator name="orbital magnetization" >
   <v name="MAGDIPOLOUT">      0.00000000      0.00000000      0.00000000</v>
  </separator>
  <dos>
   <i name="efermi">     -0.08239772 </i>
   <total>
    <array>
     <dimension dim="1">gridpoints</dimension>
     <dimension dim="2">spin</dimension>
     <field>energy</field>
     <field>total</field>
     <field>integrated</field>
     <set>
      <set comment="spin 1">
       <r>   -15.4870     0.0000     0.0000 </r>
       <r>   -15.4213     0.0000     0.0000 </r>
       <r>   -15.3557     0.0000     0.0000 </r>
       <r>   -15.2900     0.0000     0.0000 </r>
       <r>   -15.2244     0.0000     0.0000 </r>
       <r>   -15.1588     0.0000     0.0000 </r>
       <r>   -15.0931     0.0000     0.0000 </r>
       <r>   -15.0275     0.0000     0.0000 </r>
       <r>   -14.9619     0.0000     0.0000 </r>
       <r>   -14.8962     0.0000     0.0000 </r>
       <r>   -14.8306     0.0000     0.0000 </r>
       <r>   -14.7649     0.0001     0.0000 </r>
       <r>   -14.6993     0.0028     0.0002 </r>
       <r>   -14.6337     0.0432     0.0030 </r>
       <r>   -14.5680     0.3218     0.0241 </r>
       <r>   -14.5024     1.1859     0.1020 </r>
       <r>   -14.4368     2.2302     0.2484 </r>
       <r>   -14.3711     2.2705     0.3974 </r>
       <r>   -14.3055     1.7874     0.5147 </r>
       <r>   -14.2398     1.8146     0.6338 </r>
       <r>   -14.1742     1.4245     0.7273 </r>
       <r>   -14.1086     0.6504     0.7700 </r>
       <r>   -14.0429     0.6766     0.8144 </r>
       <r>   -13.9773     1.4399     0.9089 </r>
       <r>   -13.9116     1.5827     1.0128 </r>
       <r>   -13.8460     0.7853     1.0644 </r>
       <r>   -13.7804     0.1925     1.0770 </r>
       <r>   -13.7147     0.2104     1.0908 </r>
       <r>   -13.6491     0.9267     1.1517 </r>
       <r>   -13.5835     2.1618     1.2936 </r>
       <r>   -13.5178     2.7959     1.4771 </r>
       <r>   -13.4522     2.5278     1.6430 </r>
       <r>   -13.3865     2.0983     1.7807 </r>
       <r>   -13.3209     1.9421     1.9082 </r>
       <r>   -13.2553     2.1265     2.0478 </r>
       <r>   -13.1896     2.7469     2.2281 </r>
       <r>   -13.1240     3.1497     2.4348 </r>
       <r>   -13.0583     2.8524     2.6220 </r>
       <r>   -12.9927     2.9589     2.8163 </r>
       <r>   -12.9271     3.7193     3.0604 </r>
       <r>   -12.8614     4.6849     3.3679 </r>
       <r>   -12.7958     5.4737     3.7272 </r>
       <r>   -12.7302     5.2502     4.0718 </r>
       <r>   -12.6645     4.7074     4.3808 </r>
       <r>   -12.5989     4.9372     4.7049 </r>
       <r>   -12.5332     4.9768     5.0315 </r>
       <r>   -12.4676     4.6531     5.3369 </r>
       <r>   -12.4020     4.4363     5.6281 </r>
       <r>   -12.3363     4.4948     5.9232 </r>
       <r>   -12.2707     4.5827     6.2240 </r>
       <r>   -12.2050     4.6459     6.5289 </r>
       <r>   -12.1394     5.3561     6.8805 </r>
       <r>   -12.0738     6.9989     7.3399 </r>
       <r>   -12.0081     9.0002     7.9306 </r>
       <r>   -11.9425     8.9576     8.5186 </r>
       <r>   -11.8769     6.8409     8.9676 </r>
       <r>   -11.8112     5.4962     9.3284 </r>
       <r>   -11.7456     5.9953     9.7219 </r>
       <r>   -11.6799     7.1633    10.1921 </r>
       <r>   -11.6143     7.8702    10.7087 </r>
       <r>   -11.5487     8.5655    11.2709 </r>
       <r>   -11.4830     9.0374    11.8641 </r>
       <r>   -11.4174     8.8011    12.4418 </r>
       <r>   -11.3518     8.7865    13.0185 </r>
       <r>   -11.2861     9.8078    13.6623 </r>
       <r>   -11.2205    10.3241    14.3399 </r>
       <r>   -11.1548     9.4119    14.9577 </r>
       <r>   -11.0892     9.4968    15.5811 </r>
       <r>   -11.0236    10.8918    16.2960 </r>
       <r>   -10.9579    11.2207    17.0325 </r>
       <r>   -10.8923    10.7731    17.7396 </r>
       <r>   -10.8266    10.6662    18.4397 </r>
       <r>   -10.7610    10.4544    19.1260 </r>
       <r>   -10.6954    10.4719    19.8133 </r>
       <r>   -10.6297    10.4909    20.5019 </r>
       <r>   -10.5641     8.8790    21.0847 </r>
       <r>   -10.4985     6.2330    21.4938 </r>
       <r>   -10.4328     4.2746    21.7744 </r>
       <r>   -10.3672     2.4373    21.9344 </r>
       <r>   -10.3015     0.8390    21.9895 </r>
       <r>   -10.2359     0.1668    22.0004 </r>
       <r>   -10.1703     0.1866    22.0127 </r>
       <r>   -10.1046     0.8408    22.0679 </r>
       <r>   -10.0390     2.2277    22.2141 </r>
       <r>    -9.9733     3.7201    22.4583 </r>
       <r>    -9.9077     5.1768    22.7981 </r>
       <r>    -9.8421     6.8833    23.2499 </r>
       <r>    -9.7764     6.6642    23.6873 </r>
       <r>    -9.7108     3.9887    23.9491 </r>
       <r>    -9.6452     2.2146    24.0945 </r>
       <r>    -9.5795     1.8594    24.2165 </r>
       <r>    -9.5139     1.3577    24.3056 </r>
       <r>    -9.4482     1.2577    24.3882 </r>
       <r>    -9.3826     1.6072    24.4937 </r>
       <r>    -9.3170     1.2636    24.5766 </r>
       <r>    -9.2513     0.5062    24.6098 </r>
       <r>    -9.1857     0.2392    24.6255 </r>
       <r>    -9.1200     0.7473    24.6746 </r>
       <r>    -9.0544     1.9300    24.8013 </r>
       <r>    -8.9888     2.8396    24.9877 </r>
       <r>    -8.9231     2.7132    25.1658 </r>
       <r>    -8.8575     2.5405    25.3325 </r>
       <r>    -8.7919     3.3252    25.5508 </r>
       <r>    -8.7262     4.2489    25.8297 </r>
       <r>    -8.6606     4.9535    26.1548 </r>
       <r>    -8.5949     6.1782    26.5603 </r>
       <r>    -8.5293     7.4260    27.0478 </r>
       <r>    -8.4637     7.8007    27.5598 </r>
       <r>    -8.3980     6.6444    27.9959 </r>
       <r>    -8.3324     4.1173    28.2662 </r>
       <r>    -8.2668     2.2496    28.4138 </r>
       <r>    -8.2011     2.1033    28.5519 </r>
       <r>    -8.1355     2.7487    28.7323 </r>
       <r>    -8.0698     3.0510    28.9326 </r>
       <r>    -8.0042     3.3970    29.1555 </r>
       <r>    -7.9386     4.7286    29.4659 </r>
       <r>    -7.8729     6.4639    29.8902 </r>
       <r>    -7.8073     8.3476    30.4381 </r>
       <r>    -7.7416     9.4253    31.0568 </r>
       <r>    -7.6760     8.4842    31.6137 </r>
       <r>    -7.6104     6.8148    32.0610 </r>
       <r>    -7.5447     5.8489    32.4449 </r>
       <r>    -7.4791     5.9433    32.8350 </r>
       <r>    -7.4135     7.0905    33.3004 </r>
       <r>    -7.3478     8.3223    33.8466 </r>
       <r>    -7.2822     8.3407    34.3941 </r>
       <r>    -7.2165     6.8392    34.8430 </r>
       <r>    -7.1509     4.9241    35.1662 </r>
       <r>    -7.0853     4.1968    35.4417 </r>
       <r>    -7.0196     5.0807    35.7752 </r>
       <r>    -6.9540     6.5409    36.2045 </r>
       <r>    -6.8883     7.8980    36.7229 </r>
       <r>    -6.8227     9.5366    37.3489 </r>
       <r>    -6.7571    12.4714    38.1675 </r>
       <r>    -6.6914    15.0234    39.1536 </r>
       <r>    -6.6258    12.9216    40.0018 </r>
       <r>    -6.5602     8.8186    40.5806 </r>
       <r>    -6.4945     7.2505    41.0565 </r>
       <r>    -6.4289     6.7176    41.4974 </r>
       <r>    -6.3632     5.5128    41.8593 </r>
       <r>    -6.2976     4.7588    42.1716 </r>
       <r>    -6.2320     4.9964    42.4996 </r>
       <r>    -6.1663     4.7137    42.8090 </r>
       <r>    -6.1007     3.2608    43.0230 </r>
       <r>    -6.0350     2.3941    43.1802 </r>
       <r>    -5.9694     2.8673    43.3684 </r>
       <r>    -5.9038     3.3920    43.5910 </r>
       <r>    -5.8381     3.9844    43.8526 </r>
       <r>    -5.7725     4.9780    44.1793 </r>
       <r>    -5.7069     5.8802    44.5653 </r>
       <r>    -5.6412     6.2045    44.9725 </r>
       <r>    -5.5756     5.6629    45.3442 </r>
       <r>    -5.5099     4.1397    45.6160 </r>
       <r>    -5.4443     3.0090    45.8135 </r>
       <r>    -5.3787     3.5757    46.0482 </r>
       <r>    -5.3130     4.2475    46.3270 </r>
       <r>    -5.2474     4.1722    46.6008 </r>
       <r>    -5.1818     3.9391    46.8594 </r>
       <r>    -5.1161     4.2364    47.1374 </r>
       <r>    -5.0505     6.0162    47.5323 </r>
       <r>    -4.9848     8.1843    48.0695 </r>
       <r>    -4.9192     9.4798    48.6918 </r>
       <r>    -4.8536    10.2555    49.3649 </r>
       <r>    -4.7879    11.2927    50.1062 </r>
       <r>    -4.7223    11.8670    50.8851 </r>
       <r>    -4.6566    11.6354    51.6488 </r>
       <r>    -4.5910    11.9917    52.4359 </r>
       <r>    -4.5254    12.5168    53.2575 </r>
       <r>    -4.4597    11.8345    54.0343 </r>
       <r>    -4.3941    11.2345    54.7717 </r>
       <r>    -4.3285    11.1568    55.5040 </r>
       <r>    -4.2628    11.4610    56.2563 </r>
       <r>    -4.1972    13.2014    57.1228 </r>
       <r>    -4.1315    15.5733    58.1450 </r>
       <r>    -4.0659    16.3532    59.2184 </r>
       <r>    -4.0003    14.4875    60.1694 </r>
       <r>    -3.9346    11.1747    60.9029 </r>
       <r>    -3.8690     9.5303    61.5284 </r>
       <r>    -3.8033    11.1938    62.2631 </r>
       <r>    -3.7377    13.7762    63.1674 </r>
       <r>    -3.6721    14.6758    64.1307 </r>
       <r>    -3.6064    13.6098    65.0240 </r>
       <r>    -3.5408    12.2905    65.8307 </r>
       <r>    -3.4752    12.5655    66.6555 </r>
       <r>    -3.4095    13.7640    67.5590 </r>
       <r>    -3.3439    14.6409    68.5200 </r>
       <r>    -3.2782    15.0663    69.5089 </r>
       <r>    -3.2126    15.1247    70.5017 </r>
       <r>    -3.1470    16.0417    71.5546 </r>
       <r>    -3.0813    17.3620    72.6942 </r>
       <r>    -3.0157    17.1359    73.8190 </r>
       <r>    -2.9501    15.4682    74.8343 </r>
       <r>    -2.8844    13.7967    75.7399 </r>
       <r>    -2.8188    13.6997    76.6391 </r>
       <r>    -2.7531    15.3841    77.6489 </r>
       <r>    -2.6875    17.0073    78.7652 </r>
       <r>    -2.6219    16.8494    79.8712 </r>
       <r>    -2.5562    15.4939    80.8882 </r>
       <r>    -2.4906    15.0266    81.8745 </r>
       <r>    -2.4249    15.6131    82.8993 </r>
       <r>    -2.3593    15.3866    83.9093 </r>
       <r>    -2.2937    15.2672    84.9114 </r>
       <r>    -2.2280    16.3529    85.9847 </r>
       <r>    -2.1624    17.0384    87.1031 </r>
       <r>    -2.0968    17.4832    88.2507 </r>
       <r>    -2.0311    18.3141    89.4528 </r>
       <r>    -1.9655    19.2107    90.7138 </r>
       <r>    -1.8998    19.8469    92.0165 </r>
       <r>    -1.8342    18.9148    93.2580 </r>
       <r>    -1.7686    16.1696    94.3194 </r>
       <r>    -1.7029    12.3187    95.1279 </r>
       <r>    -1.6373     9.4706    95.7496 </r>
       <r>    -1.5716     9.9648    96.4036 </r>
       <r>    -1.5060    11.7452    97.1746 </r>
       <r>    -1.4404    11.6421    97.9387 </r>
       <r>    -1.3747    10.4169    98.6225 </r>
       <r>    -1.3091     8.9216    99.2081 </r>
       <r>    -1.2435     7.4000    99.6938 </r>
       <r>    -1.1778     7.5543   100.1897 </r>
       <r>    -1.1122     8.7810   100.7660 </r>
       <r>    -1.0465     8.5754   101.3289 </r>
       <r>    -0.9809     8.0262   101.8557 </r>
       <r>    -0.9153     8.7940   102.4330 </r>
       <r>    -0.8496     9.0467   103.0268 </r>
       <r>    -0.7840     7.4507   103.5158 </r>
       <r>    -0.7183     5.8816   103.9019 </r>
       <r>    -0.6527     5.3826   104.2552 </r>
       <r>    -0.5871     4.9962   104.5831 </r>
       <r>    -0.5214     5.4188   104.9388 </r>
       <r>    -0.4558     7.0723   105.4030 </r>
       <r>    -0.3902     8.0032   105.9283 </r>
       <r>    -0.3245     7.3769   106.4125 </r>
       <r>    -0.2589     6.6955   106.8520 </r>
       <r>    -0.1932     6.9211   107.3063 </r>
       <r>    -0.1276     6.7410   107.7488 </r>
       <r>    -0.0620     5.2997   108.0966 </r>
       <r>     0.0037     4.1721   108.3705 </r>
       <r>     0.0693     4.2491   108.6494 </r>
       <r>     0.1349     4.1457   108.9215 </r>
       <r>     0.2006     2.9648   109.1161 </r>
       <r>     0.2662     1.7020   109.2278 </r>
       <r>     0.3319     1.0194   109.2947 </r>
       <r>     0.3975     0.8334   109.3495 </r>
       <r>     0.4631     0.9170   109.4096 </r>
       <r>     0.5288     0.9518   109.4721 </r>
       <r>     0.5944     1.1179   109.5455 </r>
       <r>     0.6601     2.0941   109.6829 </r>
       <r>     0.7257     3.9597   109.9429 </r>
       <r>     0.7913     5.4869   110.3030 </r>
       <r>     0.8570     6.2450   110.7129 </r>
       <r>     0.9226     6.8879   111.1650 </r>
       <r>     0.9882     7.1145   111.6320 </r>
       <r>     1.0539     6.8932   112.0845 </r>
       <r>     1.1195     6.8867   112.5365 </r>
       <r>     1.1852     7.4882   113.0280 </r>
       <r>     1.2508     8.3902   113.5787 </r>
       <r>     1.3164     9.9084   114.2291 </r>
       <r>     1.3821    10.9813   114.9499 </r>
       <r>     1.4477    10.2989   115.6259 </r>
       <r>     1.5134     9.9095   116.2763 </r>
       <r>     1.5790    10.6178   116.9733 </r>
       <r>     1.6446    10.6375   117.6715 </r>
       <r>     1.7103    10.3841   118.3531 </r>
       <r>     1.7759    11.1887   119.0875 </r>
       <r>     1.8415    11.8922   119.8681 </r>
       <r>     1.9072    12.3468   120.6785 </r>
       <r>     1.9728    13.6176   121.5723 </r>
       <r>     2.0385    14.7983   122.5437 </r>
       <r>     2.1041    15.0298   123.5302 </r>
       <r>     2.1697    15.2205   124.5292 </r>
       <r>     2.2354    15.6606   125.5572 </r>
       <r>     2.3010    15.4339   126.5702 </r>
       <r>     2.3667    14.7906   127.5411 </r>
       <r>     2.4323    14.4615   128.4903 </r>
       <r>     2.4979    14.2926   129.4284 </r>
       <r>     2.5636    14.6713   130.3914 </r>
       <r>     2.6292    15.4622   131.4063 </r>
       <r>     2.6948    14.5086   132.3587 </r>
       <r>     2.7605    11.8016   133.1333 </r>
       <r>     2.8261     9.5264   133.7586 </r>
       <r>     2.8918     8.3067   134.3038 </r>
       <r>     2.9574     7.5163   134.7972 </r>
       <r>     3.0230     6.9068   135.2505 </r>
       <r>     3.0887     5.6458   135.6211 </r>
       <r>     3.1543     3.3882   135.8435 </r>
       <r>     3.2199     1.5770   135.9470 </r>
       <r>     3.2856     0.6179   135.9876 </r>
       <r>     3.3512     0.1641   135.9984 </r>
       <r>     3.4169     0.0233   135.9999 </r>
       <r>     3.4825     0.0016   136.0000 </r>
       <r>     3.5481     0.0000   136.0000 </r>
       <r>     3.6138     0.0000   136.0000 </r>
       <r>     3.6794     0.0000   136.0000 </r>
       <r>     3.7451     0.0000   136.0000 </r>
       <r>     3.8107     0.0000   136.0000 </r>
       <r>     3.8763     0.0000   136.0000 </r>
       <r>     3.9420     0.0000   136.0000 </r>
       <r>     4.0076     0.0000   136.0000 </r>
       <r>     4.0732     0.0000   136.0000 </r>
       <r>     4.1389     0.0000   136.0000 </r>
       <r>     4.2045     0.0000   136.0000 </r>
      </set>
     </set>
    </array>
   </total>
  </dos>
 </calculation>
 <structure name="finalpos" >
  <crystal>
   <varray name="basis" >
    <v>       3.54040000       0.00000000       0.00000000 </v>
    <v>      -1.77020000      10.29434800       0.00000000 </v>
    <v>       0.00000000       0.00000000      27.50142900 </v>
   </varray>
   <i name="volume">   1002.32009712 </i>
   <varray name="rec_basis" >
    <v>       0.28245396       0.04857034       0.00000000 </v>
    <v>       0.00000000       0.09714068       0.00000000 </v>
    <v>       0.00000000       0.00000000       0.03636175 </v>
   </varray>
  </crystal>
  <varray name="positions" >
   <v>       0.11402300       0.22804500       0.23316207 </v>
   <v>       0.91402300       0.42804500       0.51499159 </v>
   <v>       0.45808900       0.91617900       0.20939482 </v>
   <v>       0.25808900       0.11617900       0.49122434 </v>
   <v>       0.31085400       0.62170900       0.08414979 </v>
   <v>       0.31085400       0.62170900       0.36597930 </v>
   <v>       0.99923000       0.99846000       0.08631254 </v>
   <v>       0.99923000       0.99846000       0.36814206 </v>
   <v>       0.65492700       0.30985400       0.06041748 </v>
   <v>       0.65492700       0.30985400       0.34224700 </v>
   <v>       0.76973800       0.53947500       0.20725292 </v>
   <v>       0.56973800       0.73947500       0.48908244 </v>
   <v>       0.93971600       0.87943300       0.15783749 </v>
   <v>       0.73971600       0.07943300       0.43966701 </v>
   <v>       0.20515200       0.41030300       0.18578822 </v>
   <v>       0.00515200       0.61030300       0.46761774 </v>
   <v>       0.20184900       0.40369900       0.09969156 </v>
   <v>       0.20184900       0.40369900       0.38152107 </v>
   <v>       0.56380500       0.12761000       0.10779021 </v>
   <v>       0.56380500       0.12761000       0.38961973 </v>
   <v>       0.56710600       0.13421200       0.19387616 </v>
   <v>       0.36710600       0.33421200       0.47570568 </v>
   <v>       0.82923400       0.65846800       0.13571444 </v>
   <v>       0.62923400       0.85846800       0.41754396 </v>
  </varray>
 </structure>
</modeling>
