  24  24   0   0
  0.4176334E+02  0.3540400E-09  0.1044544E-08  0.2750143E-08  0.5000000E-15
  1.000000000000000E-004
  CAR 
 unknown system                          
      4.24825470    -14.86729130  301      0.16852508      1.00000000
    -14.867  0.0000E+00  0.0000E+00
    -14.804  0.0000E+00  0.0000E+00
    -14.740  0.0000E+00  0.0000E+00
    -14.676  0.0000E+00  0.0000E+00
    -14.612  0.0000E+00  0.0000E+00
    -14.549  0.0000E+00  0.0000E+00
    -14.485  0.0000E+00  0.0000E+00
    -14.421  0.1977E-14  0.1260E-15
    -14.358  0.1888E-11  0.1204E-12
    -14.294  0.7998E-09  0.5108E-10
    -14.230  0.1553E-06  0.9948E-08
    -14.166  0.1395E-04  0.8988E-06
    -14.103  0.5874E-03  0.3833E-04
    -14.039  0.1184E-01  0.7925E-03
    -13.975  0.1176E+00  0.8283E-02
    -13.912  0.5974E+00  0.4635E-01
    -13.848  0.1608E+01  0.1488E+00
    -13.784  0.2352E+01  0.2987E+00
    -13.720  0.2046E+01  0.4290E+00
    -13.657  0.1722E+01  0.5387E+00
    -13.593  0.2062E+01  0.6701E+00
    -13.529  0.2226E+01  0.8119E+00
    -13.465  0.2254E+01  0.9555E+00
    -13.402  0.2594E+01  0.1121E+01
    -13.338  0.3258E+01  0.1328E+01
    -13.274  0.3503E+01  0.1552E+01
    -13.211  0.2731E+01  0.1726E+01
    -13.147  0.1853E+01  0.1844E+01
    -13.083  0.1555E+01  0.1943E+01
    -13.019  0.2183E+01  0.2082E+01
    -12.956  0.3789E+01  0.2323E+01
    -12.892  0.5046E+01  0.2645E+01
    -12.828  0.4758E+01  0.2948E+01
    -12.765  0.3836E+01  0.3192E+01
    -12.701  0.3473E+01  0.3414E+01
    -12.637  0.4022E+01  0.3670E+01
    -12.573  0.5037E+01  0.3991E+01
    -12.510  0.5886E+01  0.4366E+01
    -12.446  0.6506E+01  0.4781E+01
    -12.382  0.6029E+01  0.5165E+01
    -12.319  0.5088E+01  0.5489E+01
    -12.255  0.5278E+01  0.5825E+01
    -12.191  0.5972E+01  0.6206E+01
    -12.127  0.6042E+01  0.6591E+01
    -12.064  0.6583E+01  0.7010E+01
    -12.000  0.8723E+01  0.7566E+01
    -11.936  0.9631E+01  0.8180E+01
    -11.873  0.7991E+01  0.8689E+01
    -11.809  0.6694E+01  0.9116E+01
    -11.745  0.6611E+01  0.9537E+01
    -11.681  0.6740E+01  0.9966E+01
    -11.618  0.6805E+01  0.1040E+02
    -11.554  0.7123E+01  0.1085E+02
    -11.490  0.8185E+01  0.1138E+02
    -11.426  0.9038E+01  0.1195E+02
    -11.363  0.8577E+01  0.1250E+02
    -11.299  0.8649E+01  0.1305E+02
    -11.235  0.1017E+02  0.1370E+02
    -11.172  0.1039E+02  0.1436E+02
    -11.108  0.9466E+01  0.1496E+02
    -11.044  0.9833E+01  0.1559E+02
    -10.980  0.1092E+02  0.1628E+02
    -10.917  0.1175E+02  0.1703E+02
    -10.853  0.1293E+02  0.1786E+02
    -10.789  0.1373E+02  0.1873E+02
    -10.726  0.1278E+02  0.1955E+02
    -10.662  0.1194E+02  0.2031E+02
    -10.598  0.1217E+02  0.2108E+02
    -10.534  0.1042E+02  0.2175E+02
    -10.471  0.7529E+01  0.2223E+02
    -10.407  0.6034E+01  0.2261E+02
    -10.343  0.4471E+01  0.2289E+02
    -10.280  0.2186E+01  0.2303E+02
    -10.216  0.6710E+00  0.2308E+02
    -10.152  0.5485E+00  0.2311E+02
    -10.088  0.1288E+01  0.2319E+02
    -10.025  0.1659E+01  0.2330E+02
     -9.961  0.1030E+01  0.2337E+02
     -9.897  0.4841E+00  0.2340E+02
     -9.834  0.8591E+00  0.2345E+02
     -9.770  0.1682E+01  0.2356E+02
     -9.706  0.1982E+01  0.2368E+02
     -9.642  0.1983E+01  0.2381E+02
     -9.579  0.1758E+01  0.2392E+02
     -9.515  0.9360E+00  0.2398E+02
     -9.451  0.2465E+00  0.2400E+02
     -9.388  0.3079E-01  0.2400E+02
     -9.324  0.5531E-02  0.2400E+02
     -9.260  0.4318E-01  0.2400E+02
     -9.196  0.2420E+00  0.2402E+02
     -9.133  0.7214E+00  0.2406E+02
     -9.069  0.1455E+01  0.2416E+02
     -9.005  0.2677E+01  0.2433E+02
     -8.941  0.4003E+01  0.2458E+02
     -8.878  0.4020E+01  0.2484E+02
     -8.814  0.3453E+01  0.2506E+02
     -8.750  0.3805E+01  0.2530E+02
     -8.687  0.4325E+01  0.2558E+02
     -8.623  0.4277E+01  0.2585E+02
     -8.559  0.4148E+01  0.2611E+02
     -8.495  0.4912E+01  0.2643E+02
     -8.432  0.6448E+01  0.2684E+02
     -8.368  0.6415E+01  0.2725E+02
     -8.304  0.4521E+01  0.2753E+02
     -8.241  0.3701E+01  0.2777E+02
     -8.177  0.4602E+01  0.2806E+02
     -8.113  0.5404E+01  0.2841E+02
     -8.049  0.5325E+01  0.2875E+02
     -7.986  0.4898E+01  0.2906E+02
     -7.922  0.4819E+01  0.2937E+02
     -7.858  0.5148E+01  0.2969E+02
     -7.795  0.5709E+01  0.3006E+02
     -7.731  0.5718E+01  0.3042E+02
     -7.667  0.5105E+01  0.3075E+02
     -7.603  0.4811E+01  0.3105E+02
     -7.540  0.5467E+01  0.3140E+02
     -7.476  0.6854E+01  0.3184E+02
     -7.412  0.8720E+01  0.3239E+02
     -7.349  0.1080E+02  0.3308E+02
     -7.285  0.1223E+02  0.3386E+02
     -7.221  0.1176E+02  0.3461E+02
     -7.157  0.9608E+01  0.3522E+02
     -7.094  0.7122E+01  0.3568E+02
     -7.030  0.5001E+01  0.3600E+02
     -6.966  0.4278E+01  0.3627E+02
     -6.902  0.5546E+01  0.3662E+02
     -6.839  0.8206E+01  0.3715E+02
     -6.775  0.1147E+02  0.3788E+02
     -6.711  0.1429E+02  0.3879E+02
     -6.648  0.1410E+02  0.3969E+02
     -6.584  0.1061E+02  0.4036E+02
     -6.520  0.7577E+01  0.4084E+02
     -6.456  0.5929E+01  0.4122E+02
     -6.393  0.4541E+01  0.4151E+02
     -6.329  0.4481E+01  0.4180E+02
     -6.265  0.5548E+01  0.4215E+02
     -6.202  0.5830E+01  0.4252E+02
     -6.138  0.4524E+01  0.4281E+02
     -6.074  0.2712E+01  0.4298E+02
     -6.010  0.2034E+01  0.4311E+02
     -5.947  0.2459E+01  0.4327E+02
     -5.883  0.3083E+01  0.4347E+02
     -5.819  0.4003E+01  0.4372E+02
     -5.756  0.5609E+01  0.4408E+02
     -5.692  0.6963E+01  0.4452E+02
     -5.628  0.7047E+01  0.4497E+02
     -5.564  0.5965E+01  0.4535E+02
     -5.501  0.4290E+01  0.4562E+02
     -5.437  0.3386E+01  0.4584E+02
     -5.373  0.4352E+01  0.4612E+02
     -5.310  0.5953E+01  0.4650E+02
     -5.246  0.6322E+01  0.4690E+02
     -5.182  0.5242E+01  0.4723E+02
     -5.118  0.3963E+01  0.4749E+02
     -5.055  0.4590E+01  0.4778E+02
     -4.991  0.7125E+01  0.4823E+02
     -4.927  0.9640E+01  0.4885E+02
     -4.863  0.1077E+02  0.4953E+02
     -4.800  0.1009E+02  0.5018E+02
     -4.736  0.9191E+01  0.5076E+02
     -4.672  0.9101E+01  0.5134E+02
     -4.609  0.8807E+01  0.5190E+02
     -4.545  0.8940E+01  0.5247E+02
     -4.481  0.1021E+02  0.5312E+02
     -4.417  0.1161E+02  0.5386E+02
     -4.354  0.1262E+02  0.5467E+02
     -4.290  0.1307E+02  0.5550E+02
     -4.226  0.1293E+02  0.5632E+02
     -4.163  0.1301E+02  0.5715E+02
     -4.099  0.1419E+02  0.5806E+02
     -4.035  0.1549E+02  0.5904E+02
     -3.971  0.1510E+02  0.6000E+02
     -3.908  0.1301E+02  0.6083E+02
     -3.844  0.1155E+02  0.6157E+02
     -3.780  0.1209E+02  0.6234E+02
     -3.717  0.1292E+02  0.6316E+02
     -3.653  0.1305E+02  0.6400E+02
     -3.589  0.1260E+02  0.6480E+02
     -3.525  0.1237E+02  0.6559E+02
     -3.462  0.1340E+02  0.6644E+02
     -3.398  0.1496E+02  0.6739E+02
     -3.334  0.1542E+02  0.6838E+02
     -3.271  0.1486E+02  0.6932E+02
     -3.207  0.1504E+02  0.7028E+02
     -3.143  0.1529E+02  0.7126E+02
     -3.079  0.1488E+02  0.7220E+02
     -3.016  0.1531E+02  0.7318E+02
     -2.952  0.1656E+02  0.7423E+02
     -2.888  0.1687E+02  0.7531E+02
     -2.824  0.1561E+02  0.7630E+02
     -2.761  0.1386E+02  0.7719E+02
     -2.697  0.1304E+02  0.7802E+02
     -2.633  0.1389E+02  0.7890E+02
     -2.570  0.1606E+02  0.7993E+02
     -2.506  0.1717E+02  0.8102E+02
     -2.442  0.1689E+02  0.8210E+02
     -2.378  0.1710E+02  0.8319E+02
     -2.315  0.1671E+02  0.8425E+02
     -2.251  0.1547E+02  0.8524E+02
     -2.187  0.1641E+02  0.8628E+02
     -2.124  0.1857E+02  0.8747E+02
     -2.060  0.1917E+02  0.8869E+02
     -1.996  0.1946E+02  0.8993E+02
     -1.932  0.2038E+02  0.9123E+02
     -1.869  0.2065E+02  0.9254E+02
     -1.805  0.1977E+02  0.9380E+02
     -1.741  0.1816E+02  0.9496E+02
     -1.678  0.1539E+02  0.9594E+02
     -1.614  0.1245E+02  0.9673E+02
     -1.550  0.1181E+02  0.9748E+02
     -1.486  0.1314E+02  0.9832E+02
     -1.423  0.1474E+02  0.9926E+02
     -1.359  0.1447E+02  0.1002E+03
     -1.295  0.1161E+02  0.1009E+03
     -1.232  0.8813E+01  0.1015E+03
     -1.168  0.8155E+01  0.1020E+03
     -1.104  0.9060E+01  0.1026E+03
     -1.040  0.9886E+01  0.1032E+03
     -0.977  0.9593E+01  0.1038E+03
     -0.913  0.8078E+01  0.1043E+03
     -0.849  0.5479E+01  0.1047E+03
     -0.786  0.4068E+01  0.1049E+03
     -0.722  0.5305E+01  0.1053E+03
     -0.658  0.6301E+01  0.1057E+03
     -0.594  0.4752E+01  0.1060E+03
     -0.531  0.2544E+01  0.1061E+03
     -0.467  0.1575E+01  0.1062E+03
     -0.403  0.1805E+01  0.1064E+03
     -0.339  0.3016E+01  0.1066E+03
     -0.276  0.3941E+01  0.1068E+03
     -0.212  0.3433E+01  0.1070E+03
     -0.148  0.2149E+01  0.1072E+03
     -0.085  0.1057E+01  0.1072E+03
     -0.021  0.1184E+01  0.1073E+03
      0.043  0.2731E+01  0.1075E+03
      0.107  0.4193E+01  0.1077E+03
      0.170  0.4061E+01  0.1080E+03
      0.234  0.3236E+01  0.1082E+03
      0.298  0.3419E+01  0.1084E+03
      0.361  0.4652E+01  0.1087E+03
      0.425  0.5534E+01  0.1091E+03
      0.489  0.5171E+01  0.1094E+03
      0.553  0.4519E+01  0.1097E+03
      0.616  0.4507E+01  0.1100E+03
      0.680  0.4309E+01  0.1103E+03
      0.744  0.4108E+01  0.1105E+03
      0.807  0.4907E+01  0.1108E+03
      0.871  0.5682E+01  0.1112E+03
      0.935  0.5588E+01  0.1116E+03
      0.999  0.5960E+01  0.1119E+03
      1.062  0.6950E+01  0.1124E+03
      1.126  0.6885E+01  0.1128E+03
      1.190  0.5981E+01  0.1132E+03
      1.253  0.5918E+01  0.1136E+03
      1.317  0.7016E+01  0.1140E+03
      1.381  0.7894E+01  0.1145E+03
      1.445  0.7584E+01  0.1150E+03
      1.508  0.7674E+01  0.1155E+03
      1.572  0.9278E+01  0.1161E+03
      1.636  0.1098E+02  0.1168E+03
      1.700  0.1192E+02  0.1175E+03
      1.763  0.1243E+02  0.1183E+03
      1.827  0.1221E+02  0.1191E+03
      1.891  0.1150E+02  0.1198E+03
      1.954  0.1116E+02  0.1206E+03
      2.018  0.1156E+02  0.1213E+03
      2.082  0.1198E+02  0.1221E+03
      2.146  0.1207E+02  0.1228E+03
      2.209  0.1272E+02  0.1236E+03
      2.273  0.1376E+02  0.1245E+03
      2.337  0.1376E+02  0.1254E+03
      2.400  0.1312E+02  0.1262E+03
      2.464  0.1281E+02  0.1270E+03
      2.528  0.1316E+02  0.1279E+03
      2.592  0.1449E+02  0.1288E+03
      2.655  0.1594E+02  0.1298E+03
      2.719  0.1643E+02  0.1309E+03
      2.783  0.1542E+02  0.1318E+03
      2.846  0.1304E+02  0.1327E+03
      2.910  0.1083E+02  0.1334E+03
      2.974  0.9408E+01  0.1340E+03
      3.038  0.8616E+01  0.1345E+03
      3.101  0.8082E+01  0.1350E+03
      3.165  0.6865E+01  0.1355E+03
      3.229  0.4739E+01  0.1358E+03
      3.292  0.2478E+01  0.1359E+03
      3.356  0.8857E+00  0.1360E+03
      3.420  0.1864E+00  0.1360E+03
      3.484  0.2044E-01  0.1360E+03
      3.547  0.1091E-02  0.1360E+03
      3.611  0.2736E-04  0.1360E+03
      3.675  0.3174E-06  0.1360E+03
      3.739  0.1684E-08  0.1360E+03
      3.802  0.4065E-11  0.1360E+03
      3.866  0.4356E-14  0.1360E+03
      3.930  0.0000E+00  0.1360E+03
      3.993  0.0000E+00  0.1360E+03
      4.057  0.0000E+00  0.1360E+03
      4.121  0.0000E+00  0.1360E+03
      4.185  0.0000E+00  0.1360E+03
      4.248  0.0000E+00  0.1360E+03
