   24   24    1    1
  0.4176334E+02  0.3540400E-09  0.1044544E-08  0.2750143E-08  0.5000000E-15
  1.000000000000000E-004
  CAR 
 unknown system                          
    108     54     68
 
  0.0000000E+00  0.0000000E+00  0.0000000E+00  0.9615385E-02
    1      -13.867291
    2      -13.545440
    3      -12.805208
    4      -12.675100
    5      -12.493707
    6      -12.215965
    7      -12.137380
    8      -12.066957
    9      -11.441419
   10      -11.197097
   11      -10.996674
   12      -10.832066
   13       -8.042985
   14       -7.838084
   15       -7.706391
   16       -7.283706
   17       -6.923045
   18       -6.777274
   19       -6.503587
   20       -6.462414
   21       -5.835646
   22       -5.679830
   23       -4.752258
   24       -4.511011
   25       -4.033316
   26       -3.703767
   27       -3.687344
   28       -3.466131
   29       -3.322234
   30       -3.094618
   31       -3.061434
   32       -2.847604
   33       -2.813802
   34       -2.600788
   35       -2.462538
   36       -2.397593
   37       -2.338509
   38       -2.150322
   39       -2.132720
   40       -2.023111
   41       -1.845486
   42       -1.746510
   43       -1.725158
   44       -1.649584
   45       -1.581958
   46       -1.537015
   47       -1.477392
   48       -1.436748
   49       -1.228235
   50       -1.120891
   51       -1.050699
   52       -0.603612
   53       -0.498779
   54        0.014662
   55        0.369003
   56        0.440924
   57        0.818141
   58        1.188741
   59        1.312208
   60        1.697544
   61        1.820846
   62        1.975280
   63        2.051558
   64        2.195251
   65        2.234175
   66        2.427756
   67        2.648365
   68        2.801883
 
  0.7692308E-01 -0.1387779E-16  0.0000000E+00  0.1923077E-01
    1      -13.806485
    2      -13.484087
    3      -12.753076
    4      -12.621119
    5      -12.438091
    6      -12.161706
    7      -12.074656
    8      -12.005535
    9      -11.392500
   10      -11.151342
   11      -10.948171
   12      -10.778443
   13       -8.078006
   14       -7.803565
   15       -7.678742
   16       -7.300642
   17       -6.896209
   18       -6.756912
   19       -6.500516
   20       -6.464507
   21       -5.802060
   22       -5.651953
   23       -4.754872
   24       -4.473820
   25       -4.102696
   26       -3.911221
   27       -3.725941
   28       -3.592865
   29       -3.507415
   30       -3.385403
   31       -3.263541
   32       -3.149529
   33       -2.990384
   34       -2.916501
   35       -2.744409
   36       -2.572943
   37       -2.481154
   38       -2.348944
   39       -2.203081
   40       -2.122815
   41       -2.063115
   42       -1.990915
   43       -1.971174
   44       -1.863103
   45       -1.840002
   46       -1.720962
   47       -1.578451
   48       -1.503517
   49       -1.358324
   50       -1.164702
   51       -0.951289
   52       -0.583171
   53       -0.299560
   54        0.084014
   55        0.487568
   56        0.591688
   57        1.075173
   58        1.571737
   59        1.753419
   60        1.950435
   61        2.129992
   62        2.204647
   63        2.286152
   64        2.445908
   65        2.539524
   66        2.595435
   67        2.716620
   68        2.774316
 
  0.1538462E+00 -0.2775558E-16  0.0000000E+00  0.1923077E-01
    1      -13.625366
    2      -13.301097
    3      -12.597382
    4      -12.460114
    5      -12.273263
    6      -12.001041
    7      -11.891449
    8      -11.825089
    9      -11.250574
   10      -11.019345
   11      -10.809017
   12      -10.621642
   13       -8.172723
   14       -7.761897
   15       -7.661845
   16       -7.343332
   17       -6.890812
   18       -6.721150
   19       -6.516814
   20       -6.480245
   21       -5.727506
   22       -5.597641
   23       -4.872519
   24       -4.782563
   25       -4.420379
   26       -4.234988
   27       -4.103796
   28       -4.057152
   29       -3.954705
   30       -3.743059
   31       -3.679523
   32       -3.613947
   33       -3.414599
   34       -3.357337
   35       -3.178548
   36       -2.999319
   37       -2.979052
   38       -2.893859
   39       -2.830216
   40       -2.510125
   41       -2.382615
   42       -2.251911
   43       -2.158879
   44       -2.058475
   45       -1.980912
   46       -1.863683
   47       -1.734431
   48       -1.641069
   49       -1.353938
   50       -1.223599
   51       -0.929943
   52       -0.685434
   53       -0.319010
   54        0.048444
   55        0.561977
   56        0.831205
   57        1.529169
   58        1.846371
   59        1.986708
   60        2.260526
   61        2.410381
   62        2.570680
   63        2.634102
   64        2.724572
   65        2.875186
   66        2.932045
   67        3.054740
   68        3.158574
 
  0.2307692E+00 -0.4163336E-16  0.0000000E+00  0.1923077E-01
    1      -13.328410
    2      -13.000047
    3      -12.341177
    4      -12.196030
    5      -12.006416
    6      -11.743038
    7      -11.603230
    8      -11.539593
    9      -11.033837
   10      -10.822410
   11      -10.605452
   12      -10.376065
   13       -8.363604
   14       -7.922585
   15       -7.827870
   16       -7.322053
   17       -7.140355
   18       -6.710853
   19       -6.641566
   20       -6.537899
   21       -5.745208
   22       -5.654860
   23       -5.416770
   24       -5.342532
   25       -4.825467
   26       -4.716316
   27       -4.611558
   28       -4.520753
   29       -4.422379
   30       -4.227574
   31       -4.170205
   32       -3.983260
   33       -3.792168
   34       -3.760918
   35       -3.513101
   36       -3.472848
   37       -3.213671
   38       -3.115224
   39       -2.986410
   40       -2.722375
   41       -2.587952
   42       -2.450969
   43       -2.329588
   44       -2.124655
   45       -1.923348
   46       -1.865646
   47       -1.776725
   48       -1.718649
   49       -1.481171
   50       -1.377021
   51       -1.097331
   52       -0.943459
   53       -0.747961
   54       -0.220722
   55        0.559048
   56        0.918889
   57        1.307633
   58        1.819264
   59        1.888933
   60        2.031722
   61        2.276313
   62        2.376152
   63        2.635955
   64        2.732696
   65        2.873710
   66        2.912227
   67        3.011010
   68        3.129147
 
  0.3076923E+00 -0.5551115E-16  0.0000000E+00  0.1923077E-01
    1      -12.925768
    2      -12.588238
    3      -11.992901
    4      -11.840434
    5      -11.654313
    6      -11.411442
    7      -11.244919
    8      -11.183801
    9      -10.789746
   10      -10.620865
   11      -10.419291
   12      -10.074627
   13       -8.658598
   14       -8.443633
   15       -8.088863
   16       -7.713892
   17       -7.249415
   18       -7.000767
   19       -6.910101
   20       -6.788067
   21       -6.219086
   22       -6.166164
   23       -5.968893
   24       -5.744131
   25       -5.218265
   26       -5.066836
   27       -4.897665
   28       -4.790711
   29       -4.701858
   30       -4.399530
   31       -4.310758
   32       -4.221700
   33       -4.187980
   34       -3.932727
   35       -3.428431
   36       -3.381488
   37       -3.183856
   38       -3.099889
   39       -3.020050
   40       -2.893767
   41       -2.785662
   42       -2.608288
   43       -2.357329
   44       -2.195770
   45       -2.073933
   46       -1.934757
   47       -1.890663
   48       -1.838434
   49       -1.720423
   50       -1.499805
   51       -1.375153
   52       -1.240766
   53       -1.177130
   54       -0.678031
   55        0.655103
   56        0.848654
   57        1.117518
   58        1.582950
   59        1.691908
   60        1.828383
   61        2.001964
   62        2.212239
   63        2.304223
   64        2.357483
   65        2.657336
   66        2.716351
   67        2.814048
   68        3.045836
 
  0.3846154E+00 -0.8326673E-16  0.0000000E+00  0.1923077E-01
    1      -12.442260
    2      -12.079848
    3      -11.573713
    4      -11.430902
    5      -11.255489
    6      -11.074305
    7      -10.906919
    8      -10.845934
    9      -10.635929
   10      -10.543079
   11      -10.459525
   12       -9.786123
   13       -8.903964
   14       -8.834776
   15       -8.381412
   16       -8.218325
   17       -7.544260
   18       -7.463446
   19       -7.419404
   20       -7.159808
   21       -6.829488
   22       -6.763697
   23       -6.666184
   24       -6.245309
   25       -5.241996
   26       -5.211698
   27       -4.838820
   28       -4.636146
   29       -4.533024
   30       -4.307451
   31       -4.211026
   32       -4.094060
   33       -4.027890
   34       -3.826268
   35       -3.659012
   36       -3.455604
   37       -3.273319
   38       -3.220661
   39       -3.155817
   40       -2.919683
   41       -2.799199
   42       -2.565813
   43       -2.508750
   44       -2.424920
   45       -2.309036
   46       -2.173026
   47       -2.038778
   48       -1.968586
   49       -1.825935
   50       -1.775191
   51       -1.602740
   52       -1.397185
   53       -1.296169
   54       -1.056354
   55        0.626786
   56        0.842102
   57        1.007459
   58        1.396607
   59        1.569647
   60        1.680511
   61        1.775456
   62        2.023525
   63        2.068339
   64        2.246798
   65        2.293495
   66        2.489000
   67        2.693301
   68        2.809368
 
  0.4615385E+00 -0.8326673E-16  0.0000000E+00  0.1923077E-01
    1      -11.968726
    2      -11.506111
    3      -11.214094
    4      -11.150129
    5      -10.949045
    6      -10.867335
    7      -10.850204
    8      -10.730235
    9      -10.704620
   10      -10.643041
   11      -10.599711
   12       -9.619573
   13       -9.090893
   14       -8.693460
   15       -8.445580
   16       -8.421732
   17       -8.083989
   18       -8.011442
   19       -7.577188
   20       -7.314194
   21       -7.283698
   22       -7.202635
   23       -7.177658
   24       -6.779277
   25       -5.014349
   26       -4.918267
   27       -4.609584
   28       -4.504522
   29       -4.294258
   30       -4.247353
   31       -4.065212
   32       -3.960405
   33       -3.895414
   34       -3.834517
   35       -3.769850
   36       -3.588501
   37       -3.431169
   38       -3.320811
   39       -3.254765
   40       -3.012641
   41       -2.910818
   42       -2.767367
   43       -2.693030
   44       -2.584270
   45       -2.365752
   46       -2.221635
   47       -2.143018
   48       -2.049392
   49       -1.914595
   50       -1.741854
   51       -1.677661
   52       -1.547054
   53       -1.498753
   54       -1.076459
   55        0.474633
   56        0.871002
   57        0.972593
   58        1.359405
   59        1.496621
   60        1.595174
   61        1.698732
   62        1.849592
   63        1.968896
   64        2.061681
   65        2.349229
   66        2.440621
   67        2.522842
   68        2.693766
 
  0.0000000E+00  0.2500000E+00  0.0000000E+00  0.1923077E-01
    1      -13.853015
    2      -13.490152
    3      -12.979217
    4      -12.783191
    5      -12.492253
    6      -12.224411
    7      -11.956205
    8      -11.867774
    9      -11.486228
   10      -11.254760
   11      -11.005405
   12      -10.817634
   13       -8.521069
   14       -7.862270
   15       -7.464754
   16       -7.354317
   17       -6.751031
   18       -6.675333
   19       -6.593312
   20       -6.281960
   21       -5.756872
   22       -5.587289
   23       -4.650097
   24       -4.315063
   25       -4.125799
   26       -4.017612
   27       -3.645509
   28       -3.624108
   29       -3.361054
   30       -3.301984
   31       -3.132723
   32       -2.851215
   33       -2.713156
   34       -2.549470
   35       -2.400821
   36       -2.392940
   37       -2.319366
   38       -2.180739
   39       -2.154343
   40       -2.074813
   41       -1.963272
   42       -1.889248
   43       -1.847422
   44       -1.636196
   45       -1.552366
   46       -1.434620
   47       -1.400183
   48       -1.366777
   49       -1.167121
   50       -1.125873
   51       -1.030494
   52       -0.797030
   53       -0.482002
   54        0.034093
   55        0.375984
   56        0.591532
   57        1.071647
   58        1.209565
   59        1.387893
   60        1.717991
   61        1.770322
   62        1.988989
   63        2.044447
   64        2.252316
   65        2.284154
   66        2.552374
   67        2.650792
   68        2.810246
 
  0.7692308E-01  0.2500000E+00  0.0000000E+00  0.1923077E-01
    1      -13.789223
    2      -13.413325
    3      -12.960101
    4      -12.745701
    5      -12.435189
    6      -12.169041
    7      -11.867816
    8      -11.768860
    9      -11.444836
   10      -11.216285
   11      -10.961064
   12      -10.765066
   13       -8.579439
   14       -7.873481
   15       -7.464668
   16       -7.316580
   17       -6.721493
   18       -6.679020
   19       -6.528797
   20       -6.252031
   21       -5.708023
   22       -5.541919
   23       -4.694904
   24       -4.379370
   25       -4.150208
   26       -4.098200
   27       -3.925203
   28       -3.658966
   29       -3.548411
   30       -3.424875
   31       -3.372752
   32       -3.033919
   33       -2.943593
   34       -2.873215
   35       -2.681665
   36       -2.599264
   37       -2.485948
   38       -2.412304
   39       -2.311922
   40       -2.236643
   41       -2.156256
   42       -2.073230
   43       -2.004385
   44       -1.843407
   45       -1.752894
   46       -1.744549
   47       -1.573851
   48       -1.412208
   49       -1.344654
   50       -1.095900
   51       -0.937760
   52       -0.706981
   53       -0.310206
   54        0.104935
   55        0.402561
   56        0.846249
   57        1.262878
   58        1.606706
   59        1.773710
   60        1.928170
   61        2.104862
   62        2.221549
   63        2.435348
   64        2.497071
   65        2.592157
   66        2.652924
   67        2.777857
   68        2.956368
 
  0.1538462E+00  0.2500000E+00  0.0000000E+00  0.1923077E-01
    1      -13.606306
    2      -13.216792
    3      -12.823550
    4      -12.589781
    5      -12.268821
    6      -12.006282
    7      -11.681828
    8      -11.571382
    9      -11.305381
   10      -11.078038
   11      -10.819740
   12      -10.611926
   13       -8.644944
   14       -7.933624
   15       -7.406492
   16       -7.286760
   17       -6.692765
   18       -6.656248
   19       -6.501609
   20       -6.330181
   21       -5.660485
   22       -5.531865
   23       -4.915809
   24       -4.840538
   25       -4.406499
   26       -4.363247
   27       -4.303212
   28       -4.107487
   29       -3.975495
   30       -3.774424
   31       -3.627030
   32       -3.475193
   33       -3.367643
   34       -3.201824
   35       -3.124970
   36       -2.992755
   37       -2.963738
   38       -2.842532
   39       -2.762634
   40       -2.609848
   41       -2.533179
   42       -2.354094
   43       -2.299528
   44       -2.137700
   45       -1.980824
   46       -1.918858
   47       -1.814382
   48       -1.496704
   49       -1.387735
   50       -1.153339
   51       -0.911202
   52       -0.677442
   53       -0.342837
   54        0.068977
   55        0.288942
   56        1.122146
   57        1.667384
   58        1.699104
   59        1.939650
   60        2.118460
   61        2.336759
   62        2.585255
   63        2.729628
   64        2.859212
   65        2.949651
   66        3.056200
   67        3.118679
   68        3.244609
 
  0.2307692E+00  0.2500000E+00  0.0000000E+00  0.1923077E-01
    1      -13.309065
    2      -12.905409
    3      -12.572102
    4      -12.319398
    5      -12.000991
    6      -11.745721
    7      -11.417602
    8      -11.294974
    9      -11.083709
   10      -10.856471
   11      -10.602247
   12      -10.370054
   13       -8.776115
   14       -8.178663
   15       -7.403975
   16       -7.273784
   17       -6.871491
   18       -6.702315
   19       -6.654989
   20       -6.551844
   21       -5.852116
   22       -5.808484
   23       -5.316839
   24       -5.210813
   25       -5.038022
   26       -4.863769
   27       -4.674259
   28       -4.564806
   29       -4.455095
   30       -4.216083
   31       -4.026830
   32       -3.814941
   33       -3.730200
   34       -3.634431
   35       -3.394601
   36       -3.227799
   37       -3.177856
   38       -3.095393
   39       -2.948166
   40       -2.856832
   41       -2.659719
   42       -2.530588
   43       -2.343580
   44       -2.285563
   45       -1.999129
   46       -1.918807
   47       -1.842008
   48       -1.751782
   49       -1.411200
   50       -1.397437
   51       -1.061357
   52       -0.911075
   53       -0.760721
   54       -0.205199
   55        0.212300
   56        0.988567
   57        1.338809
   58        1.471551
   59        1.620893
   60        1.891021
   61        2.245344
   62        2.525464
   63        2.618956
   64        2.702594
   65        2.813170
   66        3.026577
   67        3.185256
   68        3.229535
 
  0.3076923E+00  0.2500000E+00  0.0000000E+00  0.1923077E-01
    1      -12.908037
    2      -12.488695
    3      -12.212961
    4      -11.945937
    5      -11.649264
    6      -11.408819
    7      -11.121035
    8      -10.981677
    9      -10.820499
   10      -10.607182
   11      -10.396346
   12      -10.067154
   13       -8.975466
   14       -8.620371
   15       -7.711742
   16       -7.476284
   17       -7.290183
   18       -7.117195
   19       -6.967673
   20       -6.853753
   21       -6.306520
   22       -6.185701
   23       -5.923516
   24       -5.634618
   25       -5.389291
   26       -5.312221
   27       -4.953321
   28       -4.886185
   29       -4.490003
   30       -4.407495
   31       -4.322258
   32       -4.046298
   33       -4.009047
   34       -3.678157
   35       -3.382745
   36       -3.328024
   37       -3.039036
   38       -3.012203
   39       -2.938626
   40       -2.860177
   41       -2.804646
   42       -2.532950
   43       -2.503875
   44       -2.366005
   45       -2.209489
   46       -1.990406
   47       -1.908574
   48       -1.884572
   49       -1.750125
   50       -1.578766
   51       -1.383004
   52       -1.229829
   53       -1.183555
   54       -0.682245
   55        0.322354
   56        0.769769
   57        1.024803
   58        1.231625
   59        1.314728
   60        1.737719
   61        2.137834
   62        2.183532
   63        2.340623
   64        2.440334
   65        2.610397
   66        2.809671
   67        2.945515
   68        3.123707
 
  0.3846154E+00  0.2500000E+00  0.0000000E+00  0.1923077E-01
    1      -12.428699
    2      -11.985142
    3      -11.762848
    4      -11.502381
    5      -11.253097
    6      -11.052972
    7      -10.906326
    8      -10.724902
    9      -10.611699
   10      -10.474963
   11      -10.470505
   12       -9.778447
   13       -8.966230
   14       -8.946500
   15       -8.117456
   16       -8.073123
   17       -7.809328
   18       -7.781032
   19       -7.363971
   20       -7.076180
   21       -6.745150
   22       -6.700828
   23       -6.660360
   24       -6.297991
   25       -5.349491
   26       -5.277750
   27       -4.979825
   28       -4.793245
   29       -4.504141
   30       -4.271988
   31       -4.132961
   32       -3.945639
   33       -3.865767
   34       -3.649059
   35       -3.364275
   36       -3.343930
   37       -3.273122
   38       -3.200461
   39       -3.123290
   40       -2.924650
   41       -2.721507
   42       -2.617174
   43       -2.554062
   44       -2.439397
   45       -2.338953
   46       -2.204639
   47       -2.098378
   48       -2.087498
   49       -1.939805
   50       -1.833108
   51       -1.659657
   52       -1.433904
   53       -1.334690
   54       -1.031646
   55        0.423873
   56        0.651118
   57        0.957968
   58        1.198432
   59        1.325734
   60        1.577755
   61        1.820194
   62        1.961954
   63        2.084919
   64        2.134004
   65        2.582498
   66        2.640735
   67        2.759993
   68        2.883481
 
  0.4615385E+00  0.2500000E+00  0.0000000E+00  0.1923077E-01
    1      -11.963496
    2      -11.435454
    3      -11.267225
    4      -11.210332
    5      -10.962358
    6      -10.904083
    7      -10.871853
    8      -10.724315
    9      -10.700523
   10      -10.589097
   11      -10.559158
   12       -9.632496
   13       -8.958908
   14       -8.560646
   15       -8.444484
   16       -8.404730
   17       -8.331011
   18       -8.196117
   19       -7.523441
   20       -7.323486
   21       -7.244579
   22       -7.146898
   23       -7.108313
   24       -6.827963
   25       -5.026305
   26       -4.980227
   27       -4.723532
   28       -4.480082
   29       -4.292447
   30       -4.217661
   31       -4.139838
   32       -3.947080
   33       -3.873881
   34       -3.730429
   35       -3.663325
   36       -3.511982
   37       -3.406008
   38       -3.290733
   39       -3.249017
   40       -2.995872
   41       -2.884347
   42       -2.676375
   43       -2.608335
   44       -2.545648
   45       -2.445375
   46       -2.216105
   47       -2.192129
   48       -2.131611
   49       -2.020978
   50       -1.877914
   51       -1.681444
   52       -1.584909
   53       -1.493176
   54       -1.028610
   55        0.418238
   56        0.739120
   57        1.010899
   58        1.401119
   59        1.482611
   60        1.535193
   61        1.563588
   62        1.785670
   63        1.924631
   64        2.119047
   65        2.434439
   66        2.463064
   67        2.684502
   68        2.727191
 
 -0.4615385E+00  0.2500000E+00  0.0000000E+00  0.1923077E-01
    1      -11.973759
    2      -11.539780
    3      -11.197134
    4      -11.073158
    5      -10.934631
    6      -10.858129
    7      -10.818973
    8      -10.758375
    9      -10.721494
   10      -10.702266
   11      -10.606719
   12       -9.620774
   13       -9.127455
   14       -8.761910
   15       -8.439281
   16       -8.397499
   17       -7.949297
   18       -7.936688
   19       -7.610097
   20       -7.421374
   21       -7.283667
   22       -7.226632
   23       -7.212089
   24       -6.700478
   25       -4.976653
   26       -4.733966
   27       -4.588437
   28       -4.524184
   29       -4.362759
   30       -4.337874
   31       -4.051771
   32       -4.011747
   33       -3.980808
   34       -3.887121
   35       -3.670586
   36       -3.653233
   37       -3.539589
   38       -3.394053
   39       -3.332258
   40       -2.977776
   41       -2.812453
   42       -2.703085
   43       -2.599140
   44       -2.524791
   45       -2.390383
   46       -2.185050
   47       -2.179103
   48       -2.066055
   49       -1.936154
   50       -1.806630
   51       -1.699077
   52       -1.496236
   53       -1.461870
   54       -1.036982
   55        0.490967
   56        0.788896
   57        1.054914
   58        1.353624
   59        1.562258
   60        1.683724
   61        1.743636
   62        1.797532
   63        2.021678
   64        2.218704
   65        2.352753
   66        2.499574
   67        2.535913
   68        2.611715
 
 -0.3846154E+00  0.2500000E+00  0.0000000E+00  0.1923077E-01
    1      -12.447860
    2      -12.106378
    3      -11.488779
    4      -11.389237
    5      -11.253353
    6      -11.063309
    7      -10.975239
    8      -10.921496
    9      -10.638322
   10      -10.534237
   11      -10.455122
   12       -9.775769
   13       -8.938073
   14       -8.746434
   15       -8.495425
   16       -8.210355
   17       -7.453089
   18       -7.396702
   19       -7.335859
   20       -7.255600
   21       -6.882292
   22       -6.812792
   23       -6.670563
   24       -6.191564
   25       -5.219080
   26       -5.056479
   27       -4.861850
   28       -4.740855
   29       -4.417455
   30       -4.371818
   31       -4.250532
   32       -4.099087
   33       -4.048612
   34       -3.807175
   35       -3.725556
   36       -3.578109
   37       -3.409843
   38       -3.220401
   39       -3.178638
   40       -3.013128
   41       -2.752031
   42       -2.549750
   43       -2.502194
   44       -2.349781
   45       -2.269007
   46       -2.171466
   47       -1.957407
   48       -1.948751
   49       -1.815172
   50       -1.748661
   51       -1.639488
   52       -1.388488
   53       -1.228232
   54       -1.035951
   55        0.622872
   56        0.821647
   57        1.077522
   58        1.366797
   59        1.660631
   60        1.783231
   61        1.886664
   62        2.102211
   63        2.246602
   64        2.260554
   65        2.386281
   66        2.434943
   67        2.604289
   68        2.704523
 
 -0.3076923E+00  0.2500000E+00  0.0000000E+00  0.1923077E-01
    1      -12.928511
    2      -12.600519
    3      -11.951225
    4      -11.820209
    5      -11.653538
    6      -11.386174
    7      -11.303858
    8      -11.229995
    9      -10.781499
   10      -10.610767
   11      -10.425274
   12      -10.067327
   13       -8.559604
   14       -8.463287
   15       -8.191509
   16       -7.716842
   17       -7.198481
   18       -7.004868
   19       -6.883835
   20       -6.787011
   21       -6.245255
   22       -6.159916
   23       -5.977817
   24       -5.747652
   25       -5.158711
   26       -5.041888
   27       -4.910272
   28       -4.851684
   29       -4.648011
   30       -4.402055
   31       -4.306385
   32       -4.246243
   33       -4.198099
   34       -3.959719
   35       -3.490114
   36       -3.444740
   37       -3.193787
   38       -3.101207
   39       -3.046297
   40       -2.885378
   41       -2.785993
   42       -2.610384
   43       -2.318105
   44       -2.096387
   45       -2.019772
   46       -1.973989
   47       -1.875822
   48       -1.844722
   49       -1.720078
   50       -1.531131
   51       -1.404123
   52       -1.285718
   53       -1.080174
   54       -0.676789
   55        0.597532
   56        0.925912
   57        1.173974
   58        1.593362
   59        1.710781
   60        1.934202
   61        1.995640
   62        2.246895
   63        2.312699
   64        2.407292
   65        2.654198
   66        2.731007
   67        2.779075
   68        3.043586
 
 -0.2307692E+00  0.2500000E+00  0.0000000E+00  0.1923077E-01
    1      -13.326995
    2      -12.995814
    3      -12.355844
    4      -12.207677
    5      -12.006251
    6      -11.735100
    7      -11.596688
    8      -11.524990
    9      -11.037546
   10      -10.823058
   11      -10.604077
   12      -10.370017
   13       -8.403821
   14       -7.994496
   15       -7.787075
   16       -7.276527
   17       -7.101731
   18       -6.704851
   19       -6.644879
   20       -6.518045
   21       -5.747213
   22       -5.697865
   23       -5.429017
   24       -5.337780
   25       -4.845299
   26       -4.740139
   27       -4.607035
   28       -4.522901
   29       -4.417147
   30       -4.198249
   31       -4.145543
   32       -3.979127
   33       -3.807329
   34       -3.772606
   35       -3.502913
   36       -3.453012
   37       -3.213956
   38       -3.112747
   39       -2.986384
   40       -2.722123
   41       -2.600831
   42       -2.455777
   43       -2.370098
   44       -2.077690
   45       -1.918305
   46       -1.855387
   47       -1.779501
   48       -1.717560
   49       -1.478589
   50       -1.393315
   51       -1.091074
   52       -0.975439
   53       -0.721026
   54       -0.210611
   55        0.423341
   56        1.034174
   57        1.365735
   58        1.767571
   59        1.854760
   60        2.010686
   61        2.249283
   62        2.367369
   63        2.619965
   64        2.723776
   65        2.902479
   66        2.935576
   67        3.010274
   68        3.132766
 
 -0.1538462E+00  0.2500000E+00  0.0000000E+00  0.1923077E-01
    1      -13.619397
    2      -13.279637
    3      -12.671124
    4      -12.507731
    5      -12.273167
    6      -12.003430
    7      -11.816624
    8      -11.742795
    9      -11.269844
   10      -11.039443
   11      -10.807093
   12      -10.612890
   13       -8.383995
   14       -7.812459
   15       -7.544295
   16       -7.310197
   17       -6.810306
   18       -6.664357
   19       -6.559302
   20       -6.433161
   21       -5.701907
   22       -5.580514
   23       -4.867901
   24       -4.841850
   25       -4.349970
   26       -4.293569
   27       -4.170589
   28       -4.079758
   29       -3.923841
   30       -3.815059
   31       -3.693725
   32       -3.527253
   33       -3.440690
   34       -3.330127
   35       -3.169569
   36       -3.015772
   37       -2.921373
   38       -2.865594
   39       -2.790153
   40       -2.539631
   41       -2.497148
   42       -2.343292
   43       -2.184731
   44       -2.014896
   45       -1.980587
   46       -1.835507
   47       -1.739415
   48       -1.603960
   49       -1.336110
   50       -1.211374
   51       -0.923141
   52       -0.714474
   53       -0.331636
   54        0.077639
   55        0.368736
   56        1.038960
   57        1.601108
   58        1.779195
   59        1.875952
   60        2.207649
   61        2.445334
   62        2.602943
   63        2.722706
   64        2.785500
   65        2.907592
   66        2.944451
   67        3.080404
   68        3.142567
 
 -0.7692308E-01  0.2500000E+00  0.0000000E+00  0.1923077E-01
    1      -13.796100
    2      -13.445431
    3      -12.881618
    4      -12.702540
    5      -12.437596