 running on    8 total cores
 distrk:  each k-point on    8 cores,    1 groups
 distr:  one band on    2 cores,    4 groups
 using from now: INCAR     
 vasp.5.3.5 31Mar14 (build Oct 29 2014 16:16:03) complex                        
  
 POSCAR found type information on POSCAR  P  Si
 POSCAR found :  2 types and      24 ions
 scaLAPACK will be used

 ----------------------------------------------------------------------------- 
|                                                                             |
|  ADVICE TO THIS USER RUNNING 'VASP/VAMP'   (HEAR YOUR MASTER'S VOICE ...):  |
|                                                                             |
|      You have switched on vdW-DFT.                                          |
|      This routine was written and supplied by Jiri Klimes.                  |
|      We recommed that you carefully read and cite the following             |
|      publication                                                            |
|      J. Klimes, D.R. Bowler, A. Michelides                                  |
|        J. Phys.: Cond Matt. 22 022201 (2010)                                |
|      J. Klimes, D.R. Bowler, A. Michelides                                  |
|        Phys. Rev. B. 83, 195131 (2011)                                      |
|      and references therein.                                                |
|                                                                             |
 ----------------------------------------------------------------------------- 


 ----------------------------------------------------------------------------- 
|                                                                             |
|  ADVICE TO THIS USER RUNNING 'VASP/VAMP'   (HEAR YOUR MASTER'S VOICE ...):  |
|                                                                             |
|      You enforced a specific xc-type in the INCAR file,                     |
|      a different type was found on the POTCAR file                          |
|          I HOPE YOU KNOW, WHAT YOU ARE  DOING                               |
|                                                                             |
 ----------------------------------------------------------------------------- 

 LDA part: xc-table for Pade appr. of Perdew


 VERY BAD NEWS! internal error in subroutine IBZKPT:
 Reciprocal lattice and k-lattice belong to different class of lattices. Often results are still useful...      96


 VERY BAD NEWS! internal error in subroutine IBZKPT:
 Reciprocal lattice and k-lattice belong to different class of lattices. Often results are still useful...      96


 VERY BAD NEWS! internal error in subroutine IBZKPT:
 Reciprocal lattice and k-lattice belong to different class of lattices. Often results are still useful...      96


 VERY BAD NEWS! internal error in subroutine IBZKPT:
 Reciprocal lattice and k-lattice belong to different class of lattices. Often results are still useful...      96


 VERY BAD NEWS! internal error in subroutine IBZKPT:
 Reciprocal lattice and k-lattice belong to different class of lattices. Often results are still useful...      96


 VERY BAD NEWS! internal error in subroutine IBZKPT:
 Reciprocal lattice and k-lattice belong to different class of lattices. Often results are still useful...      96


 VERY BAD NEWS! internal error in subroutine IBZKPT:
 Reciprocal lattice and k-lattice belong to different class of lattices. Often results are still useful...      96


 VERY BAD NEWS! internal error in subroutine IBZKPT:
 Reciprocal lattice and k-lattice belong to different class of lattices. Often results are still useful...      96
 POSCAR, INCAR and KPOINTS ok, starting setup
 WARNING: small aliasing (wrap around) errors must be expected
 FFT: planning ...
 WAVECAR not read
 entering main loop
       N       E                     dE             d eps       ncg     rms          rms(c)
Total vdW correction in eV:     15.8746427
DAV:   1     0.483259891594E+03    0.48326E+03   -0.28591E+04  7344   0.790E+02
DAV:   2    -0.719799748282E+02   -0.55524E+03   -0.54031E+03  9788   0.188E+02
DAV:   3    -0.127123980419E+03   -0.55144E+02   -0.54421E+02  8836   0.615E+01
DAV:   4    -0.129548256063E+03   -0.24243E+01   -0.24127E+01 10904   0.138E+01
DAV:   5    -0.129607730357E+03   -0.59474E-01   -0.59420E-01 10016   0.212E+00    0.965E+00
Total vdW correction in eV:     16.2913409
DAV:   6    -0.127974442205E+03    0.16333E+01   -0.32635E+00  8872   0.453E+00    0.549E+00
Total vdW correction in eV:     16.8231257
DAV:   7    -0.127716392207E+03    0.25805E+00   -0.26402E+00  8856   0.425E+00    0.154E+00
Total vdW correction in eV:     16.9514369
DAV:   8    -0.127711275117E+03    0.51171E-02   -0.34785E-01  9144   0.182E+00    0.725E-01
Total vdW correction in eV:     17.0182207
DAV:   9    -0.127680209618E+03    0.31065E-01   -0.60156E-02  8888   0.768E-01    0.212E-01
Total vdW correction in eV:     17.0407869
DAV:  10    -0.127667269485E+03    0.12940E-01   -0.10203E-02  9136   0.328E-01    0.851E-02
Total vdW correction in eV:     17.0488194
DAV:  11    -0.127661269100E+03    0.60004E-02   -0.22128E-03  9008   0.146E-01    0.405E-02
Total vdW correction in eV:     17.0545326
DAV:  12    -0.127657672776E+03    0.35963E-02   -0.41681E-04  9064   0.643E-02    0.212E-02
Total vdW correction in eV:     17.0600090
DAV:  13    -0.127655685795E+03    0.19870E-02   -0.15120E-04  9736   0.358E-02    0.112E-02
Total vdW correction in eV:     17.0636619
DAV:  14    -0.127655136668E+03    0.54913E-03   -0.60073E-05  8784   0.225E-02    0.734E-03
Total vdW correction in eV:     17.0658731
DAV:  15    -0.127655459315E+03   -0.32265E-03   -0.58305E-05  8152   0.185E-02    0.421E-03
Total vdW correction in eV:     17.0666760
DAV:  16    -0.127656017761E+03   -0.55845E-03   -0.16903E-04  8440   0.232E-02    0.248E-03
Total vdW correction in eV:     17.0665706
DAV:  17    -0.127656123057E+03   -0.10530E-03   -0.50425E-05  7664   0.125E-02    0.141E-03
Total vdW correction in eV:     17.0662376
DAV:  18    -0.127656178169E+03   -0.55112E-04   -0.16956E-05  6576   0.982E-03    0.103E-03
Total vdW correction in eV:     17.0660377
DAV:  19    -0.127656210304E+03   -0.32135E-04   -0.25672E-05  7088   0.942E-03    0.645E-04
Total vdW correction in eV:     17.0658922
DAV:  20    -0.127656141112E+03    0.69193E-04   -0.23340E-05  7000   0.106E-02    0.417E-04
Total vdW correction in eV:     17.0658569
DAV:  21    -0.127656102938E+03    0.38174E-04   -0.81656E-06  6056   0.876E-03    0.240E-04
Total vdW correction in eV:     17.0658502
DAV:  22    -0.127656067146E+03    0.35792E-04   -0.51409E-06  6264   0.698E-03    0.131E-04
Total vdW correction in eV:     17.0658489
DAV:  23    -0.127656047942E+03    0.19204E-04   -0.42923E-06  6608   0.658E-03    0.676E-05
Total vdW correction in eV:     17.0658483
DAV:  24    -0.127656039024E+03    0.89172E-05   -0.58774E-06  6672   0.740E-03    0.397E-05
Total vdW correction in eV:     17.0658485
DAV:  25    -0.127656037842E+03    0.11821E-05   -0.20883E-06  6376   0.525E-03    0.195E-05
Total vdW correction in eV:     17.0658483
DAV:  26    -0.127656038513E+03   -0.67066E-06   -0.18929E-06  5520   0.491E-03
Total vdW correction in eV:     17.0658471
Total vdW correction in eV:     17.0658475
   1 F= -.12765604E+03 E0= -.12764699E+03  d E =-.180919E-01
