       N       E                     dE             d eps       ncg     rms          rms(c)
DAV:   1     0.530163449073E+03    0.53016E+03   -0.28742E+04  7360   0.790E+02
DAV:   2    -0.384018874027E+02   -0.56857E+03   -0.55387E+03  9812   0.191E+02
DAV:   3    -0.972661489630E+02   -0.58864E+02   -0.57994E+02  8996   0.634E+01
DAV:   4    -0.100306278894E+03   -0.30401E+01   -0.30177E+01 11808   0.152E+01
DAV:   5    -0.100353403274E+03   -0.47124E-01   -0.47067E-01 10200   0.200E+00    0.132E+01
DAV:   6    -0.950003502542E+02    0.53531E+01   -0.12617E+01  9120   0.118E+01    0.650E+00
DAV:   7    -0.953335313016E+02   -0.33318E+00   -0.13608E+01  8824   0.875E+00    0.332E+00
DAV:   8    -0.951978036050E+02    0.13573E+00   -0.20949E+00  8960   0.426E+00    0.199E+00
DAV:   9    -0.951995546409E+02   -0.17510E-02   -0.71866E-01  8888   0.213E+00    0.859E-01
DAV:  10    -0.952034628971E+02   -0.39083E-02   -0.12832E-01  8864   0.105E+00    0.353E-01
DAV:  11    -0.951980382296E+02    0.54247E-02   -0.36410E-02  8920   0.518E-01    0.162E-01
DAV:  12    -0.951851030278E+02    0.12935E-01   -0.76125E-03  8680   0.263E-01    0.636E-02
DAV:  13    -0.951803874509E+02    0.47156E-02   -0.11302E-03  9384   0.103E-01    0.297E-02
DAV:  14    -0.951776289349E+02    0.27585E-02   -0.23060E-04  9816   0.451E-02    0.166E-02
DAV:  15    -0.951761659556E+02    0.14630E-02   -0.81654E-05  9304   0.263E-02    0.973E-03
DAV:  16    -0.951759561166E+02    0.20984E-03   -0.46620E-05  8424   0.208E-02    0.604E-03
DAV:  17    -0.951766746552E+02   -0.71854E-03   -0.13112E-04  8280   0.244E-02    0.328E-03
DAV:  18    -0.951769456035E+02   -0.27095E-03   -0.11766E-04  7816   0.188E-02    0.200E-03
DAV:  19    -0.951769775123E+02   -0.31909E-04   -0.26945E-05  7472   0.113E-02    0.119E-03
DAV:  20    -0.951770034993E+02   -0.25987E-04   -0.25953E-05  6840   0.111E-02    0.911E-04
DAV:  21    -0.951769900640E+02    0.13435E-04   -0.12276E-05  6680   0.877E-03    0.503E-04
DAV:  22    -0.951769626312E+02    0.27433E-04   -0.29433E-05  7344   0.976E-03    0.403E-04
DAV:  23    -0.951769268027E+02    0.35828E-04   -0.21344E-05  6668   0.114E-02    0.178E-04
DAV:  24    -0.951768880885E+02    0.38714E-04   -0.85810E-06  6928   0.773E-03    0.109E-04
DAV:  25    -0.951768871721E+02    0.91632E-06   -0.73176E-06  6300   0.767E-03
   1 F= -.95176887E+02 E0= -.95164780E+02  d E =-.242134E-01
