<?xml version="1.0" encoding="ISO-8859-1"?>
<modeling>
 <generator>
  <i name="program" type="string">vasp </i>
  <i name="version" type="string">5.4.1  </i>
  <i name="subversion" type="string">24Jun15 (build May 10 2016 14:18:23) complex                          parallel </i>
  <i name="platform" type="string">IFC91_ompi </i>
  <i name="date" type="string">2016 12 09 </i>
  <i name="time" type="string">14:22:24 </i>
 </generator>
 <incar>
  <i type="string" name="PREC">accurate</i>
  <i type="string" name="ALGO"> Fast</i>
  <i type="int" name="ISPIN">     2</i>
  <i type="int" name="IBRION">     2</i>
  <i name="EDIFF">      0.00010000</i>
  <i type="int" name="NSW">     0</i>
  <i type="int" name="ISIF">     3</i>
  <i name="ENCUT">    500.00000000</i>
  <v name="MAGMOM">      6.00000000      0.50000000      0.50000000      6.00000000      0.50000000      0.50000000</v>
  <i type="string" name="LREAL"> Auto</i>
  <i type="int" name="ISMEAR">     1</i>
  <i name="SIGMA">      0.10000000</i>
  <i type="logical" name="LWAVE"> F  </i>
  <i type="logical" name="LCHARG"> F  </i>
  <i type="logical" name="LVTOT"> T  </i>
  <i type="logical" name="LVHAR"> T  </i>
  <i type="logical" name="LAECHG"> F  </i>
  <v type="int" name="KPOINT_BSE">    -1     0     0     0</v>
  <i type="string" name="GGA"> Bo</i>
  <i name="PARAM1">      0.18333333</i>
  <i name="PARAM2">      0.22000000</i>
  <i type="logical" name="LUSE_VDW"> T  </i>
  <i name="AGGAC">      0.00000000</i>
 </incar>
 <kpoints>
  <generation param="Gamma">
   <v type="int" name="divisions">      13       13        1 </v>
   <v name="usershift">      0.00000000       0.00000000       0.00000000 </v>
   <v name="genvec1">      0.07692308       0.00000000       0.00000000 </v>
   <v name="genvec2">      0.00000000       0.07692308       0.00000000 </v>
   <v name="genvec3">      0.00000000       0.00000000       1.00000000 </v>
   <v name="shift">      0.00000000       0.00000000       0.00000000 </v>
  </generation>
  <varray name="kpointlist" >
   <v>       0.00000000       0.00000000       0.00000000 </v>
   <v>       0.07692308      -0.00000000       0.00000000 </v>
   <v>       0.15384615       0.00000000       0.00000000 </v>
   <v>       0.23076923       0.00000000       0.00000000 </v>
   <v>       0.30769231      -0.00000000       0.00000000 </v>
   <v>       0.38461538       0.00000000       0.00000000 </v>
   <v>       0.46153846       0.00000000       0.00000000 </v>
   <v>       0.00000000       0.07692308       0.00000000 </v>
   <v>       0.07692308       0.07692308       0.00000000 </v>
   <v>       0.15384615       0.07692308       0.00000000 </v>
   <v>       0.23076923       0.07692308       0.00000000 </v>
   <v>       0.30769231       0.07692308       0.00000000 </v>
   <v>       0.38461538       0.07692308       0.00000000 </v>
   <v>       0.46153846       0.07692308       0.00000000 </v>
   <v>      -0.46153846       0.07692308       0.00000000 </v>
   <v>      -0.38461538       0.07692308       0.00000000 </v>
   <v>      -0.30769231       0.07692308       0.00000000 </v>
   <v>      -0.23076923       0.07692308       0.00000000 </v>
   <v>      -0.15384615       0.07692308       0.00000000 </v>
   <v>      -0.07692308       0.07692308       0.00000000 </v>
   <v>       0.00000000       0.15384615       0.00000000 </v>
   <v>       0.07692308       0.15384615       0.00000000 </v>
   <v>       0.15384615       0.15384615       0.00000000 </v>
   <v>       0.23076923       0.15384615       0.00000000 </v>
   <v>       0.30769231       0.15384615       0.00000000 </v>
   <v>       0.38461538       0.15384615       0.00000000 </v>
   <v>       0.46153846       0.15384615       0.00000000 </v>
   <v>      -0.46153846       0.15384615       0.00000000 </v>
   <v>      -0.38461538       0.15384615       0.00000000 </v>
   <v>      -0.30769231       0.15384615       0.00000000 </v>
   <v>      -0.23076923       0.15384615       0.00000000 </v>
   <v>      -0.15384615       0.15384615       0.00000000 </v>
   <v>      -0.07692308       0.15384615       0.00000000 </v>
   <v>       0.00000000       0.23076923       0.00000000 </v>
   <v>       0.07692308       0.23076923       0.00000000 </v>
   <v>       0.15384615       0.23076923       0.00000000 </v>
   <v>       0.23076923       0.23076923       0.00000000 </v>
   <v>       0.30769231       0.23076923       0.00000000 </v>
   <v>       0.38461538       0.23076923       0.00000000 </v>
   <v>       0.46153846       0.23076923       0.00000000 </v>
   <v>      -0.46153846       0.23076923       0.00000000 </v>
   <v>      -0.38461538       0.23076923       0.00000000 </v>
   <v>      -0.30769231       0.23076923       0.00000000 </v>
   <v>      -0.23076923       0.23076923       0.00000000 </v>
   <v>      -0.15384615       0.23076923       0.00000000 </v>
   <v>      -0.07692308       0.23076923       0.00000000 </v>
   <v>       0.00000000       0.30769231       0.00000000 </v>
   <v>       0.07692308       0.30769231       0.00000000 </v>
   <v>       0.15384615       0.30769231       0.00000000 </v>
   <v>       0.23076923       0.30769231       0.00000000 </v>
   <v>       0.30769231       0.30769231       0.00000000 </v>
   <v>       0.38461538       0.30769231       0.00000000 </v>
   <v>       0.46153846       0.30769231       0.00000000 </v>
   <v>      -0.46153846       0.30769231       0.00000000 </v>
   <v>      -0.38461538       0.30769231       0.00000000 </v>
   <v>      -0.30769231       0.30769231       0.00000000 </v>
   <v>      -0.23076923       0.30769231       0.00000000 </v>
   <v>      -0.15384615       0.30769231       0.00000000 </v>
   <v>      -0.07692308       0.30769231       0.00000000 </v>
   <v>       0.00000000       0.38461538       0.00000000 </v>
   <v>       0.07692308       0.38461538       0.00000000 </v>
   <v>       0.15384615       0.38461538       0.00000000 </v>
   <v>       0.23076923       0.38461538       0.00000000 </v>
   <v>       0.30769231       0.38461538       0.00000000 </v>
   <v>       0.38461538       0.38461538       0.00000000 </v>
   <v>       0.46153846       0.38461538       0.00000000 </v>
   <v>      -0.46153846       0.38461538       0.00000000 </v>
   <v>      -0.38461538       0.38461538       0.00000000 </v>
   <v>      -0.30769231       0.38461538       0.00000000 </v>
   <v>      -0.23076923       0.38461538       0.00000000 </v>
   <v>      -0.15384615       0.38461538       0.00000000 </v>
   <v>      -0.07692308       0.38461538       0.00000000 </v>
   <v>       0.00000000       0.46153846       0.00000000 </v>
   <v>       0.07692308       0.46153846       0.00000000 </v>
   <v>       0.15384615       0.46153846       0.00000000 </v>
   <v>       0.23076923       0.46153846       0.00000000 </v>
   <v>       0.30769231       0.46153846       0.00000000 </v>
   <v>       0.38461538       0.46153846       0.00000000 </v>
   <v>       0.46153846       0.46153846       0.00000000 </v>
   <v>      -0.46153846       0.46153846       0.00000000 </v>
   <v>      -0.38461538       0.46153846       0.00000000 </v>
   <v>      -0.30769231       0.46153846       0.00000000 </v>
   <v>      -0.23076923       0.46153846       0.00000000 </v>
   <v>      -0.15384615       0.46153846       0.00000000 </v>
   <v>      -0.07692308       0.46153846       0.00000000 </v>
  </varray>
  <varray name="weights" >
   <v>       0.00591716 </v>
   <v>       0.01183432 </v>
   <v>       0.01183432 </v>
   <v>       0.01183432 </v>
   <v>       0.01183432 </v>
   <v>       0.01183432 </v>
   <v>       0.01183432 </v>
   <v>       0.01183432 </v>
   <v>       0.01183432 </v>
   <v>       0.01183432 </v>
   <v>       0.01183432 </v>
   <v>       0.01183432 </v>
   <v>       0.01183432 </v>
   <v>       0.01183432 </v>
   <v>       0.01183432 </v>
   <v>       0.01183432 </v>
   <v>       0.01183432 </v>
   <v>       0.01183432 </v>
   <v>       0.01183432 </v>
   <v>       0.01183432 </v>
   <v>       0.01183432 </v>
   <v>       0.01183432 </v>
   <v>       0.01183432 </v>
   <v>       0.01183432 </v>
   <v>       0.01183432 </v>
   <v>       0.01183432 </v>
   <v>       0.01183432 </v>
   <v>       0.01183432 </v>
   <v>       0.01183432 </v>
   <v>       0.01183432 </v>
   <v>       0.01183432 </v>
   <v>       0.01183432 </v>
   <v>       0.01183432 </v>
   <v>       0.01183432 </v>
   <v>       0.01183432 </v>
   <v>       0.01183432 </v>
   <v>       0.01183432 </v>
   <v>       0.01183432 </v>
   <v>       0.01183432 </v>
   <v>       0.01183432 </v>
   <v>       0.01183432 </v>
   <v>       0.01183432 </v>
   <v>       0.01183432 </v>
   <v>       0.01183432 </v>
   <v>       0.01183432 </v>
   <v>       0.01183432 </v>
   <v>       0.01183432 </v>
   <v>       0.01183432 </v>
   <v>       0.01183432 </v>
   <v>       0.01183432 </v>
   <v>       0.01183432 </v>
   <v>       0.01183432 </v>
   <v>       0.01183432 </v>
   <v>       0.01183432 </v>
   <v>       0.01183432 </v>
   <v>       0.01183432 </v>
   <v>       0.01183432 </v>
   <v>       0.01183432 </v>
   <v>       0.01183432 </v>
   <v>       0.01183432 </v>
   <v>       0.01183432 </v>
   <v>       0.01183432 </v>
   <v>       0.01183432 </v>
   <v>       0.01183432 </v>
   <v>       0.01183432 </v>
   <v>       0.01183432 </v>
   <v>       0.01183432 </v>
   <v>       0.01183432 </v>
   <v>       0.01183432 </v>
   <v>       0.01183432 </v>
   <v>       0.01183432 </v>
   <v>       0.01183432 </v>
   <v>       0.01183432 </v>
   <v>       0.01183432 </v>
   <v>       0.01183432 </v>
   <v>       0.01183432 </v>
   <v>       0.01183432 </v>
   <v>       0.01183432 </v>
   <v>       0.01183432 </v>
   <v>       0.01183432 </v>
   <v>       0.01183432 </v>
   <v>       0.01183432 </v>
   <v>       0.01183432 </v>
   <v>       0.01183432 </v>
   <v>       0.01183432 </v>
  </varray>
 </kpoints>
 <parameters>
  <separator name="general" >
   <i type="string" name="SYSTEM">unknown system</i>
   <i type="logical" name="LCOMPAT"> F  </i>
  </separator>
  <separator name="electronic" >
   <i type="string" name="PREC">accura</i>
   <i name="ENMAX">    500.00000000</i>
   <i name="ENAUG">    392.42700000</i>
   <i name="EDIFF">      0.00010000</i>
   <i type="int" name="IALGO">    68</i>
   <i type="int" name="IWAVPR">    10</i>
   <i type="int" name="NBANDS">    36</i>
   <i name="NELECT">     48.00000000</i>
   <i type="int" name="TURBO">     0</i>
   <i type="int" name="IRESTART">     0</i>
   <i type="int" name="NREBOOT">     0</i>
   <i type="int" name="NMIN">     0</i>
   <i name="EREF">      0.00000000</i>
   <separator name="electronic smearing" >
    <i type="int" name="ISMEAR">     1</i>
    <i name="SIGMA">      0.10000000</i>
    <i name="KSPACING">      0.50000000</i>
    <i type="logical" name="KGAMMA"> T  </i>
   </separator>
   <separator name="electronic projectors" >
    <i type="logical" name="LREAL"> T  </i>
    <v name="ROPT">     -0.00025000     -0.00025000     -0.00025000     -0.00025000</v>
    <i type="int" name="LMAXPAW">  -100</i>
    <i type="int" name="LMAXMIX">     2</i>
    <i type="logical" name="NLSPLINE"> F  </i>
   </separator>
   <separator name="electronic startup" >
    <i type="int" name="ISTART">     0</i>
    <i type="int" name="ICHARG">     2</i>
    <i type="int" name="INIWAV">     1</i>
   </separator>
   <separator name="electronic spin" >
    <i type="int" name="ISPIN">     2</i>
    <i type="logical" name="LNONCOLLINEAR"> F  </i>
    <v name="MAGMOM">      6.00000000      0.50000000      0.50000000      6.00000000      0.50000000      0.50000000</v>
    <i name="NUPDOWN">     -1.00000000</i>
    <i type="logical" name="LSORBIT"> F  </i>
    <v name="SAXIS">      0.00000000      0.00000000      1.00000000</v>
    <i type="logical" name="LSPIRAL"> F  </i>
    <v name="QSPIRAL">      0.00000000      0.00000000      0.00000000</v>
    <i type="logical" name="LZEROZ"> F  </i>
   </separator>
   <separator name="electronic exchange-correlation" >
    <i type="logical" name="LASPH"> F  </i>
    <i type="logical" name="LMETAGGA"> F  </i>
   </separator>
   <separator name="electronic convergence" >
    <i type="int" name="NELM">    60</i>
    <i type="int" name="NELMDL">     0</i>
    <i type="int" name="NELMIN">     2</i>
    <i name="ENINI">    500.00000000</i>
    <separator name="electronic convergence detail" >
     <i type="logical" name="LDIAG"> T  </i>
     <i type="logical" name="LSUBROT"> F  </i>
     <i name="WEIMIN">      0.00000000</i>
     <i name="EBREAK">      0.00000069</i>
     <i name="DEPER">      0.30000000</i>
     <i type="int" name="NRMM">     4</i>
     <i name="TIME">      0.40000000</i>
    </separator>
   </separator>
   <separator name="electronic mixer" >
    <i name="AMIX">      0.40000000</i>
    <i name="BMIX">      1.00000000</i>
    <i name="AMIN">      0.10000000</i>
    <i name="AMIX_MAG">      1.60000000</i>
    <i name="BMIX_MAG">      1.00000000</i>
    <separator name="electronic mixer details" >
     <i type="int" name="IMIX">     4</i>
     <i type="logical" name="MIXFIRST"> F  </i>
     <i type="int" name="MAXMIX">   -45</i>
     <i name="WC">    100.00000000</i>
     <i type="int" name="INIMIX">     1</i>
     <i type="int" name="MIXPRE">     1</i>
     <i type="int" name="MREMOVE">     5</i>
    </separator>
   </separator>
   <separator name="electronic dipolcorrection" >
    <i type="logical" name="LDIPOL"> F  </i>
    <i type="logical" name="LMONO"> F  </i>
    <i type="int" name="IDIPOL">     0</i>
    <i name="EPSILON">      1.00000000</i>
    <v name="DIPOL">   -100.00000000   -100.00000000   -100.00000000</v>
    <i name="EFIELD">      0.00000000</i>
   </separator>
  </separator>
  <separator name="grids" >
   <i type="int" name="NGX">    24</i>
   <i type="int" name="NGY">    24</i>
   <i type="int" name="NGZ">   180</i>
   <i type="int" name="NGXF">    48</i>
   <i type="int" name="NGYF">    48</i>
   <i type="int" name="NGZF">   360</i>
   <i type="logical" name="ADDGRID"> F  </i>
  </separator>
  <separator name="ionic" >
   <i type="int" name="NSW">     0</i>
   <i type="int" name="IBRION">    -1</i>
   <i type="int" name="ISIF">     3</i>
   <i name="PSTRESS">      0.00000000</i>
   <i name="EDIFFG">      0.00100000</i>
   <i type="int" name="NFREE">     1</i>
   <i name="POTIM">      0.50000000</i>
   <i name="SMASS">     -3.00000000</i>
   <i name="SCALEE">      1.00000000</i>
  </separator>
  <separator name="ionic md" >
   <i name="TEBEG">      0.00010000</i>
   <i name="TEEND">      0.00010000</i>
   <i type="int" name="NBLOCK">     1</i>
   <i type="int" name="KBLOCK">     1</i>
   <i type="int" name="NPACO">   256</i>
   <i name="APACO">     16.00000000</i>
  </separator>
  <separator name="symmetry" >
   <i type="int" name="ISYM">     2</i>
   <i name="SYMPREC">      0.00001000</i>
  </separator>
  <separator name="dos" >
   <i type="logical" name="LORBIT"> F  </i>
   <v name="RWIGS">     -1.00000000     -1.00000000     -1.00000000     -1.00000000</v>
   <i type="int" name="NEDOS">   301</i>
   <i name="EMIN">     10.00000000</i>
   <i name="EMAX">    -10.00000000</i>
   <i name="EFERMI">      0.00000000</i>
  </separator>
  <separator name="writing" >
   <i type="int" name="NWRITE">     2</i>
   <i type="logical" name="LWAVE"> F  </i>
   <i type="logical" name="LCHARG"> F  </i>
   <i type="logical" name="LPARD"> F  </i>
   <i type="logical" name="LVTOT"> F  </i>
   <i type="logical" name="LVHAR"> T  </i>
   <i type="logical" name="LELF"> F  </i>
   <i type="logical" name="LOPTICS"> F  </i>
   <v name="STM">      0.00000000      0.00000000      0.00000000      0.00000000      0.00000000      0.00000000      0.00000000</v>
  </separator>
  <separator name="performance" >
   <i type="int" name="NPAR">     4</i>
   <i type="int" name="NSIM">     4</i>
   <i type="int" name="NBLK">    -1</i>
   <i type="logical" name="LPLANE"> T  </i>
   <i type="logical" name="LSCALAPACK"> T  </i>
   <i type="logical" name="LSCAAWARE"> F  </i>
   <i type="logical" name="LSCALU"> F  </i>
   <i type="logical" name="LASYNC"> F  </i>
   <i type="logical" name="LORBITALREAL"> F  </i>
  </separator>
  <separator name="miscellaneous" >
   <i type="int" name="IDIOT">     3</i>
   <i type="logical" name="LMUSIC"> F  </i>
   <v name="POMASS">     95.94000000     32.06600000     95.94000000     32.06600000</v>
   <v name="DARWINR">      0.00000000      0.00000000      0.00000000      0.00000000</v>
   <v name="DARWINV">      1.00000000      1.00000000      1.00000000      1.00000000</v>
   <i type="logical" name="LCORR"> T  </i>
  </separator>
  <i type="logical" name="GGA_COMPAT"> T  </i>
  <i type="logical" name="LBERRY"> F  </i>
  <i type="int" name="ICORELEVEL">     0</i>
  <i type="logical" name="LDAU"> F  </i>
  <i type="int" name="I_CONSTRAINED_M">     0</i>
  <separator name="electronic exchange-correlation" >
   <i type="string" name="GGA">BO</i>
   <i type="int" name="VOSKOWN">     0</i>
   <i type="logical" name="LHFCALC"> F  </i>
   <i type="string" name="PRECFOCK"></i>
   <i type="logical" name="LSYMGRAD"> F  </i>
   <i type="logical" name="LHFONE"> F  </i>
   <i type="logical" name="LRHFCALC"> F  </i>
   <i type="logical" name="LTHOMAS"> F  </i>
   <i type="logical" name="LMODELHF"> F  </i>
   <i name="ENCUT4O">     -1.00000000</i>
   <i type="int" name="EXXOEP">     0</i>
   <i type="int" name="FOURORBIT">     0</i>
   <i name="AEXX">      0.00000000</i>
   <i name="HFALPHA">      0.00000000</i>
   <i name="MCALPHA">      0.00000000</i>
   <i name="ALDAX">      1.00000000</i>
   <i name="AGGAX">      1.00000000</i>
   <i name="ALDAC">      1.00000000</i>
   <i name="AGGAC">      0.00000000</i>
   <i type="int" name="NKREDX">     1</i>
   <i type="int" name="NKREDY">     1</i>
   <i type="int" name="NKREDZ">     1</i>
   <i type="logical" name="SHIFTRED"> F  </i>
   <i type="logical" name="ODDONLY"> F  </i>
   <i type="logical" name="EVENONLY"> F  </i>
   <i type="int" name="LMAXFOCK">     0</i>
   <i type="int" name="NMAXFOCKAE">     0</i>
   <i type="logical" name="LFOCKAEDFT"> F  </i>
   <i name="HFSCREEN">      0.00000000</i>
   <i name="HFSCREENC">      0.00000000</i>
   <i type="int" name="NBANDSGWLOW">     0</i>
  </separator>
  <separator name="vdW DFT" >
   <i type="logical" name="LUSE_VDW"> T  </i>
   <i name="Zab_VDW">     -0.84910000</i>
   <i name="PARAM1">      0.18333333</i>
   <i name="PARAM2">      0.22000000</i>
   <i name="PARAM3">      0.00000000</i>
  </separator>
  <separator name="model GW" >
   <i type="int" name="MODEL_GW">     0</i>
   <i name="MODEL_EPS0">     20.39722663</i>
   <i name="MODEL_ALPHA">      1.00000000</i>
  </separator>
  <separator name="linear response parameters" >
   <i type="logical" name="LEPSILON"> F  </i>
   <i type="logical" name="LRPA"> F  </i>
   <i type="logical" name="LNABLA"> F  </i>
   <i type="logical" name="LVEL"> F  </i>
   <i type="int" name="KINTER">     0</i>
   <i name="CSHIFT">      0.10000000</i>
   <i name="OMEGAMAX">     -1.00000000</i>
   <i name="DEG_THRESHOLD">      0.00200000</i>
  </separator>
  <separator name="orbital magnetization" >
   <i type="logical" name="NUCIND"> F  </i>
   <v name="MAGPOS">      0.00000000      0.00000000      0.00000000</v>
   <i type="logical" name="LNICSALL"> T  </i>
   <i type="logical" name="ORBITALMAG"> F  </i>
   <i type="logical" name="LMAGBLOCH"> F  </i>
   <i type="logical" name="LCHIMAG"> F  </i>
   <i type="logical" name="LGAUGE"> T  </i>
   <i type="int" name="MAGATOM">     0</i>
   <v name="MAGDIPOL">      0.00000000      0.00000000      0.00000000</v>
   <v name="AVECCONST">      0.00000000      0.00000000      0.00000000</v>
  </separator>
  <separator name="response functions" >
   <i type="logical" name="LADDER"> F  </i>
   <i type="logical" name="LFXC"> F  </i>
   <i type="logical" name="LHARTREE"> T  </i>
   <i type="int" name="IBSE">     0</i>
   <v type="int" name="KPOINT">    -1     0     0     0</v>
   <i type="logical" name="LTCTE"> F  </i>
   <i type="logical" name="LTETE"> F  </i>
   <i type="logical" name="LTRIPLET"> F  </i>
   <i type="logical" name="LFXCEPS"> F  </i>
   <i type="logical" name="LFXHEG"> F  </i>
   <i type="int" name="NATURALO">     0</i>
   <i type="logical" name="L2ORDER"> F  </i>
   <i type="logical" name="LUSEW"> F  </i>
   <i name="ENCUTGW">     -2.00000000</i>
   <i name="ENCUTGWSOFT">     -2.00000000</i>
   <i name="ENCUTLF">     -1.00000000</i>
   <i type="int" name="LMAXMP2">    -1</i>
   <i name="SCISSOR">      0.00000000</i>
   <i type="int" name="NOMEGA">     0</i>
   <i type="int" name="NOMEGAR">     0</i>
   <i type="int" name="NBANDSGW">    -1</i>
   <i type="int" name="NBANDSO">    -1</i>
   <i type="int" name="NBANDSV">    -1</i>
   <i type="int" name="NELM">     1</i>
   <i type="int" name="NELMHF">     1</i>
   <i type="int" name="DIM">     3</i>
   <i type="int" name="ANTIRES">     0</i>
   <i name="OMEGAMAX">    -30.00000000</i>
   <i name="OMEGAMIN">    -30.00000000</i>
   <i name="OMEGATL">   -200.00000000</i>
   <i type="int" name="OMEGAGRID">     0</i>
   <i name="CSHIFT">     -0.10000000</i>
   <i type="logical" name="SELFENERGY"> F  </i>
   <i type="logical" name="LSPECTRAL"> F  </i>
   <i type="logical" name="LSPECTRALGW"> F  </i>
   <i type="logical" name="LSINGLES"> F  </i>
   <i type="logical" name="LFERMIGW"> F  </i>
   <i type="logical" name="ODDONLYGW"> F  </i>
   <i type="logical" name="EVENONLYGW"> F  </i>
   <i type="int" name="NKREDLFX">     1</i>
   <i type="int" name="NKREDLFY">     1</i>
   <i type="int" name="NKREDLFZ">     1</i>
   <i type="int" name="MAXMEM">  1800</i>
   <i type="int" name="TELESCOPE">     0</i>
   <i type="int" name="TAUPAR">     1</i>
   <i type="int" name="OMEGAPAR">    -1</i>
   <i name="LAMBDA">      1.00000000</i>
  </separator>
  <separator name="External order field" >
   <i name="OFIELD_KAPPA">      0.00000000</i>
   <v name="OFIELD_K">      0.00000000      0.00000000      0.00000000</v>
   <i name="OFIELD_Q6_NEAR">      0.00000000</i>
   <i name="OFIELD_Q6_FAR">      0.00000000</i>
   <i name="OFIELD_A">      0.00000000</i>
  </separator>
 </parameters>
 <atominfo>
  <atoms>       6 </atoms>
  <types>       4 </types>
  <array name="atoms" >
   <dimension dim="1">ion</dimension>
   <field type="string">element</field>
   <field type="int">atomtype</field>
   <set>
    <rc><c>Mo</c><c>   1</c></rc>
    <rc><c>S </c><c>   2</c></rc>
    <rc><c>S </c><c>   2</c></rc>
    <rc><c>Mo</c><c>   3</c></rc>
    <rc><c>S </c><c>   4</c></rc>
    <rc><c>S </c><c>   4</c></rc>
   </set>
  </array>
  <array name="atomtypes" >
   <dimension dim="1">type</dimension>
   <field type="int">atomspertype</field>
   <field type="string">element</field>
   <field>mass</field>
   <field>valence</field>
   <field type="string">pseudopotential</field>
   <set>
    <rc><c>   1</c><c>Mo</c><c>     95.94000000</c><c>     12.00000000</c><c> PAW_PBE Mo_pv 08Apr2002                </c></rc>
    <rc><c>   2</c><c>S </c><c>     32.06600000</c><c>      6.00000000</c><c>  PAW_PBE S 17Jan2003                   </c></rc>
    <rc><c>   1</c><c>Mo</c><c>     95.94000000</c><c>     12.00000000</c><c> PAW_PBE Mo_pv 08Apr2002                </c></rc>
    <rc><c>   2</c><c>S </c><c>     32.06600000</c><c>      6.00000000</c><c>  PAW_PBE S 17Jan2003                   </c></rc>
   </set>
  </array>
 </atominfo>
 <structure name="initialpos" >
  <crystal>
   <varray name="basis" >
    <v>       3.19031700       0.00000000       0.00000000 </v>
    <v>      -1.59515800       2.76289700       0.00000000 </v>
    <v>       0.00000000       0.00000000      23.14049200 </v>
   </varray>
   <i name="volume">    203.97226633 </i>
   <varray name="rec_basis" >
    <v>       0.31344848       0.18096941       0.00000000 </v>
    <v>       0.00000000       0.36193894       0.00000000 </v>
    <v>       0.00000000       0.00000000       0.04321429 </v>
   </varray>
  </crystal>
  <varray name="positions" >
   <v>       0.66666700       0.33333300       0.06785900 </v>
   <v>       0.33333300       0.66666700       0.00000000 </v>
   <v>       0.33333300       0.66666700       0.13571500 </v>
   <v>       0.80952414       0.33333300       0.35482300 </v>
   <v>       0.47619014       0.66666700       0.28696500 </v>
   <v>       0.47619014       0.66666700       0.42267900 </v>
  </varray>
 </structure>
 <calculation>
  <scstep>
   <time name="dav">   58.24   58.29</time>
   <time name="total">   68.56   68.65</time>
   <energy>
    <i name="alphaZ">    104.15310261 </i>
    <i name="ewald">   7699.34191998 </i>
    <i name="hartreedc"> -11109.37444482 </i>
    <i name="XCdc">    128.47089471 </i>
    <i name="pawpsdc">   2252.92270536 </i>
    <i name="pawaedc">  -2205.68654582 </i>
    <i name="eentropy">     -0.00116786 </i>
    <i name="bandstr">   -159.24138982 </i>
    <i name="atom">   3688.31848598 </i>
    <i name="e_fr_energy">    398.90356031 </i>
    <i name="e_wo_entrp">    398.90472817 </i>
    <i name="e_0_energy">    398.90394960 </i>
   </energy>
  </scstep>
  <scstep>
   <time name="dav">   63.27   63.32</time>
   <time name="total">   63.28   63.33</time>
   <energy>
    <i name="e_fr_energy">     -1.65109009 </i>
    <i name="e_wo_entrp">     -1.65137823 </i>
    <i name="e_0_energy">     -1.65118614 </i>
   </energy>
  </scstep>
  <scstep>
   <time name="dav">   64.90   64.95</time>
   <time name="total">   64.91   64.96</time>
   <energy>
    <i name="e_fr_energy">    -32.95101701 </i>
    <i name="e_wo_entrp">    -32.95159198 </i>
    <i name="e_0_energy">    -32.95120867 </i>
   </energy>
  </scstep>
  <scstep>
   <time name="dav">   62.29   62.34</time>
   <time name="total">   62.30   62.35</time>
   <energy>
    <i name="e_fr_energy">    -33.82669107 </i>
    <i name="e_wo_entrp">    -33.82737355 </i>
    <i name="e_0_energy">    -33.82691856 </i>
   </energy>
  </scstep>
  <scstep>
   <time name="dav">   64.39   64.44</time>
   <time name="total">   69.22   69.27</time>
   <energy>
    <i name="e_fr_energy">    -33.85379412 </i>
    <i name="e_wo_entrp">    -33.85448726 </i>
    <i name="e_0_energy">    -33.85402517 </i>
   </energy>
  </scstep>
  <scstep>
   <time name="diag">   11.78   11.79</time>
   <time name="diis">   42.59   42.62</time>
   <time name="orth">    0.42    0.42</time>
   <time name="total">   70.04   70.09</time>
   <energy>
    <i name="e_fr_energy">    -30.10594245 </i>
    <i name="e_wo_entrp">    -30.10617163 </i>
    <i name="e_0_energy">    -30.10601885 </i>
   </energy>
  </scstep>
  <scstep>
   <time name="diag">   11.91   11.92</time>
   <time name="diis">   42.75   42.79</time>
   <time name="orth">    0.42    0.42</time>
   <time name="total">   70.27   70.32</time>
   <energy>
    <i name="e_fr_energy">    -32.88290896 </i>
    <i name="e_wo_entrp">    -32.88358277 </i>
    <i name="e_0_energy">    -32.88313356 </i>
   </energy>
  </scstep>
  <scstep>
   <time name="diag">   11.91   11.92</time>
   <time name="diis">   45.25   45.28</time>
   <time name="orth">    0.42    0.42</time>
   <time name="total">   72.38   72.44</time>
   <energy>
    <i name="e_fr_energy">    -34.29996701 </i>
    <i name="e_wo_entrp">    -34.30013034 </i>
    <i name="e_0_energy">    -34.30002145 </i>
   </energy>
  </scstep>
  <scstep>
   <time name="diag">   11.89   11.90</time>
   <time name="diis">   43.27   43.30</time>
   <time name="orth">    0.42    0.42</time>
   <time name="total">   70.47   70.53</time>
   <energy>
    <i name="e_fr_energy">    -37.20672574 </i>
    <i name="e_wo_entrp">    -37.20688856 </i>
    <i name="e_0_energy">    -37.20678002 </i>
   </energy>
  </scstep>
  <scstep>
   <time name="diag">   11.80   11.81</time>
   <time name="diis">   38.48   38.51</time>
   <time name="orth">    0.42    0.42</time>
   <time name="total">   65.57   65.62</time>
   <energy>
    <i name="e_fr_energy">    -39.04384137 </i>
    <i name="e_wo_entrp">    -39.04400551 </i>
    <i name="e_0_energy">    -39.04389608 </i>
   </energy>
  </scstep>
  <scstep>
   <time name="diag">   11.77   11.78</time>
   <time name="diis">   41.19   41.22</time>
   <time name="orth">    0.42    0.42</time>
   <time name="total">   68.45   68.51</time>
   <energy>
    <i name="e_fr_energy">    -39.33806445 </i>
    <i name="e_wo_entrp">    -39.33839039 </i>
    <i name="e_0_energy">    -39.33817309 </i>
   </energy>
  </scstep>
  <scstep>
   <time name="diag">   11.85   11.85</time>
   <time name="diis">   41.70   41.73</time>
   <time name="orth">    0.42    0.42</time>
   <time name="total">   69.14   69.21</time>
   <energy>
    <i name="e_fr_energy">    -39.36862309 </i>
    <i name="e_wo_entrp">    -39.36895064 </i>
    <i name="e_0_energy">    -39.36873227 </i>
   </energy>
  </scstep>
  <scstep>
   <time name="diag">   11.84   11.85</time>
   <time name="diis">   44.75   44.78</time>
   <time name="orth">    0.42    0.42</time>
   <time name="total">   72.07   72.12</time>
   <energy>
    <i name="e_fr_energy">    -39.38933195 </i>
    <i name="e_wo_entrp">    -39.38965984 </i>
    <i name="e_0_energy">    -39.38944125 </i>
   </energy>
  </scstep>
  <scstep>
   <time name="diag">   11.83   11.84</time>
   <time name="diis">   43.98   44.01</time>
   <time name="orth">    0.42    0.42</time>
   <time name="total">   71.31   71.36</time>
   <energy>
    <i name="e_fr_energy">    -39.39227016 </i>
    <i name="e_wo_entrp">    -39.39259848 </i>
    <i name="e_0_energy">    -39.39237960 </i>
   </energy>
  </scstep>
  <scstep>
   <time name="diag">   11.81   11.82</time>
   <time name="diis">   38.84   38.87</time>
   <time name="orth">    0.42    0.42</time>
   <time name="total">   66.08   66.13</time>
   <energy>
    <i name="e_fr_energy">    -39.39127855 </i>
    <i name="e_wo_entrp">    -39.39160689 </i>
    <i name="e_0_energy">    -39.39138800 </i>
   </energy>
  </scstep>
  <scstep>
   <time name="diag">   11.83   11.84</time>
   <time name="diis">   31.53   31.56</time>
   <time name="orth">    0.42    0.42</time>
   <time name="total">   58.71   58.75</time>
   <energy>
    <i name="e_fr_energy">    -39.39140734 </i>
    <i name="e_wo_entrp">    -39.39173576 </i>
    <i name="e_0_energy">    -39.39151682 </i>
   </energy>
  </scstep>
  <scstep>
   <time name="diag">   11.84   11.85</time>
   <time name="diis">   30.11   30.13</time>
   <time name="orth">    0.42    0.42</time>
   <time name="total">   57.27   57.31</time>
   <energy>
    <i name="e_fr_energy">    -39.39154930 </i>
    <i name="e_wo_entrp">    -39.39187769 </i>
    <i name="e_0_energy">    -39.39165876 </i>
   </energy>
  </scstep>
  <scstep>
   <time name="diag">   11.93   11.94</time>
   <time name="diis">   28.63   28.66</time>
   <time name="orth">    0.42    0.42</time>
   <time name="total">   55.89   55.93</time>
   <energy>
    <i name="e_fr_energy">    -39.39190085 </i>
    <i name="e_wo_entrp">    -39.39222921 </i>
    <i name="e_0_energy">    -39.39201030 </i>
   </energy>
  </scstep>
  <scstep>
   <time name="diag">   11.81   11.81</time>
   <time name="diis">   28.38   28.41</time>
   <time name="orth">    0.42    0.42</time>
   <time name="total">   55.54   55.58</time>
   <energy>
    <i name="e_fr_energy">    -39.39227189 </i>
    <i name="e_wo_entrp">    -39.39260022 </i>
    <i name="e_0_energy">    -39.39238133 </i>
   </energy>
  </scstep>
  <scstep>
   <time name="diag">   11.86   11.87</time>
   <time name="diis">   28.48   28.50</time>
   <time name="orth">    0.42    0.42</time>
   <time name="total">   55.71   55.76</time>
   <energy>
    <i name="e_fr_energy">    -39.39251830 </i>
    <i name="e_wo_entrp">    -39.39284660 </i>
    <i name="e_0_energy">    -39.39262773 </i>
   </energy>
  </scstep>
  <scstep>
   <time name="diag">   11.84   11.85</time>
   <time name="diis">   28.18   28.20</time>
   <time name="orth">    0.42    0.42</time>
   <time name="total">   50.28   50.32</time>
   <energy>
    <i name="alphaZ">    104.15310261 </i>
    <i name="ewald">   7699.34191998 </i>
    <i name="hartreedc"> -11093.14948510 </i>
    <i name="XCdc">    122.67977637 </i>
    <i name="pawpsdc">   2399.50433282 </i>
    <i name="pawaedc">  -2361.69061373 </i>
    <i name="eentropy">      0.00032830 </i>
    <i name="bandstr">   -598.55039693 </i>
    <i name="atom">   3688.31848598 </i>
    <i name="e_fr_energy">    -39.39254972 </i>
    <i name="e_wo_entrp">    -39.39287802 </i>
    <i name="e_0_energy">    -39.39265916 </i>
   </energy>
  </scstep>
  <structure>
   <crystal>
    <varray name="basis" >
     <v>       3.19031700       0.00000000       0.00000000 </v>
     <v>      -1.59515800       2.76289700       0.00000000 </v>
     <v>       0.00000000       0.00000000      23.14049200 </v>
    </varray>
    <i name="volume">    203.97226633 </i>
    <varray name="rec_basis" >
     <v>       0.31344848       0.18096941       0.00000000 </v>
     <v>       0.00000000       0.36193894       0.00000000 </v>
     <v>       0.00000000       0.00000000       0.04321429 </v>
    </varray>
   </crystal>
   <varray name="positions" >
    <v>       0.66666700       0.33333300       0.06785900 </v>
    <v>       0.33333300       0.66666700       0.00000000 </v>
    <v>       0.33333300       0.66666700       0.13571500 </v>
    <v>       0.80952414       0.33333300       0.35482300 </v>
    <v>       0.47619014       0.66666700       0.28696500 </v>
    <v>       0.47619014       0.66666700       0.42267900 </v>
   </varray>
  </structure>
  <varray name="forces" >
   <v>      -0.00504867       0.00019642      -0.01779132 </v>
   <v>      -0.00000562      -0.00029471      -0.05672667 </v>
   <v>      -0.02973193       0.00010249       0.03102283 </v>
   <v>       0.00370918      -0.00015860       0.02004664 </v>
   <v>       0.03157710       0.00034786      -0.03764199 </v>
   <v>      -0.00050005      -0.00019346       0.06109051 </v>
  </varray>
  <varray name="stress" >
   <v>       3.50266985       0.00019179       1.01417742 </v>
   <v>       0.00019187       3.30050007       0.00156235 </v>
   <v>       1.01417743       0.00156223       3.30515470 </v>
  </varray>
  <energy>
   <i name="e_fr_energy">    -39.39254972 </i>
   <i name="e_wo_entrp">    -39.39265916 </i>
   <i name="e_0_energy">      0.00032830 </i>
  </energy>
  <time name="totalsc"> 1460.81 1462.05</time>
  <eigenvalues>
   <array>
    <dimension dim="1">band</dimension>
    <dimension dim="2">kpoint</dimension>
    <dimension dim="3">spin</dimension>
    <field>eigene</field>
    <field>occ</field>
    <set>
     <set comment="spin 1">
      <set comment="kpoint 1">
       <r>  -34.9879    1.0000 </r>
       <r>  -34.9877    1.0000 </r>
       <r>  -34.7959    1.0000 </r>
       <r>  -34.7958    1.0000 </r>
       <r>  -34.7958    1.0000 </r>
       <r>  -34.7957    1.0000 </r>
       <r>  -13.9750    1.0000 </r>
       <r>  -13.9152    1.0000 </r>
       <r>  -12.7109    1.0000 </r>
       <r>  -12.6111    1.0000 </r>
       <r>   -5.6968    1.0000 </r>
       <r>   -5.3891    1.0000 </r>
       <r>   -2.6186    1.0000 </r>
       <r>   -2.6179    1.0000 </r>
       <r>   -2.6146    1.0000 </r>
       <r>   -2.6138    1.0000 </r>
       <r>   -2.2004    1.0000 </r>
       <r>   -1.5279    1.0000 </r>
       <r>   -1.5272    1.0000 </r>
       <r>   -1.5199    1.0000 </r>
       <r>   -1.5187    1.0000 </r>
       <r>   -1.4560    1.0000 </r>
       <r>   -0.2322    1.0000 </r>
       <r>    0.2433    0.8045 </r>
       <r>    2.6884   -0.0000 </r>
       <r>    2.6943   -0.0000 </r>
       <r>    2.7185   -0.0000 </r>
       <r>    2.7226   -0.0000 </r>
       <r>    2.8700   -0.0000 </r>
       <r>    2.8754   -0.0000 </r>
       <r>    2.9063   -0.0000 </r>
       <r>    2.9135   -0.0000 </r>
       <r>    5.2876    0.0000 </r>
       <r>    5.4075    0.0000 </r>
       <r>    6.3792    0.0000 </r>
       <r>    6.5532    0.0000 </r>
      </set>
      <set comment="kpoint 2">
       <r>  -34.9838    1.0000 </r>
       <r>  -34.9836    1.0000 </r>
       <r>  -34.8170    1.0000 </r>
       <r>  -34.8170    1.0000 </r>
       <r>  -34.8007    1.0000 </r>
       <r>  -34.8005    1.0000 </r>
       <r>  -13.8884    1.0000 </r>
       <r>  -13.8286    1.0000 </r>
       <r>  -12.6743    1.0000 </r>
       <r>  -12.5765    1.0000 </r>
       <r>   -5.5980    1.0000 </r>
       <r>   -5.2901    1.0000 </r>
       <r>   -2.8070    1.0000 </r>
       <r>   -2.7996    1.0000 </r>
       <r>   -2.5280    1.0000 </r>
       <r>   -2.5232    1.0000 </r>
       <r>   -2.4760    1.0000 </r>
       <r>   -2.0637    1.0000 </r>
       <r>   -1.6654    1.0000 </r>
       <r>   -1.6562    1.0000 </r>
       <r>   -1.3765    1.0000 </r>
       <r>   -1.0520    1.0000 </r>
       <r>   -0.2534    1.0000 </r>
       <r>    0.1726    1.0325 </r>
       <r>    2.5600   -0.0000 </r>
       <r>    2.6130   -0.0000 </r>
       <r>    2.6344   -0.0000 </r>
       <r>    2.7365   -0.0000 </r>
       <r>    2.7683   -0.0000 </r>
       <r>    2.8132   -0.0000 </r>
       <r>    2.8445   -0.0000 </r>
       <r>    2.8748   -0.0000 </r>
       <r>    5.4271    0.0000 </r>
       <r>    5.5451    0.0000 </r>
       <r>    6.7357    0.0000 </r>
       <r>    6.9355    0.0000 </r>
      </set>
      <set comment="kpoint 3">
       <r>  -34.9724    1.0000 </r>
       <r>  -34.9722    1.0000 </r>
       <r>  -34.8755    1.0000 </r>
       <r>  -34.8755    1.0000 </r>
       <r>  -34.8141    1.0000 </r>
       <r>  -34.8139    1.0000 </r>
       <r>  -13.6402    1.0000 </r>
       <r>  -13.5805    1.0000 </r>
       <r>  -12.5695    1.0000 </r>
       <r>  -12.4778    1.0000 </r>
       <r>   -5.3386    1.0000 </r>
       <r>   -5.0358    1.0000 </r>
       <r>   -3.2645    1.0000 </r>
       <r>   -3.2419    1.0000 </r>
       <r>   -2.9677    1.0000 </r>
       <r>   -2.6810    1.0000 </r>
       <r>   -2.2735    1.0000 </r>
       <r>   -2.2666    1.0000 </r>
       <r>   -2.0010    1.0000 </r>
       <r>   -1.9907    1.0000 </r>
       <r>   -1.3099    1.0000 </r>
       <r>   -0.9130    1.0000 </r>
       <r>   -0.3848    1.0000 </r>
       <r>   -0.0950    1.0000 </r>
       <r>    2.1515   -0.0000 </r>
       <r>    2.3669   -0.0000 </r>
       <r>    2.4849   -0.0000 </r>
       <r>    2.5446   -0.0000 </r>
       <r>    2.5889   -0.0000 </r>
       <r>    2.6408   -0.0000 </r>
       <r>    3.1846    0.0000 </r>
       <r>    3.2233    0.0000 </r>
       <r>    5.7824    0.0000 </r>
       <r>    5.8948    0.0000 </r>
       <r>    7.4135    0.0000 </r>
       <r>    7.8410    0.0000 </r>
      </set>
      <set comment="kpoint 4">
       <r>  -34.9573    1.0000 </r>
       <r>  -34.9572    1.0000 </r>
       <r>  -34.9560    1.0000 </r>
       <r>  -34.9559    1.0000 </r>
       <r>  -34.8330    1.0000 </r>
       <r>  -34.8327    1.0000 </r>
       <r>  -13.2656    1.0000 </r>
       <r>  -13.2067    1.0000 </r>
       <r>  -12.4121    1.0000 </r>
       <r>  -12.3297    1.0000 </r>
       <r>   -5.0729    1.0000 </r>
       <r>   -4.8211    1.0000 </r>
       <r>   -3.7454    1.0000 </r>
       <r>   -3.6586    1.0000 </r>
       <r>   -3.4939    1.0000 </r>
       <r>   -3.2988    1.0000 </r>
       <r>   -2.3969    1.0000 </r>
       <r>   -2.3852    1.0000 </r>
       <r>   -1.9061    1.0000 </r>
       <r>   -1.8953    1.0000 </r>
       <r>   -1.4975    1.0000 </r>
       <r>   -1.0909    1.0000 </r>
       <r>   -0.7040    1.0000 </r>
       <r>   -0.5414    1.0000 </r>
       <r>    1.9272   -0.0000 </r>
       <r>    2.2437   -0.0000 </r>
       <r>    2.2970   -0.0000 </r>
       <r>    2.3383   -0.0000 </r>
       <r>    2.6790   -0.0000 </r>
       <r>    2.9168   -0.0000 </r>
       <r>    3.5622    0.0000 </r>
       <r>    3.6126    0.0000 </r>
       <r>    6.2954    0.0000 </r>
       <r>    6.4042    0.0000 </r>
       <r>    7.8608    0.0000 </r>
       <r>    8.2796    0.0000 </r>
      </set>
      <set comment="kpoint 5">
       <r>  -35.0423    1.0000 </r>
       <r>  -35.0423    1.0000 </r>
       <r>  -34.9392    1.0000 </r>
       <r>  -34.9390    1.0000 </r>
       <r>  -34.8529    1.0000 </r>
       <r>  -34.8527    1.0000 </r>
       <r>  -12.8263    1.0000 </r>
       <r>  -12.7695    1.0000 </r>
       <r>  -12.2302    1.0000 </r>
       <r>  -12.1592    1.0000 </r>
       <r>   -5.1201    1.0000 </r>
       <r>   -4.9929    1.0000 </r>
       <r>   -4.0812    1.0000 </r>
       <r>   -3.9226    1.0000 </r>
       <r>   -3.8884    1.0000 </r>
       <r>   -3.7147    1.0000 </r>
       <r>   -2.7525    1.0000 </r>
       <r>   -2.7401    1.0000 </r>
       <r>   -1.7791    1.0000 </r>
       <r>   -1.5141    1.0000 </r>
       <r>   -1.4958    1.0000 </r>
       <r>   -1.3769    1.0000 </r>
       <r>   -0.9952    1.0000 </r>
       <r>   -0.8699    1.0000 </r>
       <r>    2.0252   -0.0000 </r>
       <r>    2.1322   -0.0000 </r>
       <r>    2.1657   -0.0000 </r>
       <r>    2.3253   -0.0000 </r>
       <r>    3.0822    0.0000 </r>
       <r>    3.3682    0.0000 </r>
       <r>    3.8599    0.0000 </r>
       <r>    3.9249    0.0000 </r>
       <r>    6.9189    0.0000 </r>
       <r>    7.0184    0.0000 </r>
       <r>    7.8029    0.0000 </r>
       <r>    8.1502    0.0000 </r>
      </set>
      <set comment="kpoint 6">
       <r>  -35.1120    1.0000 </r>
       <r>  -35.1120    1.0000 </r>
       <r>  -34.9249    1.0000 </r>
       <r>  -34.9248    1.0000 </r>
       <r>  -34.8693    1.0000 </r>
       <r>  -34.8691    1.0000 </r>
       <r>  -12.4169    1.0000 </r>
       <r>  -12.3634    1.0000 </r>
       <r>  -12.0649    1.0000 </r>
       <r>  -12.0048    1.0000 </r>
       <r>   -5.4361    1.0000 </r>
       <r>   -5.3629    1.0000 </r>
       <r>   -4.4923    1.0000 </r>
       <r>   -4.3756    1.0000 </r>
       <r>   -3.9961    1.0000 </r>
       <r>   -3.7850    1.0000 </r>
       <r>   -3.0127    1.0000 </r>
       <r>   -2.9997    1.0000 </r>
       <r>   -1.9961    1.0000 </r>
       <r>   -1.5993    1.0000 </r>
       <r>   -1.2007    1.0000 </r>
       <r>   -1.1737    1.0000 </r>
       <r>   -0.9575    1.0000 </r>
       <r>   -0.8023    1.0000 </r>
       <r>    2.0933   -0.0000 </r>
       <r>    2.1140   -0.0000 </r>
       <r>    2.2938   -0.0000 </r>
       <r>    2.4986   -0.0000 </r>
       <r>    3.4647    0.0000 </r>
       <r>    3.7625    0.0000 </r>
       <r>    4.0439    0.0000 </r>
       <r>    4.1222    0.0000 </r>
       <r>    6.7259    0.0000 </r>
       <r>    7.2159    0.0000 </r>
       <r>    7.5398    0.0000 </r>
       <r>    7.8882    0.0000 </r>
      </set>
      <set comment="kpoint 7">
       <r>  -35.1511    1.0000 </r>
       <r>  -35.1510    1.0000 </r>
       <r>  -34.9169    1.0000 </r>
       <r>  -34.9167    1.0000 </r>
       <r>  -34.8786    1.0000 </r>
       <r>  -34.8784    1.0000 </r>
       <r>  -12.1612    1.0000 </r>
       <r>  -12.1102    1.0000 </r>
       <r>  -11.9634    1.0000 </r>
       <r>  -11.9110    1.0000 </r>
       <r>   -5.6774    1.0000 </r>
       <r>   -5.6141    1.0000 </r>
       <r>   -4.7431    1.0000 </r>
       <r>   -4.6411    1.0000 </r>
       <r>   -4.0974    1.0000 </r>
       <r>   -3.8989    1.0000 </r>
       <r>   -3.1488    1.0000 </r>
       <r>   -3.1355    1.0000 </r>
       <r>   -2.1023    1.0000 </r>
       <r>   -1.7099    1.0000 </r>
       <r>   -1.0367    1.0000 </r>
       <r>   -1.0029    1.0000 </r>
       <r>   -0.7497    1.0000 </r>
       <r>   -0.5608    1.0000 </r>
       <r>    2.1241   -0.0000 </r>
       <r>    2.1346   -0.0000 </r>
       <r>    2.5502   -0.0000 </r>
       <r>    2.6472   -0.0000 </r>
       <r>    3.6662    0.0000 </r>
       <r>    3.9649    0.0000 </r>
       <r>    4.1268    0.0000 </r>
       <r>    4.2129    0.0000 </r>
       <r>    5.9471    0.0000 </r>
       <r>    6.5718    0.0000 </r>
       <r>    7.8049    0.0000 </r>
       <r>    8.0155    0.0000 </r>
      </set>
      <set comment="kpoint 8">
       <r>  -34.9838    1.0000 </r>
       <r>  -34.9836    1.0000 </r>
       <r>  -34.8171    1.0000 </r>
       <r>  -34.8170    1.0000 </r>
       <r>  -34.8007    1.0000 </r>
       <r>  -34.8006    1.0000 </r>
       <r>  -13.8884    1.0000 </r>
       <r>  -13.8285    1.0000 </r>
       <r>  -12.6743    1.0000 </r>
       <r>  -12.5765    1.0000 </r>
       <r>   -5.5981    1.0000 </r>
       <r>   -5.2900    1.0000 </r>
       <r>   -2.8072    1.0000 </r>
       <r>   -2.7994    1.0000 </r>
       <r>   -2.5274    1.0000 </r>
       <r>   -2.5240    1.0000 </r>
       <r>   -2.4754    1.0000 </r>
       <r>   -2.0637    1.0000 </r>
       <r>   -1.6643    1.0000 </r>
       <r>   -1.6574    1.0000 </r>
       <r>   -1.3786    1.0000 </r>
       <r>   -1.0503    1.0000 </r>
       <r>   -0.2536    1.0000 </r>
       <r>    0.1742    1.0317 </r>
       <r>    2.5529   -0.0000 </r>
       <r>    2.6135   -0.0000 </r>
       <r>    2.6331   -0.0000 </r>
       <r>    2.7430   -0.0000 </r>
       <r>    2.7759   -0.0000 </r>
       <r>    2.8099   -0.0000 </r>
       <r>    2.8462   -0.0000 </r>
       <r>    2.8688   -0.0000 </r>
       <r>    5.4271    0.0000 </r>
       <r>    5.5452    0.0000 </r>
       <r>    6.7365    0.0000 </r>
       <r>    6.9355    0.0000 </r>
      </set>
      <set comment="kpoint 9">
       <r>  -34.9760    1.0000 </r>
       <r>  -34.9759    1.0000 </r>
       <r>  -34.8560    1.0000 </r>
       <r>  -34.8560    1.0000 </r>
       <r>  -34.8108    1.0000 </r>
       <r>  -34.8106    1.0000 </r>
       <r>  -13.7210    1.0000 </r>
       <r>  -13.6611    1.0000 </r>
       <r>  -12.6036    1.0000 </r>
       <r>  -12.5098    1.0000 </r>
       <r>   -5.4172    1.0000 </r>
       <r>   -5.1107    1.0000 </r>
       <r>   -3.1248    1.0000 </r>
       <r>   -3.1094    1.0000 </r>
       <r>   -2.8077    1.0000 </r>
       <r>   -2.4793    1.0000 </r>
       <r>   -2.3603    1.0000 </r>
       <r>   -2.3545    1.0000 </r>
       <r>   -1.9820    1.0000 </r>
       <r>   -1.9660    1.0000 </r>
       <r>   -1.2338    1.0000 </r>
       <r>   -0.8620    1.0000 </r>
       <r>   -0.3290    1.0000 </r>
       <r>    0.0065    1.0003 </r>
       <r>    2.2605   -0.0000 </r>
       <r>    2.4234   -0.0000 </r>
       <r>    2.4485   -0.0000 </r>
       <r>    2.5769   -0.0000 </r>
       <r>    2.6041   -0.0000 </r>
       <r>    2.6552   -0.0000 </r>
       <r>    3.1147    0.0000 </r>
       <r>    3.1563    0.0000 </r>
       <r>    5.6711    0.0000 </r>
       <r>    5.7865    0.0000 </r>
       <r>    7.2616    0.0000 </r>
       <r>    7.6037    0.0000 </r>
      </set>
      <set comment="kpoint 10">
       <r>  -34.9623    1.0000 </r>
       <r>  -34.9621    1.0000 </r>
       <r>  -34.9235    1.0000 </r>
       <r>  -34.9235    1.0000 </r>
       <r>  -34.8293    1.0000 </r>
       <r>  -34.8291    1.0000 </r>
       <r>  -13.4091    1.0000 </r>
       <r>  -13.3496    1.0000 </r>
       <r>  -12.4719    1.0000 </r>
       <r>  -12.3857    1.0000 </r>
       <r>   -5.1376    1.0000 </r>
       <r>   -4.8531    1.0000 </r>
       <r>   -3.5790    1.0000 </r>
       <r>   -3.5308    1.0000 </r>
       <r>   -3.2380    1.0000 </r>
       <r>   -3.0007    1.0000 </r>
       <r>   -2.4759    1.0000 </r>
       <r>   -2.4325    1.0000 </r>
       <r>   -2.0782    1.0000 </r>
       <r>   -2.0682    1.0000 </r>
       <r>   -1.2285    1.0000 </r>
       <r>   -0.8611    1.0000 </r>
       <r>   -0.5605    1.0000 </r>
       <r>   -0.3580    1.0000 </r>
       <r>    1.9315   -0.0000 </r>
       <r>    2.1938   -0.0000 </r>
       <r>    2.3731   -0.0000 </r>
       <r>    2.4403   -0.0000 </r>
       <r>    2.4501   -0.0000 </r>
       <r>    2.6422   -0.0000 </r>
       <r>    3.5106    0.0000 </r>
       <r>    3.5816    0.0000 </r>
       <r>    6.1044    0.0000 </r>
       <r>    6.2173    0.0000 </r>
       <r>    7.7983    0.0000 </r>
       <r>    8.2526    0.0000 </r>
      </set>
      <set comment="kpoint 11">
       <r>  -35.0039    1.0000 </r>
       <r>  -35.0039    1.0000 </r>
       <r>  -34.9457    1.0000 </r>
       <r>  -34.9455    1.0000 </r>
       <r>  -34.8517    1.0000 </r>
       <r>  -34.8514    1.0000 </r>
       <r>  -13.0000    1.0000 </r>
       <r>  -12.9420    1.0000 </r>
       <r>  -12.3004    1.0000 </r>
       <r>  -12.2244    1.0000 </r>
       <r>   -5.0074    1.0000 </r>
       <r>   -4.8269    1.0000 </r>
       <r>   -3.9067    1.0000 </r>
       <r>   -3.7489    1.0000 </r>
       <r>   -3.7247    1.0000 </r>
       <r>   -3.5869    1.0000 </r>
       <r>   -2.8728    1.0000 </r>
       <r>   -2.7938    1.0000 </r>
       <r>   -1.8007    1.0000 </r>
       <r>   -1.7805    1.0000 </r>
       <r>   -1.4483    1.0000 </r>
       <r>   -1.0975    1.0000 </r>
       <r>   -0.8628    1.0000 </r>
       <r>   -0.7447    1.0000 </r>
       <r>    1.8315   -0.0000 </r>
       <r>    2.0763   -0.0000 </r>
       <r>    2.2595   -0.0000 </r>
       <r>    2.3842   -0.0000 </r>
       <r>    2.7279   -0.0000 </r>
       <r>    2.9662   -0.0000 </r>
       <r>    3.8516    0.0000 </r>
       <r>    3.9557    0.0000 </r>
       <r>    6.6944    0.0000 </r>
       <r>    6.7947    0.0000 </r>
       <r>    8.1530    0.0000 </r>
       <r>    8.4870    0.0000 </r>
      </set>
      <set comment="kpoint 12">
       <r>  -35.0785    1.0000 </r>
       <r>  -35.0785    1.0000 </r>
       <r>  -34.9300    1.0000 </r>
       <r>  -34.9298    1.0000 </r>
       <r>  -34.8727    1.0000 </r>
       <r>  -34.8725    1.0000 </r>
       <r>  -12.5705    1.0000 </r>
       <r>  -12.5153    1.0000 </r>
       <r>  -12.1231    1.0000 </r>
       <r>  -12.0583    1.0000 </r>
       <r>   -5.2251    1.0000 </r>
       <r>   -5.1358    1.0000 </r>
       <r>   -4.3071    1.0000 </r>
       <r>   -4.1978    1.0000 </r>
       <r>   -3.9194    1.0000 </r>
       <r>   -3.7027    1.0000 </r>
       <r>   -3.0854    1.0000 </r>
       <r>   -3.0075    1.0000 </r>
       <r>   -1.7742    1.0000 </r>
       <r>   -1.6306    1.0000 </r>
       <r>   -1.6116    1.0000 </r>
       <r>   -1.3834    1.0000 </r>
       <r>   -0.8863    1.0000 </r>
       <r>   -0.7960    1.0000 </r>
       <r>    1.9435   -0.0000 </r>
       <r>    2.1084   -0.0000 </r>
       <r>    2.3058   -0.0000 </r>
       <r>    2.4424   -0.0000 </r>
       <r>    3.1463    0.0000 </r>
       <r>    3.3965    0.0000 </r>
       <r>    4.0402    0.0000 </r>
       <r>    4.1813    0.0000 </r>
       <r>    7.2346    0.0000 </r>
       <r>    7.3944    0.0000 </r>
       <r>    7.5035    0.0000 </r>
       <r>    8.1140    0.0000 </r>
      </set>
      <set comment="kpoint 13">
       <r>  -35.1309    1.0000 </r>
       <r>  -35.1309    1.0000 </r>
       <r>  -34.9188    1.0000 </r>
       <r>  -34.9187    1.0000 </r>
       <r>  -34.8876    1.0000 </r>
       <r>  -34.8873    1.0000 </r>
       <r>  -12.2302    1.0000 </r>
       <r>  -12.1781    1.0000 </r>
       <r>  -11.9851    1.0000 </r>
       <r>  -11.9299    1.0000 </r>
       <r>   -5.5077    1.0000 </r>
       <r>   -5.4422    1.0000 </r>
       <r>   -4.6923    1.0000 </r>
       <r>   -4.6037    1.0000 </r>
       <r>   -4.0230    1.0000 </r>
       <r>   -3.8139    1.0000 </r>
       <r>   -3.1715    1.0000 </r>
       <r>   -3.1146    1.0000 </r>
       <r>   -2.0034    1.0000 </r>
       <r>   -1.6462    1.0000 </r>
       <r>   -1.5136    1.0000 </r>
       <r>   -1.4209    1.0000 </r>
       <r>   -0.6766    1.0000 </r>
       <r>   -0.5682    1.0000 </r>
       <r>    2.0962   -0.0000 </r>
       <r>    2.1701   -0.0000 </r>
       <r>    2.4861   -0.0000 </r>
       <r>    2.5978   -0.0000 </r>
       <r>    3.5371    0.0000 </r>
       <r>    3.7686    0.0000 </r>
       <r>    4.0337    0.0000 </r>
       <r>    4.2181    0.0000 </r>
       <r>    6.3578    0.0000 </r>
       <r>    6.9691    0.0000 </r>
       <r>    7.9793    0.0000 </r>
       <r>    8.2115    0.0000 </r>
      </set>
      <set comment="kpoint 14">
       <r>  -35.1497    1.0000 </r>
       <r>  -35.1496    1.0000 </r>
       <r>  -34.9148    1.0000 </r>
       <r>  -34.9146    1.0000 </r>
       <r>  -34.8929    1.0000 </r>
       <r>  -34.8927    1.0000 </r>
       <r>  -12.0983    1.0000 </r>
       <r>  -12.0476    1.0000 </r>
       <r>  -11.9316    1.0000 </r>
       <r>  -11.8808    1.0000 </r>
       <r>   -5.6258    1.0000 </r>
       <r>   -5.5637    1.0000 </r>
       <r>   -4.8347    1.0000 </r>
       <r>   -4.7508    1.0000 </r>
       <r>   -4.0896    1.0000 </r>
       <r>   -3.8905    1.0000 </r>
       <r>   -3.1907    1.0000 </r>
       <r>   -3.1460    1.0000 </r>
       <r>   -2.0929    1.0000 </r>
       <r>   -1.7225    1.0000 </r>
       <r>   -1.4499    1.0000 </r>
       <r>   -1.3588    1.0000 </r>
       <r>   -0.5471    1.0000 </r>
       <r>   -0.4210    1.0000 </r>
       <r>    2.1350   -0.0000 </r>
       <r>    2.1681   -0.0000 </r>
       <r>    2.6357   -0.0000 </r>
       <r>    2.7147   -0.0000 </r>
       <r>    3.8006    0.0000 </r>
       <r>    3.8825    0.0000 </r>
       <r>    3.9791    0.0000 </r>
       <r>    4.1370    0.0000 </r>
       <r>    5.9252    0.0000 </r>
       <r>    6.5859    0.0000 </r>
       <r>    8.2568    0.0000 </r>
       <r>    8.3923    0.0000 </r>
      </set>
      <set comment="kpoint 15">
       <r>  -35.1309    1.0000 </r>
       <r>  -35.1309    1.0000 </r>
       <r>  -34.9188    1.0000 </r>
       <r>  -34.9187    1.0000 </r>
       <r>  -34.8875    1.0000 </r>
       <r>  -34.8873    1.0000 </r>
       <r>  -12.2300    1.0000 </r>
       <r>  -12.1782    1.0000 </r>
       <r>  -11.9850    1.0000 </r>
       <r>  -11.9301    1.0000 </r>
       <r>   -5.5077    1.0000 </r>
       <r>   -5.4423    1.0000 </r>
       <r>   -4.6920    1.0000 </r>
       <r>   -4.6039    1.0000 </r>
       <r>   -4.0229    1.0000 </r>
       <r>   -3.8141    1.0000 </r>
       <r>   -3.1716    1.0000 </r>
       <r>   -3.1143    1.0000 </r>
       <r>   -2.0023    1.0000 </r>
       <r>   -1.6456    1.0000 </r>
       <r>   -1.5119    1.0000 </r>
       <r>   -1.4249    1.0000 </r>
       <r>   -0.6768    1.0000 </r>
       <r>   -0.5680    1.0000 </r>
       <r>    2.0954   -0.0000 </r>
       <r>    2.1713   -0.0000 </r>
       <r>    2.4865   -0.0000 </r>
       <r>    2.5973   -0.0000 </r>
       <r>    3.5421    0.0000 </r>
       <r>    3.7638    0.0000 </r>
       <r>    4.0317    0.0000 </r>
       <r>    4.2193    0.0000 </r>
       <r>    6.3580    0.0000 </r>
       <r>    6.9688    0.0000 </r>
       <r>    7.9872    0.0000 </r>
       <r>    8.2084    0.0000 </r>
      </set>
      <set comment="kpoint 16">
       <r>  -35.0785    1.0000 </r>
       <r>  -35.0785    1.0000 </r>
       <r>  -34.9300    1.0000 </r>
       <r>  -34.9298    1.0000 </r>
       <r>  -34.8727    1.0000 </r>
       <r>  -34.8725    1.0000 </r>
       <r>  -12.5703    1.0000 </r>
       <r>  -12.5154    1.0000 </r>
       <r>  -12.1229    1.0000 </r>
       <r>  -12.0585    1.0000 </r>
       <r>   -5.2251    1.0000 </r>
       <r>   -5.1359    1.0000 </r>
       <r>   -4.3066    1.0000 </r>
       <r>   -4.1981    1.0000 </r>
       <r>   -3.9192    1.0000 </r>
       <r>   -3.7033    1.0000 </r>
       <r>   -3.0851    1.0000 </r>
       <r>   -3.0073    1.0000 </r>
       <r>   -1.7713    1.0000 </r>
       <r>   -1.6306    1.0000 </r>
       <r>   -1.6125    1.0000 </r>
       <r>   -1.3864    1.0000 </r>
       <r>   -0.8861    1.0000 </r>
       <r>   -0.7964    1.0000 </r>
       <r>    1.9442   -0.0000 </r>
       <r>    2.1086   -0.0000 </r>
       <r>    2.3059   -0.0000 </r>
       <r>    2.4418   -0.0000 </r>
       <r>    3.1508    0.0000 </r>
       <r>    3.3914    0.0000 </r>
       <r>    4.0396    0.0000 </r>
       <r>    4.1823    0.0000 </r>
       <r>    7.2344    0.0000 </r>
       <r>    7.4010    0.0000 </r>
       <r>    7.5020    0.0000 </r>
       <r>    8.1483    0.0000 </r>
      </set>
      <set comment="kpoint 17">
       <r>  -35.0039    1.0000 </r>
       <r>  -35.0039    1.0000 </r>
       <r>  -34.9457    1.0000 </r>
       <r>  -34.9455    1.0000 </r>
       <r>  -34.8517    1.0000 </r>
       <r>  -34.8515    1.0000 </r>
       <r>  -12.9998    1.0000 </r>
       <r>  -12.9421    1.0000 </r>
       <r>  -12.3001    1.0000 </r>
       <r>  -12.2246    1.0000 </r>
       <r>   -5.0074    1.0000 </r>
       <r>   -4.8269    1.0000 </r>
       <r>   -3.9060    1.0000 </r>
       <r>   -3.7498    1.0000 </r>
       <r>   -3.7243    1.0000 </r>
       <r>   -3.5875    1.0000 </r>
       <r>   -2.8721    1.0000 </r>
       <r>   -2.7940    1.0000 </r>
       <r>   -1.8009    1.0000 </r>
       <r>   -1.7799    1.0000 </r>
       <r>   -1.4472    1.0000 </r>
       <r>   -1.0992    1.0000 </r>
       <r>   -0.8627    1.0000 </r>
       <r>   -0.7463    1.0000 </r>
       <r>    1.8330   -0.0000 </r>
       <r>    2.0753   -0.0000 </r>
       <r>    2.2597   -0.0000 </r>
       <r>    2.3836   -0.0000 </r>
       <r>    2.7314   -0.0000 </r>
       <r>    2.9630   -0.0000 </r>
       <r>    3.8507    0.0000 </r>
       <r>    3.9572    0.0000 </r>
       <r>    6.6957    0.0000 </r>
       <r>    6.7948    0.0000 </r>
       <r>    8.1652    0.0000 </r>
       <r>    8.4926    0.0000 </r>
      </set>
      <set comment="kpoint 18">
       <r>  -34.9623    1.0000 </r>
       <r>  -34.9621    1.0000 </r>
       <r>  -34.9236    1.0000 </r>
       <r>  -34.9235    1.0000 </r>
       <r>  -34.8293    1.0000 </r>
       <r>  -34.8291    1.0000 </r>
       <r>  -13.4089    1.0000 </r>
       <r>  -13.3497    1.0000 </r>
       <r>  -12.4717    1.0000 </r>
       <r>  -12.3859    1.0000 </r>
       <r>   -5.1375    1.0000 </r>
       <r>   -4.8532    1.0000 </r>
       <r>   -3.5789    1.0000 </r>
       <r>   -3.5309    1.0000 </r>
       <r>   -3.2384    1.0000 </r>
       <r>   -3.0004    1.0000 </r>
       <r>   -2.4754    1.0000 </r>
       <r>   -2.4328    1.0000 </r>
       <r>   -2.0786    1.0000 </r>
       <r>   -2.0678    1.0000 </r>
       <r>   -1.2261    1.0000 </r>
       <r>   -0.8628    1.0000 </r>
       <r>   -0.5599    1.0000 </r>
       <r>   -0.3614    1.0000 </r>
       <r>    1.9334   -0.0000 </r>
       <r>    2.1942   -0.0000 </r>
       <r>    2.3721   -0.0000 </r>
       <r>    2.4364   -0.0000 </r>
       <r>    2.4557   -0.0000 </r>
       <r>    2.6407   -0.0000 </r>
       <r>    3.5087    0.0000 </r>
       <r>    3.5841    0.0000 </r>
       <r>    6.1045    0.0000 </r>
       <r>    6.2172    0.0000 </r>
       <r>    7.7971    0.0000 </r>
       <r>    8.2429    0.0000 </r>
      </set>
      <set comment="kpoint 19">
       <r>  -34.9760    1.0000 </r>
       <r>  -34.9759    1.0000 </r>
       <r>  -34.8560    1.0000 </r>
       <r>  -34.8559    1.0000 </r>
       <r>  -34.8107    1.0000 </r>
       <r>  -34.8106    1.0000 </r>
       <r>  -13.7209    1.0000 </r>
       <r>  -13.6612    1.0000 </r>
       <r>  -12.6035    1.0000 </r>
       <r>  -12.5099    1.0000 </r>
       <r>   -5.4170    1.0000 </r>
       <r>   -5.1109    1.0000 </r>
       <r>   -3.1249    1.0000 </r>
       <r>   -3.1093    1.0000 </r>
       <r>   -2.8082    1.0000 </r>
       <r>   -2.4788    1.0000 </r>
       <r>   -2.3609    1.0000 </r>
       <r>   -2.3539    1.0000 </r>
       <r>   -1.9825    1.0000 </r>
       <r>   -1.9654    1.0000 </r>
       <r>   -1.2311    1.0000 </r>
       <r>   -0.8641    1.0000 </r>
       <r>   -0.3284    1.0000 </r>
       <r>    0.0027    1.0003 </r>
       <r>    2.2663   -0.0000 </r>
       <r>    2.4238   -0.0000 </r>
       <r>    2.4496   -0.0000 </r>
       <r>    2.5723   -0.0000 </r>
       <r>    2.6013   -0.0000 </r>
       <r>    2.6571   -0.0000 </r>
       <r>    3.1114    0.0000 </r>
       <r>    3.1603    0.0000 </r>
       <r>    5.6709    0.0000 </r>
       <r>    5.7863    0.0000 </r>
       <r>    7.2607    0.0000 </r>
       <r>    7.6041    0.0000 </r>
      </set>
      <set comment="kpoint 20">
       <r>  -34.9838    1.0000 </r>
       <r>  -34.9836    1.0000 </r>
       <r>  -34.8171    1.0000 </r>
       <r>  -34.8169    1.0000 </r>
       <r>  -34.8006    1.0000 </r>
       <r>  -34.8006    1.0000 </r>
       <r>  -13.8884    1.0000 </r>
       <r>  -13.8286    1.0000 </r>
       <r>  -12.6743    1.0000 </r>
       <r>  -12.5765    1.0000 </r>
       <r>   -5.5980    1.0000 </r>
       <r>   -5.2901    1.0000 </r>
       <r>   -2.8070    1.0000 </r>
       <r>   -2.7996    1.0000 </r>
       <r>   -2.5280    1.0000 </r>
       <r>   -2.5231    1.0000 </r>
       <r>   -2.4759    1.0000 </r>
       <r>   -2.0636    1.0000 </r>
       <r>   -1.6654    1.0000 </r>
       <r>   -1.6562    1.0000 </r>
       <r>   -1.3765    1.0000 </r>
       <r>   -1.0519    1.0000 </r>
       <r>   -0.2534    1.0000 </r>
       <r>    0.1727    1.0325 </r>
       <r>    2.5600   -0.0000 </r>
       <r>    2.6130   -0.0000 </r>
       <r>    2.6344   -0.0000 </r>
       <r>    2.7366   -0.0000 </r>
       <r>    2.7683   -0.0000 </r>
       <r>    2.8131   -0.0000 </r>
       <r>    2.8446   -0.0000 </r>
       <r>    2.8748   -0.0000 </r>
       <r>    5.4272    0.0000 </r>
       <r>    5.5451    0.0000 </r>
       <r>    6.7376    0.0000 </r>
       <r>    6.9360    0.0000 </r>
      </set>
      <set comment="kpoint 21">
       <r>  -34.9724    1.0000 </r>
       <r>  -34.9722    1.0000 </r>
       <r>  -34.8756    1.0000 </r>
       <r>  -34.8755    1.0000 </r>
       <r>  -34.8141    1.0000 </r>
       <r>  -34.8140    1.0000 </r>
       <r>  -13.6403    1.0000 </r>
       <r>  -13.5804    1.0000 </r>
       <r>  -12.5696    1.0000 </r>
       <r>  -12.4776    1.0000 </r>
       <r>   -5.3389    1.0000 </r>
       <r>   -5.0356    1.0000 </r>
       <r>   -3.2649    1.0000 </r>
       <r>   -3.2416    1.0000 </r>
       <r>   -2.9675    1.0000 </r>
       <r>   -2.6809    1.0000 </r>
       <r>   -2.2725    1.0000 </r>
       <r>   -2.2674    1.0000 </r>
       <r>   -1.9997    1.0000 </r>
       <r>   -1.9922    1.0000 </r>
       <r>   -1.3151    1.0000 </r>
       <r>   -0.9092    1.0000 </r>
       <r>   -0.3858    1.0000 </r>
       <r>   -0.0894    1.0000 </r>
       <r>    2.1443   -0.0000 </r>
       <r>    2.3675   -0.0000 </r>
       <r>    2.4829   -0.0000 </r>
       <r>    2.5506   -0.0000 </r>
       <r>    2.5837   -0.0000 </r>
       <r>    2.6453   -0.0000 </r>
       <r>    3.1894    0.0000 </r>
       <r>    3.2181    0.0000 </r>
       <r>    5.7811    0.0000 </r>
       <r>    5.8950    0.0000 </r>
       <r>    7.4093    0.0000 </r>
       <r>    7.8444    0.0000 </r>
      </set>
      <set comment="kpoint 22">
       <r>  -34.9623    1.0000 </r>
       <r>  -34.9621    1.0000 </r>
       <r>  -34.9236    1.0000 </r>
       <r>  -34.9235    1.0000 </r>
       <r>  -34.8293    1.0000 </r>
       <r>  -34.8291    1.0000 </r>
       <r>  -13.4091    1.0000 </r>
       <r>  -13.3495    1.0000 </r>
       <r>  -12.4720    1.0000 </r>
       <r>  -12.3855    1.0000 </r>
       <r>   -5.1378    1.0000 </r>
       <r>   -4.8530    1.0000 </r>
       <r>   -3.5797    1.0000 </r>
       <r>   -3.5301    1.0000 </r>
       <r>   -3.2381    1.0000 </r>
       <r>   -3.0004    1.0000 </r>
       <r>   -2.4754    1.0000 </r>
       <r>   -2.4332    1.0000 </r>
       <r>   -2.0776    1.0000 </r>
       <r>   -2.0688    1.0000 </r>
       <r>   -1.2319    1.0000 </r>
       <r>   -0.8588    1.0000 </r>
       <r>   -0.5611    1.0000 </r>
       <r>   -0.3542    1.0000 </r>
       <r>    1.9289   -0.0000 </r>
       <r>    2.1937   -0.0000 </r>
       <r>    2.3746   -0.0000 </r>
       <r>    2.4344   -0.0000 </r>
       <r>    2.4539   -0.0000 </r>
       <r>    2.6431   -0.0000 </r>
       <r>    3.5129    0.0000 </r>
       <r>    3.5795    0.0000 </r>
       <r>    6.1039    0.0000 </r>
       <r>    6.2177    0.0000 </r>
       <r>    7.7996    0.0000 </r>
       <r>    8.2953    0.0000 </r>
      </set>
      <set comment="kpoint 23">
       <r>  -34.9857    1.0000 </r>
       <r>  -34.9856    1.0000 </r>
       <r>  -34.9480    1.0000 </r>
       <r>  -34.9479    1.0000 </r>
       <r>  -34.8556    1.0000 </r>
       <r>  -34.8554    1.0000 </r>
       <r>  -13.0612    1.0000 </r>
       <r>  -13.0026    1.0000 </r>
       <r>  -12.3247    1.0000 </r>
       <r>  -12.2467    1.0000 </r>
       <r>   -4.9602    1.0000 </r>
       <r>   -4.7514    1.0000 </r>
       <r>   -3.8429    1.0000 </r>
       <r>   -3.7080    1.0000 </r>
       <r>   -3.5284    1.0000 </r>
       <r>   -3.3966    1.0000 </r>
       <r>   -3.1107    1.0000 </r>
       <r>   -2.9809    1.0000 </r>
       <r>   -1.9519    1.0000 </r>
       <r>   -1.9327    1.0000 </r>
       <r>   -1.2173    1.0000 </r>
       <r>   -0.8981    1.0000 </r>
       <r>   -0.7944    1.0000 </r>
       <r>   -0.6667    1.0000 </r>
       <r>    1.7392   -0.0000 </r>
       <r>    2.0001   -0.0000 </r>
       <r>    2.3026   -0.0000 </r>
       <r>    2.4200   -0.0000 </r>
       <r>    2.5006   -0.0000 </r>
       <r>    2.7195   -0.0000 </r>
       <r>    3.8921    0.0000 </r>
       <r>    4.0149    0.0000 </r>
       <r>    6.6211    0.0000 </r>
       <r>    6.7248    0.0000 </r>
       <r>    8.3185    0.0000 </r>
       <r>    8.5785    0.0000 </r>
      </set>
      <set comment="kpoint 24">
       <r>  -35.0485    1.0000 </r>
       <r>  -35.0485    1.0000 </r>
       <r>  -34.9328    1.0000 </r>
       <r>  -34.9327    1.0000 </r>
       <r>  -34.8860    1.0000 </r>
       <r>  -34.8857    1.0000 </r>
       <r>  -12.6564    1.0000 </r>
       <r>  -12.5999    1.0000 </r>
       <r>  -12.1533    1.0000 </r>
       <r>  -12.0854    1.0000 </r>
       <r>   -5.0300    1.0000 </r>
       <r>   -4.9208    1.0000 </r>
       <r>   -4.1094    1.0000 </r>
       <r>   -4.0445    1.0000 </r>
       <r>   -3.8432    1.0000 </r>
       <r>   -3.6165    1.0000 </r>
       <r>   -3.3244    1.0000 </r>
       <r>   -3.1509    1.0000 </r>
       <r>   -2.0850    1.0000 </r>
       <r>   -2.0491    1.0000 </r>
       <r>   -1.4295    1.0000 </r>
       <r>   -1.1166    1.0000 </r>
       <r>   -0.8499    1.0000 </r>
       <r>   -0.7906    1.0000 </r>
       <r>    1.7718   -0.0000 </r>
       <r>    2.0515   -0.0000 </r>
       <r>    2.3763   -0.0000 </r>
       <r>    2.4595   -0.0000 </r>
       <r>    2.7561   -0.0000 </r>
       <r>    2.9850   -0.0000 </r>
       <r>    4.1347    0.0000 </r>
       <r>    4.3085    0.0000 </r>
       <r>    7.2622    0.0000 </r>
       <r>    7.3501    0.0000 </r>
       <r>    8.0183    0.0000 </r>
       <r>    8.5842    0.0000 </r>
      </set>
      <set comment="kpoint 25">
       <r>  -35.0991    1.0000 </r>
       <r>  -35.0991    1.0000 </r>
       <r>  -34.9202    1.0000 </r>
       <r>  -34.9201    1.0000 </r>
       <r>  -34.9119    1.0000 </r>
       <r>  -34.9117    1.0000 </r>
       <r>  -12.2840    1.0000 </r>
       <r>  -12.2306    1.0000 </r>
       <r>  -11.9959    1.0000 </r>
       <r>  -11.9379    1.0000 </r>
       <r>   -5.2300    1.0000 </r>
       <r>   -5.1580    1.0000 </r>
       <r>   -4.6516    1.0000 </r>
       <r>   -4.5971    1.0000 </r>
       <r>   -3.8696    1.0000 </r>
       <r>   -3.6371    1.0000 </r>
       <r>   -3.2948    1.0000 </r>
       <r>   -3.1512    1.0000 </r>
       <r>   -2.2373    1.0000 </r>
       <r>   -2.1586    1.0000 </r>
       <r>   -1.7620    1.0000 </r>
       <r>   -1.4460    1.0000 </r>
       <r>   -0.6779    1.0000 </r>
       <r>   -0.6238    1.0000 </r>
       <r>    2.0004   -0.0000 </r>
       <r>    2.2212   -0.0000 </r>
       <r>    2.4997   -0.0000 </r>
       <r>    2.5604   -0.0000 </r>
       <r>    3.0964    0.0000 </r>
       <r>    3.3176    0.0000 </r>
       <r>    4.1982    0.0000 </r>
       <r>    4.4185    0.0000 </r>
       <r>    6.9835    0.0000 </r>
       <r>    7.5425    0.0000 </r>
       <r>    8.0651    0.0000 </r>
       <r>    8.4396    0.0000 </r>
      </set>
      <set comment="kpoint 26">
       <r>  -35.1273    1.0000 </r>
       <r>  -35.1272    1.0000 </r>
       <r>  -34.9268    1.0000 </r>
       <r>  -34.9266    1.0000 </r>
       <r>  -34.9131    1.0000 </r>
       <r>  -34.9129    1.0000 </r>
       <r>  -12.0554    1.0000 </r>
       <r>  -12.0042    1.0000 </r>
       <r>  -11.8981    1.0000 </r>
       <r>  -11.8475    1.0000 </r>
       <r>   -5.3621    1.0000 </r>
       <r>   -5.3004    1.0000 </r>
       <r>   -4.9595    1.0000 </r>
       <r>   -4.9060    1.0000 </r>
       <r>   -3.9981    1.0000 </r>
       <r>   -3.7920    1.0000 </r>
       <r>   -3.2038    1.0000 </r>
       <r>   -3.0998    1.0000 </r>
       <r>   -2.2644    1.0000 </r>
       <r>   -2.1441    1.0000 </r>
       <r>   -2.0106    1.0000 </r>
       <r>   -1.6842    1.0000 </r>
       <r>   -0.4524    1.0000 </r>
       <r>   -0.3802    1.0000 </r>
       <r>    2.0545   -0.0000 </r>
       <r>    2.1157   -0.0000 </r>
       <r>    2.7477   -0.0000 </r>
       <r>    2.8738   -0.0000 </r>
       <r>    3.3500    0.0000 </r>
       <r>    3.5438    0.0000 </r>
       <r>    4.1431    0.0000 </r>
       <r>    4.4038    0.0000 </r>
       <r>    6.2666    0.0000 </r>
       <r>    6.9531    0.0000 </r>
       <r>    8.6508    0.0000 </r>
       <r>    8.8101    0.0000 </r>
      </set>
      <set comment="kpoint 27">
       <r>  -35.1273    1.0000 </r>
       <r>  -35.1272    1.0000 </r>
       <r>  -34.9268    1.0000 </r>
       <r>  -34.9266    1.0000 </r>
       <r>  -34.9131    1.0000 </r>
       <r>  -34.9129    1.0000 </r>
       <r>  -12.0552    1.0000 </r>
       <r>  -12.0044    1.0000 </r>
       <r>  -11.8980    1.0000 </r>
       <r>  -11.8477    1.0000 </r>
       <r>   -5.3620    1.0000 </r>
       <r>   -5.3005    1.0000 </r>
       <r>   -4.9594    1.0000 </r>
       <r>   -4.9061    1.0000 </r>
       <r>   -3.9980    1.0000 </r>
       <r>   -3.7920    1.0000 </r>
       <r>   -3.2040    1.0000 </r>
       <r>   -3.0994    1.0000 </r>
       <r>   -2.2616    1.0000 </r>
       <r>   -2.1454    1.0000 </r>
       <r>   -2.0119    1.0000 </r>
       <r>   -1.6851    1.0000 </r>
       <r>   -0.4523    1.0000 </r>
       <r>   -0.3801    1.0000 </r>
       <r>    2.0539   -0.0000 </r>
       <r>    2.1163   -0.0000 </r>
       <r>    2.7476   -0.0000 </r>
       <r>    2.8741   -0.0000 </r>
       <r>    3.3555    0.0000 </r>
       <r>    3.5376    0.0000 </r>
       <r>    4.1429    0.0000 </r>
       <r>    4.4040    0.0000 </r>
       <r>    6.2671    0.0000 </r>
       <r>    6.9531    0.0000 </r>
       <r>    8.6545    0.0000 </r>
       <r>    8.7969    0.0000 </r>
      </set>
      <set comment="kpoint 28">
       <r>  -35.0991    1.0000 </r>
       <r>  -35.0991    1.0000 </r>
       <r>  -34.9202    1.0000 </r>
       <r>  -34.9201    1.0000 </r>
       <r>  -34.9119    1.0000 </r>
       <r>  -34.9117    1.0000 </r>
       <r>  -12.2835    1.0000 </r>
       <r>  -12.2310    1.0000 </r>
       <r>  -11.9955    1.0000 </r>
       <r>  -11.9384    1.0000 </r>
       <r>   -5.2300    1.0000 </r>
       <r>   -5.1583    1.0000 </r>
       <r>   -4.6513    1.0000 </r>
       <r>   -4.5975    1.0000 </r>
       <r>   -3.8688    1.0000 </r>
       <r>   -3.6375    1.0000 </r>
       <r>   -3.2944    1.0000 </r>
       <r>   -3.1509    1.0000 </r>
       <r>   -2.2337    1.0000 </r>
       <r>   -2.1609    1.0000 </r>
       <r>   -1.7632    1.0000 </r>
       <r>   -1.4480    1.0000 </r>
       <r>   -0.6777    1.0000 </r>
       <r>   -0.6236    1.0000 </r>
       <r>    1.9995   -0.0000 </r>
       <r>    2.2229   -0.0000 </r>
       <r>    2.5000   -0.0000 </r>
       <r>    2.5596   -0.0000 </r>
       <r>    3.1033    0.0000 </r>
       <r>    3.3094    0.0000 </r>
       <r>    4.1980    0.0000 </r>
       <r>    4.4191    0.0000 </r>
       <r>    6.9835    0.0000 </r>
       <r>    7.5427    0.0000 </r>
       <r>    8.0721    0.0000 </r>
       <r>    8.4526    0.0000 </r>
      </set>
      <set comment="kpoint 29">
       <r>  -35.0485    1.0000 </r>
       <r>  -35.0484    1.0000 </r>
       <r>  -34.9328    1.0000 </r>
       <r>  -34.9327    1.0000 </r>
       <r>  -34.8859    1.0000 </r>
       <r>  -34.8858    1.0000 </r>
       <r>  -12.6559    1.0000 </r>
       <r>  -12.6002    1.0000 </r>
       <r>  -12.1528    1.0000 </r>
       <r>  -12.0859    1.0000 </r>
       <r>   -5.0303    1.0000 </r>
       <r>   -4.9208    1.0000 </r>
       <r>   -4.1089    1.0000 </r>
       <r>   -4.0459    1.0000 </r>
       <r>   -3.8403    1.0000 </r>
       <r>   -3.6180    1.0000 </r>
       <r>   -3.3236    1.0000 </r>
       <r>   -3.1514    1.0000 </r>
       <r>   -2.0856    1.0000 </r>
       <r>   -2.0481    1.0000 </r>
       <r>   -1.4284    1.0000 </r>
       <r>   -1.1199    1.0000 </r>
       <r>   -0.8507    1.0000 </r>
       <r>   -0.7902    1.0000 </r>
       <r>    1.7723   -0.0000 </r>
       <r>    2.0516   -0.0000 </r>
       <r>    2.3764   -0.0000 </r>
       <r>    2.4584   -0.0000 </r>
       <r>    2.7605   -0.0000 </r>
       <r>    2.9809   -0.0000 </r>
       <r>    4.1346    0.0000 </r>
       <r>    4.3092    0.0000 </r>
       <r>    7.2620    0.0000 </r>
       <r>    7.3501    0.0000 </r>
       <r>    8.0132    0.0000 </r>
       <r>    8.5880    0.0000 </r>
      </set>
      <set comment="kpoint 30">
       <r>  -34.9857    1.0000 </r>
       <r>  -34.9856    1.0000 </r>
       <r>  -34.9480    1.0000 </r>
       <r>  -34.9479    1.0000 </r>
       <r>  -34.8556    1.0000 </r>
       <r>  -34.8555    1.0000 </r>
       <r>  -13.0609    1.0000 </r>
       <r>  -13.0029    1.0000 </r>
       <r>  -12.3243    1.0000 </r>
       <r>  -12.2472    1.0000 </r>
       <r>   -4.9603    1.0000 </r>
       <r>   -4.7512    1.0000 </r>
       <r>   -3.8413    1.0000 </r>
       <r>   -3.7102    1.0000 </r>
       <r>   -3.5279    1.0000 </r>
       <r>   -3.3964    1.0000 </r>
       <r>   -3.1095    1.0000 </r>
       <r>   -2.9818    1.0000 </r>
       <r>   -1.9530    1.0000 </r>
       <r>   -1.9314    1.0000 </r>
       <r>   -1.2131    1.0000 </r>
       <r>   -0.9004    1.0000 </r>
       <r>   -0.7945    1.0000 </r>
       <r>   -0.6716    1.0000 </r>
       <r>    1.7406   -0.0000 </r>
       <r>    1.9998   -0.0000 </r>
       <r>    2.3029   -0.0000 </r>
       <r>    2.4188   -0.0000 </r>
       <r>    2.5034   -0.0000 </r>
       <r>    2.7184   -0.0000 </r>
       <r>    3.8906    0.0000 </r>
       <r>    4.0169    0.0000 </r>
       <r>    6.6213    0.0000 </r>
       <r>    6.7243    0.0000 </r>
       <r>    8.3194    0.0000 </r>
       <r>    8.6064    0.0000 </r>
      </set>
      <set comment="kpoint 31">
       <r>  -34.9623    1.0000 </r>
       <r>  -34.9621    1.0000 </r>
       <r>  -34.9236    1.0000 </r>
       <r>  -34.9235    1.0000 </r>
       <r>  -34.8292    1.0000 </r>
       <r>  -34.8291    1.0000 </r>
       <r>  -13.4089    1.0000 </r>
       <r>  -13.3497    1.0000 </r>
       <r>  -12.4717    1.0000 </r>
       <r>  -12.3859    1.0000 </r>
       <r>   -5.1375    1.0000 </r>
       <r>   -4.8532    1.0000 </r>
       <r>   -3.5789    1.0000 </r>
       <r>   -3.5309    1.0000 </r>
       <r>   -3.2384    1.0000 </r>
       <r>   -3.0004    1.0000 </r>
       <r>   -2.4754    1.0000 </r>
       <r>   -2.4328    1.0000 </r>
       <r>   -2.0786    1.0000 </r>
       <r>   -2.0678    1.0000 </r>
       <r>   -1.2261    1.0000 </r>
       <r>   -0.8628    1.0000 </r>
       <r>   -0.5599    1.0000 </r>
       <r>   -0.3614    1.0000 </r>
       <r>    1.9334   -0.0000 </r>
       <r>    2.1942   -0.0000 </r>
       <r>    2.3721   -0.0000 </r>
       <r>    2.4364   -0.0000 </r>
       <r>    2.4557   -0.0000 </r>
       <r>    2.6407   -0.0000 </r>
       <r>    3.5087    0.0000 </r>
       <r>    3.5841    0.0000 </r>
       <r>    6.1044    0.0000 </r>
       <r>    6.2172    0.0000 </r>
       <r>    7.8016    0.0000 </r>
       <r>    8.2774    0.0000 </r>
      </set>
      <set comment="kpoint 32">
       <r>  -34.9724    1.0000 </r>
       <r>  -34.9722    1.0000 </r>
       <r>  -34.8756    1.0000 </r>
       <r>  -34.8754    1.0000 </r>
       <r>  -34.8140    1.0000 </r>
       <r>  -34.8140    1.0000 </r>
       <r>  -13.6402    1.0000 </r>
       <r>  -13.5805    1.0000 </r>
       <r>  -12.5695    1.0000 </r>
       <r>  -12.4778    1.0000 </r>
       <r>   -5.3386    1.0000 </r>
       <r>   -5.0358    1.0000 </r>
       <r>   -3.2645    1.0000 </r>
       <r>   -3.2419    1.0000 </r>
       <r>   -2.9677    1.0000 </r>
       <r>   -2.6809    1.0000 </r>
       <r>   -2.2735    1.0000 </r>
       <r>   -2.2666    1.0000 </r>
       <r>   -2.0010    1.0000 </r>
       <r>   -1.9907    1.0000 </r>
       <r>   -1.3099    1.0000 </r>
       <r>   -0.9130    1.0000 </r>
       <r>   -0.3848    1.0000 </r>
       <r>   -0.0949    1.0000 </r>
       <r>    2.1515   -0.0000 </r>
       <r>    2.3669   -0.0000 </r>
       <r>    2.4849   -0.0000 </r>
       <r>    2.5446   -0.0000 </r>
       <r>    2.5889   -0.0000 </r>
       <r>    2.6408   -0.0000 </r>
       <r>    3.1847    0.0000 </r>
       <r>    3.2233    0.0000 </r>
       <r>    5.7819    0.0000 </r>
       <r>    5.8944    0.0000 </r>
       <r>    7.4171    0.0000 </r>
       <r>    7.8338    0.0000 </r>
      </set>
      <set comment="kpoint 33">
       <r>  -34.9760    1.0000 </r>
       <r>  -34.9759    1.0000 </r>
       <r>  -34.8561    1.0000 </r>
       <r>  -34.8559    1.0000 </r>
       <r>  -34.8107    1.0000 </r>
       <r>  -34.8107    1.0000 </r>
       <r>  -13.7210    1.0000 </r>
       <r>  -13.6611    1.0000 </r>
       <r>  -12.6036    1.0000 </r>
       <r>  -12.5098    1.0000 </r>
       <r>   -5.4172    1.0000 </r>
       <r>   -5.1107    1.0000 </r>
       <r>   -3.1248    1.0000 </r>
       <r>   -3.1094    1.0000 </r>
       <r>   -2.8077    1.0000 </r>
       <r>   -2.4793    1.0000 </r>
       <r>   -2.3603    1.0000 </r>
       <r>   -2.3544    1.0000 </r>
       <r>   -1.9821    1.0000 </r>
       <r>   -1.9660    1.0000 </r>
       <r>   -1.2338    1.0000 </r>
       <r>   -0.8620    1.0000 </r>
       <r>   -0.3290    1.0000 </r>
       <r>    0.0065    1.0003 </r>
       <r>    2.2605   -0.0000 </r>
       <r>    2.4234   -0.0000 </r>
       <r>    2.4485   -0.0000 </r>
       <r>    2.5769   -0.0000 </r>
       <r>    2.6041   -0.0000 </r>
       <r>    2.6552   -0.0000 </r>
       <r>    3.1147    0.0000 </r>
       <r>    3.1563    0.0000 </r>
       <r>    5.6706    0.0000 </r>
       <r>    5.7863    0.0000 </r>
       <r>    7.2606    0.0000 </r>
       <r>    7.6023    0.0000 </r>
      </set>
      <set comment="kpoint 34">
       <r>  -34.9571    1.0000 </r>
       <r>  -34.9569    1.0000 </r>
       <r>  -34.9563    1.0000 </r>
       <r>  -34.9561    1.0000 </r>
       <r>  -34.8329    1.0000 </r>
       <r>  -34.8328    1.0000 </r>
       <r>  -13.2659    1.0000 </r>
       <r>  -13.2065    1.0000 </r>
       <r>  -12.4125    1.0000 </r>
       <r>  -12.3293    1.0000 </r>
       <r>   -5.0730    1.0000 </r>
       <r>   -4.8210    1.0000 </r>
       <r>   -3.7478    1.0000 </r>
       <r>   -3.6561    1.0000 </r>
       <r>   -3.4944    1.0000 </r>
       <r>   -3.2978    1.0000 </r>
       <r>   -2.3952    1.0000 </r>
       <r>   -2.3869    1.0000 </r>
       <r>   -1.9046    1.0000 </r>
       <r>   -1.8969    1.0000 </r>
       <r>   -1.5060    1.0000 </r>
       <r>   -1.0844    1.0000 </r>
       <r>   -0.7055    1.0000 </r>
       <r>   -0.5339    1.0000 </r>
       <r>    1.9223   -0.0000 </r>
       <r>    2.2434   -0.0000 </r>
       <r>    2.3037   -0.0000 </r>
       <r>    2.3324   -0.0000 </r>
       <r>    2.6769   -0.0000 </r>
[...]
       <r>    -2.1427     2.1804    18.6208 </r>
       <r>    -1.9804     4.3357    19.3245 </r>
       <r>    -1.8181     2.4197    19.7172 </r>
       <r>    -1.6558     3.3641    20.2633 </r>
       <r>    -1.4934     2.7990    20.7176 </r>
       <r>    -1.3311     3.3710    21.2647 </r>
       <r>    -1.1688     1.5140    21.5105 </r>
       <r>    -1.0065     1.7784    21.7992 </r>
       <r>    -0.8442     2.5856    22.2188 </r>
       <r>    -0.6819     3.4621    22.7808 </r>
       <r>    -0.5196     2.5428    23.1935 </r>
       <r>    -0.3573     2.4526    23.5916 </r>
       <r>    -0.1949     1.3564    23.8118 </r>
       <r>    -0.0326     0.7283    23.9300 </r>
       <r>     0.1297     0.2205    23.9658 </r>
       <r>     0.2920     0.2137    24.0004 </r>
       <r>     0.4543    -0.0025    24.0000 </r>
       <r>     0.6166    -0.0003    24.0000 </r>
       <r>     0.7789    -0.0000    24.0000 </r>
       <r>     0.9412    -0.0000    24.0000 </r>
       <r>     1.1036    -0.0000    24.0000 </r>
       <r>     1.2659    -0.0000    24.0000 </r>
       <r>     1.4282    -0.0004    23.9999 </r>
       <r>     1.5905    -0.0210    23.9965 </r>
       <r>     1.7528     0.7009    24.1103 </r>
       <r>     1.9151     1.7621    24.3963 </r>
       <r>     2.0774     3.9092    25.0308 </r>
       <r>     2.2397     4.8904    25.8246 </r>
       <r>     2.4021     3.8427    26.4483 </r>
       <r>     2.5644     5.2475    27.3000 </r>
       <r>     2.7267     4.2138    27.9840 </r>
       <r>     2.8890     3.0680    28.4820 </r>
       <r>     3.0513     2.6915    28.9188 </r>
       <r>     3.2136     2.7106    29.3588 </r>
       <r>     3.3759     1.9521    29.6756 </r>
       <r>     3.5383     1.8833    29.9813 </r>
       <r>     3.7006     1.5210    30.2282 </r>
       <r>     3.8629     1.3273    30.4436 </r>
       <r>     4.0252     2.1494    30.7925 </r>
       <r>     4.1875     2.8526    31.2555 </r>
       <r>     4.3498     1.7502    31.5396 </r>
       <r>     4.5121     1.5942    31.7984 </r>
       <r>     4.6744     0.7371    31.9180 </r>
       <r>     4.8368     0.4281    31.9875 </r>
       <r>     4.9991     0.0809    32.0006 </r>
       <r>     5.1614    -0.0052    31.9998 </r>
       <r>     5.3237     0.0230    32.0035 </r>
       <r>     5.4860     0.2668    32.0468 </r>
       <r>     5.6483     0.2828    32.0927 </r>
       <r>     5.8106     0.4667    32.1685 </r>
       <r>     5.9729     0.7000    32.2821 </r>
       <r>     6.1353     0.3980    32.3467 </r>
       <r>     6.2976     1.0796    32.5219 </r>
       <r>     6.4599     0.9018    32.6683 </r>
       <r>     6.6222     0.6121    32.7676 </r>
       <r>     6.7845     1.6292    33.0321 </r>
       <r>     6.9468     1.5176    33.2784 </r>
       <r>     7.1091     1.2492    33.4812 </r>
       <r>     7.2714     1.1013    33.6599 </r>
       <r>     7.4338     1.8172    33.9549 </r>
       <r>     7.5961     1.8570    34.2563 </r>
       <r>     7.7584     0.4132    34.3233 </r>
       <r>     7.9207     1.5114    34.5687 </r>
       <r>     8.0830     1.8361    34.8667 </r>
       <r>     8.2453     2.4660    35.2670 </r>
       <r>     8.4076     1.3322    35.4832 </r>
       <r>     8.5699     1.1313    35.6668 </r>
       <r>     8.7323     1.4415    35.9008 </r>
       <r>     8.8946     0.4678    35.9767 </r>
       <r>     9.0569     0.0702    35.9881 </r>
       <r>     9.2192     0.0755    36.0004 </r>
       <r>     9.3815    -0.0023    36.0000 </r>
       <r>     9.5438    -0.0000    36.0000 </r>
       <r>     9.7061    -0.0000    36.0000 </r>
       <r>     9.8684    -0.0000    36.0000 </r>
       <r>    10.0308     0.0000    36.0000 </r>
       <r>    10.1931     0.0000    36.0000 </r>
       <r>    10.3554     0.0000    36.0000 </r>
       <r>    10.5177     0.0000    36.0000 </r>
       <r>    10.6800     0.0000    36.0000 </r>
       <r>    10.8423     0.0000    36.0000 </r>
       <r>    11.0046     0.0000    36.0000 </r>
       <r>    11.1669     0.0000    36.0000 </r>
       <r>    11.3293     0.0000    36.0000 </r>
      </set>
      <set comment="spin 2">
       <r>   -37.3645     0.0000     0.0000 </r>
       <r>   -37.2022     0.0000     0.0000 </r>
       <r>   -37.0399     0.0000     0.0000 </r>
       <r>   -36.8776     0.0000     0.0000 </r>
       <r>   -36.7153     0.0000     0.0000 </r>
       <r>   -36.5530     0.0000     0.0000 </r>
       <r>   -36.3907     0.0000     0.0000 </r>
       <r>   -36.2284     0.0000     0.0000 </r>
       <r>   -36.0660    -0.0000    -0.0000 </r>
       <r>   -35.9037    -0.0000    -0.0000 </r>
       <r>   -35.7414    -0.0000    -0.0000 </r>
       <r>   -35.5791    -0.0000    -0.0000 </r>
       <r>   -35.4168    -0.0009    -0.0001 </r>
       <r>   -35.2545    -0.1943    -0.0317 </r>
       <r>   -35.0922     4.3305     0.6712 </r>
       <r>   -34.9299    15.7470     3.2271 </r>
       <r>   -34.7675    17.1634     6.0130 </r>
       <r>   -34.6052    -0.0574     6.0037 </r>
       <r>   -34.4429    -0.0226     6.0000 </r>
       <r>   -34.2806    -0.0000     6.0000 </r>
       <r>   -34.1183    -0.0000     6.0000 </r>
       <r>   -33.9560     0.0000     6.0000 </r>
       <r>   -33.7937     0.0000     6.0000 </r>
       <r>   -33.6314     0.0000     6.0000 </r>
       <r>   -33.4690     0.0000     6.0000 </r>
       <r>   -33.3067     0.0000     6.0000 </r>
       <r>   -33.1444     0.0000     6.0000 </r>
       <r>   -32.9821     0.0000     6.0000 </r>
       <r>   -32.8198     0.0000     6.0000 </r>
       <r>   -32.6575     0.0000     6.0000 </r>
       <r>   -32.4952     0.0000     6.0000 </r>
       <r>   -32.3329     0.0000     6.0000 </r>
       <r>   -32.1705     0.0000     6.0000 </r>
       <r>   -32.0082     0.0000     6.0000 </r>
       <r>   -31.8459     0.0000     6.0000 </r>
       <r>   -31.6836     0.0000     6.0000 </r>
       <r>   -31.5213     0.0000     6.0000 </r>
       <r>   -31.3590     0.0000     6.0000 </r>
       <r>   -31.1967     0.0000     6.0000 </r>
       <r>   -31.0343     0.0000     6.0000 </r>
       <r>   -30.8720     0.0000     6.0000 </r>
       <r>   -30.7097     0.0000     6.0000 </r>
       <r>   -30.5474     0.0000     6.0000 </r>
       <r>   -30.3851     0.0000     6.0000 </r>
       <r>   -30.2228     0.0000     6.0000 </r>
       <r>   -30.0605     0.0000     6.0000 </r>
       <r>   -29.8982     0.0000     6.0000 </r>
       <r>   -29.7358     0.0000     6.0000 </r>
       <r>   -29.5735     0.0000     6.0000 </r>
       <r>   -29.4112     0.0000     6.0000 </r>
       <r>   -29.2489     0.0000     6.0000 </r>
       <r>   -29.0866     0.0000     6.0000 </r>
       <r>   -28.9243     0.0000     6.0000 </r>
       <r>   -28.7620     0.0000     6.0000 </r>
       <r>   -28.5997     0.0000     6.0000 </r>
       <r>   -28.4373     0.0000     6.0000 </r>
       <r>   -28.2750     0.0000     6.0000 </r>
       <r>   -28.1127     0.0000     6.0000 </r>
       <r>   -27.9504     0.0000     6.0000 </r>
       <r>   -27.7881     0.0000     6.0000 </r>
       <r>   -27.6258     0.0000     6.0000 </r>
       <r>   -27.4635     0.0000     6.0000 </r>
       <r>   -27.3012     0.0000     6.0000 </r>
       <r>   -27.1388     0.0000     6.0000 </r>
       <r>   -26.9765     0.0000     6.0000 </r>
       <r>   -26.8142     0.0000     6.0000 </r>
       <r>   -26.6519     0.0000     6.0000 </r>
       <r>   -26.4896     0.0000     6.0000 </r>
       <r>   -26.3273     0.0000     6.0000 </r>
       <r>   -26.1650     0.0000     6.0000 </r>
       <r>   -26.0027     0.0000     6.0000 </r>
       <r>   -25.8403     0.0000     6.0000 </r>
       <r>   -25.6780     0.0000     6.0000 </r>
       <r>   -25.5157     0.0000     6.0000 </r>
       <r>   -25.3534     0.0000     6.0000 </r>
       <r>   -25.1911     0.0000     6.0000 </r>
       <r>   -25.0288     0.0000     6.0000 </r>
       <r>   -24.8665     0.0000     6.0000 </r>
       <r>   -24.7042     0.0000     6.0000 </r>
       <r>   -24.5418     0.0000     6.0000 </r>
       <r>   -24.3795     0.0000     6.0000 </r>
       <r>   -24.2172     0.0000     6.0000 </r>
       <r>   -24.0549     0.0000     6.0000 </r>
       <r>   -23.8926     0.0000     6.0000 </r>
       <r>   -23.7303     0.0000     6.0000 </r>
       <r>   -23.5680     0.0000     6.0000 </r>
       <r>   -23.4057     0.0000     6.0000 </r>
       <r>   -23.2433     0.0000     6.0000 </r>
       <r>   -23.0810     0.0000     6.0000 </r>
       <r>   -22.9187     0.0000     6.0000 </r>
       <r>   -22.7564     0.0000     6.0000 </r>
       <r>   -22.5941     0.0000     6.0000 </r>
       <r>   -22.4318     0.0000     6.0000 </r>
       <r>   -22.2695     0.0000     6.0000 </r>
       <r>   -22.1072     0.0000     6.0000 </r>
       <r>   -21.9448     0.0000     6.0000 </r>
       <r>   -21.7825     0.0000     6.0000 </r>
       <r>   -21.6202     0.0000     6.0000 </r>
       <r>   -21.4579     0.0000     6.0000 </r>
       <r>   -21.2956     0.0000     6.0000 </r>
       <r>   -21.1333     0.0000     6.0000 </r>
       <r>   -20.9710     0.0000     6.0000 </r>
       <r>   -20.8087     0.0000     6.0000 </r>
       <r>   -20.6463     0.0000     6.0000 </r>
       <r>   -20.4840     0.0000     6.0000 </r>
       <r>   -20.3217     0.0000     6.0000 </r>
       <r>   -20.1594     0.0000     6.0000 </r>
       <r>   -19.9971     0.0000     6.0000 </r>
       <r>   -19.8348     0.0000     6.0000 </r>
       <r>   -19.6725     0.0000     6.0000 </r>
       <r>   -19.5101     0.0000     6.0000 </r>
       <r>   -19.3478     0.0000     6.0000 </r>
       <r>   -19.1855     0.0000     6.0000 </r>
       <r>   -19.0232     0.0000     6.0000 </r>
       <r>   -18.8609     0.0000     6.0000 </r>
       <r>   -18.6986     0.0000     6.0000 </r>
       <r>   -18.5363     0.0000     6.0000 </r>
       <r>   -18.3740     0.0000     6.0000 </r>
       <r>   -18.2116     0.0000     6.0000 </r>
       <r>   -18.0493     0.0000     6.0000 </r>
       <r>   -17.8870     0.0000     6.0000 </r>
       <r>   -17.7247     0.0000     6.0000 </r>
       <r>   -17.5624     0.0000     6.0000 </r>
       <r>   -17.4001     0.0000     6.0000 </r>
       <r>   -17.2378     0.0000     6.0000 </r>
       <r>   -17.0755     0.0000     6.0000 </r>
       <r>   -16.9131     0.0000     6.0000 </r>
       <r>   -16.7508     0.0000     6.0000 </r>
       <r>   -16.5885     0.0000     6.0000 </r>
       <r>   -16.4262     0.0000     6.0000 </r>
       <r>   -16.2639     0.0000     6.0000 </r>
       <r>   -16.1016     0.0000     6.0000 </r>
       <r>   -15.9393     0.0000     6.0000 </r>
       <r>   -15.7770     0.0000     6.0000 </r>
       <r>   -15.6146     0.0000     6.0000 </r>
       <r>   -15.4523     0.0000     6.0000 </r>
       <r>   -15.2900     0.0000     6.0000 </r>
       <r>   -15.1277     0.0000     6.0000 </r>
       <r>   -14.9654     0.0000     6.0000 </r>
       <r>   -14.8031    -0.0000     6.0000 </r>
       <r>   -14.6408    -0.0000     6.0000 </r>
       <r>   -14.4785    -0.0000     6.0000 </r>
       <r>   -14.3161    -0.0000     6.0000 </r>
       <r>   -14.1538    -0.0007     5.9999 </r>
       <r>   -13.9915     0.0037     6.0005 </r>
       <r>   -13.8292     0.3660     6.0599 </r>
       <r>   -13.6669     0.5017     6.1413 </r>
       <r>   -13.5046     0.5035     6.2230 </r>
       <r>   -13.3423     0.6692     6.3317 </r>
       <r>   -13.1800     0.5844     6.4265 </r>
       <r>   -13.0176     0.4987     6.5075 </r>
       <r>   -12.8553     0.9558     6.6626 </r>
       <r>   -12.6930     0.5081     6.7451 </r>
       <r>   -12.5307     2.2129     7.1042 </r>
       <r>   -12.3684     2.0561     7.4380 </r>
       <r>   -12.2061     3.3888     7.9880 </r>
       <r>   -12.0438     4.1227     8.6572 </r>
       <r>   -11.8815     5.6705     9.5776 </r>
       <r>   -11.7191     2.6186    10.0026 </r>
       <r>   -11.5568    -0.0126    10.0006 </r>
       <r>   -11.3945    -0.0035    10.0000 </r>
       <r>   -11.2322    -0.0000    10.0000 </r>
       <r>   -11.0699    -0.0000    10.0000 </r>
       <r>   -10.9076     0.0000    10.0000 </r>
       <r>   -10.7453     0.0000    10.0000 </r>
       <r>   -10.5830     0.0000    10.0000 </r>
       <r>   -10.4206     0.0000    10.0000 </r>
       <r>   -10.2583     0.0000    10.0000 </r>
       <r>   -10.0960     0.0000    10.0000 </r>
       <r>    -9.9337     0.0000    10.0000 </r>
       <r>    -9.7714     0.0000    10.0000 </r>
       <r>    -9.6091     0.0000    10.0000 </r>
       <r>    -9.4468     0.0000    10.0000 </r>
       <r>    -9.2845     0.0000    10.0000 </r>
       <r>    -9.1221     0.0000    10.0000 </r>
       <r>    -8.9598     0.0000    10.0000 </r>
       <r>    -8.7975     0.0000    10.0000 </r>
       <r>    -8.6352     0.0000    10.0000 </r>
       <r>    -8.4729     0.0000    10.0000 </r>
       <r>    -8.3106     0.0000    10.0000 </r>
       <r>    -8.1483     0.0000    10.0000 </r>
       <r>    -7.9859     0.0000    10.0000 </r>
       <r>    -7.8236     0.0000    10.0000 </r>
       <r>    -7.6613     0.0000    10.0000 </r>
       <r>    -7.4990     0.0000    10.0000 </r>
       <r>    -7.3367     0.0000    10.0000 </r>
       <r>    -7.1744     0.0000    10.0000 </r>
       <r>    -7.0121     0.0000    10.0000 </r>
       <r>    -6.8498     0.0000    10.0000 </r>
       <r>    -6.6874     0.0000    10.0000 </r>
       <r>    -6.5251    -0.0000    10.0000 </r>
       <r>    -6.3628    -0.0000    10.0000 </r>
       <r>    -6.2005    -0.0000    10.0000 </r>
       <r>    -6.0382    -0.0000    10.0000 </r>
       <r>    -5.8759    -0.0029     9.9995 </r>
       <r>    -5.7136     0.0408    10.0061 </r>
       <r>    -5.5513     0.9947    10.1676 </r>
       <r>    -5.3889     1.4796    10.4078 </r>
       <r>    -5.2266     2.4039    10.7979 </r>
       <r>    -5.0643     3.4660    11.3605 </r>
       <r>    -4.9020     4.5230    12.0947 </r>
       <r>    -4.7397     2.1026    12.4359 </r>
       <r>    -4.5774     2.6253    12.8620 </r>
       <r>    -4.4151     0.6340    12.9649 </r>
       <r>    -4.2528     0.5898    13.0607 </r>
       <r>    -4.0904     1.1549    13.2481 </r>
       <r>    -3.9281     2.6657    13.6808 </r>
       <r>    -3.7658     4.4222    14.3986 </r>
       <r>    -3.6035     3.6817    14.9962 </r>
       <r>    -3.4412     2.3030    15.3700 </r>
       <r>    -3.2789     1.5902    15.6281 </r>
       <r>    -3.1166     4.7631    16.4012 </r>
       <r>    -2.9543     4.5832    17.1451 </r>
       <r>    -2.7919     2.4701    17.5460 </r>
       <r>    -2.6296     1.1790    17.7374 </r>
       <r>    -2.4673     1.4582    17.9741 </r>
       <r>    -2.3050     1.8039    18.2669 </r>
       <r>    -2.1427     2.1807    18.6208 </r>
       <r>    -1.9804     4.3361    19.3246 </r>
       <r>    -1.8181     2.4192    19.7173 </r>
       <r>    -1.6558     3.3647    20.2634 </r>
       <r>    -1.4934     2.7986    20.7177 </r>
       <r>    -1.3311     3.3708    21.2648 </r>
       <r>    -1.1688     1.5140    21.5106 </r>
       <r>    -1.0065     1.7784    21.7992 </r>
       <r>    -0.8442     2.5861    22.2190 </r>
       <r>    -0.6819     3.4615    22.7808 </r>
       <r>    -0.5196     2.5428    23.1935 </r>
       <r>    -0.3573     2.4527    23.5917 </r>
       <r>    -0.1949     1.3562    23.8118 </r>
       <r>    -0.0326     0.7282    23.9300 </r>
       <r>     0.1297     0.2205    23.9658 </r>
       <r>     0.2920     0.2137    24.0004 </r>
       <r>     0.4543    -0.0025    24.0000 </r>
       <r>     0.6166    -0.0003    24.0000 </r>
       <r>     0.7789    -0.0000    24.0000 </r>
       <r>     0.9412    -0.0000    24.0000 </r>
       <r>     1.1036    -0.0000    24.0000 </r>
       <r>     1.2659    -0.0000    24.0000 </r>
       <r>     1.4282    -0.0004    23.9999 </r>
       <r>     1.5905    -0.0210    23.9965 </r>
       <r>     1.7528     0.7011    24.1103 </r>
       <r>     1.9151     1.7623    24.3964 </r>
       <r>     2.0774     3.9096    25.0310 </r>
       <r>     2.2397     4.8902    25.8247 </r>
       <r>     2.4021     3.8431    26.4485 </r>
       <r>     2.5644     5.2470    27.3001 </r>
       <r>     2.7267     4.2138    27.9841 </r>
       <r>     2.8890     3.0678    28.4820 </r>
       <r>     3.0513     2.6917    28.9189 </r>
       <r>     3.2136     2.7104    29.3588 </r>
       <r>     3.3759     1.9520    29.6757 </r>
       <r>     3.5383     1.8834    29.9814 </r>
       <r>     3.7006     1.5207    30.2282 </r>
       <r>     3.8629     1.3275    30.4437 </r>
       <r>     4.0252     2.1495    30.7926 </r>
       <r>     4.1875     2.8528    31.2556 </r>
       <r>     4.3498     1.7499    31.5396 </r>
       <r>     4.5121     1.5940    31.7984 </r>
       <r>     4.6744     0.7372    31.9180 </r>
       <r>     4.8368     0.4279    31.9875 </r>
       <r>     4.9991     0.0809    32.0006 </r>
       <r>     5.1614    -0.0051    31.9998 </r>
       <r>     5.3237     0.0181    32.0027 </r>
       <r>     5.4860     0.2627    32.0454 </r>
       <r>     5.6483     0.2830    32.0913 </r>
       <r>     5.8106     0.4612    32.1662 </r>
       <r>     5.9729     0.7133    32.2819 </r>
       <r>     6.1353     0.3686    32.3418 </r>
       <r>     6.2976     1.0925    32.5191 </r>
       <r>     6.4599     0.8966    32.6646 </r>
       <r>     6.6222     0.6132    32.7642 </r>
       <r>     6.7845     1.5238    33.0115 </r>
       <r>     6.9468     1.4974    33.2546 </r>
       <r>     7.1091     1.2736    33.4613 </r>
       <r>     7.2714     1.1156    33.6424 </r>
       <r>     7.4338     1.9208    33.9541 </r>
       <r>     7.5961     1.7951    34.2455 </r>
       <r>     7.7584     0.4708    34.3219 </r>
       <r>     7.9207     1.5488    34.5733 </r>
       <r>     8.0830     1.7589    34.8588 </r>
       <r>     8.2453     2.3454    35.2395 </r>
       <r>     8.4076     1.5140    35.4852 </r>
       <r>     8.5699     1.0103    35.6492 </r>
       <r>     8.7323     0.8921    35.7940 </r>
       <r>     8.8946     0.6069    35.8925 </r>
       <r>     9.0569     0.5821    35.9870 </r>
       <r>     9.2192     0.0839    36.0006 </r>
       <r>     9.3815    -0.0036    36.0000 </r>
       <r>     9.5438    -0.0000    36.0000 </r>
       <r>     9.7061    -0.0000    36.0000 </r>
       <r>     9.8684     0.0000    36.0000 </r>
       <r>    10.0308     0.0000    36.0000 </r>
       <r>    10.1931     0.0000    36.0000 </r>
       <r>    10.3554     0.0000    36.0000 </r>
       <r>    10.5177     0.0000    36.0000 </r>
       <r>    10.6800     0.0000    36.0000 </r>
       <r>    10.8423     0.0000    36.0000 </r>
       <r>    11.0046     0.0000    36.0000 </r>
       <r>    11.1669     0.0000    36.0000 </r>
       <r>    11.3293     0.0000    36.0000 </r>
      </set>
     </set>
    </array>
   </total>
  </dos>
 </calculation>
 <structure name="finalpos" >
  <crystal>
   <varray name="basis" >
    <v>       3.19031700       0.00000000       0.00000000 </v>
    <v>      -1.59515800       2.76289700       0.00000000 </v>
    <v>       0.00000000       0.00000000      23.14049200 </v>
   </varray>
   <i name="volume">    203.97226633 </i>
   <varray name="rec_basis" >
    <v>       0.31344848       0.18096941       0.00000000 </v>
    <v>       0.00000000       0.36193894       0.00000000 </v>
    <v>       0.00000000       0.00000000       0.04321429 </v>
   </varray>
  </crystal>
  <varray name="positions" >
   <v>       0.66666700       0.33333300       0.06785900 </v>
   <v>       0.33333300       0.66666700       0.00000000 </v>
   <v>       0.33333300       0.66666700       0.13571500 </v>
   <v>       0.80952414       0.33333300       0.35482300 </v>
   <v>       0.47619014       0.66666700       0.28696500 </v>
   <v>       0.47619014       0.66666700       0.42267900 </v>
  </varray>
 </structure>
</modeling>
