<?xml version="1.0" encoding="ISO-8859-1"?>
<modeling>
 <generator>
  <i name="program" type="string">vasp </i>
  <i name="version" type="string">5.4.1  </i>
  <i name="subversion" type="string">24Jun15 (build May 10 2016 14:18:23) complex                          parallel </i>
  <i name="platform" type="string">IFC91_ompi </i>
  <i name="date" type="string">2016 12 09 </i>
  <i name="time" type="string">14:59:18 </i>
 </generator>
 <incar>
  <i type="string" name="PREC">accurate</i>
  <i type="string" name="ALGO"> Fast</i>
  <i type="int" name="ISPIN">     2</i>
  <i type="int" name="IBRION">     2</i>
  <i name="EDIFF">      0.00010000</i>
  <i type="int" name="NSW">     0</i>
  <i type="int" name="ISIF">     3</i>
  <i name="ENCUT">    500.00000000</i>
  <v name="MAGMOM">      6.00000000      0.50000000      0.50000000      6.00000000      0.50000000      0.50000000</v>
  <i type="string" name="LREAL"> Auto</i>
  <i type="int" name="ISMEAR">     1</i>
  <i name="SIGMA">      0.10000000</i>
  <i type="logical" name="LWAVE"> F  </i>
  <i type="logical" name="LCHARG"> F  </i>
  <i type="logical" name="LVTOT"> T  </i>
  <i type="logical" name="LVHAR"> T  </i>
  <i type="logical" name="LAECHG"> F  </i>
  <v type="int" name="KPOINT_BSE">    -1     0     0     0</v>
  <i type="string" name="GGA"> Bo</i>
  <i name="PARAM1">      0.18333333</i>
  <i name="PARAM2">      0.22000000</i>
  <i type="logical" name="LUSE_VDW"> T  </i>
  <i name="AGGAC">      0.00000000</i>
 </incar>
 <kpoints>
  <generation param="Gamma">
   <v type="int" name="divisions">      13       13        1 </v>
   <v name="usershift">      0.00000000       0.00000000       0.00000000 </v>
   <v name="genvec1">      0.07692308       0.00000000       0.00000000 </v>
   <v name="genvec2">      0.00000000       0.07692308       0.00000000 </v>
   <v name="genvec3">      0.00000000       0.00000000       1.00000000 </v>
   <v name="shift">      0.00000000       0.00000000       0.00000000 </v>
  </generation>
  <varray name="kpointlist" >
   <v>       0.00000000       0.00000000       0.00000000 </v>
   <v>       0.07692308      -0.00000000       0.00000000 </v>
   <v>       0.15384615       0.00000000       0.00000000 </v>
   <v>       0.23076923       0.00000000       0.00000000 </v>
   <v>       0.30769231      -0.00000000       0.00000000 </v>
   <v>       0.38461538       0.00000000       0.00000000 </v>
   <v>       0.46153846       0.00000000       0.00000000 </v>
   <v>       0.00000000       0.07692308       0.00000000 </v>
   <v>       0.07692308       0.07692308       0.00000000 </v>
   <v>       0.15384615       0.07692308       0.00000000 </v>
   <v>       0.23076923       0.07692308       0.00000000 </v>
   <v>       0.30769231       0.07692308       0.00000000 </v>
   <v>       0.38461538       0.07692308       0.00000000 </v>
   <v>       0.46153846       0.07692308       0.00000000 </v>
   <v>       0.00000000       0.15384615       0.00000000 </v>
   <v>       0.07692308       0.15384615       0.00000000 </v>
   <v>       0.15384615       0.15384615       0.00000000 </v>
   <v>       0.23076923       0.15384615       0.00000000 </v>
   <v>       0.30769231       0.15384615       0.00000000 </v>
   <v>       0.38461538       0.15384615       0.00000000 </v>
   <v>      -0.07692308       0.15384615       0.00000000 </v>
   <v>       0.00000000       0.23076923       0.00000000 </v>
   <v>       0.07692308       0.23076923       0.00000000 </v>
   <v>       0.15384615       0.23076923       0.00000000 </v>
   <v>       0.23076923       0.23076923       0.00000000 </v>
   <v>       0.30769231       0.23076923       0.00000000 </v>
   <v>       0.38461538       0.23076923       0.00000000 </v>
   <v>      -0.15384615       0.23076923       0.00000000 </v>
   <v>       0.00000000       0.30769231       0.00000000 </v>
   <v>       0.07692308       0.30769231       0.00000000 </v>
   <v>       0.15384615       0.30769231       0.00000000 </v>
   <v>       0.23076923       0.30769231       0.00000000 </v>
   <v>       0.30769231       0.30769231       0.00000000 </v>
   <v>      -0.23076923       0.30769231       0.00000000 </v>
   <v>      -0.15384615       0.30769231       0.00000000 </v>
   <v>       0.00000000       0.38461538       0.00000000 </v>
   <v>       0.07692308       0.38461538       0.00000000 </v>
   <v>       0.15384615       0.38461538       0.00000000 </v>
   <v>       0.23076923       0.38461538       0.00000000 </v>
   <v>       0.30769231       0.38461538       0.00000000 </v>
   <v>      -0.30769231       0.38461538       0.00000000 </v>
   <v>      -0.23076923       0.38461538       0.00000000 </v>
   <v>       0.00000000       0.46153846       0.00000000 </v>
   <v>       0.07692308       0.46153846       0.00000000 </v>
   <v>       0.15384615       0.46153846       0.00000000 </v>
   <v>       0.23076923       0.46153846       0.00000000 </v>
   <v>      -0.38461538       0.46153846       0.00000000 </v>
   <v>      -0.30769231       0.46153846       0.00000000 </v>
   <v>      -0.23076923       0.46153846       0.00000000 </v>
  </varray>
  <varray name="weights" >
   <v>       0.00591716 </v>
   <v>       0.01183432 </v>
   <v>       0.01183432 </v>
   <v>       0.01183432 </v>
   <v>       0.01183432 </v>
   <v>       0.01183432 </v>
   <v>       0.01183432 </v>
   <v>       0.02366864 </v>
   <v>       0.02366864 </v>
   <v>       0.02366864 </v>
   <v>       0.02366864 </v>
   <v>       0.02366864 </v>
   <v>       0.02366864 </v>
   <v>       0.01183432 </v>
   <v>       0.02366864 </v>
   <v>       0.02366864 </v>
   <v>       0.02366864 </v>
   <v>       0.02366864 </v>
   <v>       0.02366864 </v>
   <v>       0.02366864 </v>
   <v>       0.01183432 </v>
   <v>       0.02366864 </v>
   <v>       0.02366864 </v>
   <v>       0.02366864 </v>
   <v>       0.02366864 </v>
   <v>       0.02366864 </v>
   <v>       0.01183432 </v>
   <v>       0.02366864 </v>
   <v>       0.02366864 </v>
   <v>       0.02366864 </v>
   <v>       0.02366864 </v>
   <v>       0.02366864 </v>
   <v>       0.02366864 </v>
   <v>       0.02366864 </v>
   <v>       0.01183432 </v>
   <v>       0.02366864 </v>
   <v>       0.02366864 </v>
   <v>       0.02366864 </v>
   <v>       0.02366864 </v>
   <v>       0.01183432 </v>
   <v>       0.02366864 </v>
   <v>       0.02366864 </v>
   <v>       0.02366864 </v>
   <v>       0.02366864 </v>
   <v>       0.02366864 </v>
   <v>       0.02366864 </v>
   <v>       0.02366864 </v>
   <v>       0.02366864 </v>
   <v>       0.01183432 </v>
  </varray>
 </kpoints>
 <parameters>
  <separator name="general" >
   <i type="string" name="SYSTEM">unknown system</i>
   <i type="logical" name="LCOMPAT"> F  </i>
  </separator>
  <separator name="electronic" >
   <i type="string" name="PREC">accura</i>
   <i name="ENMAX">    500.00000000</i>
   <i name="ENAUG">    392.42700000</i>
   <i name="EDIFF">      0.00010000</i>
   <i type="int" name="IALGO">    68</i>
   <i type="int" name="IWAVPR">    10</i>
   <i type="int" name="NBANDS">    36</i>
   <i name="NELECT">     48.00000000</i>
   <i type="int" name="TURBO">     0</i>
   <i type="int" name="IRESTART">     0</i>
   <i type="int" name="NREBOOT">     0</i>
   <i type="int" name="NMIN">     0</i>
   <i name="EREF">      0.00000000</i>
   <separator name="electronic smearing" >
    <i type="int" name="ISMEAR">     1</i>
    <i name="SIGMA">      0.10000000</i>
    <i name="KSPACING">      0.50000000</i>
    <i type="logical" name="KGAMMA"> T  </i>
   </separator>
   <separator name="electronic projectors" >
    <i type="logical" name="LREAL"> T  </i>
    <v name="ROPT">     -0.00025000     -0.00025000     -0.00025000     -0.00025000</v>
    <i type="int" name="LMAXPAW">  -100</i>
    <i type="int" name="LMAXMIX">     2</i>
    <i type="logical" name="NLSPLINE"> F  </i>
   </separator>
   <separator name="electronic startup" >
    <i type="int" name="ISTART">     0</i>
    <i type="int" name="ICHARG">     2</i>
    <i type="int" name="INIWAV">     1</i>
   </separator>
   <separator name="electronic spin" >
    <i type="int" name="ISPIN">     2</i>
    <i type="logical" name="LNONCOLLINEAR"> F  </i>
    <v name="MAGMOM">      6.00000000      0.50000000      0.50000000      6.00000000      0.50000000      0.50000000</v>
    <i name="NUPDOWN">     -1.00000000</i>
    <i type="logical" name="LSORBIT"> F  </i>
    <v name="SAXIS">      0.00000000      0.00000000      1.00000000</v>
    <i type="logical" name="LSPIRAL"> F  </i>
    <v name="QSPIRAL">      0.00000000      0.00000000      0.00000000</v>
    <i type="logical" name="LZEROZ"> F  </i>
   </separator>
   <separator name="electronic exchange-correlation" >
    <i type="logical" name="LASPH"> F  </i>
    <i type="logical" name="LMETAGGA"> F  </i>
   </separator>
   <separator name="electronic convergence" >
    <i type="int" name="NELM">    60</i>
    <i type="int" name="NELMDL">     0</i>
    <i type="int" name="NELMIN">     2</i>
    <i name="ENINI">    500.00000000</i>
    <separator name="electronic convergence detail" >
     <i type="logical" name="LDIAG"> T  </i>
     <i type="logical" name="LSUBROT"> F  </i>
     <i name="WEIMIN">      0.00000000</i>
     <i name="EBREAK">      0.00000069</i>
     <i name="DEPER">      0.30000000</i>
     <i type="int" name="NRMM">     4</i>
     <i name="TIME">      0.40000000</i>
    </separator>
   </separator>
   <separator name="electronic mixer" >
    <i name="AMIX">      0.40000000</i>
    <i name="BMIX">      1.00000000</i>
    <i name="AMIN">      0.10000000</i>
    <i name="AMIX_MAG">      1.60000000</i>
    <i name="BMIX_MAG">      1.00000000</i>
    <separator name="electronic mixer details" >
     <i type="int" name="IMIX">     4</i>
     <i type="logical" name="MIXFIRST"> F  </i>
     <i type="int" name="MAXMIX">   -45</i>
     <i name="WC">    100.00000000</i>
     <i type="int" name="INIMIX">     1</i>
     <i type="int" name="MIXPRE">     1</i>
     <i type="int" name="MREMOVE">     5</i>
    </separator>
   </separator>
   <separator name="electronic dipolcorrection" >
    <i type="logical" name="LDIPOL"> F  </i>
    <i type="logical" name="LMONO"> F  </i>
    <i type="int" name="IDIPOL">     0</i>
    <i name="EPSILON">      1.00000000</i>
    <v name="DIPOL">   -100.00000000   -100.00000000   -100.00000000</v>
    <i name="EFIELD">      0.00000000</i>
   </separator>
  </separator>
  <separator name="grids" >
   <i type="int" name="NGX">    24</i>
   <i type="int" name="NGY">    24</i>
   <i type="int" name="NGZ">   180</i>
   <i type="int" name="NGXF">    48</i>
   <i type="int" name="NGYF">    48</i>
   <i type="int" name="NGZF">   360</i>
   <i type="logical" name="ADDGRID"> F  </i>
  </separator>
  <separator name="ionic" >
   <i type="int" name="NSW">     0</i>
   <i type="int" name="IBRION">    -1</i>
   <i type="int" name="ISIF">     3</i>
   <i name="PSTRESS">      0.00000000</i>
   <i name="EDIFFG">      0.00100000</i>
   <i type="int" name="NFREE">     1</i>
   <i name="POTIM">      0.50000000</i>
   <i name="SMASS">     -3.00000000</i>
   <i name="SCALEE">      1.00000000</i>
  </separator>
  <separator name="ionic md" >
   <i name="TEBEG">      0.00010000</i>
   <i name="TEEND">      0.00010000</i>
   <i type="int" name="NBLOCK">     1</i>
   <i type="int" name="KBLOCK">     1</i>
   <i type="int" name="NPACO">   256</i>
   <i name="APACO">     16.00000000</i>
  </separator>
  <separator name="symmetry" >
   <i type="int" name="ISYM">     2</i>
   <i name="SYMPREC">      0.00001000</i>
  </separator>
  <separator name="dos" >
   <i type="logical" name="LORBIT"> F  </i>
   <v name="RWIGS">     -1.00000000     -1.00000000     -1.00000000     -1.00000000</v>
   <i type="int" name="NEDOS">   301</i>
   <i name="EMIN">     10.00000000</i>
   <i name="EMAX">    -10.00000000</i>
   <i name="EFERMI">      0.00000000</i>
  </separator>
  <separator name="writing" >
   <i type="int" name="NWRITE">     2</i>
   <i type="logical" name="LWAVE"> F  </i>
   <i type="logical" name="LCHARG"> F  </i>
   <i type="logical" name="LPARD"> F  </i>
   <i type="logical" name="LVTOT"> F  </i>
   <i type="logical" name="LVHAR"> T  </i>
   <i type="logical" name="LELF"> F  </i>
   <i type="logical" name="LOPTICS"> F  </i>
   <v name="STM">      0.00000000      0.00000000      0.00000000      0.00000000      0.00000000      0.00000000      0.00000000</v>
  </separator>
  <separator name="performance" >
   <i type="int" name="NPAR">     4</i>
   <i type="int" name="NSIM">     4</i>
   <i type="int" name="NBLK">    -1</i>
   <i type="logical" name="LPLANE"> T  </i>
   <i type="logical" name="LSCALAPACK"> T  </i>
   <i type="logical" name="LSCAAWARE"> F  </i>
   <i type="logical" name="LSCALU"> F  </i>
   <i type="logical" name="LASYNC"> F  </i>
   <i type="logical" name="LORBITALREAL"> F  </i>
  </separator>
  <separator name="miscellaneous" >
   <i type="int" name="IDIOT">     3</i>
   <i type="logical" name="LMUSIC"> F  </i>
   <v name="POMASS">     95.94000000     32.06600000     95.94000000     32.06600000</v>
   <v name="DARWINR">      0.00000000      0.00000000      0.00000000      0.00000000</v>
   <v name="DARWINV">      1.00000000      1.00000000      1.00000000      1.00000000</v>
   <i type="logical" name="LCORR"> T  </i>
  </separator>
  <i type="logical" name="GGA_COMPAT"> T  </i>
  <i type="logical" name="LBERRY"> F  </i>
  <i type="int" name="ICORELEVEL">     0</i>
  <i type="logical" name="LDAU"> F  </i>
  <i type="int" name="I_CONSTRAINED_M">     0</i>
  <separator name="electronic exchange-correlation" >
   <i type="string" name="GGA">BO</i>
   <i type="int" name="VOSKOWN">     0</i>
   <i type="logical" name="LHFCALC"> F  </i>
   <i type="string" name="PRECFOCK"></i>
   <i type="logical" name="LSYMGRAD"> F  </i>
   <i type="logical" name="LHFONE"> F  </i>
   <i type="logical" name="LRHFCALC"> F  </i>
   <i type="logical" name="LTHOMAS"> F  </i>
   <i type="logical" name="LMODELHF"> F  </i>
   <i name="ENCUT4O">     -1.00000000</i>
   <i type="int" name="EXXOEP">     0</i>
   <i type="int" name="FOURORBIT">     0</i>
   <i name="AEXX">      0.00000000</i>
   <i name="HFALPHA">      0.00000000</i>
   <i name="MCALPHA">      0.00000000</i>
   <i name="ALDAX">      1.00000000</i>
   <i name="AGGAX">      1.00000000</i>
   <i name="ALDAC">      1.00000000</i>
   <i name="AGGAC">      0.00000000</i>
   <i type="int" name="NKREDX">     1</i>
   <i type="int" name="NKREDY">     1</i>
   <i type="int" name="NKREDZ">     1</i>
   <i type="logical" name="SHIFTRED"> F  </i>
   <i type="logical" name="ODDONLY"> F  </i>
   <i type="logical" name="EVENONLY"> F  </i>
   <i type="int" name="LMAXFOCK">     0</i>
   <i type="int" name="NMAXFOCKAE">     0</i>
   <i type="logical" name="LFOCKAEDFT"> F  </i>
   <i name="HFSCREEN">      0.00000000</i>
   <i name="HFSCREENC">      0.00000000</i>
   <i type="int" name="NBANDSGWLOW">     0</i>
  </separator>
  <separator name="vdW DFT" >
   <i type="logical" name="LUSE_VDW"> T  </i>
   <i name="Zab_VDW">     -0.84910000</i>
   <i name="PARAM1">      0.18333333</i>
   <i name="PARAM2">      0.22000000</i>
   <i name="PARAM3">      0.00000000</i>
  </separator>
  <separator name="model GW" >
   <i type="int" name="MODEL_GW">     0</i>
   <i name="MODEL_EPS0">     20.39722663</i>
   <i name="MODEL_ALPHA">      1.00000000</i>
  </separator>
  <separator name="linear response parameters" >
   <i type="logical" name="LEPSILON"> F  </i>
   <i type="logical" name="LRPA"> F  </i>
   <i type="logical" name="LNABLA"> F  </i>
   <i type="logical" name="LVEL"> F  </i>
   <i type="int" name="KINTER">     0</i>
   <i name="CSHIFT">      0.10000000</i>
   <i name="OMEGAMAX">     -1.00000000</i>
   <i name="DEG_THRESHOLD">      0.00200000</i>
  </separator>
  <separator name="orbital magnetization" >
   <i type="logical" name="NUCIND"> F  </i>
   <v name="MAGPOS">      0.00000000      0.00000000      0.00000000</v>
   <i type="logical" name="LNICSALL"> T  </i>
   <i type="logical" name="ORBITALMAG"> F  </i>
   <i type="logical" name="LMAGBLOCH"> F  </i>
   <i type="logical" name="LCHIMAG"> F  </i>
   <i type="logical" name="LGAUGE"> T  </i>
   <i type="int" name="MAGATOM">     0</i>
   <v name="MAGDIPOL">      0.00000000      0.00000000      0.00000000</v>
   <v name="AVECCONST">      0.00000000      0.00000000      0.00000000</v>
  </separator>
  <separator name="response functions" >
   <i type="logical" name="LADDER"> F  </i>
   <i type="logical" name="LFXC"> F  </i>
   <i type="logical" name="LHARTREE"> T  </i>
   <i type="int" name="IBSE">     0</i>
   <v type="int" name="KPOINT">    -1     0     0     0</v>
   <i type="logical" name="LTCTE"> F  </i>
   <i type="logical" name="LTETE"> F  </i>
   <i type="logical" name="LTRIPLET"> F  </i>
   <i type="logical" name="LFXCEPS"> F  </i>
   <i type="logical" name="LFXHEG"> F  </i>
   <i type="int" name="NATURALO">     0</i>
   <i type="logical" name="L2ORDER"> F  </i>
   <i type="logical" name="LUSEW"> F  </i>
   <i name="ENCUTGW">     -2.00000000</i>
   <i name="ENCUTGWSOFT">     -2.00000000</i>
   <i name="ENCUTLF">     -1.00000000</i>
   <i type="int" name="LMAXMP2">    -1</i>
   <i name="SCISSOR">      0.00000000</i>
   <i type="int" name="NOMEGA">     0</i>
   <i type="int" name="NOMEGAR">     0</i>
   <i type="int" name="NBANDSGW">    -1</i>
   <i type="int" name="NBANDSO">    -1</i>
   <i type="int" name="NBANDSV">    -1</i>
   <i type="int" name="NELM">     1</i>
   <i type="int" name="NELMHF">     1</i>
   <i type="int" name="DIM">     3</i>
   <i type="int" name="ANTIRES">     0</i>
   <i name="OMEGAMAX">    -30.00000000</i>
   <i name="OMEGAMIN">    -30.00000000</i>
   <i name="OMEGATL">   -200.00000000</i>
   <i type="int" name="OMEGAGRID">     0</i>
   <i name="CSHIFT">     -0.10000000</i>
   <i type="logical" name="SELFENERGY"> F  </i>
   <i type="logical" name="LSPECTRAL"> F  </i>
   <i type="logical" name="LSPECTRALGW"> F  </i>
   <i type="logical" name="LSINGLES"> F  </i>
   <i type="logical" name="LFERMIGW"> F  </i>
   <i type="logical" name="ODDONLYGW"> F  </i>
   <i type="logical" name="EVENONLYGW"> F  </i>
   <i type="int" name="NKREDLFX">     1</i>
   <i type="int" name="NKREDLFY">     1</i>
   <i type="int" name="NKREDLFZ">     1</i>
   <i type="int" name="MAXMEM">  1800</i>
   <i type="int" name="TELESCOPE">     0</i>
   <i type="int" name="TAUPAR">     1</i>
   <i type="int" name="OMEGAPAR">    -1</i>
   <i name="LAMBDA">      1.00000000</i>
  </separator>
  <separator name="External order field" >
   <i name="OFIELD_KAPPA">      0.00000000</i>
   <v name="OFIELD_K">      0.00000000      0.00000000      0.00000000</v>
   <i name="OFIELD_Q6_NEAR">      0.00000000</i>
   <i name="OFIELD_Q6_FAR">      0.00000000</i>
   <i name="OFIELD_A">      0.00000000</i>
  </separator>
 </parameters>
 <atominfo>
  <atoms>       6 </atoms>
  <types>       4 </types>
  <array name="atoms" >
   <dimension dim="1">ion</dimension>
   <field type="string">element</field>
   <field type="int">atomtype</field>
   <set>
    <rc><c>Mo</c><c>   1</c></rc>
    <rc><c>S </c><c>   2</c></rc>
    <rc><c>S </c><c>   2</c></rc>
    <rc><c>Mo</c><c>   3</c></rc>
    <rc><c>S </c><c>   4</c></rc>
    <rc><c>S </c><c>   4</c></rc>
   </set>
  </array>
  <array name="atomtypes" >
   <dimension dim="1">type</dimension>
   <field type="int">atomspertype</field>
   <field type="string">element</field>
   <field>mass</field>
   <field>valence</field>
   <field type="string">pseudopotential</field>
   <set>
    <rc><c>   1</c><c>Mo</c><c>     95.94000000</c><c>     12.00000000</c><c> PAW_PBE Mo_pv 08Apr2002                </c></rc>
    <rc><c>   2</c><c>S </c><c>     32.06600000</c><c>      6.00000000</c><c>  PAW_PBE S 17Jan2003                   </c></rc>
    <rc><c>   1</c><c>Mo</c><c>     95.94000000</c><c>     12.00000000</c><c> PAW_PBE Mo_pv 08Apr2002                </c></rc>
    <rc><c>   2</c><c>S </c><c>     32.06600000</c><c>      6.00000000</c><c>  PAW_PBE S 17Jan2003                   </c></rc>
   </set>
  </array>
 </atominfo>
 <structure name="initialpos" >
  <crystal>
   <varray name="basis" >
    <v>       3.19031700       0.00000000       0.00000000 </v>
    <v>      -1.59515800       2.76289700       0.00000000 </v>
    <v>       0.00000000       0.00000000      23.14049200 </v>
   </varray>
   <i name="volume">    203.97226633 </i>
   <varray name="rec_basis" >
    <v>       0.31344848       0.18096941       0.00000000 </v>
    <v>       0.00000000       0.36193894       0.00000000 </v>
    <v>       0.00000000       0.00000000       0.04321429 </v>
   </varray>
  </crystal>
  <varray name="positions" >
   <v>       0.66666700       0.33333300       0.06785900 </v>
   <v>       0.33333300       0.66666700       0.00000000 </v>
   <v>       0.33333300       0.66666700       0.13571500 </v>
   <v>       0.09523843       0.04761871       0.35482300 </v>
   <v>       0.76190443       0.38095271       0.28696500 </v>
   <v>       0.76190443       0.38095271       0.42267900 </v>
  </varray>
 </structure>
 <calculation>
  <scstep>
   <time name="dav">   62.38   62.42</time>
   <time name="total">   81.93   82.01</time>
   <energy>
    <i name="alphaZ">    104.15310261 </i>
    <i name="ewald">   7698.95527200 </i>
    <i name="hartreedc"> -11109.01428938 </i>
    <i name="XCdc">    128.46206256 </i>
    <i name="pawpsdc">   2252.92270536 </i>
    <i name="pawaedc">  -2205.68654582 </i>
    <i name="eentropy">      0.00026566 </i>
    <i name="bandstr">   -160.48614358 </i>
    <i name="atom">   3688.31848598 </i>
    <i name="e_fr_energy">    397.62491539 </i>
    <i name="e_wo_entrp">    397.62464973 </i>
    <i name="e_0_energy">    397.62482684 </i>
   </energy>
  </scstep>
  <scstep>
   <time name="dav">   67.62   67.68</time>
   <time name="total">   67.63   67.69</time>
   <energy>
    <i name="e_fr_energy">     -1.66222483 </i>
    <i name="e_wo_entrp">     -1.66247944 </i>
    <i name="e_0_energy">     -1.66230970 </i>
   </energy>
  </scstep>
  <scstep>
   <time name="dav">   69.40   69.46</time>
   <time name="total">   69.41   69.47</time>
   <energy>
    <i name="e_fr_energy">    -32.97427655 </i>
    <i name="e_wo_entrp">    -32.97541794 </i>
    <i name="e_0_energy">    -32.97465702 </i>
   </energy>
  </scstep>
  <scstep>
   <time name="dav">   66.31   66.36</time>
   <time name="total">   66.32   66.37</time>
   <energy>
    <i name="e_fr_energy">    -33.85079774 </i>
    <i name="e_wo_entrp">    -33.85223305 </i>
    <i name="e_0_energy">    -33.85127618 </i>
   </energy>
  </scstep>
  <scstep>
   <time name="dav">   69.38   69.43</time>
   <time name="total">   74.83   74.89</time>
   <energy>
    <i name="e_fr_energy">    -33.87813553 </i>
    <i name="e_wo_entrp">    -33.87959648 </i>
    <i name="e_0_energy">    -33.87862252 </i>
   </energy>
  </scstep>
  <scstep>
   <time name="diag">   13.09   13.10</time>
   <time name="diis">   44.93   44.96</time>
   <time name="orth">    0.45    0.45</time>
   <time name="total">   82.80   82.86</time>
   <energy>
    <i name="e_fr_energy">    -30.11815838 </i>
    <i name="e_wo_entrp">    -30.11758149 </i>
    <i name="e_0_energy">    -30.11796608 </i>
   </energy>
  </scstep>
  <scstep>
   <time name="diag">   13.10   13.11</time>
   <time name="diis">   44.92   44.95</time>
   <time name="orth">    0.45    0.45</time>
   <time name="total">   82.86   83.12</time>
   <energy>
    <i name="e_fr_energy">    -32.81259561 </i>
    <i name="e_wo_entrp">    -32.81314939 </i>
    <i name="e_0_energy">    -32.81278020 </i>
   </energy>
  </scstep>
  <scstep>
   <time name="diag">   13.19   13.20</time>
   <time name="diis">   47.44   47.48</time>
   <time name="orth">    0.44    0.44</time>
   <time name="total">   85.26   85.33</time>
   <energy>
    <i name="e_fr_energy">    -34.32164287 </i>
    <i name="e_wo_entrp">    -34.32180969 </i>
    <i name="e_0_energy">    -34.32169848 </i>
   </energy>
  </scstep>
  <scstep>
   <time name="diag">   13.05   13.06</time>
   <time name="diis">   44.41   44.44</time>
   <time name="orth">    0.46    0.46</time>
   <time name="total">   82.26   82.33</time>
   <energy>
    <i name="e_fr_energy">    -37.04971971 </i>
    <i name="e_wo_entrp">    -37.04988811 </i>
    <i name="e_0_energy">    -37.04977585 </i>
   </energy>
  </scstep>
  <scstep>
   <time name="diag">   13.07   13.08</time>
   <time name="diis">   40.93   40.96</time>
   <time name="orth">    0.46    0.46</time>
   <time name="total">   78.83   78.89</time>
   <energy>
    <i name="e_fr_energy">    -39.09657502 </i>
    <i name="e_wo_entrp">    -39.09674336 </i>
    <i name="e_0_energy">    -39.09663113 </i>
   </energy>
  </scstep>
  <scstep>
   <time name="diag">   13.02   13.03</time>
   <time name="diis">   43.93   43.96</time>
   <time name="orth">    0.46    0.46</time>
   <time name="total">   81.93   82.00</time>
   <energy>
    <i name="e_fr_energy">    -39.38721127 </i>
    <i name="e_wo_entrp">    -39.38754555 </i>
    <i name="e_0_energy">    -39.38732270 </i>
   </energy>
  </scstep>
  <scstep>
   <time name="diag">   13.02   13.03</time>
   <time name="diis">   44.47   44.50</time>
   <time name="orth">    0.44    0.44</time>
   <time name="total">   82.35   82.42</time>
   <energy>
    <i name="e_fr_energy">    -39.41506361 </i>
    <i name="e_wo_entrp">    -39.41539821 </i>
    <i name="e_0_energy">    -39.41517514 </i>
   </energy>
  </scstep>
  <scstep>
   <time name="diag">   13.17   13.18</time>
   <time name="diis">   46.61   46.64</time>
   <time name="orth">    0.46    0.46</time>
   <time name="total">   84.88   85.21</time>
   <energy>
    <i name="e_fr_energy">    -39.42588818 </i>
    <i name="e_wo_entrp">    -39.42622310 </i>
    <i name="e_0_energy">    -39.42599982 </i>
   </energy>
  </scstep>
  <scstep>
   <time name="diag">   13.08   13.09</time>
   <time name="diis">   46.16   46.19</time>
   <time name="orth">    0.45    0.45</time>
   <time name="total">   84.23   84.29</time>
   <energy>
    <i name="e_fr_energy">    -39.42854585 </i>
    <i name="e_wo_entrp">    -39.42888190 </i>
    <i name="e_0_energy">    -39.42865787 </i>
   </energy>
  </scstep>
  <scstep>
   <time name="diag">   13.17   13.18</time>
   <time name="diis">   41.30   41.33</time>
   <time name="orth">    0.46    0.46</time>
   <time name="total">   79.53   79.59</time>
   <energy>
    <i name="e_fr_energy">    -39.42825390 </i>
    <i name="e_wo_entrp">    -39.42858993 </i>
    <i name="e_0_energy">    -39.42836591 </i>
   </energy>
  </scstep>
  <scstep>
   <time name="diag">   12.99   13.00</time>
   <time name="diis">   32.87   32.89</time>
   <time name="orth">    0.46    0.46</time>
   <time name="total">   70.83   70.89</time>
   <energy>
    <i name="e_fr_energy">    -39.42856884 </i>
    <i name="e_wo_entrp">    -39.42890490 </i>
    <i name="e_0_energy">    -39.42868086 </i>
   </energy>
  </scstep>
  <scstep>
   <time name="diag">   13.04   13.05</time>
   <time name="diis">   31.81   31.84</time>
   <time name="orth">    0.46    0.46</time>
   <time name="total">   69.82   69.87</time>
   <energy>
    <i name="e_fr_energy">    -39.42874074 </i>
    <i name="e_wo_entrp">    -39.42907679 </i>
    <i name="e_0_energy">    -39.42885276 </i>
   </energy>
  </scstep>
  <scstep>
   <time name="diag">   13.07   13.08</time>
   <time name="diis">   30.28   30.30</time>
   <time name="orth">    0.45    0.45</time>
   <time name="total">   68.37   68.42</time>
   <energy>
    <i name="e_fr_energy">    -39.42914936 </i>
    <i name="e_wo_entrp">    -39.42948538 </i>
    <i name="e_0_energy">    -39.42926137 </i>
   </energy>
  </scstep>
  <scstep>
   <time name="diag">   13.13   13.14</time>
   <time name="diis">   30.45   30.47</time>
   <time name="orth">    0.45    0.45</time>
   <time name="total">   68.63   68.68</time>
   <energy>
    <i name="e_fr_energy">    -39.42958449 </i>
    <i name="e_wo_entrp">    -39.42992048 </i>
    <i name="e_0_energy">    -39.42969649 </i>
   </energy>
  </scstep>
  <scstep>
   <time name="diag">   12.88   12.89</time>
   <time name="diis">   30.97   30.99</time>
   <time name="orth">    0.47    0.47</time>
   <time name="total">   68.83   68.88</time>
   <energy>
    <i name="e_fr_energy">    -39.42979982 </i>
    <i name="e_wo_entrp">    -39.43013579 </i>
    <i name="e_0_energy">    -39.42991181 </i>
   </energy>
  </scstep>
  <scstep>
   <time name="diag">   13.07   13.08</time>
   <time name="diis">   29.24   29.26</time>
   <time name="orth">    0.47    0.47</time>
   <time name="total">   61.41   61.76</time>
   <energy>
    <i name="alphaZ">    104.15310261 </i>
    <i name="ewald">   7698.95527200 </i>
    <i name="hartreedc"> -11092.57794179 </i>
    <i name="XCdc">    122.65565413 </i>
    <i name="pawpsdc">   2399.25640807 </i>
    <i name="pawaedc">  -2361.44015763 </i>
    <i name="eentropy">      0.00033597 </i>
    <i name="bandstr">   -598.75097280 </i>
    <i name="atom">   3688.31848598 </i>
    <i name="e_fr_energy">    -39.42981346 </i>
    <i name="e_wo_entrp">    -39.43014943 </i>
    <i name="e_0_energy">    -39.42992545 </i>
   </energy>
  </scstep>
  <structure>
   <crystal>
    <varray name="basis" >
     <v>       3.19031700       0.00000000       0.00000000 </v>
     <v>      -1.59515800       2.76289700       0.00000000 </v>
     <v>       0.00000000       0.00000000      23.14049200 </v>
    </varray>
    <i name="volume">    203.97226633 </i>
    <varray name="rec_basis" >
     <v>       0.31344848       0.18096941       0.00000000 </v>
     <v>       0.00000000       0.36193894       0.00000000 </v>
     <v>       0.00000000       0.00000000       0.04321429 </v>
    </varray>
   </crystal>
   <varray name="positions" >
    <v>       0.66666700       0.33333300       0.06785900 </v>
    <v>       0.33333300       0.66666700       0.00000000 </v>
    <v>       0.33333300       0.66666700       0.13571500 </v>
    <v>       0.09523843       0.04761871       0.35482300 </v>
    <v>       0.76190443       0.38095271       0.28696500 </v>
    <v>       0.76190443       0.38095271       0.42267900 </v>
   </varray>
  </structure>
  <varray name="forces" >
   <v>       0.00148420       0.00085690      -0.00435587 </v>
   <v>      -0.00082227      -0.00047474      -0.05460280 </v>
   <v>       0.00880363       0.00508278       0.13037529 </v>
   <v>      -0.00272207      -0.00157159       0.00050982 </v>
   <v>      -0.00661799      -0.00382090      -0.13192387 </v>
   <v>      -0.00012549      -0.00007245       0.05999743 </v>
  </varray>
  <varray name="stress" >
   <v>       3.58714288       0.11856120      -0.32484380 </v>
   <v>       0.11856120       3.45024452      -0.18754873 </v>
   <v>      -0.32484385      -0.18754876      -0.50741585 </v>
  </varray>
  <energy>
   <i name="e_fr_energy">    -39.42981346 </i>
   <i name="e_wo_entrp">    -39.42992545 </i>
   <i name="e_0_energy">      0.00033597 </i>
  </energy>
  <time name="totalsc"> 1720.05 1722.22</time>
  <eigenvalues>
   <array>
    <dimension dim="1">band</dimension>
    <dimension dim="2">kpoint</dimension>
    <dimension dim="3">spin</dimension>
    <field>eigene</field>
    <field>occ</field>
    <set>
     <set comment="spin 1">
      <set comment="kpoint 1">
       <r>  -35.0007    1.0000 </r>
       <r>  -34.9836    1.0000 </r>
       <r>  -34.8101    1.0000 </r>
       <r>  -34.8100    1.0000 </r>
       <r>  -34.7931    1.0000 </r>
       <r>  -34.7931    1.0000 </r>
       <r>  -13.9765    1.0000 </r>
       <r>  -13.9197    1.0000 </r>
       <r>  -12.7097    1.0000 </r>
       <r>  -12.6170    1.0000 </r>
       <r>   -5.6840    1.0000 </r>
       <r>   -5.4006    1.0000 </r>
       <r>   -2.6302    1.0000 </r>
       <r>   -2.6301    1.0000 </r>
       <r>   -2.6131    1.0000 </r>
       <r>   -2.6129    1.0000 </r>
       <r>   -2.1707    1.0000 </r>
       <r>   -1.5370    1.0000 </r>
       <r>   -1.5363    1.0000 </r>
       <r>   -1.5191    1.0000 </r>
       <r>   -1.5186    1.0000 </r>
       <r>   -1.4798    1.0000 </r>
       <r>   -0.2213    1.0000 </r>
       <r>    0.2059    0.7931 </r>
       <r>    2.6877   -0.0000 </r>
       <r>    2.6943   -0.0000 </r>
       <r>    2.7128   -0.0000 </r>
       <r>    2.7176   -0.0000 </r>
       <r>    2.8688   -0.0000 </r>
       <r>    2.8766   -0.0000 </r>
       <r>    2.8963   -0.0000 </r>
       <r>    2.9060   -0.0000 </r>
       <r>    5.2665    0.0000 </r>
       <r>    5.3920    0.0000 </r>
       <r>    6.3847    0.0000 </r>
       <r>    6.5394    0.0000 </r>
      </set>
      <set comment="kpoint 2">
       <r>  -34.9966    1.0000 </r>
       <r>  -34.9795    1.0000 </r>
       <r>  -34.8314    1.0000 </r>
       <r>  -34.8149    1.0000 </r>
       <r>  -34.8144    1.0000 </r>
       <r>  -34.7980    1.0000 </r>
       <r>  -13.8898    1.0000 </r>
       <r>  -13.8333    1.0000 </r>
       <r>  -12.6730    1.0000 </r>
       <r>  -12.5827    1.0000 </r>
       <r>   -5.5845    1.0000 </r>
       <r>   -5.3020    1.0000 </r>
       <r>   -2.8171    1.0000 </r>
       <r>   -2.7997    1.0000 </r>
       <r>   -2.5394    1.0000 </r>
       <r>   -2.5223    1.0000 </r>
       <r>   -2.4593    1.0000 </r>
       <r>   -2.0755    1.0000 </r>
       <r>   -1.6740    1.0000 </r>
       <r>   -1.6563    1.0000 </r>
       <r>   -1.3532    1.0000 </r>
       <r>   -1.0800    1.0000 </r>
       <r>   -0.2418    1.0000 </r>
       <r>    0.1269    1.0348 </r>
       <r>    2.5887   -0.0000 </r>
       <r>    2.6068   -0.0000 </r>
       <r>    2.6473   -0.0000 </r>
       <r>    2.6935   -0.0000 </r>
       <r>    2.7758   -0.0000 </r>
       <r>    2.8053   -0.0000 </r>
       <r>    2.8415   -0.0000 </r>
       <r>    2.8632   -0.0000 </r>
       <r>    5.4082    0.0000 </r>
       <r>    5.5291    0.0000 </r>
       <r>    6.7433    0.0000 </r>
       <r>    6.9226    0.0000 </r>
      </set>
      <set comment="kpoint 3">
       <r>  -34.9852    1.0000 </r>
       <r>  -34.9681    1.0000 </r>
       <r>  -34.8899    1.0000 </r>
       <r>  -34.8728    1.0000 </r>
       <r>  -34.8283    1.0000 </r>
       <r>  -34.8114    1.0000 </r>
       <r>  -13.6409    1.0000 </r>
       <r>  -13.5858    1.0000 </r>
       <r>  -12.5677    1.0000 </r>
       <r>  -12.4848    1.0000 </r>
       <r>   -5.3236    1.0000 </r>
       <r>   -5.0485    1.0000 </r>
       <r>   -3.2658    1.0000 </r>
       <r>   -3.2487    1.0000 </r>
       <r>   -2.9607    1.0000 </r>
       <r>   -2.6911    1.0000 </r>
       <r>   -2.2841    1.0000 </r>
       <r>   -2.2664    1.0000 </r>
       <r>   -2.0097    1.0000 </r>
       <r>   -1.9907    1.0000 </r>
       <r>   -1.2552    1.0000 </r>
       <r>   -0.9590    1.0000 </r>
       <r>   -0.3693    1.0000 </r>
       <r>   -0.1595    1.0000 </r>
       <r>    2.1865   -0.0000 </r>
       <r>    2.3543   -0.0000 </r>
       <r>    2.4991   -0.0000 </r>
       <r>    2.5434   -0.0000 </r>
       <r>    2.5831   -0.0000 </r>
       <r>    2.6062   -0.0000 </r>
       <r>    3.1848    0.0000 </r>
       <r>    3.2156    0.0000 </r>
       <r>    5.7635    0.0000 </r>
       <r>    5.8776    0.0000 </r>
       <r>    7.4164    0.0000 </r>
       <r>    7.8218    0.0000 </r>
      </set>
      <set comment="kpoint 4">
       <r>  -34.9713    1.0000 </r>
       <r>  -34.9691    1.0000 </r>
       <r>  -34.9544    1.0000 </r>
       <r>  -34.9520    1.0000 </r>
       <r>  -34.8471    1.0000 </r>
       <r>  -34.8302    1.0000 </r>
       <r>  -13.2651    1.0000 </r>
       <r>  -13.2130    1.0000 </r>
       <r>  -12.4094    1.0000 </r>
       <r>  -12.3383    1.0000 </r>
       <r>   -5.0604    1.0000 </r>
       <r>   -4.8312    1.0000 </r>
       <r>   -3.7167    1.0000 </r>
       <r>   -3.6895    1.0000 </r>
       <r>   -3.4904    1.0000 </r>
       <r>   -3.3119    1.0000 </r>
       <r>   -2.4054    1.0000 </r>
       <r>   -2.3851    1.0000 </r>
       <r>   -1.9154    1.0000 </r>
       <r>   -1.8958    1.0000 </r>
       <r>   -1.4119    1.0000 </r>
       <r>   -1.1623    1.0000 </r>
       <r>   -0.6822    1.0000 </r>
       <r>   -0.6149    1.0000 </r>
       <r>    1.9516   -0.0000 </r>
       <r>    2.2311   -0.0000 </r>
       <r>    2.2922   -0.0000 </r>
       <r>    2.3352   -0.0000 </r>
       <r>    2.6957   -0.0000 </r>
       <r>    2.8895   -0.0000 </r>
       <r>    3.5609    0.0000 </r>
       <r>    3.6073    0.0000 </r>
       <r>    6.2795    0.0000 </r>
       <r>    6.3858    0.0000 </r>
       <r>    7.8782    0.0000 </r>
       <r>    8.3016    0.0000 </r>
      </set>
      <set comment="kpoint 5">
       <r>  -35.0566    1.0000 </r>
       <r>  -35.0396    1.0000 </r>
       <r>  -34.9520    1.0000 </r>
       <r>  -34.9349    1.0000 </r>
       <r>  -34.8670    1.0000 </r>
       <r>  -34.8501    1.0000 </r>
       <r>  -12.8234    1.0000 </r>
       <r>  -12.7777    1.0000 </r>
       <r>  -12.2260    1.0000 </r>
       <r>  -12.1705    1.0000 </r>
       <r>   -5.1167    1.0000 </r>
       <r>   -5.0013    1.0000 </r>
       <r>   -4.0524    1.0000 </r>
       <r>   -3.9394    1.0000 </r>
       <r>   -3.8467    1.0000 </r>
       <r>   -3.7715    1.0000 </r>
       <r>   -2.7611    1.0000 </r>
       <r>   -2.7400    1.0000 </r>
       <r>   -1.6683    1.0000 </r>
       <r>   -1.5217    1.0000 </r>
       <r>   -1.4973    1.0000 </r>
       <r>   -1.4784    1.0000 </r>
       <r>   -0.9749    1.0000 </r>
       <r>   -0.9352    1.0000 </r>
       <r>    2.0430   -0.0000 </r>
       <r>    2.1256   -0.0000 </r>
       <r>    2.1636   -0.0000 </r>
       <r>    2.3132   -0.0000 </r>
       <r>    3.1103    0.0000 </r>
       <r>    3.3302    0.0000 </r>
       <r>    3.8568    0.0000 </r>
       <r>    3.9220    0.0000 </r>
       <r>    6.9077    0.0000 </r>
       <r>    6.9938    0.0000 </r>
       <r>    7.9171    0.0000 </r>
       <r>    7.9943    0.0000 </r>
      </set>
      <set comment="kpoint 6">
       <r>  -35.1264    1.0000 </r>
       <r>  -35.1094    1.0000 </r>
       <r>  -34.9378    1.0000 </r>
       <r>  -34.9206    1.0000 </r>
       <r>  -34.8835    1.0000 </r>
       <r>  -34.8666    1.0000 </r>
       <r>  -12.4094    1.0000 </r>
       <r>  -12.3746    1.0000 </r>
       <r>  -12.0583    1.0000 </r>
       <r>  -12.0207    1.0000 </r>
       <r>   -5.4293    1.0000 </r>
       <r>   -5.3783    1.0000 </r>
       <r>   -4.4678    1.0000 </r>
       <r>   -4.4015    1.0000 </r>
       <r>   -3.9170    1.0000 </r>
       <r>   -3.8610    1.0000 </r>
       <r>   -3.0212    1.0000 </r>
       <r>   -2.9995    1.0000 </r>
       <r>   -1.8587    1.0000 </r>
       <r>   -1.7310    1.0000 </r>
       <r>   -1.2076    1.0000 </r>
       <r>   -1.1751    1.0000 </r>
       <r>   -0.9332    1.0000 </r>
       <r>   -0.8696    1.0000 </r>
       <r>    2.0849   -0.0000 </r>
       <r>    2.1125   -0.0000 </r>
       <r>    2.3061   -0.0000 </r>
       <r>    2.4880   -0.0000 </r>
       <r>    3.5226    0.0000 </r>
       <r>    3.6963    0.0000 </r>
       <r>    4.0395    0.0000 </r>
       <r>    4.1212    0.0000 </r>
       <r>    6.9209    0.0000 </r>
       <r>    7.0496    0.0000 </r>
       <r>    7.5873    0.0000 </r>
       <r>    7.9052    0.0000 </r>
      </set>
      <set comment="kpoint 7">
       <r>  -35.1654    1.0000 </r>
       <r>  -35.1484    1.0000 </r>
       <r>  -34.9297    1.0000 </r>
       <r>  -34.9126    1.0000 </r>
       <r>  -34.8927    1.0000 </r>
       <r>  -34.8758    1.0000 </r>
       <r>  -12.1466    1.0000 </r>
       <r>  -12.1254    1.0000 </r>
       <r>  -11.9545    1.0000 </r>
       <r>  -11.9330    1.0000 </r>
       <r>   -5.6628    1.0000 </r>
       <r>   -5.6373    1.0000 </r>
       <r>   -4.7102    1.0000 </r>
       <r>   -4.6768    1.0000 </r>
       <r>   -4.0151    1.0000 </r>
       <r>   -3.9769    1.0000 </r>
       <r>   -3.1573    1.0000 </r>
       <r>   -3.1353    1.0000 </r>
       <r>   -1.9372    1.0000 </r>
       <r>   -1.8695    1.0000 </r>
       <r>   -1.0431    1.0000 </r>
       <r>   -1.0039    1.0000 </r>
       <r>   -0.6984    1.0000 </r>
       <r>   -0.6583    1.0000 </r>
       <r>    2.1137   -0.0000 </r>
       <r>    2.1340   -0.0000 </r>
       <r>    2.5624   -0.0000 </r>
       <r>    2.6309   -0.0000 </r>
       <r>    3.7702    0.0000 </r>
       <r>    3.8616    0.0000 </r>
       <r>    4.1217    0.0000 </r>
       <r>    4.2130    0.0000 </r>
       <r>    6.1945    0.0000 </r>
       <r>    6.3329    0.0000 </r>
       <r>    7.8655    0.0000 </r>
       <r>    7.9681    0.0000 </r>
      </set>
      <set comment="kpoint 8">
       <r>  -34.9966    1.0000 </r>
       <r>  -34.9795    1.0000 </r>
       <r>  -34.8313    1.0000 </r>
       <r>  -34.8149    1.0000 </r>
       <r>  -34.8144    1.0000 </r>
       <r>  -34.7980    1.0000 </r>
       <r>  -13.8898    1.0000 </r>
       <r>  -13.8333    1.0000 </r>
       <r>  -12.6730    1.0000 </r>
       <r>  -12.5826    1.0000 </r>
       <r>   -5.5846    1.0000 </r>
       <r>   -5.3019    1.0000 </r>
       <r>   -2.8170    1.0000 </r>
       <r>   -2.7998    1.0000 </r>
       <r>   -2.5395    1.0000 </r>
       <r>   -2.5222    1.0000 </r>
       <r>   -2.4589    1.0000 </r>
       <r>   -2.0755    1.0000 </r>
       <r>   -1.6744    1.0000 </r>
       <r>   -1.6559    1.0000 </r>
       <r>   -1.3578    1.0000 </r>
       <r>   -1.0763    1.0000 </r>
       <r>   -0.2423    1.0000 </r>
       <r>    0.1297    1.0341 </r>
       <r>    2.5845   -0.0000 </r>
       <r>    2.6052   -0.0000 </r>
       <r>    2.6393   -0.0000 </r>
       <r>    2.7042   -0.0000 </r>
       <r>    2.7710   -0.0000 </r>
       <r>    2.8080   -0.0000 </r>
       <r>    2.8395   -0.0000 </r>
       <r>    2.8682   -0.0000 </r>
       <r>    5.4083    0.0000 </r>
       <r>    5.5292    0.0000 </r>
       <r>    6.7482    0.0000 </r>
       <r>    6.9225    0.0000 </r>
      </set>
      <set comment="kpoint 9">
       <r>  -34.9889    1.0000 </r>
       <r>  -34.9718    1.0000 </r>
       <r>  -34.8703    1.0000 </r>
       <r>  -34.8533    1.0000 </r>
       <r>  -34.8250    1.0000 </r>
       <r>  -34.8080    1.0000 </r>
       <r>  -13.7220    1.0000 </r>
       <r>  -13.6662    1.0000 </r>
       <r>  -12.6019    1.0000 </r>
       <r>  -12.5165    1.0000 </r>
       <r>   -5.4024    1.0000 </r>
       <r>   -5.1233    1.0000 </r>
       <r>   -3.1304    1.0000 </r>
       <r>   -3.1129    1.0000 </r>
       <r>   -2.7985    1.0000 </r>
       <r>   -2.4885    1.0000 </r>
       <r>   -2.3713    1.0000 </r>
       <r>   -2.3541    1.0000 </r>
       <r>   -1.9869    1.0000 </r>
       <r>   -1.9693    1.0000 </r>
       <r>   -1.1917    1.0000 </r>
       <r>   -0.8989    1.0000 </r>
       <r>   -0.3158    1.0000 </r>
       <r>   -0.0534    1.0001 </r>
       <r>    2.2991   -0.0000 </r>
       <r>    2.4146   -0.0000 </r>
       <r>    2.4591   -0.0000 </r>
       <r>    2.5332   -0.0000 </r>
       <r>    2.6153   -0.0000 </r>
       <r>    2.6411   -0.0000 </r>
       <r>    3.1216    0.0000 </r>
       <r>    3.1413    0.0000 </r>
       <r>    5.6541    0.0000 </r>
       <r>    5.7699    0.0000 </r>
       <r>    7.2679    0.0000 </r>
       <r>    7.5933    0.0000 </r>
      </set>
      <set comment="kpoint 10">
       <r>  -34.9751    1.0000 </r>
       <r>  -34.9580    1.0000 </r>
       <r>  -34.9379    1.0000 </r>
       <r>  -34.9209    1.0000 </r>
       <r>  -34.8435    1.0000 </r>
       <r>  -34.8265    1.0000 </r>
       <r>  -13.4090    1.0000 </r>
       <r>  -13.3554    1.0000 </r>
       <r>  -12.4696    1.0000 </r>
       <r>  -12.3936    1.0000 </r>
       <r>   -5.1229    1.0000 </r>
       <r>   -4.8648    1.0000 </r>
       <r>   -3.5667    1.0000 </r>
       <r>   -3.5495    1.0000 </r>
       <r>   -3.2343    1.0000 </r>
       <r>   -3.0096    1.0000 </r>
       <r>   -2.4699    1.0000 </r>
       <r>   -2.4452    1.0000 </r>
       <r>   -2.0874    1.0000 </r>
       <r>   -2.0691    1.0000 </r>
       <r>   -1.1575    1.0000 </r>
       <r>   -0.9146    1.0000 </r>
       <r>   -0.5432    1.0000 </r>
       <r>   -0.4354    1.0000 </r>
       <r>    1.9585   -0.0000 </r>
       <r>    2.1782   -0.0000 </r>
       <r>    2.3900   -0.0000 </r>
       <r>    2.4136   -0.0000 </r>
       <r>    2.4679   -0.0000 </r>
       <r>    2.6196   -0.0000 </r>
       <r>    3.5284    0.0000 </r>
       <r>    3.5563    0.0000 </r>
       <r>    6.0889    0.0000 </r>
       <r>    6.2003    0.0000 </r>
       <r>    7.8009    0.0000 </r>
       <r>    8.3625    0.0000 </r>
      </set>
      <set comment="kpoint 11">
       <r>  -35.0182    1.0000 </r>
       <r>  -35.0012    1.0000 </r>
       <r>  -34.9585    1.0000 </r>
       <r>  -34.9414    1.0000 </r>
       <r>  -34.8658    1.0000 </r>
       <r>  -34.8489    1.0000 </r>
       <r>  -12.9982    1.0000 </r>
       <r>  -12.9493    1.0000 </r>
       <r>  -12.2969    1.0000 </r>
       <r>  -12.2345    1.0000 </r>
       <r>   -5.0013    1.0000 </r>
       <r>   -4.8337    1.0000 </r>
       <r>   -3.8613    1.0000 </r>
       <r>   -3.7905    1.0000 </r>
       <r>   -3.7170    1.0000 </r>
       <r>   -3.6054    1.0000 </r>
       <r>   -2.8635    1.0000 </r>
       <r>   -2.8093    1.0000 </r>
       <r>   -1.8055    1.0000 </r>
       <r>   -1.7837    1.0000 </r>
       <r>   -1.3524    1.0000 </r>
       <r>   -1.1811    1.0000 </r>
       <r>   -0.8443    1.0000 </r>
       <r>   -0.8165    1.0000 </r>
       <r>    1.8496   -0.0000 </r>
       <r>    2.0560   -0.0000 </r>
       <r>    2.2783   -0.0000 </r>
       <r>    2.3647   -0.0000 </r>
       <r>    2.7453   -0.0000 </r>
       <r>    2.9427   -0.0000 </r>
       <r>    3.8808    0.0000 </r>
       <r>    3.9191    0.0000 </r>
       <r>    6.6796    0.0000 </r>
       <r>    6.7753    0.0000 </r>
       <r>    8.1888    0.0000 </r>
       <r>    8.5410    0.0000 </r>
      </set>
      <set comment="kpoint 12">
       <r>  -35.0929    1.0000 </r>
       <r>  -35.0758    1.0000 </r>
       <r>  -34.9428    1.0000 </r>
       <r>  -34.9257    1.0000 </r>
       <r>  -34.8868    1.0000 </r>
       <r>  -34.8699    1.0000 </r>
       <r>  -12.5653    1.0000 </r>
       <r>  -12.5250    1.0000 </r>
       <r>  -12.1177    1.0000 </r>
       <r>  -12.0719    1.0000 </r>
       <r>   -5.2225    1.0000 </r>
       <r>   -5.1461    1.0000 </r>
       <r>   -4.2891    1.0000 </r>
       <r>   -4.2192    1.0000 </r>
       <r>   -3.8417    1.0000 </r>
       <r>   -3.7731    1.0000 </r>
       <r>   -3.0788    1.0000 </r>
       <r>   -3.0225    1.0000 </r>
       <r>   -1.6678    1.0000 </r>
       <r>   -1.6292    1.0000 </r>
       <r>   -1.6041    1.0000 </r>
       <r>   -1.5141    1.0000 </r>
       <r>   -0.8680    1.0000 </r>
       <r>   -0.8454    1.0000 </r>
       <r>    1.9522   -0.0000 </r>
       <r>    2.0909   -0.0000 </r>
       <r>    2.3198   -0.0000 </r>
       <r>    2.4284   -0.0000 </r>
       <r>    3.1730    0.0000 </r>
       <r>    3.3631    0.0000 </r>
       <r>    4.0894    0.0000 </r>
       <r>    4.1242    0.0000 </r>
       <r>    7.2712    0.0000 </r>
       <r>    7.3715    0.0000 </r>
       <r>    7.5911    0.0000 </r>
       <r>    8.0302    0.0000 </r>
      </set>
      <set comment="kpoint 13">
       <r>  -35.1452    1.0000 </r>
       <r>  -35.1282    1.0000 </r>
       <r>  -34.9317    1.0000 </r>
       <r>  -34.9146    1.0000 </r>
       <r>  -34.9017    1.0000 </r>
       <r>  -34.8848    1.0000 </r>
       <r>  -12.2189    1.0000 </r>
       <r>  -12.1915    1.0000 </r>
       <r>  -11.9773    1.0000 </r>
       <r>  -11.9491    1.0000 </r>
       <r>   -5.4976    1.0000 </r>
       <r>   -5.4610    1.0000 </r>
       <r>   -4.6686    1.0000 </r>
       <r>   -4.6323    1.0000 </r>
       <r>   -3.9343    1.0000 </r>
       <r>   -3.8923    1.0000 </r>
       <r>   -3.1659    1.0000 </r>
       <r>   -3.1299    1.0000 </r>
       <r>   -1.8478    1.0000 </r>
       <r>   -1.7822    1.0000 </r>
       <r>   -1.5094    1.0000 </r>
       <r>   -1.4616    1.0000 </r>
       <r>   -0.6502    1.0000 </r>
       <r>   -0.6229    1.0000 </r>
       <r>    2.0982   -0.0000 </r>
       <r>    2.1557   -0.0000 </r>
       <r>    2.4952   -0.0000 </r>
       <r>    2.5845   -0.0000 </r>
       <r>    3.5787    0.0000 </r>
       <r>    3.7238    0.0000 </r>
       <r>    4.1013    0.0000 </r>
       <r>    4.1449    0.0000 </r>
       <r>    6.5845    0.0000 </r>
       <r>    6.7561    0.0000 </r>
       <r>    8.0041    0.0000 </r>
       <r>    8.2311    0.0000 </r>
      </set>
      <set comment="kpoint 14">
       <r>  -35.1640    1.0000 </r>
       <r>  -35.1470    1.0000 </r>
       <r>  -34.9276    1.0000 </r>
       <r>  -34.9105    1.0000 </r>
       <r>  -34.9071    1.0000 </r>
       <r>  -34.8902    1.0000 </r>
       <r>  -12.0816    1.0000 </r>
       <r>  -12.0636    1.0000 </r>
       <r>  -11.9226    1.0000 </r>
       <r>  -11.9044    1.0000 </r>
       <r>   -5.6100    1.0000 </r>
       <r>   -5.5880    1.0000 </r>
       <r>   -4.8072    1.0000 </r>
       <r>   -4.7834    1.0000 </r>
       <r>   -4.0034    1.0000 </r>
       <r>   -3.9672    1.0000 </r>
       <r>   -3.1828    1.0000 </r>
       <r>   -3.1644    1.0000 </r>
       <r>   -1.9221    1.0000 </r>
       <r>   -1.8799    1.0000 </r>
       <r>   -1.4431    1.0000 </r>
       <r>   -1.3929    1.0000 </r>
       <r>   -0.5095    1.0000 </r>
       <r>   -0.4893    1.0000 </r>
       <r>    2.1378   -0.0000 </r>
       <r>    2.1535   -0.0000 </r>
       <r>    2.6560   -0.0000 </r>
       <r>    2.6826   -0.0000 </r>
       <r>    3.8475    0.0000 </r>
       <r>    3.8911    0.0000 </r>
       <r>    4.0105    0.0000 </r>
       <r>    4.0502    0.0000 </r>
       <r>    6.1908    0.0000 </r>
       <r>    6.3231    0.0000 </r>
       <r>    8.2996    0.0000 </r>
       <r>    8.3739    0.0000 </r>
      </set>
      <set comment="kpoint 15">
       <r>  -34.9852    1.0000 </r>
       <r>  -34.9681    1.0000 </r>
       <r>  -34.8898    1.0000 </r>
       <r>  -34.8729    1.0000 </r>
       <r>  -34.8283    1.0000 </r>
       <r>  -34.8114    1.0000 </r>
       <r>  -13.6411    1.0000 </r>
       <r>  -13.5856    1.0000 </r>
       <r>  -12.5680    1.0000 </r>
       <r>  -12.4845    1.0000 </r>
       <r>   -5.3241    1.0000 </r>
       <r>   -5.0481    1.0000 </r>
       <r>   -3.2667    1.0000 </r>
       <r>   -3.2479    1.0000 </r>
       <r>   -2.9602    1.0000 </r>
       <r>   -2.6909    1.0000 </r>
       <r>   -2.2841    1.0000 </r>
       <r>   -2.2663    1.0000 </r>
       <r>   -2.0098    1.0000 </r>
       <r>   -1.9906    1.0000 </r>
       <r>   -1.2676    1.0000 </r>
       <r>   -0.9491    1.0000 </r>
       <r>   -0.3723    1.0000 </r>
       <r>   -0.1485    1.0000 </r>
       <r>    2.1742   -0.0000 </r>
       <r>    2.3559   -0.0000 </r>
       <r>    2.4942   -0.0000 </r>
       <r>    2.5428   -0.0000 </r>
       <r>    2.5837   -0.0000 </r>
       <r>    2.6151   -0.0000 </r>
       <r>    3.1827    0.0000 </r>
       <r>    3.2180    0.0000 </r>
       <r>    5.7643    0.0000 </r>
       <r>    5.8783    0.0000 </r>
       <r>    7.4080    0.0000 </r>
       <r>    7.8249    0.0000 </r>
      </set>
      <set comment="kpoint 16">
       <r>  -34.9751    1.0000 </r>
       <r>  -34.9580    1.0000 </r>
       <r>  -34.9379    1.0000 </r>
       <r>  -34.9209    1.0000 </r>
       <r>  -34.8435    1.0000 </r>
       <r>  -34.8265    1.0000 </r>
       <r>  -13.4092    1.0000 </r>
       <r>  -13.3553    1.0000 </r>
       <r>  -12.4699    1.0000 </r>
       <r>  -12.3933    1.0000 </r>
       <r>   -5.1231    1.0000 </r>
       <r>   -4.8647    1.0000 </r>
       <r>   -3.5697    1.0000 </r>
       <r>   -3.5464    1.0000 </r>
       <r>   -3.2345    1.0000 </r>
       <r>   -3.0090    1.0000 </r>
       <r>   -2.4693    1.0000 </r>
       <r>   -2.4462    1.0000 </r>
       <r>   -2.0873    1.0000 </r>
       <r>   -2.0692    1.0000 </r>
       <r>   -1.1669    1.0000 </r>
       <r>   -0.9073    1.0000 </r>
       <r>   -0.5461    1.0000 </r>
       <r>   -0.4268    1.0000 </r>
       <r>    1.9541   -0.0000 </r>
       <r>    2.1782   -0.0000 </r>
       <r>    2.3945   -0.0000 </r>
       <r>    2.4055   -0.0000 </r>
       <r>    2.4698   -0.0000 </r>
       <r>    2.6213   -0.0000 </r>
       <r>    3.5327    0.0000 </r>
       <r>    3.5526    0.0000 </r>
       <r>    6.0886    0.0000 </r>
       <r>    6.2010    0.0000 </r>
       <r>    7.8013    0.0000 </r>
       <r>    8.3705    0.0000 </r>
      </set>
      <set comment="kpoint 17">
       <r>  -35.0000    1.0000 </r>
       <r>  -34.9830    1.0000 </r>
       <r>  -34.9609    1.0000 </r>
       <r>  -34.9437    1.0000 </r>
       <r>  -34.8698    1.0000 </r>
       <r>  -34.8529    1.0000 </r>
       <r>  -13.0599    1.0000 </r>
       <r>  -13.0095    1.0000 </r>
       <r>  -12.3216    1.0000 </r>
       <r>  -12.2562    1.0000 </r>
       <r>   -4.9523    1.0000 </r>
       <r>   -4.7577    1.0000 </r>
       <r>   -3.8062    1.0000 </r>
       <r>   -3.7486    1.0000 </r>
       <r>   -3.5253    1.0000 </r>
       <r>   -3.4029    1.0000 </r>
       <r>   -3.0949    1.0000 </r>
       <r>   -3.0045    1.0000 </r>
       <r>   -1.9572    1.0000 </r>
       <r>   -1.9361    1.0000 </r>
       <r>   -1.1267    1.0000 </r>
       <r>   -0.9572    1.0000 </r>
       <r>   -0.7821    1.0000 </r>
       <r>   -0.7511    1.0000 </r>
       <r>    1.7583   -0.0000 </r>
       <r>    1.9803   -0.0000 </r>
       <r>    2.3212   -0.0000 </r>
       <r>    2.3912   -0.0000 </r>
       <r>    2.5184   -0.0000 </r>
       <r>    2.7042   -0.0000 </r>
       <r>    3.9319    0.0000 </r>
       <r>    3.9679    0.0000 </r>
       <r>    6.6044    0.0000 </r>
       <r>    6.7072    0.0000 </r>
       <r>    8.3109    0.0000 </r>
       <r>    8.6078    0.0000 </r>
      </set>
      <set comment="kpoint 18">
       <r>  -35.0628    1.0000 </r>
       <r>  -35.0458    1.0000 </r>
       <r>  -34.9457    1.0000 </r>
       <r>  -34.9286    1.0000 </r>
       <r>  -34.9001    1.0000 </r>
       <r>  -34.8832    1.0000 </r>
       <r>  -12.6524    1.0000 </r>
       <r>  -12.6088    1.0000 </r>
       <r>  -12.1487    1.0000 </r>
       <r>  -12.0977    1.0000 </r>
       <r>   -5.0304    1.0000 </r>
       <r>   -4.9260    1.0000 </r>
       <r>   -4.1039    1.0000 </r>
       <r>   -4.0641    1.0000 </r>
       <r>   -3.7584    1.0000 </r>
       <r>   -3.6768    1.0000 </r>
       <r>   -3.3158    1.0000 </r>
       <r>   -3.1754    1.0000 </r>
       <r>   -2.0841    1.0000 </r>
       <r>   -2.0566    1.0000 </r>
       <r>   -1.3213    1.0000 </r>
       <r>   -1.2364    1.0000 </r>
       <r>   -0.8457    1.0000 </r>
       <r>   -0.8221    1.0000 </r>
       <r>    1.7822   -0.0000 </r>
       <r>    2.0350   -0.0000 </r>
       <r>    2.3896   -0.0000 </r>
       <r>    2.4380   -0.0000 </r>
       <r>    2.7767   -0.0000 </r>
       <r>    2.9610   -0.0000 </r>
       <r>    4.1992    0.0000 </r>
       <r>    4.2367    0.0000 </r>
       <r>    7.2467    0.0000 </r>
       <r>    7.3337    0.0000 </r>
       <r>    8.2199    0.0000 </r>
       <r>    8.4964    0.0000 </r>
      </set>
      <set comment="kpoint 19">
       <r>  -35.1134    1.0000 </r>
       <r>  -35.0964    1.0000 </r>
       <r>  -34.9331    1.0000 </r>
       <r>  -34.9261    1.0000 </r>
       <r>  -34.9160    1.0000 </r>
       <r>  -34.9092    1.0000 </r>
       <r>  -12.2753    1.0000 </r>
       <r>  -12.2425    1.0000 </r>
       <r>  -11.9893    1.0000 </r>
       <r>  -11.9547    1.0000 </r>
       <r>   -5.2271    1.0000 </r>
       <r>   -5.1690    1.0000 </r>
       <r>   -4.6402    1.0000 </r>
       <r>   -4.6181    1.0000 </r>
       <r>   -3.7635    1.0000 </r>
       <r>   -3.7195    1.0000 </r>
       <r>   -3.2855    1.0000 </r>
       <r>   -3.1755    1.0000 </r>
       <r>   -2.2245    1.0000 </r>
       <r>   -2.1717    1.0000 </r>
       <r>   -1.6336    1.0000 </r>
       <r>   -1.6025    1.0000 </r>
       <r>   -0.6679    1.0000 </r>
       <r>   -0.6486    1.0000 </r>
       <r>    2.0037   -0.0000 </r>
       <r>    2.2059   -0.0000 </r>
       <r>    2.5080   -0.0000 </r>
       <r>    2.5448   -0.0000 </r>
       <r>    3.1277    0.0000 </r>
       <r>    3.2763    0.0000 </r>
       <r>    4.2994    0.0000 </r>
       <r>    4.3112    0.0000 </r>
       <r>    7.2114    0.0000 </r>
       <r>    7.3608    0.0000 </r>
       <r>    8.0933    0.0000 </r>
       <r>    8.2924    0.0000 </r>
      </set>
      <set comment="kpoint 20">
       <r>  -35.1416    1.0000 </r>
       <r>  -35.1246    1.0000 </r>
       <r>  -34.9410    1.0000 </r>
       <r>  -34.9259    1.0000 </r>
       <r>  -34.9241    1.0000 </r>
       <r>  -34.9088    1.0000 </r>
       <r>  -12.0394    1.0000 </r>
       <r>  -12.0192    1.0000 </r>
       <r>  -11.8903    1.0000 </r>
       <r>  -11.8701    1.0000 </r>
       <r>   -5.3497    1.0000 </r>
       <r>   -5.3210    1.0000 </r>
       <r>   -4.9464    1.0000 </r>
       <r>   -4.9279    1.0000 </r>
       <r>   -3.9029    1.0000 </r>
       <r>   -3.8685    1.0000 </r>
       <r>   -3.1833    1.0000 </r>
       <r>   -3.1337    1.0000 </r>
       <r>   -2.2270    1.0000 </r>
       <r>   -2.1587    1.0000 </r>
       <r>   -1.8787    1.0000 </r>
       <r>   -1.8624    1.0000 </r>
       <r>   -0.4344    1.0000 </r>
       <r>   -0.4143    1.0000 </r>
       <r>    2.0575   -0.0000 </r>
       <r>    2.1022   -0.0000 </r>
       <r>    2.7692   -0.0000 </r>
       <r>    2.8326   -0.0000 </r>
       <r>    3.3929    0.0000 </r>
       <r>    3.4885    0.0000 </r>
       <r>    4.2542    0.0000 </r>
       <r>    4.2931    0.0000 </r>
       <r>    6.5374    0.0000 </r>
       <r>    6.7043    0.0000 </r>
       <r>    8.7365    0.0000 </r>
       <r>    8.8375    0.0000 </r>
      </set>
      <set comment="kpoint 21">
       <r>  -34.9889    1.0000 </r>
       <r>  -34.9718    1.0000 </r>
       <r>  -34.8702    1.0000 </r>
       <r>  -34.8533    1.0000 </r>
       <r>  -34.8250    1.0000 </r>
       <r>  -34.8080    1.0000 </r>
       <r>  -13.7221    1.0000 </r>
       <r>  -13.6661    1.0000 </r>
       <r>  -12.6022    1.0000 </r>
       <r>  -12.5162    1.0000 </r>
       <r>   -5.4028    1.0000 </r>
       <r>   -5.1230    1.0000 </r>
       <r>   -3.1301    1.0000 </r>
       <r>   -3.1133    1.0000 </r>
       <r>   -2.7977    1.0000 </r>
       <r>   -2.4892    1.0000 </r>
       <r>   -2.3714    1.0000 </r>
       <r>   -2.3540    1.0000 </r>
       <r>   -1.9871    1.0000 </r>
       <r>   -1.9693    1.0000 </r>
       <r>   -1.1981    1.0000 </r>
       <r>   -0.8937    1.0000 </r>
       <r>   -0.3176    1.0000 </r>
       <r>   -0.0461    1.0002 </r>
       <r>    2.2899   -0.0000 </r>
       <r>    2.4136   -0.0000 </r>
       <r>    2.4556   -0.0000 </r>
       <r>    2.5412   -0.0000 </r>
       <r>    2.6147   -0.0000 </r>
       <r>    2.6428   -0.0000 </r>
       <r>    3.1193    0.0000 </r>
       <r>    3.1437    0.0000 </r>
       <r>    5.6536    0.0000 </r>
       <r>    5.7700    0.0000 </r>
       <r>    7.2672    0.0000 </r>
       <r>    7.5869    0.0000 </r>
      </set>
      <set comment="kpoint 22">
       <r>  -34.9713    1.0000 </r>
       <r>  -34.9691    1.0000 </r>
       <r>  -34.9544    1.0000 </r>
       <r>  -34.9520    1.0000 </r>
       <r>  -34.8472    1.0000 </r>
       <r>  -34.8302    1.0000 </r>
       <r>  -13.2656    1.0000 </r>
       <r>  -13.2125    1.0000 </r>
       <r>  -12.4102    1.0000 </r>
       <r>  -12.3375    1.0000 </r>
       <r>   -5.0607    1.0000 </r>
       <r>   -4.8310    1.0000 </r>
       <r>   -3.7270    1.0000 </r>
       <r>   -3.6795    1.0000 </r>
       <r>   -3.4913    1.0000 </r>
       <r>   -3.3101    1.0000 </r>
       <r>   -2.4053    1.0000 </r>
       <r>   -2.3852    1.0000 </r>
       <r>   -1.9154    1.0000 </r>
       <r>   -1.8959    1.0000 </r>
       <r>   -1.4361    1.0000 </r>
       <r>   -1.1416    1.0000 </r>
       <r>   -0.6904    1.0000 </r>
       <r>   -0.5964    1.0000 </r>
       <r>    1.9433   -0.0000 </r>
       <r>    2.2315   -0.0000 </r>
       <r>    2.2929   -0.0000 </r>
       <r>    2.3346   -0.0000 </r>
       <r>    2.6911   -0.0000 </r>
       <r>    2.8941   -0.0000 </r>
       <r>    3.5604    0.0000 </r>
       <r>    3.6078    0.0000 </r>
       <r>    6.2783    0.0000 </r>
       <r>    6.3876    0.0000 </r>
       <r>    7.8799    0.0000 </r>
       <r>    8.3354    0.0000 </r>
      </set>
      <set comment="kpoint 23">
       <r>  -35.0182    1.0000 </r>
       <r>  -35.0012    1.0000 </r>
       <r>  -34.9585    1.0000 </r>
       <r>  -34.9414    1.0000 </r>
       <r>  -34.8659    1.0000 </r>
       <r>  -34.8489    1.0000 </r>
       <r>  -12.9989    1.0000 </r>
       <r>  -12.9487    1.0000 </r>
       <r>  -12.2977    1.0000 </r>
       <r>  -12.2335    1.0000 </r>
       <r>   -5.0010    1.0000 </r>
       <r>   -4.8338    1.0000 </r>
       <r>   -3.8710    1.0000 </r>
       <r>   -3.7805    1.0000 </r>
       <r>   -3.7193    1.0000 </r>
       <r>   -3.6037    1.0000 </r>
       <r>   -2.8628    1.0000 </r>
       <r>   -2.8098    1.0000 </r>
       <r>   -1.8048    1.0000 </r>
       <r>   -1.7839    1.0000 </r>
       <r>   -1.3757    1.0000 </r>
       <r>   -1.1605    1.0000 </r>
       <r>   -0.8514    1.0000 </r>
       <r>   -0.8023    1.0000 </r>
       <r>    1.8497   -0.0000 </r>
       <r>    2.0527   -0.0000 </r>
       <r>    2.2797   -0.0000 </r>
       <r>    2.3610   -0.0000 </r>
       <r>    2.7488   -0.0000 </r>
       <r>    2.9382   -0.0000 </r>
       <r>    3.8905    0.0000 </r>
       <r>    3.9112    0.0000 </r>
       <r>    6.6789    0.0000 </r>
       <r>    6.7777    0.0000 </r>
       <r>    8.2210    0.0000 </r>
       <r>    8.5651    0.0000 </r>
      </set>
      <set comment="kpoint 24">
       <r>  -35.0628    1.0000 </r>
       <r>  -35.0458    1.0000 </r>
       <r>  -34.9457    1.0000 </r>
       <r>  -34.9286    1.0000 </r>
       <r>  -34.9001    1.0000 </r>
       <r>  -34.8832    1.0000 </r>
       <r>  -12.6530    1.0000 </r>
       <r>  -12.6083    1.0000 </r>
       <r>  -12.1494    1.0000 </r>
       <r>  -12.0969    1.0000 </r>
       <r>   -5.0303    1.0000 </r>
       <r>   -4.9257    1.0000 </r>
       <r>   -4.1045    1.0000 </r>
       <r>   -4.0600    1.0000 </r>
       <r>   -3.7763    1.0000 </r>
       <r>   -3.6659    1.0000 </r>
       <r>   -3.3144    1.0000 </r>
       <r>   -3.1732    1.0000 </r>
       <r>   -2.0833    1.0000 </r>
       <r>   -2.0571    1.0000 </r>
       <r>   -1.3401    1.0000 </r>
       <r>   -1.2189    1.0000 </r>
       <r>   -0.8459    1.0000 </r>
       <r>   -0.8198    1.0000 </r>
       <r>    1.7839   -0.0000 </r>
       <r>    2.0348   -0.0000 </r>
       <r>    2.3885   -0.0000 </r>
       <r>    2.4361   -0.0000 </r>
       <r>    2.7839   -0.0000 </r>
       <r>    2.9530   -0.0000 </r>
       <r>    4.1948    0.0000 </r>
       <r>    4.2423    0.0000 </r>
       <r>    7.2463    0.0000 </r>
       <r>    7.3345    0.0000 </r>
       <r>    8.1778    0.0000 </r>
       <r>    8.5074    0.0000 </r>
      </set>
      <set comment="kpoint 25">
       <r>  -35.0953    1.0000 </r>
       <r>  -35.0783    1.0000 </r>
       <r>  -34.9417    1.0000 </r>
       <r>  -34.9336    1.0000 </r>
       <r>  -34.9248    1.0000 </r>
       <r>  -34.9165    1.0000 </r>
       <r>  -12.2970    1.0000 </r>
       <r>  -12.2612    1.0000 </r>
       <r>  -11.9934    1.0000 </r>
       <r>  -11.9548    1.0000 </r>
       <r>   -5.0848    1.0000 </r>
       <r>   -5.0113    1.0000 </r>
       <r>   -4.6266    1.0000 </r>
       <r>   -4.6101    1.0000 </r>
       <r>   -3.6374    1.0000 </r>
       <r>   -3.5560    1.0000 </r>
       <r>   -3.3459    1.0000 </r>
       <r>   -3.2005    1.0000 </r>
       <r>   -2.6131    1.0000 </r>
       <r>   -2.5847    1.0000 </r>
       <r>   -1.5415    1.0000 </r>
       <r>   -1.4822    1.0000 </r>
       <r>   -0.6998    1.0000 </r>
       <r>   -0.6718    1.0000 </r>
       <r>    1.9493   -0.0000 </r>
       <r>    2.2178   -0.0000 </r>
       <r>    2.5206   -0.0000 </r>
       <r>    2.5408   -0.0000 </r>
       <r>    2.9233   -0.0000 </r>
       <r>    3.0509    0.0000 </r>
       <r>    4.3817    0.0000 </r>
       <r>    4.4378    0.0000 </r>
       <r>    7.6123    0.0000 </r>
       <r>    7.7023    0.0000 </r>
       <r>    8.0813    0.0000 </r>
       <r>    8.2786    0.0000 </r>
      </set>
      <set comment="kpoint 26">
       <r>  -35.1121    1.0000 </r>
       <r>  -35.0951    1.0000 </r>
       <r>  -34.9772    1.0000 </r>
       <r>  -34.9603    1.0000 </r>
       <r>  -34.9250    1.0000 </r>
       <r>  -34.9079    1.0000 </r>
       <r>  -12.0213    1.0000 </r>
       <r>  -11.9968    1.0000 </r>
       <r>  -11.8701    1.0000 </r>
       <r>  -11.8455    1.0000 </r>
       <r>   -5.0649    1.0000 </r>
       <r>   -5.0430    1.0000 </r>
       <r>   -5.0259    1.0000 </r>
       <r>   -5.0018    1.0000 </r>
       <r>   -3.6904    1.0000 </r>
       <r>   -3.6709    1.0000 </r>
       <r>   -3.1896    1.0000 </r>
       <r>   -3.0816    1.0000 </r>
       <r>   -2.9771    1.0000 </r>
       <r>   -2.9073    1.0000 </r>
       <r>   -1.8684    1.0000 </r>
       <r>   -1.8154    1.0000 </r>
       <r>   -0.4265    1.0000 </r>
       <r>   -0.4077    1.0000 </r>
       <r>    1.9394   -0.0000 </r>
       <r>    2.0169   -0.0000 </r>
       <r>    2.8378   -0.0000 </r>
       <r>    2.9524   -0.0000 </r>
       <r>    3.0698    0.0000 </r>
       <r>    3.1574    0.0000 </r>
       <r>    4.5035    0.0000 </r>
       <r>    4.5395    0.0000 </r>
       <r>    7.0944    0.0000 </r>
       <r>    7.2283    0.0000 </r>
       <r>    8.2841    0.0000 </r>
       <r>    8.5783    0.0000 </r>
      </set>
      <set comment="kpoint 27">
       <r>  -35.1165    1.0000 </r>
       <r>  -35.0995    1.0000 </r>
       <r>  -34.9917    1.0000 </r>
       <r>  -34.9748    1.0000 </r>
       <r>  -34.9219    1.0000 </r>
       <r>  -34.9048    1.0000 </r>
       <r>  -11.9149    1.0000 </r>
       <r>  -11.8978    1.0000 </r>
       <r>  -11.8221    1.0000 </r>
       <r>  -11.8049    1.0000 </r>
       <r>   -5.2010    1.0000 </r>
       <r>   -5.1854    1.0000 </r>
       <r>   -4.9903    1.0000 </r>
       <r>   -4.9704    1.0000 </r>
       <r>   -3.8609    1.0000 </r>
       <r>   -3.8259    1.0000 </r>
       <r>   -3.0636    1.0000 </r>
       <r>   -3.0262    1.0000 </r>
       <r>   -3.0080    1.0000 </r>
       <r>   -2.9497    1.0000 </r>
       <r>   -2.0442    1.0000 </r>
       <r>   -1.9960    1.0000 </r>
       <r>   -0.2521    1.0000 </r>
       <r>   -0.2328    1.0000 </r>
       <r>    1.8231   -0.0000 </r>
       <r>    1.8404   -0.0000 </r>
       <r>    3.0459    0.0000 </r>
       <r>    3.1075    0.0000 </r>
       <r>    3.1727    0.0000 </r>
       <r>    3.2423    0.0000 </r>
       <r>    4.5511    0.0000 </r>
       <r>    4.5701    0.0000 </r>
       <r>    6.7754    0.0000 </r>
       <r>    6.9347    0.0000 </r>
       <r>    8.1695    0.0000 </r>
       <r>    8.6900    0.0000 </r>
      </set>
      <set comment="kpoint 28">
       <r>  -34.9751    1.0000 </r>
       <r>  -34.9580    1.0000 </r>
       <r>  -34.9378    1.0000 </r>
       <r>  -34.9209    1.0000 </r>
       <r>  -34.8435    1.0000 </r>
       <r>  -34.8265    1.0000 </r>
       <r>  -13.4095    1.0000 </r>
       <r>  -13.3551    1.0000 </r>
       <r>  -12.4702    1.0000 </r>
       <r>  -12.3929    1.0000 </r>
       <r>   -5.1235    1.0000 </r>
       <r>   -4.8644    1.0000 </r>
       <r>   -3.5703    1.0000 </r>
       <r>   -3.5460    1.0000 </r>
       <r>   -3.2338    1.0000 </r>
       <r>   -3.0096    1.0000 </r>
       <r>   -2.4707    1.0000 </r>
       <r>   -2.4452    1.0000 </r>
       <r>   -2.0874    1.0000 </r>
       <r>   -2.0691    1.0000 </r>
       <r>   -1.1734    1.0000 </r>
       <r>   -0.9021    1.0000 </r>
       <r>   -0.5483    1.0000 </r>
       <r>   -0.4194    1.0000 </r>
       <r>    1.9509   -0.0000 </r>
       <r>    2.1776   -0.0000 </r>
       <r>    2.3943   -0.0000 </r>
       <r>    2.4081   -0.0000 </r>
       <r>    2.4655   -0.0000 </r>
       <r>    2.6241   -0.0000 </r>
       <r>    3.5325    0.0000 </r>
       <r>    3.5520    0.0000 </r>
       <r>    6.0860    0.0000 </r>
       <r>    6.2010    0.0000 </r>
       <r>    7.7983    0.0000 </r>
       <r>    8.3284    0.0000 </r>
      </set>
      <set comment="kpoint 29">
       <r>  -35.0565    1.0000 </r>
       <r>  -35.0396    1.0000 </r>
       <r>  -34.9520    1.0000 </r>
       <r>  -34.9349    1.0000 </r>
       <r>  -34.8671    1.0000 </r>
       <r>  -34.8501    1.0000 </r>
       <r>  -12.8248    1.0000 </r>
       <r>  -12.7766    1.0000 </r>
       <r>  -12.2277    1.0000 </r>
       <r>  -12.1686    1.0000 </r>
       <r>   -5.1169    1.0000 </r>
       <r>   -5.0002    1.0000 </r>
       <r>   -4.0593    1.0000 </r>
       <r>   -3.9322    1.0000 </r>
       <r>   -3.8667    1.0000 </r>
       <r>   -3.7522    1.0000 </r>
       <r>   -2.7609    1.0000 </r>
       <r>   -2.7402    1.0000 </r>
       <r>   -1.7057    1.0000 </r>
       <r>   -1.5213    1.0000 </r>
       <r>   -1.4980    1.0000 </r>
       <r>   -1.4424    1.0000 </r>
       <r>   -0.9841    1.0000 </r>
       <r>   -0.9177    1.0000 </r>
       <r>    2.0380   -0.0000 </r>
       <r>    2.1268   -0.0000 </r>
       <r>    2.1625   -0.0000 </r>
       <r>    2.3125   -0.0000 </r>
       <r>    3.1009    0.0000 </r>
       <r>    3.3391    0.0000 </r>
       <r>    3.8581    0.0000 </r>
       <r>    3.9207    0.0000 </r>
       <r>    6.9068    0.0000 </r>
       <r>    6.9982    0.0000 </r>
       <r>    7.8761    0.0000 </r>
       <r>    8.0482    0.0000 </r>
      </set>
      <set comment="kpoint 30">
       <r>  -35.0928    1.0000 </r>
       <r>  -35.0759    1.0000 </r>
       <r>  -34.9428    1.0000 </r>
       <r>  -34.9257    1.0000 </r>
       <r>  -34.8869    1.0000 </r>
       <r>  -34.8699    1.0000 </r>
       <r>  -12.5671    1.0000 </r>
       <r>  -12.5236    1.0000 </r>
       <r>  -12.1197    1.0000 </r>
       <r>  -12.0696    1.0000 </r>
       <r>   -5.2236    1.0000 </r>
       <r>   -5.1438    1.0000 </r>
       <r>   -4.2947    1.0000 </r>
       <r>   -4.2113    1.0000 </r>
       <r>   -3.8729    1.0000 </r>
       <r>   -3.7467    1.0000 </r>
       <r>   -3.0779    1.0000 </r>
       <r>   -3.0222    1.0000 </r>
       <r>   -1.6802    1.0000 </r>
       <r>   -1.6416    1.0000 </r>
       <r>   -1.6150    1.0000 </r>
       <r>   -1.4786    1.0000 </r>
       <r>   -0.8741    1.0000 </r>
       <r>   -0.8342    1.0000 </r>
       <r>    1.9556   -0.0000 </r>
       <r>    2.0886   -0.0000 </r>
       <r>    2.3178   -0.0000 </r>
       <r>    2.4266   -0.0000 </r>
       <r>    3.1780    0.0000 </r>
       <r>    3.3536    0.0000 </r>
       <r>    4.0997    0.0000 </r>
       <r>    4.1180    0.0000 </r>
       <r>    7.2642    0.0000 </r>
       <r>    7.3843    0.0000 </r>
       <r>    7.5624    0.0000 </r>
       <r>    8.0824    0.0000 </r>
      </set>
      <set comment="kpoint 31">
       <r>  -35.1134    1.0000 </r>
       <r>  -35.0964    1.0000 </r>
       <r>  -34.9331    1.0000 </r>
       <r>  -34.9261    1.0000 </r>
       <r>  -34.9160    1.0000 </r>
       <r>  -34.9092    1.0000 </r>
       <r>  -12.2773    1.0000 </r>
       <r>  -12.2409    1.0000 </r>
       <r>  -11.9914    1.0000 </r>
       <r>  -11.9522    1.0000 </r>
       <r>   -5.2290    1.0000 </r>
       <r>   -5.1662    1.0000 </r>
       <r>   -4.6443    1.0000 </r>
       <r>   -4.6119    1.0000 </r>
       <r>   -3.8046    1.0000 </r>
       <r>   -3.6858    1.0000 </r>
       <r>   -3.2853    1.0000 </r>
       <r>   -3.1706    1.0000 </r>
       <r>   -2.2150    1.0000 </r>
       <r>   -2.1791    1.0000 </r>
       <r>   -1.6780    1.0000 </r>
       <r>   -1.5609    1.0000 </r>
       <r>   -0.6706    1.0000 </r>
       <r>   -0.6436    1.0000 </r>
       <r>    2.0043   -0.0000 </r>
       <r>    2.2089   -0.0000 </r>
       <r>    2.5061   -0.0000 </r>
       <r>    2.5446   -0.0000 </r>
       <r>    3.1476    0.0000 </r>
       <r>    3.2544    0.0000 </r>
       <r>    4.2630    0.0000 </r>
       <r>    4.3486    0.0000 </r>
       <r>    7.1126    0.0000 </r>
       <r>    7.4372    0.0000 </r>
       <r>    8.0734    0.0000 </r>
       <r>    8.2988    0.0000 </r>
      </set>
      <set comment="kpoint 32">
       <r>  -35.1121    1.0000 </r>
       <r>  -35.0951    1.0000 </r>
       <r>  -34.9773    1.0000 </r>
       <r>  -34.9603    1.0000 </r>
       <r>  -34.9250    1.0000 </r>
       <r>  -34.9079    1.0000 </r>
       <r>  -12.0231    1.0000 </r>
       <r>  -11.9956    1.0000 </r>
       <r>  -11.8715    1.0000 </r>
       <r>  -11.8436    1.0000 </r>
       <r>   -5.0706    1.0000 </r>
       <r>   -5.0422    1.0000 </r>
       <r>   -5.0237    1.0000 </r>
       <r>   -4.9974    1.0000 </r>
       <r>   -3.7333    1.0000 </r>
       <r>   -3.6328    1.0000 </r>
       <r>   -3.1914    1.0000 </r>
       <r>   -3.0772    1.0000 </r>
       <r>   -2.9664    1.0000 </r>
       <r>   -2.9160    1.0000 </r>
       <r>   -1.8849    1.0000 </r>
       <r>   -1.8004    1.0000 </r>
       <r>   -0.4286    1.0000 </r>
       <r>   -0.4050    1.0000 </r>
       <r>    1.9392   -0.0000 </r>
       <r>    2.0176   -0.0000 </r>
       <r>    2.8343   -0.0000 </r>
       <r>    2.9562   -0.0000 </r>
       <r>    3.0836    0.0000 </r>
       <r>    3.1466    0.0000 </r>
       <r>    4.4761    0.0000 </r>
       <r>    4.5668    0.0000 </r>
       <r>    6.9726    0.0000 </r>
       <r>    7.3290    0.0000 </r>
       <r>    8.3312    0.0000 </r>
       <r>    8.5858    0.0000 </r>
      </set>
      <set comment="kpoint 33">
       <r>  -35.0920    1.0000 </r>
       <r>  -35.0750    1.0000 </r>
       <r>  -35.0256    1.0000 </r>
       <r>  -35.0086    1.0000 </r>
       <r>  -34.9204    1.0000 </r>
       <r>  -34.9033    1.0000 </r>
       <r>  -11.8729    1.0000 </r>
       <r>  -11.8532    1.0000 </r>
       <r>  -11.7970    1.0000 </r>
       <r>  -11.7775    1.0000 </r>
       <r>   -5.3012    1.0000 </r>
       <r>   -5.2840    1.0000 </r>
       <r>   -4.7105    1.0000 </r>
       <r>   -4.6695    1.0000 </r>
       <r>   -3.8410    1.0000 </r>
       <r>   -3.8210    1.0000 </r>
       <r>   -3.4858    1.0000 </r>
       <r>   -3.4335    1.0000 </r>
       <r>   -2.9537    1.0000 </r>
       <r>   -2.8902    1.0000 </r>
       <r>   -2.1576    1.0000 </r>
       <r>   -2.0766    1.0000 </r>
       <r>   -0.1569    1.0000 </r>
       <r>   -0.1371    1.0000 </r>
       <r>    1.6707   -0.0000 </r>
       <r>    1.6917   -0.0000 </r>
       <r>    2.9581   -0.0000 </r>
       <r>    3.0019    0.0000 </r>
       <r>    3.2945    0.0000 </r>
       <r>    3.3683    0.0000 </r>
       <r>    4.6779    0.0000 </r>
       <r>    4.7197    0.0000 </r>
       <r>    7.0153    0.0000 </r>
       <r>    7.2393    0.0000 </r>
       <r>    7.7229    0.0000 </r>
       <r>    8.0325    0.0000 </r>
      </set>
      <set comment="kpoint 34">
       <r>  -35.0181    1.0000 </r>
       <r>  -35.0012    1.0000 </r>
       <r>  -34.9585    1.0000 </r>
       <r>  -34.9414    1.0000 </r>
       <r>  -34.8659    1.0000 </r>
       <r>  -34.8489    1.0000 </r>
       <r>  -12.9992    1.0000 </r>
       <r>  -12.9484    1.0000 </r>
       <r>  -12.2982    1.0000 </r>
       <r>  -12.2330    1.0000 </r>
       <r>   -5.0010    1.0000 </r>
       <r>   -4.8338    1.0000 </r>
       <r>   -3.8733    1.0000 </r>
       <r>   -3.7783    1.0000 </r>
       <r>   -3.7199    1.0000 </r>
       <r>   -3.6027    1.0000 </r>
       <r>   -2.8642    1.0000 </r>
       <r>   -2.8092    1.0000 </r>
       <r>   -1.8048    1.0000 </r>
       <r>   -1.7846    1.0000 </r>
       <r>   -1.3806    1.0000 </r>
       <r>   -1.1548    1.0000 </r>
       <r>   -0.8518    1.0000 </r>
       <r>   -0.7994    1.0000 </r>
       <r>    1.8471   -0.0000 </r>
       <r>    2.0543   -0.0000 </r>
       <r>    2.2795   -0.0000 </r>
       <r>    2.3619   -0.0000 </r>
       <r>    2.7419   -0.0000 </r>
       <r>    2.9448   -0.0000 </r>
       <r>    3.8898    0.0000 </r>
       <r>    3.9108    0.0000 </r>
       <r>    6.6787    0.0000 </r>
       <r>    6.7778    0.0000 </r>
       <r>    8.1873    0.0000 </r>
       <r>    8.5045    0.0000 </r>
      </set>
      <set comment="kpoint 35">
       <r>  -34.9999    1.0000 </r>
       <r>  -34.9830    1.0000 </r>
       <r>  -34.9609    1.0000 </r>
       <r>  -34.9438    1.0000 </r>
       <r>  -34.8699    1.0000 </r>
       <r>  -34.8529    1.0000 </r>
       <r>  -13.0606    1.0000 </r>
       <r>  -13.0090    1.0000 </r>
       <r>  -12.3225    1.0000 </r>
       <r>  -12.2552    1.0000 </r>
       <r>   -4.9522    1.0000 </r>
       <r>   -4.7581    1.0000 </r>
       <r>   -3.8128    1.0000 </r>
       <r>   -3.7410    1.0000 </r>
       <r>   -3.5260    1.0000 </r>
       <r>   -3.4032    1.0000 </r>
       <r>   -3.0979    1.0000 </r>
       <r>   -3.0020    1.0000 </r>
       <r>   -1.9563    1.0000 </r>
       <r>   -1.9372    1.0000 </r>
       <r>   -1.1424    1.0000 </r>
       <r>   -0.9446    1.0000 </r>
       <r>   -0.7838    1.0000 </r>
       <r>   -0.7407    1.0000 </r>
       <r>    1.7557   -0.0000 </r>
       <r>    1.9809   -0.0000 </r>
       <r>    2.3203   -0.0000 </r>
       <r>    2.3924   -0.0000 </r>
       <r>    2.5143   -0.0000 </r>
       <r>    2.7063   -0.0000 </r>
       <r>    3.9326    0.0000 </r>
       <r>    3.9667    0.0000 </r>
       <r>    6.6041    0.0000 </r>
       <r>    6.7080    0.0000 </r>
       <r>    8.3109    0.0000 </r>
       <r>    8.6000    0.0000 </r>
      </set>
      <set comment="kpoint 36">
       <r>  -35.1263    1.0000 </r>
       <r>  -35.1094    1.0000 </r>
       <r>  -34.9378    1.0000 </r>
       <r>  -34.9206    1.0000 </r>
       <r>  -34.8835    1.0000 </r>
       <r>  -34.8666    1.0000 </r>
       <r>  -12.4126    1.0000 </r>
       <r>  -12.3722    1.0000 </r>
       <r>  -12.0616    1.0000 </r>
       <r>  -12.0167    1.0000 </r>
       <r>   -5.4330    1.0000 </r>
       <r>   -5.3731    1.0000 </r>
       <r>   -4.4780    1.0000 </r>
       <r>   -4.3901    1.0000 </r>
       <r>   -3.9527    1.0000 </r>
       <r>   -3.8274    1.0000 </r>
       <r>   -3.0209    1.0000 </r>
       <r>   -2.9998    1.0000 </r>
       <r>   -1.9125    1.0000 </r>
       <r>   -1.6781    1.0000 </r>
       <r>   -1.2067    1.0000 </r>
       <r>   -1.1759    1.0000 </r>
       <r>   -0.9406    1.0000 </r>
       <r>   -0.8541    1.0000 </r>
       <r>    2.0856   -0.0000 </r>
       <r>    2.1118   -0.0000 </r>
       <r>    2.3026   -0.0000 </r>
       <r>    2.4876   -0.0000 </r>
       <r>    3.4969    0.0000 </r>
       <r>    3.7221    0.0000 </r>
       <r>    4.0421    0.0000 </r>
       <r>    4.1185    0.0000 </r>
       <r>    6.8362    0.0000 </r>
       <r>    7.1112    0.0000 </r>
       <r>    7.5677    0.0000 </r>
       <r>    7.8791    0.0000 </r>
      </set>
      <set comment="kpoint 37">
       <r>  -35.1452    1.0000 </r>
       <r>  -35.1282    1.0000 </r>
       <r>  -34.9317    1.0000 </r>
       <r>  -34.9146    1.0000 </r>
       <r>  -34.9018    1.0000 </r>
       <r>  -34.8848    1.0000 </r>
       <r>  -12.2232    1.0000 </r>
       <r>  -12.1883    1.0000 </r>
       <r>  -11.9813    1.0000 </r>
[...]
       <r>    -2.2103     1.4655    18.4069 </r>
       <r>    -2.0483     3.2103    18.9272 </r>
       <r>    -1.8862     3.7936    19.5419 </r>
       <r>    -1.7242     3.4481    20.1007 </r>
       <r>    -1.5621     2.9768    20.5831 </r>
       <r>    -1.4001     3.1966    21.1011 </r>
       <r>    -1.2380     1.6429    21.3673 </r>
       <r>    -1.0760     2.2835    21.7373 </r>
       <r>    -0.9139     1.7770    22.0253 </r>
       <r>    -0.7519     3.6487    22.6166 </r>
       <r>    -0.5898     2.9414    23.0932 </r>
       <r>    -0.4278     2.1286    23.4382 </r>
       <r>    -0.2657     1.8634    23.7401 </r>
       <r>    -0.1037     1.0705    23.9136 </r>
       <r>     0.0584     0.2964    23.9616 </r>
       <r>     0.2204     0.2261    23.9983 </r>
       <r>     0.3825     0.0115    24.0001 </r>
       <r>     0.5445    -0.0008    24.0000 </r>
       <r>     0.7066    -0.0000    24.0000 </r>
       <r>     0.8686    -0.0000    24.0000 </r>
       <r>     1.0307    -0.0000    24.0000 </r>
       <r>     1.1927    -0.0000    24.0000 </r>
       <r>     1.3548    -0.0000    24.0000 </r>
       <r>     1.5168    -0.0099    23.9984 </r>
       <r>     1.6789     0.1902    24.0292 </r>
       <r>     1.8409     1.2388    24.2300 </r>
       <r>     2.0030     2.8203    24.6870 </r>
       <r>     2.1650     5.3409    25.5525 </r>
       <r>     2.3271     3.4939    26.1187 </r>
       <r>     2.4891     4.9756    26.9250 </r>
       <r>     2.6512     4.9253    27.7231 </r>
       <r>     2.8132     3.2863    28.2557 </r>
       <r>     2.9753     2.9510    28.7339 </r>
       <r>     3.1373     2.6332    29.1606 </r>
       <r>     3.2994     2.5132    29.5678 </r>
       <r>     3.4614     1.5855    29.8248 </r>
       <r>     3.6235     2.0851    30.1627 </r>
       <r>     3.7855     0.9676    30.3195 </r>
       <r>     3.9476     1.9871    30.6415 </r>
       <r>     4.1096     2.0341    30.9711 </r>
       <r>     4.2717     2.9875    31.4552 </r>
       <r>     4.4337     1.5391    31.7046 </r>
       <r>     4.5957     1.1739    31.8949 </r>
       <r>     4.7578     0.6065    31.9932 </r>
       <r>     4.9198     0.0446    32.0004 </r>
       <r>     5.0819    -0.0029    31.9999 </r>
       <r>     5.2439     0.0063    32.0009 </r>
       <r>     5.4060     0.1517    32.0255 </r>
       <r>     5.5680     0.3118    32.0761 </r>
       <r>     5.7301     0.3442    32.1318 </r>
       <r>     5.8921     0.4962    32.2123 </r>
       <r>     6.0542     0.2994    32.2608 </r>
       <r>     6.2162     0.9086    32.4080 </r>
       <r>     6.3783     0.7542    32.5302 </r>
       <r>     6.5403     1.0376    32.6984 </r>
       <r>     6.7024     1.1125    32.8787 </r>
       <r>     6.8644     1.7305    33.1591 </r>
       <r>     7.0265     1.4030    33.3864 </r>
       <r>     7.1885     0.9866    33.5463 </r>
       <r>     7.3506     2.2074    33.9040 </r>
       <r>     7.5126     1.1890    34.0967 </r>
       <r>     7.6747     1.0590    34.2683 </r>
       <r>     7.8367     0.9445    34.4214 </r>
       <r>     7.9988     1.5699    34.6758 </r>
       <r>     8.1608     1.8726    34.9792 </r>
       <r>     8.3229     2.4813    35.3813 </r>
       <r>     8.4849     1.3616    35.6020 </r>
       <r>     8.6470     1.3282    35.8172 </r>
       <r>     8.8090     0.7045    35.9314 </r>
       <r>     8.9711     0.2414    35.9705 </r>
       <r>     9.1331     0.1908    36.0014 </r>
       <r>     9.2952    -0.0086    36.0000 </r>
       <r>     9.4572    -0.0000    36.0000 </r>
       <r>     9.6193    -0.0000    36.0000 </r>
       <r>     9.7813     0.0000    36.0000 </r>
       <r>     9.9434     0.0000    36.0000 </r>
       <r>    10.1054     0.0000    36.0000 </r>
       <r>    10.2675     0.0000    36.0000 </r>
       <r>    10.4295     0.0000    36.0000 </r>
       <r>    10.5916     0.0000    36.0000 </r>
       <r>    10.7536     0.0000    36.0000 </r>
       <r>    10.9157     0.0000    36.0000 </r>
       <r>    11.0777     0.0000    36.0000 </r>
       <r>    11.2398     0.0000    36.0000 </r>
      </set>
      <set comment="spin 2">
       <r>   -37.3752     0.0000     0.0000 </r>
       <r>   -37.2131     0.0000     0.0000 </r>
       <r>   -37.0511     0.0000     0.0000 </r>
       <r>   -36.8890     0.0000     0.0000 </r>
       <r>   -36.7270     0.0000     0.0000 </r>
       <r>   -36.5649     0.0000     0.0000 </r>
       <r>   -36.4029     0.0000     0.0000 </r>
       <r>   -36.2408     0.0000     0.0000 </r>
       <r>   -36.0788    -0.0000    -0.0000 </r>
       <r>   -35.9167    -0.0000    -0.0000 </r>
       <r>   -35.7547    -0.0000    -0.0000 </r>
       <r>   -35.5926    -0.0000    -0.0000 </r>
       <r>   -35.4306    -0.0007    -0.0001 </r>
       <r>   -35.2685    -0.1762    -0.0287 </r>
       <r>   -35.1065     3.8536     0.5958 </r>
       <r>   -34.9444    14.6541     2.9705 </r>
       <r>   -34.7824    18.5736     5.9803 </r>
       <r>   -34.6203     0.1542     6.0053 </r>
       <r>   -34.4583    -0.0329     6.0000 </r>
       <r>   -34.2962    -0.0000     6.0000 </r>
       <r>   -34.1342    -0.0000     6.0000 </r>
       <r>   -33.9721     0.0000     6.0000 </r>
       <r>   -33.8101     0.0000     6.0000 </r>
       <r>   -33.6480     0.0000     6.0000 </r>
       <r>   -33.4860     0.0000     6.0000 </r>
       <r>   -33.3239     0.0000     6.0000 </r>
       <r>   -33.1619     0.0000     6.0000 </r>
       <r>   -32.9998     0.0000     6.0000 </r>
       <r>   -32.8378     0.0000     6.0000 </r>
       <r>   -32.6757     0.0000     6.0000 </r>
       <r>   -32.5137     0.0000     6.0000 </r>
       <r>   -32.3516     0.0000     6.0000 </r>
       <r>   -32.1896     0.0000     6.0000 </r>
       <r>   -32.0275     0.0000     6.0000 </r>
       <r>   -31.8655     0.0000     6.0000 </r>
       <r>   -31.7034     0.0000     6.0000 </r>
       <r>   -31.5414     0.0000     6.0000 </r>
       <r>   -31.3793     0.0000     6.0000 </r>
       <r>   -31.2173     0.0000     6.0000 </r>
       <r>   -31.0552     0.0000     6.0000 </r>
       <r>   -30.8932     0.0000     6.0000 </r>
       <r>   -30.7311     0.0000     6.0000 </r>
       <r>   -30.5691     0.0000     6.0000 </r>
       <r>   -30.4070     0.0000     6.0000 </r>
       <r>   -30.2450     0.0000     6.0000 </r>
       <r>   -30.0829     0.0000     6.0000 </r>
       <r>   -29.9209     0.0000     6.0000 </r>
       <r>   -29.7588     0.0000     6.0000 </r>
       <r>   -29.5968     0.0000     6.0000 </r>
       <r>   -29.4347     0.0000     6.0000 </r>
       <r>   -29.2727     0.0000     6.0000 </r>
       <r>   -29.1106     0.0000     6.0000 </r>
       <r>   -28.9486     0.0000     6.0000 </r>
       <r>   -28.7865     0.0000     6.0000 </r>
       <r>   -28.6245     0.0000     6.0000 </r>
       <r>   -28.4624     0.0000     6.0000 </r>
       <r>   -28.3004     0.0000     6.0000 </r>
       <r>   -28.1383     0.0000     6.0000 </r>
       <r>   -27.9763     0.0000     6.0000 </r>
       <r>   -27.8142     0.0000     6.0000 </r>
       <r>   -27.6522     0.0000     6.0000 </r>
       <r>   -27.4901     0.0000     6.0000 </r>
       <r>   -27.3281     0.0000     6.0000 </r>
       <r>   -27.1660     0.0000     6.0000 </r>
       <r>   -27.0040     0.0000     6.0000 </r>
       <r>   -26.8419     0.0000     6.0000 </r>
       <r>   -26.6799     0.0000     6.0000 </r>
       <r>   -26.5178     0.0000     6.0000 </r>
       <r>   -26.3558     0.0000     6.0000 </r>
       <r>   -26.1937     0.0000     6.0000 </r>
       <r>   -26.0317     0.0000     6.0000 </r>
       <r>   -25.8696     0.0000     6.0000 </r>
       <r>   -25.7076     0.0000     6.0000 </r>
       <r>   -25.5455     0.0000     6.0000 </r>
       <r>   -25.3835     0.0000     6.0000 </r>
       <r>   -25.2214     0.0000     6.0000 </r>
       <r>   -25.0594     0.0000     6.0000 </r>
       <r>   -24.8973     0.0000     6.0000 </r>
       <r>   -24.7353     0.0000     6.0000 </r>
       <r>   -24.5732     0.0000     6.0000 </r>
       <r>   -24.4112     0.0000     6.0000 </r>
       <r>   -24.2491     0.0000     6.0000 </r>
       <r>   -24.0871     0.0000     6.0000 </r>
       <r>   -23.9250     0.0000     6.0000 </r>
       <r>   -23.7630     0.0000     6.0000 </r>
       <r>   -23.6009     0.0000     6.0000 </r>
       <r>   -23.4389     0.0000     6.0000 </r>
       <r>   -23.2768     0.0000     6.0000 </r>
       <r>   -23.1148     0.0000     6.0000 </r>
       <r>   -22.9527     0.0000     6.0000 </r>
       <r>   -22.7907     0.0000     6.0000 </r>
       <r>   -22.6286     0.0000     6.0000 </r>
       <r>   -22.4666     0.0000     6.0000 </r>
       <r>   -22.3045     0.0000     6.0000 </r>
       <r>   -22.1425     0.0000     6.0000 </r>
       <r>   -21.9804     0.0000     6.0000 </r>
       <r>   -21.8184     0.0000     6.0000 </r>
       <r>   -21.6563     0.0000     6.0000 </r>
       <r>   -21.4943     0.0000     6.0000 </r>
       <r>   -21.3322     0.0000     6.0000 </r>
       <r>   -21.1702     0.0000     6.0000 </r>
       <r>   -21.0081     0.0000     6.0000 </r>
       <r>   -20.8461     0.0000     6.0000 </r>
       <r>   -20.6840     0.0000     6.0000 </r>
       <r>   -20.5220     0.0000     6.0000 </r>
       <r>   -20.3599     0.0000     6.0000 </r>
       <r>   -20.1979     0.0000     6.0000 </r>
       <r>   -20.0358     0.0000     6.0000 </r>
       <r>   -19.8738     0.0000     6.0000 </r>
       <r>   -19.7117     0.0000     6.0000 </r>
       <r>   -19.5497     0.0000     6.0000 </r>
       <r>   -19.3876     0.0000     6.0000 </r>
       <r>   -19.2256     0.0000     6.0000 </r>
       <r>   -19.0635     0.0000     6.0000 </r>
       <r>   -18.9015     0.0000     6.0000 </r>
       <r>   -18.7394     0.0000     6.0000 </r>
       <r>   -18.5774     0.0000     6.0000 </r>
       <r>   -18.4153     0.0000     6.0000 </r>
       <r>   -18.2533     0.0000     6.0000 </r>
       <r>   -18.0912     0.0000     6.0000 </r>
       <r>   -17.9292     0.0000     6.0000 </r>
       <r>   -17.7671     0.0000     6.0000 </r>
       <r>   -17.6051     0.0000     6.0000 </r>
       <r>   -17.4430     0.0000     6.0000 </r>
       <r>   -17.2810     0.0000     6.0000 </r>
       <r>   -17.1189     0.0000     6.0000 </r>
       <r>   -16.9569     0.0000     6.0000 </r>
       <r>   -16.7948     0.0000     6.0000 </r>
       <r>   -16.6328     0.0000     6.0000 </r>
       <r>   -16.4707     0.0000     6.0000 </r>
       <r>   -16.3087     0.0000     6.0000 </r>
       <r>   -16.1466     0.0000     6.0000 </r>
       <r>   -15.9846     0.0000     6.0000 </r>
       <r>   -15.8225     0.0000     6.0000 </r>
       <r>   -15.6605     0.0000     6.0000 </r>
       <r>   -15.4984     0.0000     6.0000 </r>
       <r>   -15.3364     0.0000     6.0000 </r>
       <r>   -15.1743     0.0000     6.0000 </r>
       <r>   -15.0123     0.0000     6.0000 </r>
       <r>   -14.8502    -0.0000     6.0000 </r>
       <r>   -14.6882    -0.0000     6.0000 </r>
       <r>   -14.5261    -0.0000     6.0000 </r>
       <r>   -14.3641    -0.0000     6.0000 </r>
       <r>   -14.2020    -0.0001     6.0000 </r>
       <r>   -14.0400    -0.0062     5.9990 </r>
       <r>   -13.8779     0.2332     6.0368 </r>
       <r>   -13.7159     0.4434     6.1086 </r>
       <r>   -13.5538     0.6598     6.2155 </r>
       <r>   -13.3918     0.4250     6.2844 </r>
       <r>   -13.2297     0.7743     6.4099 </r>
       <r>   -13.0677     0.2995     6.4584 </r>
       <r>   -12.9056     1.1250     6.6407 </r>
       <r>   -12.7436     0.4219     6.7091 </r>
       <r>   -12.5815     1.6332     6.9737 </r>
       <r>   -12.4195     2.2814     7.3434 </r>
       <r>   -12.2574     2.7387     7.7872 </r>
       <r>   -12.0954     3.8972     8.4188 </r>
       <r>   -11.9333     5.5560     9.3191 </r>
       <r>   -11.7713     4.0434     9.9744 </r>
       <r>   -11.6092     0.1706    10.0020 </r>
       <r>   -11.4472    -0.0124    10.0000 </r>
       <r>   -11.2851    -0.0000    10.0000 </r>
       <r>   -11.1231    -0.0000    10.0000 </r>
       <r>   -10.9610     0.0000    10.0000 </r>
       <r>   -10.7990     0.0000    10.0000 </r>
       <r>   -10.6369     0.0000    10.0000 </r>
       <r>   -10.4749     0.0000    10.0000 </r>
       <r>   -10.3128     0.0000    10.0000 </r>
       <r>   -10.1508     0.0000    10.0000 </r>
       <r>    -9.9887     0.0000    10.0000 </r>
       <r>    -9.8267     0.0000    10.0000 </r>
       <r>    -9.6646     0.0000    10.0000 </r>
       <r>    -9.5026     0.0000    10.0000 </r>
       <r>    -9.3405     0.0000    10.0000 </r>
       <r>    -9.1785     0.0000    10.0000 </r>
       <r>    -9.0164     0.0000    10.0000 </r>
       <r>    -8.8544     0.0000    10.0000 </r>
       <r>    -8.6923     0.0000    10.0000 </r>
       <r>    -8.5303     0.0000    10.0000 </r>
       <r>    -8.3682     0.0000    10.0000 </r>
       <r>    -8.2062     0.0000    10.0000 </r>
       <r>    -8.0441     0.0000    10.0000 </r>
       <r>    -7.8821     0.0000    10.0000 </r>
       <r>    -7.7200     0.0000    10.0000 </r>
       <r>    -7.5580     0.0000    10.0000 </r>
       <r>    -7.3959     0.0000    10.0000 </r>
       <r>    -7.2339     0.0000    10.0000 </r>
       <r>    -7.0718     0.0000    10.0000 </r>
       <r>    -6.9098     0.0000    10.0000 </r>
       <r>    -6.7477     0.0000    10.0000 </r>
       <r>    -6.5857    -0.0000    10.0000 </r>
       <r>    -6.4236    -0.0000    10.0000 </r>
       <r>    -6.2616    -0.0000    10.0000 </r>
       <r>    -6.0995    -0.0000    10.0000 </r>
       <r>    -5.9375    -0.0002    10.0000 </r>
       <r>    -5.7754    -0.0232     9.9962 </r>
       <r>    -5.6134     0.5910    10.0920 </r>
       <r>    -5.4513     1.2683    10.2975 </r>
       <r>    -5.2893     2.1492    10.6458 </r>
       <r>    -5.1272     2.8259    11.1037 </r>
       <r>    -4.9652     4.7799    11.8783 </r>
       <r>    -4.8031     2.7597    12.3255 </r>
       <r>    -4.6411     2.3621    12.7083 </r>
       <r>    -4.4790     1.4819    12.9484 </r>
       <r>    -4.3170     0.4012    13.0134 </r>
       <r>    -4.1549     0.7518    13.1353 </r>
       <r>    -3.9929     1.6222    13.3981 </r>
       <r>    -3.8308     3.9764    14.0425 </r>
       <r>    -3.6688     5.0573    14.8620 </r>
       <r>    -3.5067     2.6825    15.2967 </r>
       <r>    -3.3447     1.1439    15.4821 </r>
       <r>    -3.1826     3.4192    16.0362 </r>
       <r>    -3.0206     5.3802    16.9081 </r>
       <r>    -2.8585     3.1230    17.4141 </r>
       <r>    -2.6965     1.7254    17.6937 </r>
       <r>    -2.5344     0.9449    17.8469 </r>
       <r>    -2.3724     1.9907    18.1695 </r>
       <r>    -2.2103     1.4657    18.4070 </r>
       <r>    -2.0483     3.2106    18.9273 </r>
       <r>    -1.8862     3.7939    19.5421 </r>
       <r>    -1.7242     3.4479    20.1008 </r>
       <r>    -1.5621     2.9767    20.5832 </r>
       <r>    -1.4001     3.1965    21.1012 </r>
       <r>    -1.2380     1.6429    21.3674 </r>
       <r>    -1.0760     2.2833    21.7374 </r>
       <r>    -0.9139     1.7775    22.0254 </r>
       <r>    -0.7519     3.6481    22.6166 </r>
       <r>    -0.5898     2.9414    23.0933 </r>
       <r>    -0.4278     2.1286    23.4382 </r>
       <r>    -0.2657     1.8633    23.7402 </r>
       <r>    -0.1037     1.0704    23.9136 </r>
       <r>     0.0584     0.2963    23.9616 </r>
       <r>     0.2204     0.2261    23.9983 </r>
       <r>     0.3825     0.0114    24.0001 </r>
       <r>     0.5445    -0.0008    24.0000 </r>
       <r>     0.7066    -0.0000    24.0000 </r>
       <r>     0.8686    -0.0000    24.0000 </r>
       <r>     1.0307    -0.0000    24.0000 </r>
       <r>     1.1927    -0.0000    24.0000 </r>
       <r>     1.3548    -0.0000    24.0000 </r>
       <r>     1.5168    -0.0099    23.9984 </r>
       <r>     1.6789     0.1903    24.0292 </r>
       <r>     1.8409     1.2388    24.2300 </r>
       <r>     2.0030     2.8207    24.6871 </r>
       <r>     2.1650     5.3408    25.5526 </r>
       <r>     2.3271     3.4939    26.1187 </r>
       <r>     2.4891     4.9758    26.9251 </r>
       <r>     2.6512     4.9250    27.7232 </r>
       <r>     2.8132     3.2863    28.2557 </r>
       <r>     2.9753     2.9511    28.7339 </r>
       <r>     3.1373     2.6333    29.1607 </r>
       <r>     3.2994     2.5129    29.5679 </r>
       <r>     3.4614     1.5855    29.8248 </r>
       <r>     3.6235     2.0850    30.1627 </r>
       <r>     3.7855     0.9675    30.3195 </r>
       <r>     3.9476     1.9873    30.6415 </r>
       <r>     4.1096     2.0344    30.9712 </r>
       <r>     4.2717     2.9874    31.4553 </r>
       <r>     4.4337     1.5389    31.7047 </r>
       <r>     4.5957     1.1739    31.8949 </r>
       <r>     4.7578     0.6064    31.9932 </r>
       <r>     4.9198     0.0445    32.0004 </r>
       <r>     5.0819    -0.0026    32.0000 </r>
       <r>     5.2439     0.0011    32.0002 </r>
       <r>     5.4060     0.1178    32.0192 </r>
       <r>     5.5680     0.3283    32.0724 </r>
       <r>     5.7301     0.3179    32.1240 </r>
       <r>     5.8921     0.5213    32.2084 </r>
       <r>     6.0542     0.2759    32.2532 </r>
       <r>     6.2162     0.8964    32.3984 </r>
       <r>     6.3783     0.7726    32.5236 </r>
       <r>     6.5403     1.0535    32.6943 </r>
       <r>     6.7024     1.0168    32.8591 </r>
       <r>     6.8644     1.7868    33.1487 </r>
       <r>     7.0265     1.2423    33.3500 </r>
       <r>     7.1885     1.0678    33.5230 </r>
       <r>     7.3506     2.2642    33.8899 </r>
       <r>     7.5126     1.2602    34.0941 </r>
       <r>     7.6747     1.0398    34.2626 </r>
       <r>     7.8367     0.9777    34.4211 </r>
       <r>     7.9988     1.4862    34.6619 </r>
       <r>     8.1608     1.6560    34.9303 </r>
       <r>     8.3229     2.8836    35.3975 </r>
       <r>     8.4849     1.1290    35.5805 </r>
       <r>     8.6470     1.0633    35.7528 </r>
       <r>     8.8090     0.6941    35.8653 </r>
       <r>     8.9711     0.5050    35.9471 </r>
       <r>     9.1331     0.3391    36.0021 </r>
       <r>     9.2952    -0.0127    36.0000 </r>
       <r>     9.4572    -0.0001    36.0000 </r>
       <r>     9.6193    -0.0000    36.0000 </r>
       <r>     9.7813    -0.0000    36.0000 </r>
       <r>     9.9434     0.0000    36.0000 </r>
       <r>    10.1054     0.0000    36.0000 </r>
       <r>    10.2675     0.0000    36.0000 </r>
       <r>    10.4295     0.0000    36.0000 </r>
       <r>    10.5916     0.0000    36.0000 </r>
       <r>    10.7536     0.0000    36.0000 </r>
       <r>    10.9157     0.0000    36.0000 </r>
       <r>    11.0777     0.0000    36.0000 </r>
       <r>    11.2398     0.0000    36.0000 </r>
      </set>
     </set>
    </array>
   </total>
  </dos>
 </calculation>
 <structure name="finalpos" >
  <crystal>
   <varray name="basis" >
    <v>       3.19031700       0.00000000       0.00000000 </v>
    <v>      -1.59515800       2.76289700       0.00000000 </v>
    <v>       0.00000000       0.00000000      23.14049200 </v>
   </varray>
   <i name="volume">    203.97226633 </i>
   <varray name="rec_basis" >
    <v>       0.31344848       0.18096941       0.00000000 </v>
    <v>       0.00000000       0.36193894       0.00000000 </v>
    <v>       0.00000000       0.00000000       0.04321429 </v>
   </varray>
  </crystal>
  <varray name="positions" >
   <v>       0.66666700       0.33333300       0.06785900 </v>
   <v>       0.33333300       0.66666700       0.00000000 </v>
   <v>       0.33333300       0.66666700       0.13571500 </v>
   <v>       0.09523843       0.04761871       0.35482300 </v>
   <v>       0.76190443       0.38095271       0.28696500 </v>
   <v>       0.76190443       0.38095271       0.42267900 </v>
  </varray>
 </structure>
</modeling>
