   24   24    1    1
  0.4176334E+02  0.3540400E-09  0.1044544E-08  0.2750143E-08  0.5000000E-15
  1.000000000000000E-004
  CAR 
 unknown system                          
    108     54     68
 
  0.0000000E+00  0.0000000E+00  0.0000000E+00  0.9615385E-02
    1      -14.233657
    2      -13.652853
    3      -12.909937
    4      -12.718833
    5      -12.601402
    6      -12.344004
    7      -12.198135
    8      -11.747735
    9      -11.542610
   10      -11.102433
   11      -11.096458
   12      -10.792171
   13       -8.572592
   14       -8.139246
   15       -7.942448
   16       -7.074402
   17       -6.938623
   18       -6.734225
   19       -6.605561
   20       -6.261883
   21       -5.932452
   22       -5.380307
   23       -4.867199
   24       -4.594243
   25       -4.017919
   26       -3.898303
   27       -3.791246
   28       -3.437756
   29       -3.348959
   30       -3.170067
   31       -3.008267
   32       -2.951080
   33       -2.776524
   34       -2.583028
   35       -2.541498
   36       -2.507881
   37       -2.409281
   38       -2.345560
   39       -2.190940
   40       -2.076093
   41       -1.926252
   42       -1.837995
   43       -1.756747
   44       -1.683859
   45       -1.645638
   46       -1.543474
   47       -1.492143
   48       -1.385976
   49       -1.297213
   50       -1.131360
   51       -0.832289
   52       -0.552804
   53       -0.087819
   54        0.138009
   55        0.287703
   56        0.965171
   57        1.060681
   58        1.207503
   59        1.290656
   60        1.496035
   61        1.611268
   62        1.850307
   63        1.972036
   64        2.078550
   65        2.320366
   66        2.402227
   67        2.535119
   68        2.617100
 
  0.7692308E-01 -0.1387779E-16  0.0000000E+00  0.1923077E-01
    1      -14.177599
    2      -13.591517
    3      -12.857772
    4      -12.663912
    5      -12.545988
    6      -12.287268
    7      -12.135854
    8      -11.696937
    9      -11.493626
   10      -11.053885
   11      -11.047987
   12      -10.748735
   13       -8.545392
   14       -8.176999
   15       -7.904819
   16       -7.060846
   17       -6.913248
   18       -6.734287
   19       -6.599737
   20       -6.243842
   21       -5.899103
   22       -5.369300
   23       -4.868431
   24       -4.580102
   25       -4.217549
   26       -3.898424
   27       -3.807875
   28       -3.764628
   29       -3.614118
   30       -3.399475
   31       -3.333532
   32       -3.135298
   33       -2.964464
   34       -2.857509
   35       -2.788492
   36       -2.593424
   37       -2.526882
   38       -2.383671
   39       -2.297896
   40       -2.174668
   41       -2.102597
   42       -2.070161
   43       -1.970143
   44       -1.937693
   45       -1.836352
   46       -1.763235
   47       -1.617573
   48       -1.429572
   49       -1.280180
   50       -1.129741
   51       -0.860563
   52       -0.518120
   53       -0.127879
   54        0.116117
   55        0.527030
   56        1.101953
   57        1.426835
   58        1.515119
   59        1.648462
   60        1.725069
   61        2.008018
   62        2.076239
   63        2.114084
   64        2.287190
   65        2.340919
   66        2.507701
   67        2.651470
   68        2.790385
 
  0.1538462E+00 -0.2775558E-16  0.0000000E+00  0.1923077E-01
    1      -14.011661
    2      -13.408580
    3      -12.701986
    4      -12.500327
    5      -12.381742
    6      -12.121501
    7      -11.953303
    8      -11.549957
    9      -11.351505
   10      -10.914679
   11      -10.907511
   12      -10.622043
   13       -8.480238
   14       -8.274000
   15       -7.862856
   16       -7.073088
   17       -6.863735
   18       -6.748443
   19       -6.612290
   20       -6.231991
   21       -5.825707
   22       -5.397059
   23       -5.003906
   24       -4.938090
   25       -4.583456
   26       -4.319716
   27       -4.198141
   28       -4.087119
   29       -3.935536
   30       -3.810611
   31       -3.784177
   32       -3.633069
   33       -3.413478
   34       -3.262430
   35       -3.169980
   36       -3.073783
   37       -3.013154
   38       -2.803012
   39       -2.618832
   40       -2.511757
   41       -2.421240
   42       -2.296115
   43       -2.249074
   44       -2.105849
   45       -2.015503
   46       -1.866096
   47       -1.765751
   48       -1.539335
   49       -1.341818
   50       -1.177736
   51       -0.986055
   52       -0.642813
   53       -0.246678
   54        0.120218
   55        0.924500
   56        1.158562
   57        1.606050
   58        1.845610
   59        1.913445
   60        2.134112
   61        2.241699
   62        2.368520
   63        2.445845
   64        2.536228
   65        2.692313
   66        2.816299
   67        2.934232
   68        3.102298
 
  0.2307692E+00 -0.4163336E-16  0.0000000E+00  0.1923077E-01
    1      -13.743834
    2      -13.107629
    3      -12.445645
    4      -12.232508
    5      -12.115835
    6      -11.863512
    7      -11.665417
    8      -11.326856
    9      -11.134438
   10      -10.711246
   11      -10.694294
   12      -10.422003
   13       -8.478000
   14       -8.428188
   15       -7.937638
   16       -7.273419
   17       -6.924021
   18       -6.795362
   19       -6.747794
   20       -6.332248
   21       -5.850032
   22       -5.748609
   23       -5.462446
   24       -5.440536
   25       -4.927655
   26       -4.734836
   27       -4.694474
   28       -4.621808
   29       -4.432099
   30       -4.293612
   31       -4.114166
   32       -3.905606
   33       -3.833266
   34       -3.599942
   35       -3.568021
   36       -3.406033
   37       -3.180669
   38       -3.096903
   39       -3.001203
   40       -2.729681
   41       -2.610619
   42       -2.551241
   43       -2.340004
   44       -2.059214
   45       -1.996153
   46       -1.930482
   47       -1.842344
   48       -1.585725
   49       -1.568462
   50       -1.321093
   51       -1.171665
   52       -0.903488
   53       -0.502470
   54        0.115214
   55        0.672505
   56        0.916475
   57        1.534080
   58        1.727042
   59        1.787379
   60        1.910398
   61        2.140332
   62        2.220696
   63        2.536290
   64        2.617717
   65        2.765721
   66        2.816066
   67        2.883891
   68        3.116786
 
  0.3076923E+00 -0.5551115E-16  0.0000000E+00  0.1923077E-01
    1      -13.392437
    2      -12.695990
    3      -12.097198
    4      -11.872244
    5      -11.765237
    6      -11.560412
    7      -11.307176
    8      -11.071398
    9      -10.889764
   10      -10.525173
   11      -10.456761
   12      -10.160024
   13       -8.766146
   14       -8.550970
   15       -8.198420
   16       -7.638242
   17       -7.234398
   18       -7.109956
   19       -7.013262
   20       -6.564481
   21       -6.376885
   22       -6.264970
   23       -6.080737
   24       -5.838068
   25       -5.322935
   26       -4.964400
   27       -4.886533
   28       -4.809813
   29       -4.625521
   30       -4.429919
   31       -4.349725
   32       -4.297686
   33       -4.116830
   34       -3.875766
   35       -3.505698
   36       -3.370579
   37       -3.236670
   38       -3.190289
   39       -3.062781
   40       -2.917640
   41       -2.836416
   42       -2.692218
   43       -2.339035
   44       -2.175436
   45       -2.036470
   46       -1.985184
   47       -1.912460
   48       -1.813541
   49       -1.673128
   50       -1.558165
   51       -1.328996
   52       -1.144301
   53       -0.786679
   54        0.021374
   55        0.431274
   56        0.650393
   57        1.190343
   58        1.358879
   59        1.510269
   60        1.685163
   61        1.861058
   62        2.108742
   63        2.239186
   64        2.376327
   65        2.646996
   66        2.705546
   67        2.790655
   68        2.983560
 
  0.3846154E+00 -0.8326673E-16  0.0000000E+00  0.1923077E-01
    1      -13.001004
    2      -12.187931
    3      -11.677858
    4      -11.473973
    5      -11.369776
    6      -11.320891
    7      -10.964203
    8      -10.827417
    9      -10.734330
   10      -10.565700
   11      -10.290652
   12       -9.860677
   13       -8.942219
   14       -8.801831
   15       -8.490458
   16       -7.962338
   17       -7.617260
   18       -7.567351
   19       -7.529124
   20       -7.067836
   21       -6.882333
   22       -6.860429
   23       -6.776569
   24       -6.199813
   25       -5.326348
   26       -5.075693
   27       -4.759418
   28       -4.649992
   29       -4.597417
   30       -4.439758
   31       -4.331039
   32       -4.216236
   33       -4.158461
   34       -3.768150
   35       -3.749282
   36       -3.434891
   37       -3.380095
   38       -3.288142
   39       -3.184350
   40       -3.010527
   41       -2.893102
   42       -2.622620
   43       -2.498993
   44       -2.384721
   45       -2.224818
   46       -2.133222
   47       -2.060420
   48       -1.970021
   49       -1.815397
   50       -1.590150
   51       -1.390311
   52       -1.248557
   53       -0.930152
   54       -0.137694
   55        0.224890
   56        0.505298
   57        0.823743
   58        1.056667
   59        1.315457
   60        1.584490
   61        1.613862
   62        1.951220
   63        2.143260
   64        2.171651
   65        2.339780
   66        2.573345
   67        2.698925
   68        2.715828
 
  0.4615385E+00 -0.8326673E-16  0.0000000E+00  0.1923077E-01
    1      -12.687330
    2      -11.615374
    3      -11.411862
    4      -11.254592
    5      -11.068997
    6      -10.958219
    7      -10.951252
    8      -10.838626
    9      -10.745831
   10      -10.687760
   11      -10.300725
   12       -9.625515
   13       -8.898717
   14       -8.797401
   15       -8.554499
   16       -8.238352
   17       -8.190219
   18       -7.776006
   19       -7.688336
   20       -7.536661
   21       -7.398512
   22       -7.286210
   23       -7.243199
   24       -6.332974
   25       -5.235561
   26       -5.022177
   27       -4.610763
   28       -4.581522
   29       -4.377126
   30       -4.221608
   31       -4.161193
   32       -4.144297
   33       -4.054356
   34       -3.936406
   35       -3.710860
   36       -3.687069
   37       -3.543696
   38       -3.369698
   39       -3.223730
   40       -3.090234
   41       -3.026767
   42       -2.799927
   43       -2.702826
   44       -2.468210
   45       -2.313025
   46       -2.218181
   47       -2.123708
   48       -1.958561
   49       -1.827629
   50       -1.633757
   51       -1.356919
   52       -1.298553
   53       -0.902200
   54       -0.331897
   55        0.137584
   56        0.338479
   57        0.670855
   58        0.902668
   59        1.263419
   60        1.473408
   61        1.549929
   62        1.763476
   63        1.963647
   64        2.159915
   65        2.293704
   66        2.388744
   67        2.512016
   68        2.651366
 
  0.0000000E+00  0.2500000E+00  0.0000000E+00  0.1923077E-01
    1      -14.228087
    2      -13.597924
    3      -13.083491
    4      -12.805369
    5      -12.602277
    6      -12.231298
    7      -11.984223
    8      -11.721777
    9      -11.586898
   10      -11.214397
   11      -11.110581
   12      -10.714017
   13       -8.639472
   14       -8.560981
   15       -7.506857
   16       -7.231933
   17       -6.831444
   18       -6.781141
   19       -6.695571
   20       -6.006553
   21       -5.850663
   22       -5.300973
   23       -4.769520
   24       -4.544230
   25       -4.144077
   26       -3.924405
   27       -3.754864
   28       -3.524811
   29       -3.407695
   30       -3.275540
   31       -3.238317
   32       -2.818437
   33       -2.780300
   34       -2.651179
   35       -2.510244
   36       -2.482007
   37       -2.427230
   38       -2.280182
   39       -2.180356
   40       -2.096486
   41       -2.056900
   42       -1.993303
   43       -1.741660
   44       -1.676514
   45       -1.639946
   46       -1.525835
   47       -1.473225
   48       -1.366998
   49       -1.284007
   50       -1.136767
   51       -0.850557
   52       -0.579596
   53       -0.023518
   54        0.163644
   55        0.394554
   56        0.935546
   57        1.094475
   58        1.260615
   59        1.368405
   60        1.584687
   61        1.625392
   62        1.724196
   63        2.091894
   64        2.176959
   65        2.321785
   66        2.442312
   67        2.544054
   68        2.684172
 
  0.7692308E-01  0.2500000E+00  0.0000000E+00  0.1923077E-01
    1      -14.170975
    2      -13.521266
    3      -13.064222
    4      -12.763582
    5      -12.545477
    6      -12.154911
    7      -11.883911
    8      -11.669246
    9      -11.545487
   10      -11.183826
   11      -11.066353
   12      -10.657740
   13       -8.689963
   14       -8.542548
   15       -7.461307
   16       -7.261773
   17       -6.818517
   18       -6.781406
   19       -6.631275
   20       -5.946431
   21       -5.802108
   22       -5.287411
   23       -4.811119
   24       -4.544368
   25       -4.218154
   26       -4.158062
   27       -3.843230
   28       -3.738175
   29       -3.574207
   30       -3.482666
   31       -3.389443
   32       -3.131969
   33       -2.970851
   34       -2.874962
   35       -2.696550
   36       -2.594278
   37       -2.538606
   38       -2.479247
   39       -2.399377
   40       -2.244488
   41       -2.205826
   42       -2.106236
   43       -1.984173
   44       -1.937119
   45       -1.862028
   46       -1.824105
   47       -1.497579
   48       -1.387101
   49       -1.252351
   50       -1.124442
   51       -0.871995
   52       -0.556668
   53       -0.010665
   54        0.157284
   55        0.563071
   56        1.060210
   57        1.487507
   58        1.549389
   59        1.678808
   60        1.794252
   61        1.831451
   62        2.075894
   63        2.263433
   64        2.349522
   65        2.517768
   66        2.557717
   67        2.711653
   68        2.859134
 
  0.1538462E+00  0.2500000E+00  0.0000000E+00  0.1923077E-01
    1      -14.004562
    2      -13.324979
    3      -12.927454
    4      -12.606236
    5      -12.379480
    6      -11.977285
    7      -11.685497
    8      -11.525198
    9      -11.406193
   10      -11.049656
   11      -10.925105
   12      -10.526629
   13       -8.752488
   14       -8.474395
   15       -7.433198
   16       -7.318057
   17       -6.785360
   18       -6.750626
   19       -6.600463
   20       -5.926813
   21       -5.757316
   22       -5.365195
   23       -5.043077
   24       -4.943017
   25       -4.586328
   26       -4.485354
   27       -4.406701
   28       -4.092611
   29       -3.989799
   30       -3.745640
   31       -3.674667
   32       -3.494766
   33       -3.361078
   34       -3.191497
   35       -3.073144
   36       -3.038571
   37       -2.955230
   38       -2.871798
   39       -2.713530
   40       -2.617408
   41       -2.511151
   42       -2.423093
   43       -2.349676
   44       -2.118227
   45       -2.026029
   46       -1.978736
   47       -1.618692
   48       -1.482344
   49       -1.357817
   50       -1.232205
   51       -0.990320
   52       -0.695749
   53       -0.106823
   54        0.157102
   55        0.906415
   56        1.117510
   57        1.564132
   58        1.636383
   59        1.911624
   60        1.993119
   61        2.175170
   62        2.366148
   63        2.529908
   64        2.699203
   65        2.829305
   66        2.941088
   67        3.004008
   68        3.115922
 
  0.2307692E+00  0.2500000E+00  0.0000000E+00  0.1923077E-01
    1      -13.736973
    2      -13.013948
    3      -12.675706
    4      -12.338972
    5      -12.112213
    6      -11.714036
    7      -11.408628
    8      -11.311831
    9      -11.184972
   10      -10.824337
   11      -10.707623
   12      -10.336828
   13       -8.882800
   14       -8.421422
   15       -7.526130
   16       -7.484814
   17       -6.817675
   18       -6.799188
   19       -6.738129
   20       -6.148802
   21       -5.926828
   22       -5.819826
   23       -5.557346
   24       -5.319803
   25       -5.140161
   26       -4.778706
   27       -4.707883
   28       -4.655344
   29       -4.540086
   30       -4.130715
   31       -3.985064
   32       -3.862643
   33       -3.775233
   34       -3.549143
   35       -3.368363
   36       -3.302090
   37       -3.202098
   38       -3.069093
   39       -2.860677
   40       -2.737855
   41       -2.687132
   42       -2.636282
   43       -2.484533
   44       -2.115544
   45       -2.081483
   46       -1.975092
   47       -1.880156
   48       -1.610708
   49       -1.516699
   50       -1.474566
   51       -1.131641
   52       -0.854842
   53       -0.405288
   54        0.008997
   55        0.632239
   56        0.948304
   57        1.357234
   58        1.402394
   59        1.526575
   60        1.653648
   61        2.079100
   62        2.380322
   63        2.540203
   64        2.710219
   65        2.804886
   66        2.925712
   67        3.016223
   68        3.197538
 
  0.3076923E+00  0.2500000E+00  0.0000000E+00  0.1923077E-01
    1      -13.386593
    2      -12.597744
    3      -12.316156
    4      -11.977342
    5      -11.761481
    6      -11.412575
    7      -11.096186
    8      -11.067876
    9      -10.922093
   10      -10.547639
   11      -10.501540
   12      -10.110756
   13       -9.082084
   14       -8.530753
   15       -7.824682
   16       -7.738866
   17       -7.224105
   18       -7.100672
   19       -7.074916
   20       -6.655922
   21       -6.344405
   22       -6.278143
   23       -6.035581
   24       -5.914210
   25       -5.490209
   26       -5.055853
   27       -4.994985
   28       -4.779070
   29       -4.534556
   30       -4.445890
   31       -4.230237
   32       -4.119118
   33       -4.019177
   34       -3.832986
   35       -3.452413
   36       -3.239205
   37       -3.122348
   38       -3.075478
   39       -2.979759
   40       -2.888406
   41       -2.844233
   42       -2.600120
   43       -2.468312
   44       -2.399866
   45       -2.087632
   46       -2.037040
   47       -1.945240
   48       -1.852662
   49       -1.789716
   50       -1.588367
   51       -1.394999
   52       -0.988956
   53       -0.764307
   54       -0.165166
   55        0.398553
   56        0.695001
   57        0.966867
   58        1.138557
   59        1.218699
   60        1.244536
   61        2.043098
   62        2.144259
   63        2.305373
   64        2.501251
   65        2.565606
   66        2.685568
   67        2.836972
   68        3.035442
 
  0.3846154E+00  0.2500000E+00  0.0000000E+00  0.1923077E-01
    1      -12.996988
    2      -12.094980
    3      -11.865520
    4      -11.577872
    5      -11.367235
    6      -11.202817
    7      -10.836471
    8      -10.814355
    9      -10.712130
   10      -10.578022
   11      -10.333007
   12       -9.848666
   13       -9.072344
   14       -8.807437
   15       -8.225575
   16       -7.911901
   17       -7.887893
   18       -7.593184
   19       -7.474965
   20       -7.197633
   21       -6.811580
   22       -6.782674
   23       -6.753192
   24       -6.284912
   25       -5.453813
   26       -5.103060
   27       -4.896500
   28       -4.769092
   29       -4.616187
   30       -4.429406
   31       -4.228283
   32       -3.976879
   33       -3.965930
   34       -3.730252
   35       -3.461267
   36       -3.405609
   37       -3.298848
   38       -3.230902
   39       -3.175982
   40       -3.025622
   41       -2.902478
   42       -2.741372
   43       -2.487937
   44       -2.411748
   45       -2.283022
   46       -2.219861
   47       -2.169387
   48       -1.972350
   49       -1.781028
   50       -1.616112
   51       -1.539525
   52       -1.145005
   53       -0.905174
   54       -0.317161
   55        0.284948
   56        0.397417
   57        0.733260
   58        0.983237
   59        1.102908
   60        1.244048
   61        1.712846
   62        1.910900
   63        2.005505
   64        2.394333
   65        2.446755
   66        2.531025
   67        2.594656
   68        2.826479
 
  0.4615385E+00  0.2500000E+00  0.0000000E+00  0.1923077E-01
    1      -12.685600
    2      -11.547534
    3      -11.424697
    4      -11.369610
    5      -11.079916
    6      -10.974080
    7      -10.962908
    8      -10.808290
    9      -10.692255
   10      -10.663668
   11      -10.296270
   12       -9.614096
   13       -8.959734
   14       -8.664514
   15       -8.511405
   16       -8.441812
   17       -8.218507
   18       -7.698704
   19       -7.642373
   20       -7.563997
   21       -7.428134
   22       -7.245646
   23       -7.218308
   24       -6.407674
   25       -5.261263
   26       -5.126578
   27       -4.608864
   28       -4.568611
   29       -4.361745
   30       -4.277312
   31       -4.197287
   32       -4.067946
   33       -4.041185
   34       -3.765992
   35       -3.619095
   36       -3.590417
   37       -3.449044
   38       -3.369558
   39       -3.294385
   40       -3.109361
   41       -3.023858
   42       -2.759812
   43       -2.710156
   44       -2.639928
   45       -2.307699
   46       -2.273265
   47       -2.215647
   48       -1.876900
   49       -1.788051
   50       -1.665010
   51       -1.483301
   52       -1.201016
   53       -0.892270
   54       -0.376827
   55        0.170114
   56        0.275473
   57        0.665011
   58        0.949819
   59        1.315326
   60        1.394505
   61        1.459122
   62        1.669091
   63        1.951464
   64        2.198837
   65        2.339900
   66        2.398910
   67        2.480812
   68        2.603616
 
 -0.4615385E+00  0.2500000E+00  0.0000000E+00  0.1923077E-01
    1      -12.687416
    2      -11.648527
    3      -11.424162
    4      -11.178226
    5      -11.056129
    6      -10.917271
    7      -10.915299
    8      -10.869074
    9      -10.811367
   10      -10.711499
   11      -10.300361
   12       -9.624352
   13       -8.912252
   14       -8.865869
   15       -8.548321
   16       -8.299822
   17       -8.055462
   18       -7.784620
   19       -7.716960
   20       -7.394803
   21       -7.372277
   22       -7.327792
   23       -7.276324
   24       -6.387184
   25       -5.293403
   26       -4.846632
   27       -4.690421
   28       -4.509456
   29       -4.389247
   30       -4.259455
   31       -4.124794
   32       -4.111946
   33       -4.034387
   34       -3.994238
   35       -3.768401
   36       -3.751002
   37       -3.550043
   38       -3.465859
   39       -3.313114
   40       -3.010382
   41       -2.908274
   42       -2.801566
   43       -2.733072
   44       -2.493282
   45       -2.298423
   46       -2.250950
   47       -2.208613
   48       -1.906823
   49       -1.828391
   50       -1.609571
   51       -1.444373
   52       -1.127250
   53       -0.907695
   54       -0.275925
   55        0.097910
   56        0.341437
   57        0.790089
   58        1.015928
   59        1.262988
   60        1.546256
   61        1.634150
   62        1.687456
   63        2.046200
   64        2.134088
   65        2.275192
   66        2.456181
   67        2.502697
   68        2.585260
 
 -0.3846154E+00  0.2500000E+00  0.0000000E+00  0.1923077E-01
    1      -13.001906
    2      -12.214251
    3      -11.592927
    4      -11.489397
    5      -11.367449
    6      -11.295115
    7      -11.044935
    8      -10.807272
    9      -10.736692
   10      -10.561303
   11      -10.338437
   12       -9.866908
   13       -8.853663
   14       -8.736698
   15       -8.604500
   16       -8.043841
   17       -7.624972
   18       -7.551866
   19       -7.441161
   20       -7.088530
   21       -6.913200
   22       -6.783483
   23       -6.730357
   24       -6.265408
   25       -5.182480
   26       -5.085137
   27       -4.952207
   28       -4.564890
   29       -4.504943
   30       -4.442690
   31       -4.349913
   32       -4.219341
   33       -4.181462
   34       -3.832150
   35       -3.681689
   36       -3.523413
   37       -3.501310
   38       -3.343366
   39       -3.265926
   40       -2.935584
   41       -2.844672
   42       -2.634643
   43       -2.583800
   44       -2.360458
   45       -2.247406
   46       -2.117250
   47       -2.051148
   48       -1.943275
   49       -1.813433
   50       -1.604198
   51       -1.406805
   52       -1.028825
   53       -0.917487
   54       -0.178792
   55        0.243972
   56        0.482015
   57        1.034115
   58        1.141178
   59        1.306133
   60        1.654710
   61        1.768568
   62        2.005277
   63        2.132869
   64        2.162864
   65        2.322373
   66        2.515800
   67        2.597334
   68        2.707959
 
 -0.3076923E+00  0.2500000E+00  0.0000000E+00  0.1923077E-01
    1      -13.392960
    2      -12.708193
    3      -12.055579
    4      -11.870422
    5      -11.764839
    6      -11.566239
    7      -11.353358
    8      -11.040990
    9      -10.881340
   10      -10.531111
   11      -10.485291
   12      -10.180859
   13       -8.667189
   14       -8.487796
   15       -8.299792
   16       -7.652576
   17       -7.270751
   18       -7.115117
   19       -6.983434
   20       -6.702518
   21       -6.260611
   22       -6.178312
   23       -6.088134
   24       -5.867907
   25       -5.262975
   26       -5.014858
   27       -4.840361
   28       -4.755395
   29       -4.660450
   30       -4.532070
   31       -4.411150
   32       -4.340773
   33       -4.004685
   34       -3.771873
   35       -3.575469
   36       -3.476585
   37       -3.295971
   38       -3.190015
   39       -3.062945
   40       -2.880031
   41       -2.766488
   42       -2.687002
   43       -2.379102
   44       -2.141601
   45       -2.077179
   46       -1.978971
   47       -1.917987
   48       -1.823335
   49       -1.739073
   50       -1.600542
   51       -1.376714
   52       -0.893592
   53       -0.747178
   54       -0.074941
   55        0.490788
   56        0.654934
   57        1.261952
   58        1.378353
   59        1.546015
   60        1.804252
   61        1.875160
   62        2.147774
   63        2.244831
   64        2.374108
   65        2.573757
   66        2.645123
   67        2.773170
   68        2.903230
 
 -0.2307692E+00  0.2500000E+00  0.0000000E+00  0.1923077E-01
    1      -13.743123
    2      -13.103422
    3      -12.460286
    4      -12.250014
    5      -12.116392
    6      -11.844794
    7      -11.647648
    8      -11.305859
    9      -11.137972
   10      -10.723258
   11      -10.709193
   12      -10.426598
   13       -8.513234
   14       -8.400186
   15       -7.895749
   16       -7.302852
   17       -6.906633
   18       -6.785090
   19       -6.748581
   20       -6.419979
   21       -5.849179
   22       -5.687087
   23       -5.451171
   24       -5.435644
   25       -4.948935
   26       -4.733142
   27       -4.682532
   28       -4.613872
   29       -4.451546
   30       -4.269959
   31       -4.201961
   32       -3.898479
   33       -3.771426
   34       -3.636312
   35       -3.559606
   36       -3.307380
   37       -3.156846
   38       -3.091599
   39       -3.037343
   40       -2.729337
   41       -2.630215
   42       -2.553108
   43       -2.290104
   44       -2.090941
   45       -1.998301
   46       -1.930364
   47       -1.868603
   48       -1.698698
   49       -1.564580
   50       -1.405820
   51       -1.171217
   52       -0.746608
   53       -0.464797
   54        0.067063
   55        0.741736
   56        0.955908
   57        1.426868
   58        1.664079
   59        1.748223
   60        1.890552
   61        2.118623
   62        2.239431
   63        2.585181
   64        2.703713
   65        2.764159
   66        2.809789
   67        2.887881
   68        3.063588
 
 -0.1538462E+00  0.2500000E+00  0.0000000E+00  0.1923077E-01
    1      -14.009303
    2      -13.387246
    3      -12.775563
    4      -12.543034
    5      -12.383002
    6      -12.068724
    7      -11.863400
    8      -11.530919
    9      -11.370505
   10      -10.967054
   11      -10.912246
   12      -10.592083
   13       -8.505707
   14       -8.447750
   15       -7.652031
   16       -7.172629
   17       -6.820760
   18       -6.720263
   19       -6.659422
   20       -6.165151
   21       -5.799990
   22       -5.359537
   23       -5.019485
   24       -4.936120
   25       -4.595457
   26       -4.393543
   27       -4.271937
   28       -4.054720
   29       -3.937040
   30       -3.811695
   31       -3.709248
   32       -3.633458
   33       -3.400721
   34       -3.241753
   35       -3.123877
   36       -3.025163
   37       -2.980415
   38       -2.819457
   39       -2.664007
   40       -2.616507
   41       -2.468386
   42       -2.304533
   43       -2.230728
   44       -2.073123
   45       -1.971478
   46       -1.881882
   47       -1.723386
   48       -1.655652
   49       -1.350964
   50       -1.249601
   51       -0.992650
   52       -0.646651
   53       -0.178112
   54        0.161704
   55        0.990605
   56        1.195976
   57        1.503075
   58        1.709177
   59        1.886797
   60        2.075154
   61        2.217656
   62        2.346567
   63        2.510305
   64        2.663073
   65        2.750713
   66        2.854941
   67        3.021931
   68        3.101585
 
 -0.7692308E-01  0.2500000E+00  0.0000000E+00  0.1923077E-01
    1      -14.173530
    2      -13.553096
    3      -12.985997
    4      -12.730835
    5      -12.547451