 vasp.5.3.5 31Mar14 (build Oct 29 2014 16:16:03) complex                        
  
 executed on          Linux-UFHPC date 2016.02.09  18:29:45
 running on    8 total cores
 distrk:  each k-point on    8 cores,    1 groups
 distr:  one band on NCORES_PER_BAND=   2 cores,    4 groups


--------------------------------------------------------------------------------------------------------


 INCAR:
 POTCAR:    PAW_PBE P 17Jan2003                   
 POTCAR:   PAW_PBE Si 05Jan2001                   

 ----------------------------------------------------------------------------- 
|                                                                             |
|  ADVICE TO THIS USER RUNNING 'VASP/VAMP'   (HEAR YOUR MASTER'S VOICE ...):  |
|                                                                             |
|      You have switched on vdW-DFT.                                          |
|      This routine was written and supplied by Jiri Klimes.                  |
|      We recommed that you carefully read and cite the following             |
|      publication                                                            |
|      J. Klimes, D.R. Bowler, A. Michelides                                  |
|        J. Phys.: Cond Matt. 22 022201 (2010)                                |
|      J. Klimes, D.R. Bowler, A. Michelides                                  |
|        Phys. Rev. B. 83, 195131 (2011)                                      |
|      and references therein.                                                |
|                                                                             |
 ----------------------------------------------------------------------------- 

 POTCAR:    PAW_PBE P 17Jan2003                   
   VRHFIN =P : s2p3                                                             
   LEXCH  = PE                                                                  
   EATOM  =   176.0430 eV,   12.9388 Ry                                         
                                                                                
   TITEL  = PAW_PBE P 17Jan2003                                                 
   LULTRA =        F    use ultrasoft PP ?                                      
   IUNSCR =        1    unscreen: 0-lin 1-nonlin 2-no                           
   RPACOR =    1.500    partial core radius                                     
   POMASS =   30.974; ZVAL   =    5.000    mass and valenz                      
   RCORE  =    1.900    outmost cutoff radius                                   
   RWIGS  =    2.330; RWIGS  =    1.233    wigner-seitz radius (au A)           
   ENMAX  =  270.000; ENMIN  =  191.280 eV                                      
   ICORE  =        2    local potential                                         
   LCOR   =        T    correct aug charges                                     
   LPAW   =        T    paw PP                                                  
   EAUG   =  342.924                                                            
   DEXC   =    -.002                                                            
   RMAX   =    2.887    core radius for proj-oper                               
   RAUG   =    1.300    factor for augmentation sphere                          
   RDEP   =    1.931    radius for radial grids                                 
   QCUT   =   -4.330; QGAM   =    8.659    optimization parameters              
                                                                                
   Description                                                                  
     l     E      TYP  RCUT    TYP  RCUT                                        
     0   .000     23  1.900                                                     
     0   .000     23  1.900                                                     
     1   .000     23  1.900                                                     
     1   .000     23  1.900                                                     
     2   .000     23  1.900                                                     
  local pseudopotential read in
  partial core-charges read in
  atomic valenz-charges read in
  non local Contribution for L=           0  read in
    real space projection operators read in
  non local Contribution for L=           0  read in
    real space projection operators read in
  non local Contribution for L=           1  read in
    real space projection operators read in
  non local Contribution for L=           1  read in
    real space projection operators read in
    PAW grid and wavefunctions read in
 
   number of l-projection  operators is LMAX  =           4
   number of lm-projection operators is LMMAX =           8
 
 POTCAR:   PAW_PBE Si 05Jan2001                   
   VRHFIN =Si: s2p2                                                             
   LEXCH  = PE                                                                  
   EATOM  =   103.0669 eV,    7.5752 Ry                                         
                                                                                
   TITEL  = PAW_PBE Si 05Jan2001                                                
   LULTRA =        F    use ultrasoft PP ?                                      
   IUNSCR =        1    unscreen: 0-lin 1-nonlin 2-no                           
   RPACOR =    1.500    partial core radius                                     
   POMASS =   28.085; ZVAL   =    4.000    mass and valenz                      
   RCORE  =    1.900    outmost cutoff radius                                   
   RWIGS  =    2.480; RWIGS  =    1.312    wigner-seitz radius (au A)           
   ENMAX  =  245.345; ENMIN  =  184.009 eV                                      
   ICORE  =        2    local potential                                         
   LCOR   =        T    correct aug charges                                     
   LPAW   =        T    paw PP                                                  
   EAUG   =  322.069                                                            
   DEXC   =    -.007                                                            
   RMAX   =    2.944    core radius for proj-oper                               
   RAUG   =    1.300    factor for augmentation sphere                          
   RDEP   =    1.993    radius for radial grids                                 
   QCUT   =   -4.246; QGAM   =    8.493    optimization parameters              
                                                                                
   Description                                                                  
     l     E      TYP  RCUT    TYP  RCUT                                        
     0   .000     23  1.900                                                     
     0   .000     23  1.900                                                     
     1   .000     23  1.900                                                     
     1   .000     23  1.900                                                     
     2   .000      7  1.900                                                     
  local pseudopotential read in
  partial core-charges read in
  atomic valenz-charges read in
  non local Contribution for L=           0  read in
    real space projection operators read in
  non local Contribution for L=           0  read in
    real space projection operators read in
  non local Contribution for L=           1  read in
    real space projection operators read in
  non local Contribution for L=           1  read in
    real space projection operators read in
    PAW grid and wavefunctions read in
 
   number of l-projection  operators is LMAX  =           4
   number of lm-projection operators is LMMAX =           8
 
 Optimization of the real space projectors (new method)

 maximal supplied QI-value         = 19.84
 optimisation between [QCUT,QGAM] = [  8.73, 17.66] = [ 21.34, 87.33] Ry 
 Optimized for a Real-space Cutoff    1.50 Angstroem

   l    n(q)    QCUT    max X(q) W(low)/X(q) W(high)/X(q)  e(spline) 
   0      8     8.731     6.651    0.16E-04    0.15E-04    0.77E-08
   0      8     8.731    90.285    0.16E-03    0.90E-04    0.16E-06
   1      7     8.731     4.328    0.47E-04    0.36E-04    0.45E-07
   1      7     8.731    54.583    0.13E-03    0.39E-03    0.20E-06
 Optimization of the real space projectors (new method)

 maximal supplied QI-value         = 19.84
 optimisation between [QCUT,QGAM] = [  8.73, 17.66] = [ 21.34, 87.33] Ry 
 Optimized for a Real-space Cutoff    1.46 Angstroem

   l    n(q)    QCUT    max X(q) W(low)/X(q) W(high)/X(q)  e(spline) 
   0      8     8.731     8.708    0.16E-04    0.11E-04    0.68E-08
   0      8     8.731   106.241    0.24E-03    0.77E-04    0.13E-06
   1      7     8.731     5.901    0.34E-04    0.38E-04    0.36E-07
   1      7     8.731    73.241    0.12E-03    0.39E-03    0.15E-06

 ----------------------------------------------------------------------------- 
|                                                                             |
|  ADVICE TO THIS USER RUNNING 'VASP/VAMP'   (HEAR YOUR MASTER'S VOICE ...):  |
|                                                                             |
|      You enforced a specific xc-type in the INCAR file,                     |
|      a different type was found on the POTCAR file                          |
|          I HOPE YOU KNOW, WHAT YOU ARE  DOING                               |
|                                                                             |
 ----------------------------------------------------------------------------- 

  PAW_PBE P 17Jan2003                   :
 energy of atom  1       EATOM= -176.0430
 kinetic energy error for atom=    0.0040 (will be added to EATOM!!)
 PAW_PBE Si 05Jan2001                   :
 energy of atom  2       EATOM= -103.0669
 kinetic energy error for atom=    0.0021 (will be added to EATOM!!)
 
 
 POSCAR: Si12                                    
  positions in direct lattice
  No initial velocities read in
 exchange correlation table for  LEXCH =       42
   RHO(1)=    0.500       N(1)  =     2000
   RHO(2)=  100.500       N(2)  =     4000
 


--------------------------------------------------------------------------------------------------------


 ion  position               nearest neighbor table
   1  0.114  0.228  0.233-  15 2.28  21 2.29  21 2.29
   2  0.814  0.028  0.515-  16 2.28  22 2.29  22 2.29
   3  0.458  0.916  0.209-  21 2.28  13 2.30  13 2.30
   4  0.158  0.716  0.491-  22 2.28  14 2.30  14 2.30
   5  0.311  0.622  0.084-  17 2.28  23 2.30  23 2.30
   6  0.311  0.622  0.366-  18 2.28  14 2.36  24 2.44
   7  0.999  0.998  0.086-  19 2.29  19 2.29  13 2.32
   8  0.999  0.998  0.368-  20 2.29  20 2.29
   9  0.655  0.310  0.060-  19 2.28  17 2.29  17 2.29
  10  0.655  0.310  0.342-  20 2.28  18 2.29  18 2.29  24 2.67
  11  0.770  0.539  0.207-  15 2.29  15 2.29  23 2.32
  12  0.470  0.339  0.489-  16 2.29  16 2.29  24 2.32
  13  0.940  0.879  0.158-   3 2.30   3 2.30   7 2.32  23 2.35
  14  0.640  0.679  0.440-   4 2.30   4 2.30  24 2.35   6 2.36
  15  0.205  0.410  0.186-   1 2.28  11 2.29  11 2.29  17 2.37
  16  0.905  0.210  0.468-   2 2.28  12 2.29  12 2.29  20 2.54
  17  0.202  0.404  0.100-   5 2.28   9 2.29   9 2.29  15 2.37
  18  0.202  0.404  0.382-  24 1.56   6 2.28  10 2.29  10 2.29  24 2.73
  19  0.564  0.128  0.108-   9 2.28   7 2.29   7 2.29  21 2.37
  20  0.564  0.128  0.390-  10 2.28   8 2.29   8 2.29  16 2.54
  21  0.567  0.134  0.194-   3 2.28   1 2.29   1 2.29  19 2.37
  22  0.267  0.934  0.476-   4 2.28   2 2.29   2 2.29
  23  0.829  0.658  0.136-   5 2.30   5 2.30  11 2.32  13 2.35
  24  0.529  0.458  0.418-  18 1.56  12 2.32  14 2.35   6 2.44  10 2.67  18 2.73
 
  LATTYP: Found a base centered orthorhombic cell.
 ALAT       =     3.5404000000
 B/A-ratio  =     5.8153587165
 C/A-ratio  =     7.7678875268
  
  Lattice vectors:
  
 A1 = (   1.7702000000,  10.2943480000,   0.0000000000)
 A2 = (   1.7702000000, -10.2943480000,   0.0000000000)
 A3 = (   0.0000000000,   0.0000000000, -27.5014290000)


Analysis of symmetry for initial positions (statically):
=====================================================================
 Subroutine PRICEL returns:
 Original cell was already a primitive cell.
 

 Routine SETGRP: Setting up the symmetry group for a 
 base centered orthorhombic supercell.


 Subroutine GETGRP returns: Found  1 space group operations
 (whereof  1 operations were pure point group operations)
 out of a pool of  8 trial point group operations.


The static configuration has the point symmetry C_1 .


Analysis of symmetry for dynamics (positions and initial velocities):
=====================================================================
 Subroutine PRICEL returns:
 Original cell was already a primitive cell.
 

 Routine SETGRP: Setting up the symmetry group for a 
 base centered orthorhombic supercell.


 Subroutine GETGRP returns: Found  1 space group operations
 (whereof  1 operations were pure point group operations)
 out of a pool of  8 trial point group operations.


The dynamic configuration has the point symmetry C_1 .
 
 
 KPOINTS: pymatgen generated KPOINTS with grid den

Automatic generation of k-mesh.
Space group operators:
 irot       det(A)        alpha          n_x          n_y          n_z        tau_x        tau_y        tau_z
    1     1.000000     0.000000     1.000000     0.000000     0.000000     0.000000     0.000000     0.000000
 
 Subroutine IBZKPT returns following result:
 ===========================================
 
 Found     54 irreducible k-points:
 
 Following reciprocal coordinates:
            Coordinates               Weight
  0.000000  0.000000  0.000000      1.000000
  0.076923 -0.000000  0.000000      2.000000
  0.153846 -0.000000  0.000000      2.000000
  0.230769 -0.000000  0.000000      2.000000
  0.307692 -0.000000  0.000000      2.000000
  0.384615 -0.000000  0.000000      2.000000
  0.461538 -0.000000  0.000000      2.000000
  0.000000  0.250000  0.000000      2.000000
  0.076923  0.250000  0.000000      2.000000
  0.153846  0.250000  0.000000      2.000000
  0.230769  0.250000  0.000000      2.000000
  0.307692  0.250000  0.000000      2.000000
  0.384615  0.250000  0.000000      2.000000
  0.461538  0.250000  0.000000      2.000000
 -0.461538  0.250000  0.000000      2.000000
 -0.384615  0.250000  0.000000      2.000000
 -0.307692  0.250000  0.000000      2.000000
 -0.230769  0.250000  0.000000      2.000000
 -0.153846  0.250000  0.000000      2.000000
 -0.076923  0.250000  0.000000      2.000000
  0.000000  0.500000  0.000000      1.000000
  0.076923  0.500000  0.000000      2.000000
  0.153846  0.500000  0.000000      2.000000
  0.230769  0.500000  0.000000      2.000000
  0.307692  0.500000  0.000000      2.000000
  0.384615  0.500000  0.000000      2.000000
  0.461538  0.500000  0.000000      2.000000
  0.000000  0.000000  0.500000      1.000000
  0.076923 -0.000000  0.500000      2.000000
  0.153846 -0.000000  0.500000      2.000000
  0.230769 -0.000000  0.500000      2.000000
  0.307692 -0.000000  0.500000      2.000000
  0.384615 -0.000000  0.500000      2.000000
  0.461538 -0.000000  0.500000      2.000000
  0.000000  0.250000  0.500000      2.000000
  0.076923  0.250000  0.500000      2.000000
  0.153846  0.250000  0.500000      2.000000
  0.230769  0.250000  0.500000      2.000000
  0.307692  0.250000  0.500000      2.000000
  0.384615  0.250000  0.500000      2.000000
  0.461538  0.250000  0.500000      2.000000
 -0.461538  0.250000  0.500000      2.000000
 -0.384615  0.250000  0.500000      2.000000
 -0.307692  0.250000  0.500000      2.000000
 -0.230769  0.250000  0.500000      2.000000
 -0.153846  0.250000  0.500000      2.000000
 -0.076923  0.250000  0.500000      2.000000
  0.000000  0.500000  0.500000      1.000000
  0.076923  0.500000  0.500000      2.000000
  0.153846  0.500000  0.500000      2.000000
  0.230769  0.500000  0.500000      2.000000
  0.307692  0.500000  0.500000      2.000000
  0.384615  0.500000  0.500000      2.000000
  0.461538  0.500000  0.500000      2.000000
 
 Following cartesian coordinates:
            Coordinates               Weight
  0.000000  0.000000  0.000000      1.000000
  0.021727  0.003736  0.000000      2.000000
  0.043454  0.007472  0.000000      2.000000
  0.065182  0.011209  0.000000      2.000000
  0.086909  0.014945  0.000000      2.000000
  0.108636  0.018681  0.000000      2.000000
  0.130363  0.022417  0.000000      2.000000
  0.000000  0.024285  0.000000      2.000000
  0.021727  0.028021  0.000000      2.000000
  0.043454  0.031758  0.000000      2.000000
  0.065182  0.035494  0.000000      2.000000
  0.086909  0.039230  0.000000      2.000000
  0.108636  0.042966  0.000000      2.000000
  0.130363  0.046702  0.000000      2.000000
 -0.130363  0.001868  0.000000      2.000000
 -0.108636  0.005604  0.000000      2.000000
 -0.086909  0.009340  0.000000      2.000000
 -0.065182  0.013077  0.000000      2.000000
 -0.043454  0.016813  0.000000      2.000000
 -0.021727  0.020549  0.000000      2.000000
  0.000000  0.048570  0.000000      1.000000
  0.021727  0.052307  0.000000      2.000000
  0.043454  0.056043  0.000000      2.000000
  0.065182  0.059779  0.000000      2.000000
  0.086909  0.063515  0.000000      2.000000
  0.108636  0.067251  0.000000      2.000000
  0.130363  0.070987  0.000000      2.000000
  0.000000  0.000000  0.018181      1.000000
  0.021727  0.003736  0.018181      2.000000
  0.043454  0.007472  0.018181      2.000000
  0.065182  0.011209  0.018181      2.000000
  0.086909  0.014945  0.018181      2.000000
  0.108636  0.018681  0.018181      2.000000
  0.130363  0.022417  0.018181      2.000000
  0.000000  0.024285  0.018181      2.000000
  0.021727  0.028021  0.018181      2.000000
  0.043454  0.031758  0.018181      2.000000
  0.065182  0.035494  0.018181      2.000000
  0.086909  0.039230  0.018181      2.000000
  0.108636  0.042966  0.018181      2.000000
  0.130363  0.046702  0.018181      2.000000
 -0.130363  0.001868  0.018181      2.000000
 -0.108636  0.005604  0.018181      2.000000
 -0.086909  0.009340  0.018181      2.000000
 -0.065182  0.013077  0.018181      2.000000
 -0.043454  0.016813  0.018181      2.000000
 -0.021727  0.020549  0.018181      2.000000
  0.000000  0.048570  0.018181      1.000000
  0.021727  0.052307  0.018181      2.000000
  0.043454  0.056043  0.018181      2.000000
  0.065182  0.059779  0.018181      2.000000
  0.086909  0.063515  0.018181      2.000000
  0.108636  0.067251  0.018181      2.000000
  0.130363  0.070987  0.018181      2.000000
 


--------------------------------------------------------------------------------------------------------




 Dimension of arrays:
   k-points           NKPTS =     54   k-points in BZ     NKDIM =     54   number of bands    NBANDS=     68
   number of dos      NEDOS =    301   number of ions     NIONS =     24
   non local maximal  LDIM  =      4   non local SUM 2l+1 LMDIM =      8
   total plane-waves  NPLWV = 192000
   max r-space proj   IRMAX =   2772   max aug-charges    IRDMAX=   6603
   dimension x,y,z NGX =    20 NGY =   60 NGZ =  160
   dimension x,y,z NGXF=    40 NGYF=  120 NGZF=  320
   support grid    NGXF=    40 NGYF=  120 NGZF=  320
   ions per type =              12  12
 NGX,Y,Z   is equivalent  to a cutoff of   9.39,  9.55,  9.67 a.u.
 NGXF,Y,Z  is equivalent  to a cutoff of  18.78, 19.10, 19.34 a.u.


 I would recommend the setting:
   dimension x,y,z NGX =    20 NGY =   59 NGZ =  155
 SYSTEM =  unknown system                          
 POSCAR =  Si12                                    

 Startparameter for this run:
   NWRITE =      2    write-flag & timer
   PREC   = accura    normal or accurate (medium, high low for compatibility)
   ISTART =      0    job   : 0-new  1-cont  2-samecut
   ICHARG =      2    charge: 1-file 2-atom 10-const
   ISPIN  =      1    spin polarized calculation?
   LNONCOLLINEAR =      F non collinear calculations
   LSORBIT =      F    spin-orbit coupling
   INIWAV =      1    electr: 0-lowe 1-rand  2-diag
   LASPH  =      F    aspherical Exc in radial PAW
   METAGGA=      F    non-selfconsistent MetaGGA calc.

 Electronic Relaxation 1
   ENCUT  =  300.0 eV  22.05 Ry    4.70 a.u.   5.00 14.75 38.84*2*pi/ulx,y,z
   ENINI  =  300.0     initial cutoff
   ENAUG  =  342.9 eV  augmentation charge cutoff
   NELM   =     60;   NELMIN=  2; NELMDL= -5     # of ELM steps 
   EDIFF  = 0.1E-05   stopping-criterion for ELM
   LREAL  =      T    real-space projection
   NLSPLINE    = F    spline interpolate recip. space projectors
   LCOMPAT=      F    compatible to vasp.4.4
   GGA_COMPAT  = T    GGA compatible to vasp.4.4-vasp.4.6
   LMAXPAW     = -100 max onsite density
   LMAXMIX     =    2 max onsite mixed and CHGCAR
   VOSKOWN=      0    Vosko Wilk Nusair interpolation
   ROPT   =   -0.00025  -0.00025
 Ionic relaxation
   EDIFFG = 0.1E-04   stopping-criterion for IOM
   NSW    =      0    number of steps for IOM
   NBLOCK =      1;   KBLOCK =      1    inner block; outer block 
   IBRION =     -1    ionic relax: 0-MD 1-quasi-New 2-CG
   NFREE  =      1    steps in history (QN), initial steepest desc. (CG)
   ISIF   =      3    stress and relaxation
   IWAVPR =     10    prediction:  0-non 1-charg 2-wave 3-comb
   ISYM   =      2    0-nonsym 1-usesym 2-fastsym
   LCORR  =      T    Harris-Foulkes like correction to forces

   POTIM  = 0.5000    time-step for ionic-motion
   TEIN   =    0.0    initial temperature
   TEBEG  =    0.0;   TEEND  =   0.0 temperature during run
   SMASS  =  -3.00    Nose mass-parameter (am)
   estimated Nose-frequenzy (Omega)   =  0.10E-29 period in steps =****** mass=  -0.286E-27a.u.
   SCALEE = 1.0000    scale energy and forces
   NPACO  =    256;   APACO  = 16.0  distance and # of slots for P.C.
   PSTRESS=    0.0 pullay stress

  Mass of Ions in am
   POMASS =  30.97 28.09
  Ionic Valenz
   ZVAL   =   5.00  4.00
  Atomic Wigner-Seitz radii
   RWIGS  =  -1.00 -1.00
  virtual crystal weights 
   VCA    =   1.00  1.00
   NELECT =     108.0000    total number of electrons
   NUPDOWN=      -1.0000    fix difference up-down

 DOS related values:
   EMIN   =  10.00;   EMAX   =-10.00  energy-range for DOS
   EFERMI =   0.00
   ISMEAR =     0;   SIGMA  =   0.10  broadening in eV -4-tet -1-fermi 0-gaus

 Electronic relaxation 2 (details)
   IALGO  =     38    algorithm
   LDIAG  =      T    sub-space diagonalisation (order eigenvalues)
   LSUBROT=      F    optimize rotation matrix (better conditioning)
   TURBO    =      0    0=normal 1=particle mesh
   IRESTART =      0    0=no restart 2=restart with 2 vectors
   NREBOOT  =      0    no. of reboots
   NMIN     =      0    reboot dimension
   EREF     =   0.00    reference energy to select bands
   IMIX   =      4    mixing-type and parameters
     AMIX     =   0.40;   BMIX     =  1.00
     AMIX_MAG =   1.60;   BMIX_MAG =  1.00
     AMIN     =   0.10
     WC   =   100.;   INIMIX=   1;  MIXPRE=   1;  MAXMIX= -45

 Intra band minimization:
   WEIMIN = 0.0000     energy-eigenvalue tresh-hold
   EBREAK =  0.37E-08  absolut break condition
   DEPER  =   0.30     relativ break condition  

   TIME   =   0.40     timestep for ELM

  volume/ion in A,a.u.               =      41.76       281.83
  Fermi-wavevector in a.u.,A,eV,Ry     =   0.779018  1.472130  8.256946  0.606868
  Thomas-Fermi vector in A             =   1.882034
 
 Write flags
   LWAVE  =      F    write WAVECAR
   LCHARG =      F    write CHGCAR
   LVTOT  =      F    write LOCPOT, total local potential
   LVHAR  =      F    write LOCPOT, Hartree potential only
   LELF   =      F    write electronic localiz. function (ELF)
   LORBIT =      0    0 simple, 1 ext, 2 COOP (PROOUT)


 Dipole corrections
   LMONO  =      F    monopole corrections only (constant potential shift)
   LDIPOL =      F    correct potential (dipole corrections)
   IDIPOL =      0    1-x, 2-y, 3-z, 4-all directions 
   EPSILON=  1.0000000 bulk dielectric constant

 Exchange correlation treatment:
   GGA     =    BO    GGA type
   LEXCH   =    42    internal setting for exchange type
   VOSKOWN=      0    Vosko Wilk Nusair interpolation
   LHFCALC =     F    Hartree Fock is set to
   LHFONE  =     F    Hartree Fock one center treatment
   AEXX    =    0.0000 exact exchange contribution

 vdW DFT:
   LUSE_VDW   =     T    switch on vdW DFT
   Zab_VDW    =-.8491    correlation parameter
   PARAM1     =0.1833
   PARAM2     =0.2200
   PARAM3     =0.0000

 Linear response parameters
   LEPSILON=     F    determine dielectric tensor
   LRPA    =     F    only Hartree local field effects (RPA)
   LNABLA  =     F    use nabla operator in PAW spheres
   LVEL    =     F    velocity operator in full k-point grid
   LINTERFAST=   F  fast interpolation
   KINTER  =     0    interpolate to denser k-point grid
   CSHIFT  =0.1000    complex shift for real part using Kramers Kronig
   OMEGAMAX=  -1.0    maximum frequency
   DEG_THRESHOLD= 0.2000000E-02 threshold for treating states as degnerate
   RTIME   =    0.100 relaxation time in fs

 Orbital magnetization related:
   ORBITALMAG=     F  switch on orbital magnetization
   LCHIMAG   =     F  perturbation theory with respect to B field
   DQ        =  0.001000  dq finite difference perturbation B field



--------------------------------------------------------------------------------------------------------


 Static calculation
 charge density and potential will be updated during run
 non-spin polarized calculation
 Variant of blocked Davidson
 Davidson routine will perform the subspace rotation
 perform sub-space diagonalisation
    after iterative eigenvector-optimisation
 modified Broyden-mixing scheme, WC =      100.0
 initial mixing is a Kerker type mixing with AMIX =  0.4000 and BMIX =      1.0000
 Hartree-type preconditioning will be used
 using additional bands           14
 real space projection scheme for non local part
 use partial core corrections
 calculate Harris-corrections to forces 
   (improved forces if not selfconsistent)
 use gradient corrections 
 use of overlap-Matrix (Vanderbilt PP)
 Gauss-broadening in eV      SIGMA  =   0.10


--------------------------------------------------------------------------------------------------------


  energy-cutoff  :      300.00
  volume of cell :     1002.32
      direct lattice vectors                 reciprocal lattice vectors
     3.540400000  0.000000000  0.000000000     0.282453960  0.048570342  0.000000000
    -1.770200000 10.294348000  0.000000000     0.000000000  0.097140683  0.000000000
     0.000000000  0.000000000 27.501429000     0.000000000  0.000000000  0.036361747

  length of vectors
     3.540400000 10.445439617 27.501429000     0.286599577  0.097140683  0.036361747


 
 k-points in units of 2pi/SCALE and weight: pymatgen generated KPOINTS with grid den
   0.00000000  0.00000000  0.00000000       0.010
   0.02172723  0.00373618  0.00000000       0.019
   0.04345446  0.00747236  0.00000000       0.019
   0.06518168  0.01120854  0.00000000       0.019
   0.08690891  0.01494472  0.00000000       0.019
   0.10863614  0.01868090  0.00000000       0.019
   0.13036337  0.02241708  0.00000000       0.019
   0.00000000  0.02428517  0.00000000       0.019
   0.02172723  0.02802135  0.00000000       0.019
   0.04345446  0.03175753  0.00000000       0.019
   0.06518168  0.03549371  0.00000000       0.019
   0.08690891  0.03922989  0.00000000       0.019
   0.10863614  0.04296607  0.00000000       0.019
   0.13036337  0.04670225  0.00000000       0.019
  -0.13036337  0.00186809  0.00000000       0.019
  -0.10863614  0.00560427  0.00000000       0.019
  -0.08690891  0.00934045  0.00000000       0.019
  -0.06518168  0.01307663  0.00000000       0.019
  -0.04345446  0.01681281  0.00000000       0.019
  -0.02172723  0.02054899  0.00000000       0.019
   0.00000000  0.04857034  0.00000000       0.010
   0.02172723  0.05230652  0.00000000       0.019
   0.04345446  0.05604270  0.00000000       0.019
   0.06518168  0.05977888  0.00000000       0.019
   0.08690891  0.06351506  0.00000000       0.019
   0.10863614  0.06725124  0.00000000       0.019
   0.13036337  0.07098742  0.00000000       0.019
   0.00000000  0.00000000  0.01818087       0.010
   0.02172723  0.00373618  0.01818087       0.019
   0.04345446  0.00747236  0.01818087       0.019
   0.06518168  0.01120854  0.01818087       0.019
   0.08690891  0.01494472  0.01818087       0.019
   0.10863614  0.01868090  0.01818087       0.019
   0.13036337  0.02241708  0.01818087       0.019
   0.00000000  0.02428517  0.01818087       0.019
   0.02172723  0.02802135  0.01818087       0.019
   0.04345446  0.03175753  0.01818087       0.019
   0.06518168  0.03549371  0.01818087       0.019
   0.08690891  0.03922989  0.01818087       0.019
   0.10863614  0.04296607  0.01818087       0.019
   0.13036337  0.04670225  0.01818087       0.019
  -0.13036337  0.00186809  0.01818087       0.019
  -0.10863614  0.00560427  0.01818087       0.019
  -0.08690891  0.00934045  0.01818087       0.019
  -0.06518168  0.01307663  0.01818087       0.019
  -0.04345446  0.01681281  0.01818087       0.019
  -0.02172723  0.02054899  0.01818087       0.019
   0.00000000  0.04857034  0.01818087       0.010
   0.02172723  0.05230652  0.01818087       0.019
   0.04345446  0.05604270  0.01818087       0.019
   0.06518168  0.05977888  0.01818087       0.019
   0.08690891  0.06351506  0.01818087       0.019
   0.10863614  0.06725124  0.01818087       0.019
   0.13036337  0.07098742  0.01818087       0.019
 
 k-points in reciprocal lattice and weights: pymatgen generated KPOINTS with grid den
   0.00000000  0.00000000  0.00000000       0.010
   0.07692308 -0.00000000  0.00000000       0.019
   0.15384615 -0.00000000  0.00000000       0.019
   0.23076923 -0.00000000  0.00000000       0.019
   0.30769231 -0.00000000  0.00000000       0.019
   0.38461538 -0.00000000  0.00000000       0.019
   0.46153846 -0.00000000  0.00000000       0.019
   0.00000000  0.25000000  0.00000000       0.019
   0.07692308  0.25000000  0.00000000       0.019
   0.15384615  0.25000000  0.00000000       0.019
   0.23076923  0.25000000  0.00000000       0.019
   0.30769231  0.25000000  0.00000000       0.019
   0.38461538  0.25000000  0.00000000       0.019
   0.46153846  0.25000000  0.00000000       0.019
  -0.46153846  0.25000000  0.00000000       0.019
  -0.38461538  0.25000000  0.00000000       0.019
  -0.30769231  0.25000000  0.00000000       0.019
  -0.23076923  0.25000000  0.00000000       0.019
  -0.15384615  0.25000000  0.00000000       0.019
  -0.07692308  0.25000000  0.00000000       0.019
   0.00000000  0.50000000  0.00000000       0.010
   0.07692308  0.50000000  0.00000000       0.019
   0.15384615  0.50000000  0.00000000       0.019
   0.23076923  0.50000000  0.00000000       0.019
   0.30769231  0.50000000  0.00000000       0.019
   0.38461538  0.50000000  0.00000000       0.019
   0.46153846  0.50000000  0.00000000       0.019
   0.00000000  0.00000000  0.50000000       0.010
   0.07692308 -0.00000000  0.50000000       0.019
   0.15384615 -0.00000000  0.50000000       0.019
   0.23076923 -0.00000000  0.50000000       0.019
   0.30769231 -0.00000000  0.50000000       0.019
   0.38461538 -0.00000000  0.50000000       0.019
   0.46153846 -0.00000000  0.50000000       0.019
   0.00000000  0.25000000  0.50000000       0.019
   0.07692308  0.25000000  0.50000000       0.019
   0.15384615  0.25000000  0.50000000       0.019
   0.23076923  0.25000000  0.50000000       0.019
   0.30769231  0.25000000  0.50000000       0.019
   0.38461538  0.25000000  0.50000000       0.019
   0.46153846  0.25000000  0.50000000       0.019
  -0.46153846  0.25000000  0.50000000       0.019
  -0.38461538  0.25000000  0.50000000       0.019
  -0.30769231  0.25000000  0.50000000       0.019
  -0.23076923  0.25000000  0.50000000       0.019
  -0.15384615  0.25000000  0.50000000       0.019
  -0.07692308  0.25000000  0.50000000       0.019
   0.00000000  0.50000000  0.50000000       0.010
   0.07692308  0.50000000  0.50000000       0.019
   0.15384615  0.50000000  0.50000000       0.019
   0.23076923  0.50000000  0.50000000       0.019
   0.30769231  0.50000000  0.50000000       0.019
   0.38461538  0.50000000  0.50000000       0.019
   0.46153846  0.50000000  0.50000000       0.019
 
 position of ions in fractional coordinates (direct lattice) 
   0.11402300  0.22804500  0.23316207
   0.81402300  0.02804500  0.51499159
   0.45808900  0.91617900  0.20939482
   0.15808900  0.71617900  0.49122434
   0.31085400  0.62170900  0.08414979
   0.31085400  0.62170900  0.36597930
   0.99923000  0.99846000  0.08631254
   0.99923000  0.99846000  0.36814206
   0.65492700  0.30985400  0.06041748
   0.65492700  0.30985400  0.34224700
   0.76973800  0.53947500  0.20725292
   0.46973800  0.33947500  0.48908244
   0.93971600  0.87943300  0.15783749
   0.63971600  0.67943300  0.43966701
   0.20515200  0.41030300  0.18578822
   0.90515200  0.21030300  0.46761774
   0.20184900  0.40369900  0.09969156
   0.20184900  0.40369900  0.38152107
   0.56380500  0.12761000  0.10779021
   0.56380500  0.12761000  0.38961973
   0.56710600  0.13421200  0.19387616
   0.26710600  0.93421200  0.47570568
   0.82923400  0.65846800  0.13571444
   0.52923400  0.45846800  0.41754396
 
 position of ions in cartesian coordinates  (Angst):
   0.00000177  2.34757459  6.41229012
   2.83232177  0.28870499 14.16300462
  -0.00000177  9.43146546  5.75865686
  -0.70808177  7.37259586 13.50937136
  -0.00000177  6.40008880  2.31423934
  -0.00000177  6.40008880 10.06495384
   1.77020000 10.27849470  2.37371832
   1.77020000 10.27849470 10.12443282
   1.77020000  3.18974491  1.66156717
   1.77020000  3.18974491  9.41228167
   1.77020177  5.55354339  5.69975143
   1.06212177  3.49467379 13.45046593
   1.77019823  9.05318934  4.34075665
   1.06211823  6.99431974 12.09147115
   0.00000177  4.22380187  5.10944151
   2.83232177  2.16493227 12.86015601
  -0.00000177  4.15581799  2.74166024
  -0.00000177  4.15581799 10.49237474
   1.77020000  1.31366175  2.96438477
   1.77020000  1.31366175 10.71509927
   1.77020000  1.38162503  5.33187152
  -0.70808000  9.61710343 13.08258602
   1.77020000  6.77849874  3.73234107
   1.06212000  4.71962914 11.48305557
 


--------------------------------------------------------------------------------------------------------


 k-point  1 :   0.0000 0.0000 0.0000  plane waves:   11717
 k-point  2 :   0.0769-0.0000 0.0000  plane waves:   11762
 k-point  3 :   0.1538-0.0000 0.0000  plane waves:   11805
 k-point  4 :   0.2308-0.0000 0.0000  plane waves:   11824
 k-point  5 :   0.3077-0.0000 0.0000  plane waves:   11875
 k-point  6 :   0.3846-0.0000 0.0000  plane waves:   11864
 k-point  7 :   0.4615-0.0000 0.0000  plane waves:   11883
 k-point  8 :   0.0000 0.2500 0.0000  plane waves:   11683
 k-point  9 :   0.0769 0.2500 0.0000  plane waves:   11756
 k-point 10 :   0.1538 0.2500 0.0000  plane waves:   11807
 k-point 11 :   0.2308 0.2500 0.0000  plane waves:   11853
 k-point 12 :   0.3077 0.2500 0.0000  plane waves:   11866
 k-point 13 :   0.3846 0.2500 0.0000  plane waves:   11889
 k-point 14 :   0.4615 0.2500 0.0000  plane waves:   11885
 k-point 15 :  -0.4615 0.2500 0.0000  plane waves:   11886
 k-point 16 :  -0.3846 0.2500 0.0000  plane waves:   11867
 k-point 17 :  -0.3077 0.2500 0.0000  plane waves:   11849
 k-point 18 :  -0.2308 0.2500 0.0000  plane waves:   11827
 k-point 19 :  -0.1538 0.2500 0.0000  plane waves:   11801
 k-point 20 :  -0.0769 0.2500 0.0000  plane waves:   11757
 k-point 21 :   0.0000 0.5000 0.0000  plane waves:   11710
 k-point 22 :   0.0769 0.5000 0.0000  plane waves:   11762
 k-point 23 :   0.1538 0.5000 0.0000  plane waves:   11782
 k-point 24 :   0.2308 0.5000 0.0000  plane waves:   11841
 k-point 25 :   0.3077 0.5000 0.0000  plane waves:   11876
 k-point 26 :   0.3846 0.5000 0.0000  plane waves:   11889
 k-point 27 :   0.4615 0.5000 0.0000  plane waves:   11881
 k-point 28 :   0.0000 0.0000 0.5000  plane waves:   11698
 k-point 29 :   0.0769-0.0000 0.5000  plane waves:   11752
 k-point 30 :   0.1538-0.0000 0.5000  plane waves:   11800
 k-point 31 :   0.2308-0.0000 0.5000  plane waves:   11834
 k-point 32 :   0.3077-0.0000 0.5000  plane waves:   11850
 k-point 33 :   0.3846-0.0000 0.5000  plane waves:   11888
 k-point 34 :   0.4615-0.0000 0.5000  plane waves:   11896
 k-point 35 :   0.0000 0.2500 0.5000  plane waves:   11714
 k-point 36 :   0.0769 0.2500 0.5000  plane waves:   11754
 k-point 37 :   0.1538 0.2500 0.5000  plane waves:   11802
 k-point 38 :   0.2308 0.2500 0.5000  plane waves:   11840
 k-point 39 :   0.3077 0.2500 0.5000  plane waves:   11858
 k-point 40 :   0.3846 0.2500 0.5000  plane waves:   11896
 k-point 41 :   0.4615 0.2500 0.5000  plane waves:   11886
 k-point 42 :  -0.4615 0.2500 0.5000  plane waves:   11852
 k-point 43 :  -0.3846 0.2500 0.5000  plane waves:   11838
 k-point 44 :  -0.3077 0.2500 0.5000  plane waves:   11842
 k-point 45 :  -0.2308 0.2500 0.5000  plane waves:   11840
 k-point 46 :  -0.1538 0.2500 0.5000  plane waves:   11804
 k-point 47 :  -0.0769 0.2500 0.5000  plane waves:   11748
 k-point 48 :   0.0000 0.5000 0.5000  plane waves:   11724
 k-point 49 :   0.0769 0.5000 0.5000  plane waves:   11748
 k-point 50 :   0.1538 0.5000 0.5000  plane waves:   11814
 k-point 51 :   0.2308 0.5000 0.5000  plane waves:   11832
 k-point 52 :   0.3077 0.5000 0.5000  plane waves:   11868
 k-point 53 :   0.3846 0.5000 0.5000  plane waves:   11892
 k-point 54 :   0.4615 0.5000 0.5000  plane waves:   11878

 maximum and minimum number of plane-waves per node :      5964     5832

 maximum number of plane-waves:     11896
 maximum index in each direction: 
   IXMAX=    5   IYMAX=   14   IZMAX=   38
   IXMIN=   -5   IYMIN=  -15   IZMIN=  -39

 WARNING: aliasing errors must be expected set NGX to  22 to avoid them
 NGY is ok and might be reduce to  60
 NGZ is ok and might be reduce to 156
 aliasing errors are usually negligible using standard VASP settings
 and one can safely disregard these warnings

 real space projection operators:
  total allocation   :       3793.25 KBytes
  max/ min on nodes  :       1899.38       1893.88


 parallel 3D FFT for wavefunctions:
    minimum data exchange during FFTs selected (reduces bandwidth)
 parallel 3D FFT for charge:
    minimum data exchange during FFTs selected (reduces bandwidth)


 total amount of memory used by VASP on root node   146493. kBytes
========================================================================

   base      :      30000. kBytes
   nonlr-proj:       3452. kBytes
   fftplans  :       9347. kBytes
   grid      :      14649. kBytes
   one-center:         36. kBytes
   wavefun   :      89009. kBytes
 
     INWAV:  cpu time    0.00: real time    0.00
 Broyden mixing: mesh for mixing (old mesh)
   NGX =  9   NGY = 29   NGZ = 77
  (NGX  = 40   NGY  =120   NGZ  =320)
  gives a total of  20097 points

 initial charge density was supplied:
 charge density of overlapping atoms calculated
 number of electron     108.0000000 magnetization 
 keeping initial charge density in first step


--------------------------------------------------------------------------------------------------------


 Maximum index for non-local projection operator         1333
 Maximum index for augmentation-charges          822 (set IRDMAX)


--------------------------------------------------------------------------------------------------------


 First call to EWALD:  gamma=   0.177
 Maximum number of real-space cells 7x 3x 1
 Maximum number of reciprocal cells 1x 3x 7

 FEWALD executed in parallel
    FEWALD:  cpu time    0.00: real time    0.00


----------------------------------------- Iteration    1(   1)  ---------------------------------------


vdW kernel read from vdw_kernel.bindat
  0.0000  0.2424  0.5071  0.7962  1.1119  1.4567  1.8333  2.2446  2.6937  3.1842
  3.7199  4.3049  4.9438  5.6415  6.4036  7.2358  8.1446  9.1372 10.2212 11.4050
 12.6979 14.1099 15.6519 17.3360 19.1751 21.1837 23.3773 25.7729 28.3892 31.2465
 34.3669 37.7748 41.4965 45.5611 50.0000
 
    POTLOK:  cpu time   16.20: real time   16.22
    SETDIJ:  cpu time    0.01: real time    0.01
     EDDAV:  cpu time   65.96: real time   65.99
       DOS:  cpu time    0.01: real time    0.01
    --------------------------------------------
      LOOP:  cpu time   82.19: real time   82.24

 eigenvalue-minimisations  :  7360
 total energy-change (2. order) : 0.4982293E+03  (-0.2867568E+04)
 number of electron     108.0000000 magnetization 
 augmentation part      108.0000000 magnetization 

 Free energy of the ion-electron system (eV)
  ---------------------------------------------------
  alpha Z        PSCENC =        36.80884744
  Ewald energy   TEWEN  =     11958.38000592
  -Hartree energ DENC   =    -14997.20780035
  -exchange      EXHF   =         0.00000000
  -V(xc)+E(xc)   XCENC  =       -87.79048899
  PAW double counting   =      1056.43050070     -732.41190547
  entropy T*S    EENTRO =        -0.03991828
  eigenvalues    EBANDS =       -89.98122846
  atomic energy  EATOM  =      3354.04126044
  ---------------------------------------------------
  free energy    TOTEN  =       498.22927295 eV

  energy without entropy =      498.26919123  energy(sigma->0) =      498.24923209


--------------------------------------------------------------------------------------------------------




----------------------------------------- Iteration    1(   2)  ---------------------------------------


     EDDAV:  cpu time   81.95: real time   81.97
       DOS:  cpu time    0.01: real time    0.01
    --------------------------------------------
      LOOP:  cpu time   81.96: real time   81.98

 eigenvalue-minimisations  :  9780
 total energy-change (2. order) :-0.5602162E+03  (-0.5458471E+03)
 number of electron     108.0000000 magnetization 
 augmentation part      108.0000000 magnetization 

 Free energy of the ion-electron system (eV)
  ---------------------------------------------------
  alpha Z        PSCENC =        36.80884744
  Ewald energy   TEWEN  =     11958.38000592
  -Hartree energ DENC   =    -14997.20780035
  -exchange      EXHF   =         0.00000000
  -V(xc)+E(xc)   XCENC  =       -87.79048899
  PAW double counting   =      1056.43050070     -732.41190547
  entropy T*S    EENTRO =        -0.02222331
  eigenvalues    EBANDS =      -650.21513200
  atomic energy  EATOM  =      3354.04126044
  ---------------------------------------------------
  free energy    TOTEN  =       -61.98693562 eV

  energy without entropy =      -61.96471231  energy(sigma->0) =      -61.97582397


--------------------------------------------------------------------------------------------------------




----------------------------------------- Iteration    1(   3)  ---------------------------------------


     EDDAV:  cpu time   75.39: real time   75.40
       DOS:  cpu time    0.01: real time    0.01
    --------------------------------------------
      LOOP:  cpu time   75.40: real time   75.42

 eigenvalue-minimisations  :  8804
 total energy-change (2. order) :-0.5639191E+02  (-0.5557255E+02)
 number of electron     108.0000000 magnetization 
 augmentation part      108.0000000 magnetization 

 Free energy of the ion-electron system (eV)
  ---------------------------------------------------
  alpha Z        PSCENC =        36.80884744
  Ewald energy   TEWEN  =     11958.38000592
  -Hartree energ DENC   =    -14997.20780035
  -exchange      EXHF   =         0.00000000
  -V(xc)+E(xc)   XCENC  =       -87.79048899
  PAW double counting   =      1056.43050070     -732.41190547
  entropy T*S    EENTRO =        -0.01326356
  eigenvalues    EBANDS =      -706.61600154
  atomic energy  EATOM  =      3354.04126044
  ---------------------------------------------------
  free energy    TOTEN  =      -118.37884541 eV

  energy without entropy =     -118.36558185  energy(sigma->0) =     -118.37221363


--------------------------------------------------------------------------------------------------------




----------------------------------------- Iteration    1(   4)  ---------------------------------------


     EDDAV:  cpu time   91.00: real time   91.02
       DOS:  cpu time    0.01: real time    0.01
    --------------------------------------------
      LOOP:  cpu time   91.01: real time   91.03

 eigenvalue-minimisations  : 11136
 total energy-change (2. order) :-0.2577775E+01  (-0.2561099E+01)
 number of electron     108.0000000 magnetization 
 augmentation part      108.0000000 magnetization 

 Free energy of the ion-electron system (eV)
  ---------------------------------------------------
  alpha Z        PSCENC =        36.80884744
  Ewald energy   TEWEN  =     11958.38000592
  -Hartree energ DENC   =    -14997.20780035
  -exchange      EXHF   =         0.00000000
  -V(xc)+E(xc)   XCENC  =       -87.79048899
  PAW double counting   =      1056.43050070     -732.41190547
  entropy T*S    EENTRO =        -0.01573895
  eigenvalues    EBANDS =      -709.19130069
  atomic energy  EATOM  =      3354.04126044
  ---------------------------------------------------
  free energy    TOTEN  =      -120.95661996 eV

  energy without entropy =     -120.94088100  energy(sigma->0) =     -120.94875048


--------------------------------------------------------------------------------------------------------




----------------------------------------- Iteration    1(   5)  ---------------------------------------


     EDDAV:  cpu time   83.86: real time   83.87
       DOS:  cpu time    0.01: real time    0.01
    CHARGE:  cpu time    4.27: real time    4.27
    MIXING:  cpu time    0.01: real time    0.01
    --------------------------------------------
      LOOP:  cpu time   88.15: real time   88.17

 eigenvalue-minimisations  : 10064
 total energy-change (2. order) :-0.5988724E-01  (-0.5980975E-01)
 number of electron     107.9999994 magnetization 
 augmentation part       -9.6304453 magnetization 

 Broyden mixing:
  rms(total) = 0.11326E+01    rms(broyden)= 0.11324E+01
  rms(prec ) = 0.12180E+01
  weight for this iteration     100.00

 Free energy of the ion-electron system (eV)
  ---------------------------------------------------
  alpha Z        PSCENC =        36.80884744
  Ewald energy   TEWEN  =     11958.38000592
  -Hartree energ DENC   =    -14997.20780035
  -exchange      EXHF   =         0.00000000
  -V(xc)+E(xc)   XCENC  =       -87.79048899
  PAW double counting   =      1056.43050070     -732.41190547
  entropy T*S    EENTRO =        -0.01570911
  eigenvalues    EBANDS =      -709.25121778
  atomic energy  EATOM  =      3354.04126044
  ---------------------------------------------------
  free energy    TOTEN  =      -121.01650720 eV

  energy without entropy =     -121.00079809  energy(sigma->0) =     -121.00865265


--------------------------------------------------------------------------------------------------------




----------------------------------------- Iteration    1(   6)  ---------------------------------------


    POTLOK:  cpu time   14.72: real time   14.72
    SETDIJ:  cpu time    0.01: real time    0.01
     EDDAV:  cpu time   74.13: real time   74.15
       DOS:  cpu time    0.01: real time    0.01
    CHARGE:  cpu time    4.28: real time    4.28
    MIXING:  cpu time    0.01: real time    0.01
    --------------------------------------------
      LOOP:  cpu time   93.17: real time   93.19

 eigenvalue-minimisations  :  8584
 total energy-change (2. order) : 0.3455063E+01  (-0.8150864E+00)
 number of electron     107.9999995 magnetization 
 augmentation part       -9.4757429 magnetization 

 Broyden mixing:
  rms(total) = 0.59630E+00    rms(broyden)= 0.59628E+00
  rms(prec ) = 0.62794E+00
  weight for this iteration     100.00

 eigenvalues of (default mixing * dielectric matrix)
  average eigenvalue GAMMA=   1.7726
  1.7726

 Free energy of the ion-electron system (eV)
  ---------------------------------------------------
  alpha Z        PSCENC =        36.80884744
  Ewald energy   TEWEN  =     11958.38000592
  -Hartree energ DENC   =    -15040.23682674
  -exchange      EXHF   =         0.00000000
  -V(xc)+E(xc)   XCENC  =       -84.66575449
  PAW double counting   =      1119.47958298     -797.31282155
  entropy T*S    EENTRO =        -0.03232726
  eigenvalues    EBANDS =      -664.02341082
  atomic energy  EATOM  =      3354.04126044
  ---------------------------------------------------
  free energy    TOTEN  =      -117.56144408 eV

  energy without entropy =     -117.52911682  energy(sigma->0) =     -117.54528045


--------------------------------------------------------------------------------------------------------




----------------------------------------- Iteration    1(   7)  ---------------------------------------


    POTLOK:  cpu time   14.71: real time   14.72
    SETDIJ:  cpu time    0.01: real time    0.01
     EDDAV:  cpu time   75.46: real time   75.48
       DOS:  cpu time    0.01: real time    0.01
    CHARGE:  cpu time    4.26: real time    4.26
    MIXING:  cpu time    0.01: real time    0.01
    --------------------------------------------
      LOOP:  cpu time   94.47: real time   94.49

 eigenvalue-minimisations  :  8776
 total energy-change (2. order) : 0.5765777E-01  (-0.6653085E+00)
 number of electron     107.9999995 magnetization 
 augmentation part       -9.3712891 magnetization 

 Broyden mixing:
  rms(total) = 0.23390E+00    rms(broyden)= 0.23386E+00
  rms(prec ) = 0.24822E+00
  weight for this iteration     100.00

 eigenvalues of (default mixing * dielectric matrix)
  average eigenvalue GAMMA=   1.4176
  1.0397  1.7956

 Free energy of the ion-electron system (eV)
  ---------------------------------------------------
  alpha Z        PSCENC =        36.80884744
  Ewald energy   TEWEN  =     11958.38000592
  -Hartree energ DENC   =    -15068.36222509
  -exchange      EXHF   =         0.00000000
  -V(xc)+E(xc)   XCENC  =       -81.73284178
  PAW double counting   =      1166.50642735     -845.71347148
  entropy T*S    EENTRO =        -0.03309410
  eigenvalues    EBANDS =      -637.39869502
  atomic energy  EATOM  =      3354.04126044
  ---------------------------------------------------
  free energy    TOTEN  =      -117.50378631 eV

  energy without entropy =     -117.47069220  energy(sigma->0) =     -117.48723926


--------------------------------------------------------------------------------------------------------




----------------------------------------- Iteration    1(   8)  ---------------------------------------


    POTLOK:  cpu time   14.73: real time   14.73
    SETDIJ:  cpu time    0.01: real time    0.01
     EDDAV:  cpu time   77.83: real time   77.85
       DOS:  cpu time    0.01: real time    0.01
    CHARGE:  cpu time    4.34: real time    4.34
    MIXING:  cpu time    0.01: real time    0.01
    --------------------------------------------
      LOOP:  cpu time   96.94: real time   96.96

 eigenvalue-minimisations  :  9096
 total energy-change (2. order) : 0.2338323E-01  (-0.6564876E-01)
 number of electron     107.9999995 magnetization 
 augmentation part       -9.3734074 magnetization 

 Broyden mixing:
  rms(total) = 0.12276E+00    rms(broyden)= 0.12275E+00
  rms(prec ) = 0.12939E+00
  weight for this iteration     100.00

 eigenvalues of (default mixing * dielectric matrix)
  average eigenvalue GAMMA=   1.5100
  2.2493  0.9268  1.3539

 Free energy of the ion-electron system (eV)
  ---------------------------------------------------
  alpha Z        PSCENC =        36.80884744
  Ewald energy   TEWEN  =     11958.38000592
  -Hartree energ DENC   =    -15078.28617519
  -exchange      EXHF   =         0.00000000
  -V(xc)+E(xc)   XCENC  =       -80.93204273
  PAW double counting   =      1172.43143191     -851.81316968
  entropy T*S    EENTRO =        -0.03654232
  eigenvalues    EBANDS =      -628.07401888
  atomic energy  EATOM  =      3354.04126044
  ---------------------------------------------------
  free energy    TOTEN  =      -117.48040308 eV

  energy without entropy =     -117.44386076  energy(sigma->0) =     -117.46213192


--------------------------------------------------------------------------------------------------------




----------------------------------------- Iteration    1(   9)  ---------------------------------------


    POTLOK:  cpu time   14.74: real time   14.74
    SETDIJ:  cpu time    0.01: real time    0.01
     EDDAV:  cpu time   77.64: real time   77.66
       DOS:  cpu time    0.01: real time    0.01
    CHARGE:  cpu time    4.25: real time    4.25
    MIXING:  cpu time    0.01: real time    0.01
    --------------------------------------------
      LOOP:  cpu time   96.67: real time   96.70

 eigenvalue-minimisations  :  9112
 total energy-change (2. order) : 0.3139972E-02  (-0.1691528E-01)
 number of electron     107.9999995 magnetization 
 augmentation part       -9.3711527 magnetization 

 Broyden mixing:
  rms(total) = 0.41373E-01    rms(broyden)= 0.41370E-01
  rms(prec ) = 0.46544E-01
  weight for this iteration     100.00

 eigenvalues of (default mixing * dielectric matrix)
  average eigenvalue GAMMA=   1.4396
  2.5492  1.2147  1.2147  0.7797

 Free energy of the ion-electron system (eV)
  ---------------------------------------------------
  alpha Z        PSCENC =        36.80884744
  Ewald energy   TEWEN  =     11958.38000592
  -Hartree energ DENC   =    -15083.57540741
  -exchange      EXHF   =         0.00000000
  -V(xc)+E(xc)   XCENC  =       -80.35132915
  PAW double counting   =      1174.45458837     -853.90842011
  entropy T*S    EENTRO =        -0.03405073
  eigenvalues    EBANDS =      -623.29275789
  atomic energy  EATOM  =      3354.04126044
  ---------------------------------------------------
  free energy    TOTEN  =      -117.47726311 eV

  energy without entropy =     -117.44321238  energy(sigma->0) =     -117.46023775


--------------------------------------------------------------------------------------------------------




----------------------------------------- Iteration    1(  10)  ---------------------------------------


    POTLOK:  cpu time   14.73: real time   14.73
    SETDIJ:  cpu time    0.01: real time    0.01
     EDDAV:  cpu time   75.70: real time   75.72
       DOS:  cpu time    0.01: real time    0.01
    CHARGE:  cpu time    4.26: real time    4.26
    MIXING:  cpu time    0.01: real time    0.01
    --------------------------------------------
      LOOP:  cpu time   94.72: real time   94.75

 eigenvalue-minimisations  :  8816
 total energy-change (2. order) : 0.3781672E-02  (-0.4019363E-02)
 number of electron     107.9999995 magnetization 
 augmentation part       -9.3686579 magnetization 

 Broyden mixing:
  rms(total) = 0.17068E-01    rms(broyden)= 0.17067E-01
  rms(prec ) = 0.19085E-01
  weight for this iteration     100.00

 eigenvalues of (default mixing * dielectric matrix)
  average eigenvalue GAMMA=   1.4241
  2.5817  1.4095  1.2110  1.2110  0.7072

 Free energy of the ion-electron system (eV)
  ---------------------------------------------------
  alpha Z        PSCENC =        36.80884744
  Ewald energy   TEWEN  =     11958.38000592
  -Hartree energ DENC   =    -15087.02516487
  -exchange      EXHF   =         0.00000000
  -V(xc)+E(xc)   XCENC  =       -80.13717406
  PAW double counting   =      1174.61187655     -854.07743122
  entropy T*S    EENTRO =        -0.03584252
  eigenvalues    EBANDS =      -620.03985912
  atomic energy  EATOM  =      3354.04126044
  ---------------------------------------------------
  free energy    TOTEN  =      -117.47348144 eV

  energy without entropy =     -117.43763892  energy(sigma->0) =     -117.45556018


--------------------------------------------------------------------------------------------------------




----------------------------------------- Iteration    1(  11)  ---------------------------------------


    POTLOK:  cpu time   14.72: real time   14.72
    SETDIJ:  cpu time    0.01: real time    0.01
     EDDAV:  cpu time   79.49: real time   79.51
       DOS:  cpu time    0.01: real time    0.01
    CHARGE:  cpu time    4.26: real time    4.26
    MIXING:  cpu time    0.01: real time    0.01
    --------------------------------------------
      LOOP:  cpu time   98.51: real time   98.53

 eigenvalue-minimisations  :  9360
 total energy-change (2. order) : 0.9663049E-02  (-0.7955521E-03)
 number of electron     107.9999995 magnetization 
 augmentation part       -9.3701946 magnetization 

 Broyden mixing:
  rms(total) = 0.78425E-02    rms(broyden)= 0.78415E-02
  rms(prec ) = 0.93964E-02
  weight for this iteration     100.00

 eigenvalues of (default mixing * dielectric matrix)
  average eigenvalue GAMMA=   1.4105
  2.6713  1.7510  1.2063  1.2063  0.9127  0.7154

 Free energy of the ion-electron system (eV)
  ---------------------------------------------------
  alpha Z        PSCENC =        36.80884744
  Ewald energy   TEWEN  =     11958.38000592
  -Hartree energ DENC   =    -15088.39375523
  -exchange      EXHF   =         0.00000000
  -V(xc)+E(xc)   XCENC  =       -80.11745963
  PAW double counting   =      1172.89669849     -852.31723477
  entropy T*S    EENTRO =        -0.03531281
  eigenvalues    EBANDS =      -618.72686824
  atomic energy  EATOM  =      3354.04126044
  ---------------------------------------------------
  free energy    TOTEN  =      -117.46381839 eV

  energy without entropy =     -117.42850558  energy(sigma->0) =     -117.44616198


--------------------------------------------------------------------------------------------------------




----------------------------------------- Iteration    1(  12)  ---------------------------------------


    POTLOK:  cpu time   14.71: real time   14.71
    SETDIJ:  cpu time    0.01: real time    0.01
     EDDAV:  cpu time   78.09: real time   78.10
       DOS:  cpu time    0.01: real time    0.01
    CHARGE:  cpu time    4.28: real time    4.28
    MIXING:  cpu time    0.01: real time    0.01
    --------------------------------------------
      LOOP:  cpu time   97.11: real time   97.14

 eigenvalue-minimisations  :  9144
 total energy-change (2. order) : 0.5584145E-02  (-0.1178484E-03)
 number of electron     107.9999995 magnetization 
 augmentation part       -9.3707385 magnetization 

 Broyden mixing:
  rms(total) = 0.38038E-02    rms(broyden)= 0.38035E-02
  rms(prec ) = 0.53437E-02
  weight for this iteration     100.00

 eigenvalues of (default mixing * dielectric matrix)
  average eigenvalue GAMMA=   1.3967
  2.6801  2.0142  1.2464  1.2464  1.0114  0.8596  0.7189

 Free energy of the ion-electron system (eV)
  ---------------------------------------------------
  alpha Z        PSCENC =        36.80884744
  Ewald energy   TEWEN  =     11958.38000592
  -Hartree energ DENC   =    -15089.20650305
  -exchange      EXHF   =         0.00000000
  -V(xc)+E(xc)   XCENC  =       -80.10321711
  PAW double counting   =      1172.09036148     -851.48931895
  entropy T*S    EENTRO =        -0.03529912
  eigenvalues    EBANDS =      -617.94437130
  atomic energy  EATOM  =      3354.04126044
  ---------------------------------------------------
  free energy    TOTEN  =      -117.45823424 eV

  energy without entropy =     -117.42293512  energy(sigma->0) =     -117.44058468


--------------------------------------------------------------------------------------------------------




----------------------------------------- Iteration    1(  13)  ---------------------------------------


    POTLOK:  cpu time   14.72: real time   14.72
    SETDIJ:  cpu time    0.01: real time    0.01
     EDDAV:  cpu time   78.49: real time   78.50
       DOS:  cpu time    0.01: real time    0.01
    CHARGE:  cpu time    4.31: real time    4.31
    MIXING:  cpu time    0.01: real time    0.01
    --------------------------------------------
      LOOP:  cpu time   97.56: real time   97.58

 eigenvalue-minimisations  :  9224
 total energy-change (2. order) : 0.3976573E-02  (-0.4176570E-04)
 number of electron     107.9999995 magnetization 
 augmentation part       -9.3707495 magnetization 

 Broyden mixing:
  rms(total) = 0.22432E-02    rms(broyden)= 0.22430E-02
  rms(prec ) = 0.35495E-02
  weight for this iteration     100.00

 eigenvalues of (default mixing * dielectric matrix)
  average eigenvalue GAMMA=   1.3946
  2.7159  2.2671  1.4379  1.1628  1.1628  0.8988  0.7406  0.7707

 Free energy of the ion-electron system (eV)
  ---------------------------------------------------
  alpha Z        PSCENC =        36.80884744
  Ewald energy   TEWEN  =     11958.38000592
  -Hartree energ DENC   =    -15090.20152556
  -exchange      EXHF   =         0.00000000
  -V(xc)+E(xc)   XCENC  =       -80.09847343
  PAW double counting   =      1171.56398208     -850.94878636
  entropy T*S    EENTRO =        -0.03526199
  eigenvalues    EBANDS =      -616.96430622
  atomic energy  EATOM  =      3354.04126044
  ---------------------------------------------------
  free energy    TOTEN  =      -117.45425767 eV

  energy without entropy =     -117.41899568  energy(sigma->0) =     -117.43662668


--------------------------------------------------------------------------------------------------------




----------------------------------------- Iteration    1(  14)  ---------------------------------------


    POTLOK:  cpu time   14.71: real time   14.71
    SETDIJ:  cpu time    0.01: real time    0.01
     EDDAV:  cpu time   78.97: real time   78.99
       DOS:  cpu time    0.01: real time    0.01
    CHARGE:  cpu time    4.32: real time    4.32
    MIXING:  cpu time    0.02: real time    0.02
    --------------------------------------------
      LOOP:  cpu time   98.05: real time   98.07

 eigenvalue-minimisations  :  9304
 total energy-change (2. order) : 0.1881389E-02  (-0.1222724E-04)
 number of electron     107.9999995 magnetization 
 augmentation part       -9.3704974 magnetization 

 Broyden mixing:
  rms(total) = 0.13125E-02    rms(broyden)= 0.13125E-02
  rms(prec ) = 0.23518E-02
  weight for this iteration     100.00

 eigenvalues of (default mixing * dielectric matrix)
  average eigenvalue GAMMA=   1.4486
  2.9104  2.5433  1.7137  1.1534  1.1534  1.0497  1.0497  0.7104  0.7535

 Free energy of the ion-electron system (eV)
  ---------------------------------------------------
  alpha Z        PSCENC =        36.80884744
  Ewald energy   TEWEN  =     11958.38000592
  -Hartree energ DENC   =    -15091.04300617
  -exchange      EXHF   =         0.00000000
  -V(xc)+E(xc)   XCENC  =       -80.09384132
  PAW double counting   =      1171.31542134     -850.69411403
  entropy T*S    EENTRO =        -0.03532806
  eigenvalues    EBANDS =      -616.13162184
  atomic energy  EATOM  =      3354.04126044
  ---------------------------------------------------
  free energy    TOTEN  =      -117.45237628 eV

  energy without entropy =     -117.41704822  energy(sigma->0) =     -117.43471225


--------------------------------------------------------------------------------------------------------




----------------------------------------- Iteration    1(  15)  ---------------------------------------


    POTLOK:  cpu time   14.74: real time   14.74
    SETDIJ:  cpu time    0.01: real time    0.01
     EDDAV:  cpu time   74.83: real time   74.85
       DOS:  cpu time    0.01: real time    0.01
    CHARGE:  cpu time    4.26: real time    4.26
    MIXING:  cpu time    0.02: real time    0.02
    --------------------------------------------
      LOOP:  cpu time   93.87: real time   93.89

 eigenvalue-minimisations  :  8720
 total energy-change (2. order) : 0.8140111E-03  (-0.9353345E-05)
 number of electron     107.9999995 magnetization 
 augmentation part       -9.3702210 magnetization 

 Broyden mixing:
  rms(total) = 0.82376E-03    rms(broyden)= 0.82373E-03
  rms(prec ) = 0.14472E-02
  weight for this iteration     100.00

 eigenvalues of (default mixing * dielectric matrix)
  average eigenvalue GAMMA=   1.5145
  3.4017  2.6485  1.7403  1.7403  1.1481  1.1481  0.9327  0.9327  0.7210  0.7316

 Free energy of the ion-electron system (eV)
  ---------------------------------------------------
  alpha Z        PSCENC =        36.80884744
  Ewald energy   TEWEN  =     11958.38000592
  -Hartree energ DENC   =    -15092.03925959
  -exchange      EXHF   =         0.00000000
  -V(xc)+E(xc)   XCENC  =       -80.08782485
  PAW double counting   =      1171.18840314     -850.56417817
  entropy T*S    EENTRO =        -0.03531437
  eigenvalues    EBANDS =      -615.14350223
  atomic energy  EATOM  =      3354.04126044
  ---------------------------------------------------
  free energy    TOTEN  =      -117.45156227 eV

  energy without entropy =     -117.41624790  energy(sigma->0) =     -117.43390509


--------------------------------------------------------------------------------------------------------




----------------------------------------- Iteration    1(  16)  ---------------------------------------


    POTLOK:  cpu time   14.72: real time   14.73
    SETDIJ:  cpu time    0.01: real time    0.01
     EDDAV:  cpu time   71.37: real time   71.38
       DOS:  cpu time    0.01: real time    0.01
    CHARGE:  cpu time    4.28: real time    4.28
    MIXING:  cpu time    0.02: real time    0.02
    --------------------------------------------
      LOOP:  cpu time   90.42: real time   90.44

 eigenvalue-minimisations  :  8184
 total energy-change (2. order) :-0.1962569E-03  (-0.7173410E-05)
 number of electron     107.9999995 magnetization 
 augmentation part       -9.3702175 magnetization 

 Broyden mixing:
  rms(total) = 0.50335E-03    rms(broyden)= 0.50331E-03
  rms(prec ) = 0.85577E-03
  weight for this iteration     100.00

 eigenvalues of (default mixing * dielectric matrix)
  average eigenvalue GAMMA=   1.6158
  4.2249  2.7037  2.2797  1.5114  1.5114  1.1277  1.1277  0.9121  0.9121  0.7253
  0.7372

 Free energy of the ion-electron system (eV)
  ---------------------------------------------------
  alpha Z        PSCENC =        36.80884744
  Ewald energy   TEWEN  =     11958.38000592
  -Hartree energ DENC   =    -15092.76068766
  -exchange      EXHF   =         0.00000000
  -V(xc)+E(xc)   XCENC  =       -80.08418582
  PAW double counting   =      1171.17362126     -850.54904646
  entropy T*S    EENTRO =        -0.03530719
  eigenvalues    EBANDS =      -614.42626646
  atomic energy  EATOM  =      3354.04126044
  ---------------------------------------------------
  free energy    TOTEN  =      -117.45175853 eV

  energy without entropy =     -117.41645133  energy(sigma->0) =     -117.43410493


--------------------------------------------------------------------------------------------------------




----------------------------------------- Iteration    1(  17)  ---------------------------------------


    POTLOK:  cpu time   14.73: real time   14.74
    SETDIJ:  cpu time    0.01: real time    0.01
     EDDAV:  cpu time   72.62: real time   72.64
       DOS:  cpu time    0.01: real time    0.01
    CHARGE:  cpu time    4.29: real time    4.29
    MIXING:  cpu time    0.02: real time    0.02
    --------------------------------------------
      LOOP:  cpu time   91.69: real time   91.71

 eigenvalue-minimisations  :  8416
 total energy-change (2. order) :-0.5897724E-03  (-0.1455897E-04)
 number of electron     107.9999995 magnetization 
 augmentation part       -9.3701083 magnetization 

 Broyden mixing:
  rms(total) = 0.26724E-03    rms(broyden)= 0.26722E-03
  rms(prec ) = 0.47843E-03
  weight for this iteration     100.00

 eigenvalues of (default mixing * dielectric matrix)
  average eigenvalue GAMMA=   1.7174
  5.4723  2.8104  2.4101  1.7566  1.4347  1.1277  1.1277  1.2119  0.9020  0.9020
  0.7270  0.7270

 Free energy of the ion-electron system (eV)
  ---------------------------------------------------
  alpha Z        PSCENC =        36.80884744
  Ewald energy   TEWEN  =     11958.38000592
  -Hartree energ DENC   =    -15093.27305099
  -exchange      EXHF   =         0.00000000
  -V(xc)+E(xc)   XCENC  =       -80.08104631
  PAW double counting   =      1171.22691982     -850.60370923
  entropy T*S    EENTRO =        -0.03531616
  eigenvalues    EBANDS =      -613.91625923
  atomic energy  EATOM  =      3354.04126044
  ---------------------------------------------------
  free energy    TOTEN  =      -117.45234830 eV

  energy without entropy =     -117.41703214  energy(sigma->0) =     -117.43469022


--------------------------------------------------------------------------------------------------------




----------------------------------------- Iteration    1(  18)  ---------------------------------------


    POTLOK:  cpu time   14.73: real time   14.74
    SETDIJ:  cpu time    0.01: real time    0.01
     EDDAV:  cpu time   68.02: real time   68.04
       DOS:  cpu time    0.01: real time    0.01
    CHARGE:  cpu time    4.10: real time    4.10
    MIXING:  cpu time    0.02: real time    0.02
    --------------------------------------------
      LOOP:  cpu time   86.90: real time   86.92

 eigenvalue-minimisations  :  7696
 total energy-change (2. order) :-0.2188223E-03  (-0.8677335E-05)
 number of electron     107.9999995 magnetization 
 augmentation part       -9.3700845 magnetization 

 Broyden mixing:
  rms(total) = 0.16963E-03    rms(broyden)= 0.16961E-03
  rms(prec ) = 0.30487E-03
  weight for this iteration     100.00

 eigenvalues of (default mixing * dielectric matrix)
  average eigenvalue GAMMA=   1.7886
  6.1483  2.9484  2.6330  1.9700  1.4873  1.4873  1.1149  1.1149  1.0634  0.9143
  0.9143  0.7278  0.7278

 Free energy of the ion-electron system (eV)
  ---------------------------------------------------
  alpha Z        PSCENC =        36.80884744
  Ewald energy   TEWEN  =     11958.38000592
  -Hartree energ DENC   =    -15093.53907599
  -exchange      EXHF   =         0.00000000
  -V(xc)+E(xc)   XCENC  =       -80.08018923
  PAW double counting   =      1171.23886347     -850.61588055
  entropy T*S    EENTRO =        -0.03530983
  eigenvalues    EBANDS =      -613.65108879
  atomic energy  EATOM  =      3354.04126044
  ---------------------------------------------------
  free energy    TOTEN  =      -117.45256712 eV

  energy without entropy =     -117.41725729  energy(sigma->0) =     -117.43491220


--------------------------------------------------------------------------------------------------------




----------------------------------------- Iteration    1(  19)  ---------------------------------------


    POTLOK:  cpu time   14.73: real time   14.74
    SETDIJ:  cpu time    0.01: real time    0.01
     EDDAV:  cpu time   61.40: real time   61.42
       DOS:  cpu time    0.01: real time    0.01
    CHARGE:  cpu time    4.34: real time    4.34
    MIXING:  cpu time    0.02: real time    0.02
    --------------------------------------------
      LOOP:  cpu time   80.52: real time   80.54

 eigenvalue-minimisations  :  6688
 total energy-change (2. order) :-0.5182641E-04  (-0.2619655E-05)
 number of electron     107.9999995 magnetization 
 augmentation part       -9.3700797 magnetization 

 Broyden mixing:
  rms(total) = 0.10994E-03    rms(broyden)= 0.10993E-03
  rms(prec ) = 0.19178E-03
  weight for this iteration     100.00

 eigenvalues of (default mixing * dielectric matrix)
  average eigenvalue GAMMA=   1.8083
  6.4567  3.1459  2.6612  2.1162  1.7664  1.3589  1.3589  1.1217  1.1217  0.9125
  0.9125  0.9307  0.7269  0.7269

 Free energy of the ion-electron system (eV)
  ---------------------------------------------------
  alpha Z        PSCENC =        36.80884744
  Ewald energy   TEWEN  =     11958.38000592
  -Hartree energ DENC   =    -15093.69311278
  -exchange      EXHF   =         0.00000000
  -V(xc)+E(xc)   XCENC  =       -80.07964034
  PAW double counting   =      1171.24037249     -850.61734458
  entropy T*S    EENTRO =        -0.03531417
  eigenvalues    EBANDS =      -613.49769338
  atomic energy  EATOM  =      3354.04126044
  ---------------------------------------------------
  free energy    TOTEN  =      -117.45261895 eV

  energy without entropy =     -117.41730478  energy(sigma->0) =     -117.43496186


--------------------------------------------------------------------------------------------------------




----------------------------------------- Iteration    1(  20)  ---------------------------------------


    POTLOK:  cpu time   14.75: real time   14.75
    SETDIJ:  cpu time    0.01: real time    0.01
     EDDAV:  cpu time   62.97: real time   62.98
       DOS:  cpu time    0.01: real time    0.01
    CHARGE:  cpu time    4.31: real time    4.31
    MIXING:  cpu time    0.02: real time    0.02
    --------------------------------------------
      LOOP:  cpu time   82.07: real time   82.08

 eigenvalue-minimisations  :  6928
 total energy-change (2. order) :-0.4760409E-05  (-0.1575079E-05)
 number of electron     107.9999995 magnetization 
 augmentation part       -9.3700819 magnetization 

 Broyden mixing:
  rms(total) = 0.74720E-04    rms(broyden)= 0.74714E-04
  rms(prec ) = 0.12670E-03
  weight for this iteration     100.00

 eigenvalues of (default mixing * dielectric matrix)
  average eigenvalue GAMMA=   1.8566
  6.7915  3.5755  2.7478  2.3895  1.6973  1.5332  1.5332  1.1181  1.1181  1.0409
  1.0409  0.9048  0.9048  0.7265  0.7265

 Free energy of the ion-electron system (eV)
  ---------------------------------------------------
  alpha Z        PSCENC =        36.80884744
  Ewald energy   TEWEN  =     11958.38000592
  -Hartree energ DENC   =    -15093.73279814
  -exchange      EXHF   =         0.00000000
  -V(xc)+E(xc)   XCENC  =       -80.07968196
  PAW double counting   =      1171.23631953     -850.61316506
  entropy T*S    EENTRO =        -0.03531196
  eigenvalues    EBANDS =      -613.45809992
  atomic energy  EATOM  =      3354.04126044
  ---------------------------------------------------
  free energy    TOTEN  =      -117.45262371 eV

  energy without entropy =     -117.41731175  energy(sigma->0) =     -117.43496773


--------------------------------------------------------------------------------------------------------




----------------------------------------- Iteration    1(  21)  ---------------------------------------


    POTLOK:  cpu time   14.72: real time   14.73
    SETDIJ:  cpu time    0.01: real time    0.01
     EDDAV:  cpu time   62.76: real time   62.77
       DOS:  cpu time    0.01: real time    0.01
    CHARGE:  cpu time    4.26: real time    4.26
    MIXING:  cpu time    0.02: real time    0.02
    --------------------------------------------
      LOOP:  cpu time   81.79: real time   81.80

 eigenvalue-minimisations  :  6816
 total energy-change (2. order) : 0.4475792E-04  (-0.1623507E-05)
 number of electron     107.9999995 magnetization 
 augmentation part       -9.3700806 magnetization 

 Broyden mixing:
  rms(total) = 0.52336E-04    rms(broyden)= 0.52333E-04
  rms(prec ) = 0.76916E-04
  weight for this iteration     100.00

 eigenvalues of (default mixing * dielectric matrix)
  average eigenvalue GAMMA=   1.9162
  7.1134  4.2513  2.8023  2.5547  1.8185  1.8185  1.4169  1.4169  1.1282  1.1282
  0.7263  0.7263  0.9118  0.9118  0.9671  0.9671

 Free energy of the ion-electron system (eV)
  ---------------------------------------------------
  alpha Z        PSCENC =        36.80884744
  Ewald energy   TEWEN  =     11958.38000592
  -Hartree energ DENC   =    -15093.77375352
  -exchange      EXHF   =         0.00000000
  -V(xc)+E(xc)   XCENC  =       -80.07968466
  PAW double counting   =      1171.23126644     -850.60799093
  entropy T*S    EENTRO =        -0.03531045
  eigenvalues    EBANDS =      -613.41721964
  atomic energy  EATOM  =      3354.04126044
  ---------------------------------------------------
  free energy    TOTEN  =      -117.45257895 eV

  energy without entropy =     -117.41726850  energy(sigma->0) =     -117.43492372


--------------------------------------------------------------------------------------------------------




----------------------------------------- Iteration    1(  22)  ---------------------------------------


    POTLOK:  cpu time   14.75: real time   14.75
    SETDIJ:  cpu time    0.01: real time    0.01
     EDDAV:  cpu time   59.23: real time   59.24
       DOS:  cpu time    0.01: real time    0.01
    CHARGE:  cpu time    4.33: real time    4.33
    MIXING:  cpu time    0.02: real time    0.02
    --------------------------------------------
      LOOP:  cpu time   78.35: real time   78.37

 eigenvalue-minimisations  :  6288
 total energy-change (2. order) : 0.3015852E-04  (-0.8771532E-06)
 number of electron     107.9999995 magnetization 
 augmentation part       -9.3700813 magnetization 

 Broyden mixing:
  rms(total) = 0.29923E-04    rms(broyden)= 0.29921E-04
  rms(prec ) = 0.41683E-04
  weight for this iteration     100.00

 eigenvalues of (default mixing * dielectric matrix)
  average eigenvalue GAMMA=   2.0375
  7.7361  5.5662  3.0205  2.6577  2.2821  1.5415  1.5415  1.4819  1.3420  1.1270
  1.1270  0.7263  0.7263  0.9113  0.9113  0.9695  0.9695

 Free energy of the ion-electron system (eV)
  ---------------------------------------------------
  alpha Z        PSCENC =        36.80884744
  Ewald energy   TEWEN  =     11958.38000592
  -Hartree energ DENC   =    -15093.78491023
  -exchange      EXHF   =         0.00000000
  -V(xc)+E(xc)   XCENC  =       -80.07979364
  PAW double counting   =      1171.22921482     -850.60591289
  entropy T*S    EENTRO =        -0.03531134
  eigenvalues    EBANDS =      -613.40594932
  atomic energy  EATOM  =      3354.04126044
  ---------------------------------------------------
  free energy    TOTEN  =      -117.45254879 eV

  energy without entropy =     -117.41723745  energy(sigma->0) =     -117.43489312


--------------------------------------------------------------------------------------------------------




----------------------------------------- Iteration    1(  23)  ---------------------------------------


    POTLOK:  cpu time   14.73: real time   14.74
    SETDIJ:  cpu time    0.01: real time    0.01
     EDDAV:  cpu time   59.05: real time   59.06
       DOS:  cpu time    0.01: real time    0.01
    CHARGE:  cpu time    4.33: real time    4.33
    MIXING:  cpu time    0.02: real time    0.02
    --------------------------------------------
      LOOP:  cpu time   78.16: real time   78.18

 eigenvalue-minimisations  :  6280
 total energy-change (2. order) : 0.5199131E-04  (-0.7285093E-06)
 number of electron     107.9999995 magnetization 
 augmentation part       -9.3700824 magnetization 

 Broyden mixing:
  rms(total) = 0.13265E-04    rms(broyden)= 0.13263E-04
  rms(prec ) = 0.16701E-04
  weight for this iteration     100.00

 eigenvalues of (default mixing * dielectric matrix)
  average eigenvalue GAMMA=   2.0879
  8.0956  6.4771  3.0830  2.7020  2.3312  1.7441  1.7441  1.4467  1.4467  1.1286
  1.1286  0.7263  0.7263  0.9101  0.9101  1.0210  1.0210  0.9400

 Free energy of the ion-electron system (eV)
  ---------------------------------------------------
  alpha Z        PSCENC =        36.80884744
  Ewald energy   TEWEN  =     11958.38000592
  -Hartree energ DENC   =    -15093.79308231
  -exchange      EXHF   =         0.00000000
  -V(xc)+E(xc)   XCENC  =       -80.07980391
  PAW double counting   =      1171.22975768     -850.60648656
  entropy T*S    EENTRO =        -0.03531152
  eigenvalues    EBANDS =      -613.39768398
  atomic energy  EATOM  =      3354.04126044
  ---------------------------------------------------
  free energy    TOTEN  =      -117.45249680 eV

  energy without entropy =     -117.41718528  energy(sigma->0) =     -117.43484104


[...]
     31      -4.0364      2.00000
     32      -3.8524      2.00000
     33      -3.7671      2.00000
     34      -3.5398      2.00000
     35      -3.3610      2.00000
     36      -3.3140      2.00000
     37      -3.1747      2.00000
     38      -3.0185      2.00000
     39      -2.8981      2.00000
     40      -2.7250      2.00000
     41      -2.6506      2.00000
     42      -2.6066      2.00000
     43      -2.3742      2.00000
     44      -2.2340      2.00000
     45      -2.1119      2.00000
     46      -2.0066      2.00000
     47      -1.8820      2.00000
     48      -1.7547      2.00000
     49      -1.5399      2.00000
     50      -1.4717      2.00000
     51      -1.1356      2.00000
     52      -0.7389      2.00000
     53      -0.3415      2.00000
     54      -0.0255      1.99747
     55       0.6801      0.00000
     56       1.0068      0.00000
     57       1.2554      0.00000
     58       1.3808      0.00000
     59       1.4933      0.00000
     60       1.6137      0.00000
     61       2.0777      0.00000
     62       2.4149      0.00000
     63       2.5499      0.00000
     64       2.6610      0.00000
     65       2.8240      0.00000
     66       2.9290      0.00000
     67       3.0423      0.00000
     68       3.1884      0.00000

 k-point    52 :       0.3077    0.5000    0.5000
  band No.  band energies     occupation 
      1     -13.3871      2.00000
      2     -12.6229      2.00000
      3     -12.2723      2.00000
      4     -11.9760      2.00000
      5     -11.7627      2.00000
      6     -11.4238      2.00000
      7     -11.1282      2.00000
      8     -11.0253      2.00000
      9     -10.9185      2.00000
     10     -10.5862      2.00000
     11     -10.5047      2.00000
     12     -10.1304      2.00000
     13      -9.0342      2.00000
     14      -8.4612      2.00000
     15      -7.8903      2.00000
     16      -7.7650      2.00000
     17      -7.1820      2.00000
     18      -7.1278      2.00000
     19      -7.0817      2.00000
     20      -6.7624      2.00000
     21      -6.2979      2.00000
     22      -6.1461      2.00000
     23      -6.0400      2.00000
     24      -5.9469      2.00000
     25      -5.4682      2.00000
     26      -5.0130      2.00000
     27      -4.9626      2.00000
     28      -4.8053      2.00000
     29      -4.5877      2.00000
     30      -4.4366      2.00000
     31      -4.3721      2.00000
     32      -4.1884      2.00000
     33      -3.9332      2.00000
     34      -3.7023      2.00000
     35      -3.4026      2.00000
     36      -3.3292      2.00000
     37      -3.2016      2.00000
     38      -3.1458      2.00000
     39      -3.0192      2.00000
     40      -2.8819      2.00000
     41      -2.6768      2.00000
     42      -2.6347      2.00000
     43      -2.4940      2.00000
     44      -2.3682      2.00000
     45      -2.1053      2.00000
     46      -2.0377      2.00000
     47      -1.9817      2.00000
     48      -1.8617      2.00000
     49      -1.8271      2.00000
     50      -1.6109      2.00000
     51      -1.4065      2.00000
     52      -0.8528      2.00000
     53      -0.6756      2.00000
     54      -0.2455      2.00000
     55       0.4283      0.00068
     56       0.6874      0.00000
     57       1.0214      0.00000
     58       1.1874      0.00000
     59       1.2861      0.00000
     60       1.3249      0.00000
     61       2.0395      0.00000
     62       2.1471      0.00000
     63       2.3245      0.00000
     64       2.4033      0.00000
     65       2.4818      0.00000
     66       2.6571      0.00000
     67       2.8331      0.00000
     68       3.0063      0.00000

 k-point    53 :       0.3846    0.5000    0.5000
  band No.  band energies     occupation 
      1     -12.9979      2.00000
      2     -12.1465      2.00000
      3     -11.7756      2.00000
      4     -11.5823      2.00000
      5     -11.3683      2.00000
      6     -11.1889      2.00000
      7     -10.8843      2.00000
      8     -10.7881      2.00000
      9     -10.7269      2.00000
     10     -10.5719      2.00000
     11     -10.3861      2.00000
     12      -9.8560      2.00000
     13      -9.0186      2.00000
     14      -8.7434      2.00000
     15      -8.3633      2.00000
     16      -8.0044      2.00000
     17      -7.7269      2.00000
     18      -7.5860      2.00000
     19      -7.4987      2.00000
     20      -7.1968      2.00000
     21      -6.8311      2.00000
     22      -6.7708      2.00000
     23      -6.6157      2.00000
     24      -6.3848      2.00000
     25      -5.4103      2.00000
     26      -5.1154      2.00000
     27      -4.7920      2.00000
     28      -4.7455      2.00000
     29      -4.6228      2.00000
     30      -4.4580      2.00000
     31      -4.2438      2.00000
     32      -4.1479      2.00000
     33      -3.9235      2.00000
     34      -3.6814      2.00000
     35      -3.6363      2.00000
     36      -3.3845      2.00000
     37      -3.3225      2.00000
     38      -3.2997      2.00000
     39      -3.2267      2.00000
     40      -2.9857      2.00000
     41      -2.7791      2.00000
     42      -2.6818      2.00000
     43      -2.6328      2.00000
     44      -2.4380      2.00000
     45      -2.2820      2.00000
     46      -2.1982      2.00000
     47      -2.1698      2.00000
     48      -1.9734      2.00000
     49      -1.7777      2.00000
     50      -1.6283      2.00000
     51      -1.5086      2.00000
     52      -1.0145      2.00000
     53      -0.8802      2.00000
     54      -0.3475      2.00000
     55       0.2776      0.20548
     56       0.4063      0.00203
     57       0.9352      0.00000
     58       1.0726      0.00000
     59       1.1746      0.00000
     60       1.4155      0.00000
     61       1.7210      0.00000
     62       1.9696      0.00000
     63       2.0213      0.00000
     64       2.2043      0.00000
     65       2.2803      0.00000
     66       2.4448      0.00000
     67       2.5664      0.00000
     68       2.7860      0.00000

 k-point    54 :       0.4615    0.5000    0.5000
  band No.  band energies     occupation 
      1     -12.6857      2.00000
      2     -11.6044      2.00000
      3     -11.4368      2.00000
      4     -11.2767      2.00000
      5     -11.0716      2.00000
      6     -10.9584      2.00000
      7     -10.9273      2.00000
      8     -10.8314      2.00000
      9     -10.7326      2.00000
     10     -10.6822      2.00000
     11     -10.2964      2.00000
     12      -9.6124      2.00000
     13      -8.9714      2.00000
     14      -8.7746      2.00000
     15      -8.5550      2.00000
     16      -8.2909      2.00000
     17      -8.2303      2.00000
     18      -7.6900      2.00000
     19      -7.6437      2.00000
     20      -7.5163      2.00000
     21      -7.4055      2.00000
     22      -7.2752      2.00000
     23      -7.1724      2.00000
     24      -6.4735      2.00000
     25      -5.3106      2.00000
     26      -5.0561      2.00000
     27      -4.5968      2.00000
     28      -4.5045      2.00000
     29      -4.3947      2.00000
     30      -4.2848      2.00000
     31      -4.1722      2.00000
     32      -4.0515      2.00000
     33      -3.9361      2.00000
     34      -3.8737      2.00000
     35      -3.6813      2.00000
     36      -3.6513      2.00000
     37      -3.5233      2.00000
     38      -3.3660      2.00000
     39      -3.2827      2.00000
     40      -3.1444      2.00000
     41      -3.0410      2.00000
     42      -2.8126      2.00000
     43      -2.7198      2.00000
     44      -2.4887      2.00000
     45      -2.3923      2.00000
     46      -2.2892      2.00000
     47      -2.2163      2.00000
     48      -1.8538      2.00000
     49      -1.7793      2.00000
     50      -1.6324      2.00000
     51      -1.5326      2.00000
     52      -1.0765      2.00000
     53      -0.8996      2.00000
     54      -0.3219      2.00000
     55       0.1036      1.76783
     56       0.2373      0.48629
     57       0.8592      0.00000
     58       1.0585      0.00000
     59       1.2563      0.00000
     60       1.4712      0.00000
     61       1.5367      0.00000
     62       1.7675      0.00000
     63       1.9236      0.00000
     64       2.1116      0.00000
     65       2.2403      0.00000
     66       2.3563      0.00000
     67       2.4099      0.00000
     68       2.6111      0.00000


--------------------------------------------------------------------------------------------------------


 soft charge-density along one line, spin component           1
         0         1         2         3         4         5         6         7         8         9
 total charge-density along one line
 
 pseudopotential strength for first ion, spin component:           1
 29.809   0.008  -0.001  -0.022  -0.000  -0.000  -0.001  -0.000
  0.008   0.009   0.000  -0.000  -0.000  -0.000   0.000   0.000
 -0.001   0.000   6.554  -0.001   0.000  -0.003   0.000  -0.000
 -0.022  -0.000  -0.001   6.549  -0.000   0.000  -0.003   0.000
 -0.000  -0.000   0.000  -0.000   6.555  -0.000   0.000  -0.003
 -0.000  -0.000  -0.003   0.000  -0.000   0.015  -0.000  -0.000
 -0.001   0.000   0.000  -0.003   0.000  -0.000   0.015   0.000
 -0.000   0.000  -0.000   0.000  -0.003  -0.000   0.000   0.015
 total augmentation occupancy for first ion, spin component:           1
  1.810  -0.368   0.006   0.250   0.000   0.002   0.113  -0.000
 -0.368   1.269   0.022   0.843   0.001   0.004  -0.433   0.000
  0.006   0.022   1.146   0.014  -0.000  -0.503   0.013   0.000
  0.250   0.843   0.014   1.293   0.000   0.013  -0.421   0.000
  0.000   0.001  -0.000   0.000   1.148   0.000   0.000  -0.528
  0.002   0.004  -0.503   0.013   0.000   0.291  -0.015  -0.000
  0.113  -0.433   0.013  -0.421   0.000  -0.015   0.228  -0.000
 -0.000   0.000   0.000   0.000  -0.528  -0.000  -0.000   0.326


------------------------ aborting loop because EDIFF is reached ----------------------------------------


    CHARGE:  cpu time    4.29: real time    4.29
    FORLOC:  cpu time    0.06: real time    0.06
    FORNL :  cpu time   19.91: real time   19.92
    STRESS:  cpu time   61.68: real time   61.69
    FORCOR:  cpu time   14.74: real time   14.74
    FORHAR:  cpu time    0.14: real time    0.14
    MIXING:  cpu time    0.02: real time    0.02
    OFIELD:  cpu time    0.00: real time    0.00

  FORCE on cell =-STRESS in cart. coord.  units (eV):
  Direction    XX          YY          ZZ          XY          YZ          ZX
  --------------------------------------------------------------------------------------
  Alpha Z    36.80885    36.80885    36.80885
  Ewald   14446.78099 13938.97557-16427.38396    14.40836    51.60240    69.83256
  Hartree 14933.28691 14587.13225-14426.62360    -3.67767    13.57044     6.10065
  E(xc)    -357.96453  -357.51873  -356.33407    -0.34415    -0.29961    -0.25119
  Local  -30926.38810-30089.46015 29267.37059    -4.84960   -59.72129   -61.25618
  n-local  1169.28090  1159.63916  1154.36059     9.44246     9.69191    15.18567
  augment  -202.63706  -203.58886  -205.26017     0.06658    -0.08053     0.19526
  Kinetic   925.37423   937.75176   977.94368    -4.83034    -3.37780    -9.66696
  Fock        0.00000     0.00000     0.00000     0.00000     0.00000     0.00000
  -------------------------------------------------------------------------------------
  Total      24.54219     9.73985    20.88191    10.21564    11.38551    20.13981
  in kB      39.22992    15.56885    33.37908    16.32938    18.19938    32.19286
  external pressure =       29.39 kB  Pullay stress =        0.00 kB


 VOLUME and BASIS-vectors are now :
 -----------------------------------------------------------------------------
  energy-cutoff  :      300.00
  volume of cell :     1002.32
      direct lattice vectors                 reciprocal lattice vectors
     3.540400000  0.000000000  0.000000000     0.282453960  0.048570342  0.000000000
    -1.770200000 10.294348000  0.000000000     0.000000000  0.097140683  0.000000000
     0.000000000  0.000000000 27.501429000     0.000000000  0.000000000  0.036361747

  length of vectors
     3.540400000 10.445439617 27.501429000     0.286599577  0.097140683  0.036361747


 FORCES acting on ions
    electron-ion (+dipol)            ewald-force                    non-local-force                 convergence-correction
 -----------------------------------------------------------------------------------------------
   0.177E-01 0.118E+02 0.292E+02   -.971E-02 -.115E+02 -.247E+02   -.188E-01 -.267E+00 -.441E+01   -.862E-07 0.380E-05 -.133E-05
   -.252E+00 0.131E+02 -.565E+03   0.217E+00 -.128E+02 0.568E+03   0.440E-01 -.434E+00 -.346E+01   -.605E-06 -.119E-05 0.130E-04
   0.405E-02 0.630E+02 0.464E+02   -.107E-02 -.646E+02 -.421E+02   -.182E-02 0.159E+01 -.420E+01   0.159E-07 0.512E-06 -.412E-05
   0.592E+00 0.284E+02 -.517E+03   -.591E+00 -.293E+02 0.520E+03   -.193E+00 0.116E+01 -.371E+01   -.114E-05 0.591E-05 0.938E-05
   0.729E-03 -.575E+02 0.526E+03   0.712E-04 0.591E+02 -.531E+03   -.113E-02 -.154E+01 0.428E+01   -.644E-07 -.722E-05 -.106E-04
   0.121E+02 -.105E+03 -.451E+02   -.141E+02 0.107E+03 0.417E+02   0.213E+01 -.138E+01 0.285E+01   -.169E-05 0.577E-05 -.276E-05
   -.110E-02 0.540E+02 0.526E+03   0.146E-04 -.559E+02 -.530E+03   0.112E-02 0.192E+01 0.416E+01   0.228E-07 0.415E-05 -.164E-05
   0.127E+01 0.945E+02 -.848E+02   -.450E+00 -.976E+02 0.818E+02   -.201E+00 0.299E+01 0.372E+01   -.545E-07 0.367E-05 0.468E-05
   0.123E-02 0.190E+01 0.572E+03   -.828E-04 -.211E+01 -.577E+03   0.584E-03 0.206E+00 0.478E+01   -.704E-07 0.653E-05 -.164E-04
   -.413E+01 0.930E+01 -.981E+00   0.313E+01 -.944E+01 -.161E+01   0.163E+01 -.139E+00 0.212E+01   0.307E-05 -.379E-05 -.175E-05
   -.131E-01 -.657E+02 0.609E+02   0.823E-02 0.677E+02 -.567E+02   0.704E-02 -.194E+01 -.407E+01   -.149E-07 -.403E-05 -.506E-05
   -.732E+00 -.431E+02 -.550E+03   0.713E+00 0.458E+02 0.551E+03   0.318E+00 -.299E+01 -.932E+00   0.203E-05 -.911E-05 0.479E-05
   -.375E-02 0.307E+02 0.208E+03   0.893E-04 -.328E+02 -.208E+03   0.669E-02 0.210E+01 0.321E+00   -.973E-08 0.253E-05 -.357E-05
   -.966E+01 -.387E+02 -.251E+03   0.833E+01 0.365E+02 0.252E+03   0.111E+01 0.186E+01 -.142E+01   0.646E-06 0.456E-05 0.704E-05
   -.649E-04 -.121E+02 0.140E+03   -.208E-02 0.124E+02 -.143E+03   0.338E-03 -.275E+00 0.255E+01   -.131E-07 -.362E-05 -.617E-05
   -.422E+01 0.659E+01 -.337E+03   0.326E+01 -.695E+01 0.336E+03   0.168E+00 0.226E+00 0.730E+00   -.778E-06 -.149E-05 0.531E-05
   0.752E-03 -.516E+01 0.346E+03   0.450E-04 0.562E+01 -.344E+03   0.125E-02 -.464E+00 -.252E+01   0.125E-07 -.292E-05 -.780E-05
   0.448E+02 0.730E+01 -.871E+02   -.431E+02 -.500E+01 0.930E+02   -.265E+02 -.141E+02 -.291E+02   -.355E-05 -.127E-04 -.764E-05
   0.464E-02 0.101E+02 0.335E+03   0.350E-05 -.104E+02 -.332E+03   -.665E-02 0.225E+00 -.246E+01   -.826E-08 0.706E-05 -.244E-05
   0.408E+01 0.435E+02 -.147E+03   -.285E+01 -.445E+02 0.146E+03   -.345E+00 0.442E+00 0.417E+00   0.155E-07 0.893E-05 0.159E-05
   -.811E-03 0.125E+02 0.126E+03   0.598E-03 -.130E+02 -.129E+03   0.369E-02 0.457E+00 0.259E+01   -.183E-08 0.546E-05 -.494E-05
   -.108E+00 0.209E+02 -.307E+03   0.274E+00 -.209E+02 0.309E+03   -.514E+00 0.144E+00 -.200E+01   -.268E-06 0.297E-06 0.977E-05
   0.925E-03 -.319E+02 0.254E+03   0.490E-04 0.340E+02 -.254E+03   0.155E-02 -.213E+01 -.359E+00   0.813E-08 -.550E-05 -.504E-05
   -.481E+02 -.481E+02 -.270E+03   0.452E+02 0.488E+02 0.273E+03   0.268E+02 0.119E+02 0.205E+02   0.372E-05 -.479E-05 0.448E-05
 -----------------------------------------------------------------------------------------------
   -.447E+01 0.472E+00 0.965E+01   -.142E-13 0.639E-13 0.114E-12   0.447E+01 -.471E+00 -.965E+01   0.118E-05 0.284E-05 -.213E-04
 
 
 POSITION                                       TOTAL-FORCE (eV/Angst)
 -----------------------------------------------------------------------------------
      0.00000      2.34757      6.41229        -0.011143     -0.031937      0.031377
      2.83232      0.28870     14.16300         0.008415     -0.104922     -0.113698
     -0.00000      9.43147      5.75866         0.000885     -0.014044      0.096749
     -0.70808      7.37260     13.50937        -0.191982      0.229604     -0.444812
     -0.00000      6.40009      2.31424        -0.000610     -0.009971      0.012688
     -0.00000      6.40009     10.06495         0.103697      0.884185     -0.468773
      1.77020     10.27849      2.37372        -0.000241      0.008555      0.000217
      1.77020     10.27849     10.12443         0.614470     -0.125394      0.702420
      1.77020      3.18974      1.66157         0.001450      0.000309      0.008359
      1.77020      3.18974      9.41228         0.631941     -0.278862     -0.480200
      1.77020      5.55354      5.69975         0.001897      0.007150      0.098143
      1.06212      3.49467     13.45047         0.298343     -0.334878      0.632433
      1.77020      9.05319      4.34076         0.002754      0.007646      0.011943
      1.06212      6.99432     12.09147        -0.225472     -0.367512     -0.277154
      0.00000      4.22380      5.10944        -0.002088      0.043418      0.037363
      2.83232      2.16493     12.86016        -0.789267     -0.131913      0.077115
     -0.00000      4.15582      2.74166         0.001770     -0.008880     -0.028145
     -0.00000      4.15582     10.49237       -24.894165    -11.843358    -23.262512
      1.77020      1.31366      2.96438        -0.002279     -0.002834     -0.031200
      1.77020      1.31366     10.71510         0.880255     -0.639624     -0.034573
      1.77020      1.38163      5.33187         0.003201     -0.065660      0.023186
     -0.70808      9.61710     13.08259        -0.348359      0.146523     -0.267957
      1.77020      6.77850      3.73234         0.002241      0.009061     -0.001297
      1.06212      4.71963     11.48306        23.914289     12.623337     23.678328
 -----------------------------------------------------------------------------------
    total drift:                                0.006709      0.000226      0.003224


--------------------------------------------------------------------------------------------------------



  FREE ENERGIE OF THE ION-ELECTRON SYSTEM (eV)
  ---------------------------------------------------
  free  energy   TOTEN  =      -117.45246335 eV

  energy  without entropy=     -117.41715196  energy(sigma->0) =     -117.43480765
 


--------------------------------------------------------------------------------------------------------


    POTLOK:  cpu time   14.71: real time   14.71


--------------------------------------------------------------------------------------------------------


     LOOP+:  cpu time 2469.05: real time 2469.66
    4ORBIT:  cpu time    0.00: real time    0.00

 total amount of memory used by VASP on root node   146493. kBytes
========================================================================

   base      :      30000. kBytes
   nonlr-proj:       3452. kBytes
   fftplans  :       9347. kBytes
   grid      :      14649. kBytes
   one-center:         36. kBytes
   wavefun   :      89009. kBytes
 
  
  
 General timing and accounting informations for this job:
 ========================================================
  
                  Total CPU time used (sec):     2485.064
                            User time (sec):     2452.860
                          System time (sec):       32.204
                         Elapsed time (sec):     2486.730
  
                   Maximum memory used (kb):      335020.
                   Average memory used (kb):           0.
  
                          Minor page faults:      7933789
                          Major page faults:            8
                 Voluntary context switches:         1573
