   24   24    1    1
  0.4176334E+02  0.3540400E-09  0.1044544E-08  0.2750143E-08  0.5000000E-15
  1.000000000000000E-004
  CAR 
 unknown system                          
    108     54     68
 
  0.0000000E+00  0.0000000E+00  0.0000000E+00  0.9615385E-02
    1      -14.970670
    2      -13.717463
    3      -12.972027
    4      -12.847617
    5      -12.668942
    6      -12.418691
    7      -12.262948
    8      -11.611261
    9      -11.580792
   10      -11.165300
   11      -11.162739
   12      -10.247943
   13       -8.885225
   14       -8.205555
   15       -8.006369
   16       -7.127735
   17       -6.992634
   18       -6.886961
   19       -6.669506
   20       -6.322461
   21       -5.986800
   22       -5.134933
   23       -4.914126
   24       -4.750746
   25       -4.239622
   26       -4.064843
   27       -3.863182
   28       -3.762980
   29       -3.365041
   30       -3.259750
   31       -3.237581
   32       -3.012132
   33       -2.933162
   34       -2.672681
   35       -2.612512
   36       -2.577952
   37       -2.356769
   38       -2.211632
   39       -2.098028
   40       -2.046927
   41       -1.971892
   42       -1.901240
   43       -1.818800
   44       -1.752509
   45       -1.702813
   46       -1.606537
   47       -1.557100
   48       -1.442307
   49       -1.351269
   50       -1.116314
   51       -1.000981
   52       -0.676408
   53        0.448904
   54        0.473521
   55        0.731288
   56        0.883337
   57        1.026001
   58        1.150731
   59        1.231448
   60        1.437609
   61        1.600588
   62        1.806804
   63        1.864339
   64        1.945323
   65        2.116272
   66        2.254989
   67        2.422717
   68        2.507635
 
  0.7692308E-01 -0.1387779E-16  0.0000000E+00  0.1923077E-01
    1      -14.916100
    2      -13.656120
    3      -12.919849
    4      -12.790731
    5      -12.613455
    6      -12.361105
    7      -12.200633
    8      -11.561976
    9      -11.531698
   10      -11.115512
   11      -11.109028
   12      -10.219372
   13       -8.853215
   14       -8.243016
   15       -7.969196
   16       -7.115741
   17       -6.962183
   18       -6.865581
   19       -6.663819
   20       -6.342943
   21       -5.955772
   22       -5.186030
   23       -5.009739
   24       -4.874966
   25       -4.395715
   26       -4.061729
   27       -3.917404
   28       -3.823835
   29       -3.626376
   30       -3.438671
   31       -3.390432
   32       -3.309311
   33       -3.139552
   34       -2.938949
   35       -2.816336
   36       -2.647267
   37       -2.513360
   38       -2.371552
   39       -2.248305
   40       -2.200439
   41       -2.140283
   42       -2.125673
   43       -2.003119
   44       -1.903577
   45       -1.795236
   46       -1.700861
   47       -1.662302
   48       -1.431022
   49       -1.348130
   50       -1.082408
   51       -1.013575
   52       -0.710391
   53        0.298166
   54        0.513158
   55        0.771008
   56        0.960945
   57        1.278900
   58        1.369267
   59        1.590520
   60        1.753402
   61        1.960885
   62        2.030704
   63        2.080678
   64        2.166258
   65        2.248673
   66        2.437843
   67        2.578652
   68        2.650613
 
  0.1538462E+00 -0.2775558E-16  0.0000000E+00  0.1923077E-01
    1      -14.755052
    2      -13.473162
    3      -12.764025
    4      -12.621532
    5      -12.449015
    6      -12.191532
    7      -12.017978
    8      -11.418774
    9      -11.388669
   10      -10.976635
   11      -10.948043
   12      -10.146609
   13       -8.769818
   14       -8.340368
   15       -7.927700
   16       -7.115389
   17       -6.893215
   18       -6.845234
   19       -6.676266
   20       -6.528263
   21       -5.891262
   22       -5.688545
   23       -5.121611
   24       -5.012353
   25       -4.459465
   26       -4.361830
   27       -4.265790
   28       -4.199484
   29       -4.126714
   30       -3.935210
   31       -3.807558
   32       -3.693689
   33       -3.484268
   34       -3.289356
   35       -3.136584
   36       -3.063168
   37       -3.008339
   38       -2.902304
   39       -2.675187
   40       -2.559439
   41       -2.530478
   42       -2.321798
   43       -2.137620
   44       -2.029666
   45       -1.920256
   46       -1.831640
   47       -1.774512
   48       -1.414756
   49       -1.377687
   50       -1.131328
   51       -1.058512
   52       -0.797152
   53        0.094782
   54        0.424897
   55        0.892854
   56        1.015124
   57        1.340994
   58        1.749278
   59        2.022863
   60        2.100493
   61        2.273020
   62        2.407433
   63        2.495113
   64        2.567363
   65        2.679672
   66        2.785650
   67        2.885444
   68        2.907008
 
  0.2307692E+00 -0.4163336E-16  0.0000000E+00  0.1923077E-01
    1      -14.497092
    2      -13.172171
    3      -12.507611
    4      -12.345131
    5      -12.182859
    6      -11.921923
    7      -11.729901
    8      -11.199460
    9      -11.167582
   10      -10.773693
   11      -10.699535
   12      -10.074444
   13       -8.681831
   14       -8.532418
   15       -8.002421
   16       -7.312923
   17       -7.157654
   18       -6.869315
   19       -6.812620
   20       -6.697513
   21       -6.022807
   22       -5.902261
   23       -5.513509
   24       -5.348744
   25       -4.984807
   26       -4.855522
   27       -4.789698
   28       -4.680760
   29       -4.509452
   30       -4.349757
   31       -4.136718
   32       -3.921192
   33       -3.852911
   34       -3.642639
   35       -3.529831
   36       -3.280882
   37       -3.177016
   38       -3.143310
   39       -2.941630
   40       -2.757731
   41       -2.651518
   42       -2.587254
   43       -2.233001
   44       -2.079328
   45       -2.022744
   46       -1.977304
   47       -1.905299
   48       -1.711868
   49       -1.627729
   50       -1.306584
   51       -1.169298
   52       -0.876310
   53       -0.135176
   54        0.180316
   55        0.878163
   56        1.134353
   57        1.453922
   58        1.714793
   59        1.873914
   60        2.045773
   61        2.150645
   62        2.228617
   63        2.435257
   64        2.527975
   65        2.641763
   66        2.714111
   67        2.803006
   68        2.858365
 
  0.3076923E+00 -0.5551115E-16  0.0000000E+00  0.1923077E-01
    1      -14.164448
    2      -12.760475
    3      -12.159038
    4      -11.973463
    5      -11.832025
    6      -11.585627
    7      -11.371360
    8      -10.951755
    9      -10.908132
   10      -10.588056
   11      -10.446364
   12      -10.044370
   13       -8.830293
   14       -8.661501
   15       -8.262596
   16       -7.823016
   17       -7.494590
   18       -7.176428
   19       -7.076574
   20       -6.833425
   21       -6.379981
   22       -6.319875
   23       -6.146783
   24       -5.860052
   25       -5.385682
   26       -5.186146
   27       -4.983542
   28       -4.876685
   29       -4.821926
   30       -4.483951
   31       -4.384215
   32       -4.118618
   33       -3.931816
   34       -3.691449
   35       -3.559696
   36       -3.395341
   37       -3.254232
   38       -3.185380
   39       -3.109848
   40       -2.906573
   41       -2.750033
   42       -2.627970
   43       -2.461756
   44       -2.265368
   45       -2.210865
   46       -2.073585
   47       -2.031788
   48       -1.977409
   49       -1.871902
   50       -1.588348
   51       -1.370289
   52       -0.848473
   53       -0.317873
   54       -0.080872
   55        0.676824
   56        1.138826
   57        1.286092
   58        1.479249
   59        1.644385
   60        1.836323
   61        1.896164
   62        2.085504
   63        2.195877
   64        2.316534
   65        2.369664
   66        2.507845
   67        2.655513
   68        2.676883
 
  0.3846154E+00 -0.8326673E-16  0.0000000E+00  0.1923077E-01
    1      -13.808294
    2      -12.252349
    3      -11.739454
    4      -11.537490
    5      -11.436774
    6      -11.291033
    7      -11.028229
    8      -10.794595
    9      -10.691438
   10      -10.628483
   11      -10.450994
   12       -9.859342
   13       -9.005693
   14       -8.716388
   15       -8.554454
   16       -8.244319
   17       -7.817820
   18       -7.633202
   19       -7.597182
   20       -7.191416
   21       -6.928027
   22       -6.843412
   23       -6.649153
   24       -6.424702
   25       -5.389348
   26       -5.237928
   27       -4.997854
   28       -4.799910
   29       -4.697766
   30       -4.412052
   31       -4.246269
   32       -4.168819
   33       -3.890800
   34       -3.827904
   35       -3.637180
   36       -3.509239
   37       -3.438218
   38       -3.320361
   39       -3.047490
   40       -2.981706
   41       -2.781509
   42       -2.679222
   43       -2.641493
   44       -2.476798
   45       -2.396308
   46       -2.293883
   47       -2.244027
   48       -2.172903
   49       -2.014280
   50       -1.672428
   51       -1.507022
   52       -0.846285
   53       -0.516446
   54       -0.143483
   55        0.412726
   56        1.012085
   57        1.208590
   58        1.303372
   59        1.504076
   60        1.605965
   61        1.644819
   62        1.904927
   63        2.065073
   64        2.128353
   65        2.149474
   66        2.283457
   67        2.391319
   68        2.567658
 
  0.4615385E+00 -0.8326673E-16  0.0000000E+00  0.1923077E-01
    1      -13.545359
    2      -11.679722
    3      -11.317318
    4      -11.301361
    5      -11.138586
    6      -11.049986
    7      -11.012654
    8      -10.901094
    9      -10.807185
   10      -10.666692
   11      -10.459897
   12       -9.655294
   13       -8.860935
   14       -8.775892
   15       -8.620623
   16       -8.512539
   17       -8.253778
   18       -8.002680
   19       -7.754912
   20       -7.466819
   21       -7.422797
   22       -7.346795
   23       -7.138731
   24       -6.443693
   25       -5.222633
   26       -5.174628
   27       -5.081536
   28       -4.677807
   29       -4.447282
   30       -4.240074
   31       -4.175300
   32       -4.074091
   33       -3.997985
   34       -3.787638
   35       -3.748135
   36       -3.532262
   37       -3.429368
   38       -3.342699
   39       -3.200342
   40       -3.101162
   41       -3.069761
   42       -2.874653
   43       -2.799903
   44       -2.550219
   45       -2.467069
   46       -2.397670
   47       -2.339756
   48       -2.234927
   49       -1.894998
   50       -1.708475
   51       -1.580485
   52       -0.885775
   53       -0.557756
   54       -0.211279
   55        0.283735
   56        0.878877
   57        1.168408
   58        1.277497
   59        1.380694
   60        1.430762
   61        1.572776
   62        1.705504
   63        1.851608
   64        1.943091
   65        2.155835
   66        2.213279
   67        2.333431
   68        2.496317
 
  0.0000000E+00  0.2500000E+00  0.0000000E+00  0.1923077E-01
    1      -14.969410
    2      -13.662813
    3      -13.145451
    4      -12.879648
    5      -12.669723
    6      -12.376991
    7      -12.048207
    8      -11.653215
    9      -11.595179
   10      -11.174828
   11      -11.158504
   12      -10.214825
   13       -8.945391
   14       -8.685677
   15       -7.572972
   16       -7.145328
   17       -6.979634
   18       -6.847068
   19       -6.764251
   20       -6.104665
   21       -5.909893
   22       -5.259877
   23       -4.824067
   24       -4.619115
   25       -4.246900
   26       -4.126916
   27       -3.989247
   28       -3.665084
   29       -3.523805
   30       -3.365176
   31       -3.306517
   32       -2.931343
   33       -2.880729
   34       -2.700439
   35       -2.578931
   36       -2.530695
   37       -2.418011
   38       -2.287008
   39       -2.219621
   40       -2.105235
   41       -2.057167
   42       -1.989621
   43       -1.803601
   44       -1.746384
   45       -1.614551
   46       -1.536073
   47       -1.488778
   48       -1.381257
   49       -1.309743
   50       -1.077385
   51       -1.033013
   52       -0.761539
   53        0.269663
   54        0.500709
   55        0.744227
   56        0.998410
   57        1.076210
   58        1.198192
   59        1.322605
   60        1.469206
   61        1.598556
   62        1.709259
   63        1.874961
   64        2.064460
   65        2.125338
   66        2.419197
   67        2.458063
   68        2.520515
 
  0.7692308E-01  0.2500000E+00  0.0000000E+00  0.1923077E-01
    1      -14.914605
    2      -13.586264
    3      -13.126080
    4      -12.828632
    5      -12.613067
    6      -12.312815
    7      -11.947631
    8      -11.611521
    9      -11.544117
   10      -11.130364
   11      -11.105601
   12      -10.182421
   13       -8.922248
   14       -8.743085
   15       -7.526133
   16       -7.142998
   17       -6.975301
   18       -6.855153
   19       -6.695339
   20       -6.078640
   21       -5.864526
   22       -5.264731
   23       -4.986578
   24       -4.845832
   25       -4.362151
   26       -4.193866
   27       -3.960909
   28       -3.806501
   29       -3.636161
   30       -3.552607
   31       -3.422629
   32       -3.198019
   33       -3.176518
   34       -2.899595
   35       -2.789137
   36       -2.670879
   37       -2.571924
   38       -2.454418
   39       -2.337774
   40       -2.253103
   41       -2.214064
   42       -2.146045
   43       -2.006934
   44       -1.916299
   45       -1.829361
   46       -1.647234
   47       -1.527759
   48       -1.383308
   49       -1.264894
   50       -1.141453
   51       -1.000476
   52       -0.776016
   53        0.231297
   54        0.428022
   55        0.762182
   56        1.170763
   57        1.323424
   58        1.417402
   59        1.593464
   60        1.760655
   61        1.810469
   62        2.025076
   63        2.147521
   64        2.228374
   65        2.364072
   66        2.482713
   67        2.712356
   68        2.806916
 
  0.1538462E+00  0.2500000E+00  0.0000000E+00  0.1923077E-01
    1      -14.753492
    2      -13.390097
    3      -12.989154
    4      -12.661031
    5      -12.447150
    6      -12.143222
    7      -11.748875
    8      -11.471589
    9      -11.392380
   10      -10.989063
   11      -10.953814
   12      -10.107181
   13       -8.848514
   14       -8.796119
   15       -7.495458
   16       -7.156134
   17       -7.004701
   18       -6.832818
   19       -6.665529
   20       -6.223574
   21       -5.821316
   22       -5.632812
   23       -5.288665
   24       -5.003045
   25       -4.561429
   26       -4.494491
   27       -4.341179
   28       -4.155451
   29       -4.091701
   30       -3.932820
   31       -3.778062
   32       -3.604769
   33       -3.381419
   34       -3.193472
   35       -3.131081
   36       -3.113365
   37       -2.942856
   38       -2.840923
   39       -2.773094
   40       -2.688449
   41       -2.505916
   42       -2.426560
   43       -2.215769
   44       -2.092376
   45       -2.021444
   46       -1.842007
   47       -1.662344
   48       -1.381209
   49       -1.318808
   50       -1.138293
   51       -1.040183
   52       -0.807423
   53        0.085879
   54        0.341040
   55        0.857187
   56        1.090638
   57        1.354168
   58        1.528834
   59        1.915719
   60        2.002239
   61        2.199569
   62        2.428629
   63        2.588387
   64        2.670442
   65        2.735120
   66        2.898869
   67        2.943632
   68        2.982722
 
  0.2307692E+00  0.2500000E+00  0.0000000E+00  0.1923077E-01
    1      -14.495678
    2      -13.079196
    3      -12.737188
    4      -12.381303
    5      -12.179913
    6      -11.881513
    7      -11.471441
    8      -11.249153
    9      -11.154074
   10      -10.771750
   11      -10.726923
   12      -10.030391
   13       -8.947096
   14       -8.719963
   15       -7.581532
   16       -7.454049
   17       -7.117874
   18       -6.874930
   19       -6.814131
   20       -6.550904
   21       -6.009386
   22       -5.966144
   23       -5.487800
   24       -5.381119
   25       -5.197088
   26       -4.842635
   27       -4.820695
   28       -4.736240
   29       -4.525205
   30       -4.245892
   31       -4.096143
   32       -3.881307
   33       -3.719710
   34       -3.558880
   35       -3.381912
   36       -3.294556
   37       -3.264742
   38       -3.038540
   39       -2.874312
   40       -2.757068
   41       -2.701314
   42       -2.653305
   43       -2.254623
   44       -2.175088
   45       -2.086288
   46       -1.992819
   47       -1.940036
   48       -1.791815
   49       -1.559515
   50       -1.272249
   51       -1.162806
   52       -0.876688
   53       -0.097210
   54        0.116780
   55        0.813679
   56        1.067335
   57        1.262875
   58        1.387328
   59        1.543687
   60        1.969524
   61        2.120366
   62        2.265774
   63        2.404975
   64        2.547797
   65        2.653352
   66        2.800237
   67        2.862914
   68        3.105013
 
  0.3076923E+00  0.2500000E+00  0.0000000E+00  0.1923077E-01
    1      -14.163354
    2      -12.663118
    3      -12.377361
    4      -12.000113
    5      -11.829221
    6      -11.561354
    7      -11.157137
    8      -10.984637
    9      -10.882023
   10      -10.565641
   11      -10.495876
   12       -9.991939
   13       -9.145828
   14       -8.675689
   15       -7.903118
   16       -7.875137
   17       -7.464581
   18       -7.285249
   19       -7.143391
   20       -6.751269
   21       -6.444117
   22       -6.344445
   23       -6.100619
   24       -5.906899
   25       -5.551868
   26       -5.157582
   27       -5.112148
   28       -4.943150
   29       -4.598666
   30       -4.512347
   31       -4.185033
   32       -4.069922
   33       -3.818928
   34       -3.750112
   35       -3.510410
   36       -3.404720
   37       -3.181051
   38       -3.062630
   39       -3.014411
   40       -2.917161
   41       -2.664068
   42       -2.570757
   43       -2.522658
   44       -2.425878
   45       -2.261930
   46       -2.139777
   47       -2.039527
   48       -1.999842
   49       -1.905023
   50       -1.589398
   51       -1.427344
   52       -0.851735
   53       -0.302546
   54       -0.107481
   55        0.552280
   56        0.998983
   57        1.073242
   58        1.170214
   59        1.345998
   60        1.816177
   61        2.007780
   62        2.132771
   63        2.202959
   64        2.265339
   65        2.295451
   66        2.450532
   67        2.501062
   68        2.809394
 
  0.3846154E+00  0.2500000E+00  0.0000000E+00  0.1923077E-01
    1      -13.807750
    2      -12.160433
    3      -11.926433
    4      -11.542372
    5      -11.435875
    6      -11.288621
    7      -10.898798
    8      -10.773469
    9      -10.743506
   10      -10.640657
   11      -10.374696
   12       -9.869337
   13       -9.136043
   14       -8.734927
   15       -8.290933
   16       -8.195013
   17       -7.953613
   18       -7.857634
   19       -7.541953
   20       -7.115650
   21       -6.878150
   22       -6.833692
   23       -6.785654
   24       -6.391284
   25       -5.516045
   26       -5.207744
   27       -5.068301
   28       -4.947606
   29       -4.636034
   30       -4.288883
   31       -4.163544
   32       -4.035779
   33       -3.842573
   34       -3.728223
   35       -3.523618
   36       -3.461077
   37       -3.408998
   38       -3.290588
   39       -3.115823
   40       -2.968126
   41       -2.825147
   42       -2.720420
   43       -2.607220
   44       -2.479687
   45       -2.360326
   46       -2.321469
   47       -2.283292
   48       -2.204616
   49       -2.030269
   50       -1.728529
   51       -1.596653
   52       -0.867599
   53       -0.454454
   54       -0.232392
   55        0.377798
   56        0.977666
   57        1.068447
   58        1.139852
   59        1.252670
   60        1.605356
   61        1.688243
   62        1.849666
   63        1.924033
   64        2.020392
   65        2.137747
   66        2.239664
   67        2.454259
   68        2.535413
 
  0.4615385E+00  0.2500000E+00  0.0000000E+00  0.1923077E-01
    1      -13.545301
    2      -11.612476
    3      -11.430769
    4      -11.286513
    5      -11.148160
    6      -11.056979
    7      -11.035184
    8      -10.870559
    9      -10.754223
   10      -10.732917
   11      -10.393202
   12       -9.665584
   13       -8.773436
   14       -8.727183
   15       -8.576911
   16       -8.519692
   17       -8.504046
   18       -7.939470
   19       -7.702578
   20       -7.496282
   21       -7.446457
   22       -7.305284
   23       -7.219232
   24       -6.407182
   25       -5.264575
   26       -5.188327
   27       -5.096408
   28       -4.639278
   29       -4.427561
   30       -4.311629
   31       -4.179139
   32       -4.102150
   33       -3.867107
   34       -3.825920
   35       -3.678806
   36       -3.486053
   37       -3.429148
   38       -3.246312
   39       -3.190103
   40       -3.128443
   41       -3.005372
   42       -2.866320
   43       -2.798494
   44       -2.761808
   45       -2.507922
   46       -2.328286
   47       -2.261210
   48       -2.238151
   49       -1.898520
   50       -1.726463
   51       -1.670022
   52       -0.950839
   53       -0.523447
   54       -0.204181
   55        0.289098
   56        0.956482
   57        1.185848
   58        1.278127
   59        1.345873
   60        1.393021
   61        1.490863
   62        1.646190
   63        1.815228
   64        1.960027
   65        2.063499
   66        2.226638
   67        2.336614
   68        2.385546
 
 -0.4615385E+00  0.2500000E+00  0.0000000E+00  0.1923077E-01
    1      -13.545629
    2      -11.712662
    3      -11.304461
    4      -11.240311
    5      -11.127028
    6      -11.022949
    7      -10.976777
    8      -10.932040
    9      -10.872028
   10      -10.689016
   11      -10.470388
   12       -9.655300
   13       -8.930024
   14       -8.752874
   15       -8.614141
   16       -8.511204
   17       -8.119087
   18       -8.016672
   19       -7.787367
   20       -7.456378
   21       -7.397310
   22       -7.390094
   23       -7.211725
   24       -6.370921
   25       -5.296309
   26       -5.077141
   27       -4.900761
   28       -4.748380
   29       -4.538109
   30       -4.235386
   31       -4.170416
   32       -4.102894
   33       -4.055821
   34       -3.893777
   35       -3.822420
   36       -3.538188
   37       -3.503490
   38       -3.344802
   39       -3.147546
   40       -3.080639
   41       -2.987882
   42       -2.848125
   43       -2.731002
   44       -2.604270
   45       -2.503826
   46       -2.335199
   47       -2.276521
   48       -2.243021
   49       -1.879229
   50       -1.716340
   51       -1.617119
   52       -0.950828
   53       -0.544553
   54       -0.138992
   55        0.282287
   56        0.975674
   57        1.182454
   58        1.269391
   59        1.498037
   60        1.525409
   61        1.604895
   62        1.684616
   63        1.978247
   64        2.035615
   65        2.150445
   66        2.212803
   67        2.293435
   68        2.400746
 
 -0.3846154E+00  0.2500000E+00  0.0000000E+00  0.1923077E-01
    1      -13.808754
    2      -12.278535
    3      -11.654247
    4      -11.523437
    5      -11.432447
    6      -11.276219
    7      -11.110201
    8      -10.822849
    9      -10.796888
   10      -10.623906
   11      -10.307176
   12       -9.902980
   13       -8.916966
   14       -8.719309
   15       -8.670325
   16       -8.250341
   17       -7.827208
   18       -7.622426
   19       -7.503954
   20       -7.137418
   21       -6.974015
   22       -6.850732
   23       -6.732710
   24       -6.352914
   25       -5.288172
   26       -5.217651
   27       -5.028802
   28       -4.861469
   29       -4.582780
   30       -4.441478
   31       -4.262620
   32       -4.238335
   33       -4.002317
   34       -3.894831
   35       -3.587557
   36       -3.554924
   37       -3.469246
   38       -3.326463
   39       -3.201386
   40       -2.941490
   41       -2.777341
   42       -2.690410
   43       -2.604956
   44       -2.412061
   45       -2.363110
   46       -2.260680
   47       -2.235864
   48       -2.106121
   49       -1.989122
   50       -1.669928
   51       -1.483622
   52       -0.907646
   53       -0.493656
   54       -0.137124
   55        0.444370
   56        1.035080
   57        1.195577
   58        1.426394
   59        1.563277
   60        1.716508
   61        1.750552
   62        1.971960
   63        2.080773
   64        2.146224
   65        2.183130
   66        2.279786
   67        2.420316
   68        2.494984
 
 -0.3076923E+00  0.2500000E+00  0.0000000E+00  0.1923077E-01
    1      -14.164790
    2      -12.772621
    3      -12.117380
    4      -11.961627
    5      -11.830329
    6      -11.585600
    7      -11.418807
    8      -10.975336
    9      -10.941385
   10      -10.593979
   11      -10.369224
   12      -10.057674
   13       -8.733504
   14       -8.669597
   15       -8.365801
   16       -7.903432
   17       -7.385260
   18       -7.181026
   19       -7.051190
   20       -6.826204
   21       -6.396847
   22       -6.315669
   23       -6.155706
   24       -5.889851
   25       -5.326342
   26       -5.155579
   27       -5.073025
   28       -4.825814
   29       -4.770614
   30       -4.474065
   31       -4.405452
   32       -4.215220
   33       -3.971062
   34       -3.633487
   35       -3.557691
   36       -3.493538
   37       -3.254979
   38       -3.226021
   39       -3.091900
   40       -2.914586
   41       -2.754762
   42       -2.621099
   43       -2.472838
   44       -2.218602
   45       -2.185634
   46       -2.044030
   47       -2.012081
   48       -1.965338
   49       -1.864876
   50       -1.569158
   51       -1.310216
   52       -0.921822
   53       -0.323293
   54       -0.063888
   55        0.642926
   56        1.113475
   57        1.338451
   58        1.541435
   59        1.742707
   60        1.823459
   61        1.927616
   62        2.118815
   63        2.182456
   64        2.257259
   65        2.328980
   66        2.498211
   67        2.591876
   68        2.851083
 
 -0.2307692E+00  0.2500000E+00  0.0000000E+00  0.1923077E-01
    1      -14.497123
    2      -13.167982
    3      -12.522245
    4      -12.343887
    5      -12.182800
    6      -11.917841
    7      -11.712579
    8      -11.207524
    9      -11.188312
   10      -10.772294
   11      -10.685425
   12      -10.055379
   13       -8.694289
   14       -8.571218
   15       -7.961874
   16       -7.461019
   17       -6.941026
   18       -6.860342
   19       -6.820363
   20       -6.740070
   21       -6.052526
   22       -5.903324
   23       -5.509882
   24       -5.383845
   25       -5.006066
   26       -4.803389
   27       -4.787680
   28       -4.686590
   29       -4.484034
   30       -4.330329
   31       -4.199658
   32       -3.949863
   33       -3.844644
   34       -3.623429
   35       -3.513477
   36       -3.288995
   37       -3.172686
   38       -3.122818
   39       -2.881621
   40       -2.792812
   41       -2.663238
   42       -2.590261
   43       -2.325333
   44       -2.066429
   45       -2.010004
   46       -1.972955
   47       -1.908945
   48       -1.691124
   49       -1.607037
   50       -1.289603
   51       -1.069713
   52       -0.913100
   53       -0.163361
   54        0.215043
   55        0.751852
   56        1.105681
   57        1.426317
   58        1.689974
   59        1.847176
   60        2.004697
   61        2.120502
   62        2.240399
   63        2.292678
   64        2.538316
   65        2.685104
   66        2.744080
   67        2.809392
   68        3.019873
 
 -0.1538462E+00  0.2500000E+00  0.0000000E+00  0.1923077E-01
    1      -14.754630
    2      -13.451923
    3      -12.837578
    4      -12.632603
    5      -12.449910
    6      -12.175047
    7      -11.927926
    8      -11.437280
    9      -11.401914
   10      -10.975261
   11      -10.944611
   12      -10.123342
   13       -8.797373
   14       -8.550231
   15       -7.718499
   16       -7.144618
   17       -6.949631
   18       -6.814250
   19       -6.727172
   20       -6.339034
   21       -5.870828
   22       -5.768055
   23       -5.132107
   24       -4.991687
   25       -4.478496
   26       -4.384426
   27       -4.327448
   28       -4.185557
   29       -4.075505
   30       -3.934906
   31       -3.838405
   32       -3.670252
   33       -3.479392
   34       -3.261894
   35       -3.101440
   36       -3.056867
   37       -2.986314
   38       -2.896597
   39       -2.691155
   40       -2.629246
   41       -2.498169
   42       -2.347380
   43       -2.192841
   44       -2.056963
   45       -1.949752
   46       -1.858117
   47       -1.775814
   48       -1.395441
   49       -1.322368
   50       -1.107623
   51       -1.005968
   52       -0.764943
   53        0.077478
   54        0.416886
   55        0.830098
   56        0.991078
   57        1.307377
   58        1.617686
   59        1.909297
   60        2.036393
   61        2.307673
   62        2.442447
   63        2.515463
   64        2.620202
   65        2.739008
   66        2.803501
   67        2.900282
   68        2.975531
 
 -0.7692308E-01  0.2500000E+00  0.0000000E+00  0.1923077E-01
    1      -14.915234
    2      -13.617880
    3      -13.048010
    4      -12.813442
    5      -12.614680