 running on    8 total cores
 distrk:  each k-point on    8 cores,    1 groups
 distr:  one band on    2 cores,    4 groups
 using from now: INCAR     
 vasp.5.3.5 31Mar14 (build Oct 29 2014 16:16:03) complex                        
  
 POSCAR found type information on POSCAR  P  Si
 POSCAR found :  2 types and      24 ions
 scaLAPACK will be used

 ----------------------------------------------------------------------------- 
|                                                                             |
|  ADVICE TO THIS USER RUNNING 'VASP/VAMP'   (HEAR YOUR MASTER'S VOICE ...):  |
|                                                                             |
|      You have switched on vdW-DFT.                                          |
|      This routine was written and supplied by Jiri Klimes.                  |
|      We recommed that you carefully read and cite the following             |
|      publication                                                            |
|      J. Klimes, D.R. Bowler, A. Michelides                                  |
|        J. Phys.: Cond Matt. 22 022201 (2010)                                |
|      J. Klimes, D.R. Bowler, A. Michelides                                  |
|        Phys. Rev. B. 83, 195131 (2011)                                      |
|      and references therein.                                                |
|                                                                             |
 ----------------------------------------------------------------------------- 


 ----------------------------------------------------------------------------- 
|                                                                             |
|  ADVICE TO THIS USER RUNNING 'VASP/VAMP'   (HEAR YOUR MASTER'S VOICE ...):  |
|                                                                             |
|      You enforced a specific xc-type in the INCAR file,                     |
|      a different type was found on the POTCAR file                          |
|          I HOPE YOU KNOW, WHAT YOU ARE  DOING                               |
|                                                                             |
 ----------------------------------------------------------------------------- 

 LDA part: xc-table for Pade appr. of Perdew


 VERY BAD NEWS! internal error in subroutine IBZKPT:
 Reciprocal lattice and k-lattice belong to different class of lattices. Often results are still useful...      96


 VERY BAD NEWS! internal error in subroutine IBZKPT:
 Reciprocal lattice and k-lattice belong to different class of lattices. Often results are still useful...      96


 VERY BAD NEWS! internal error in subroutine IBZKPT:
 Reciprocal lattice and k-lattice belong to different class of lattices. Often results are still useful...      96


 VERY BAD NEWS! internal error in subroutine IBZKPT:
 Reciprocal lattice and k-lattice belong to different class of lattices. Often results are still useful...      96


 VERY BAD NEWS! internal error in subroutine IBZKPT:
 Reciprocal lattice and k-lattice belong to different class of lattices. Often results are still useful...      96


 VERY BAD NEWS! internal error in subroutine IBZKPT:
 Reciprocal lattice and k-lattice belong to different class of lattices. Often results are still useful...      96


 VERY BAD NEWS! internal error in subroutine IBZKPT:
 Reciprocal lattice and k-lattice belong to different class of lattices. Often results are still useful...      96


 VERY BAD NEWS! internal error in subroutine IBZKPT:
 Reciprocal lattice and k-lattice belong to different class of lattices. Often results are still useful...      96
 POSCAR, INCAR and KPOINTS ok, starting setup
 WARNING: small aliasing (wrap around) errors must be expected
 FFT: planning ...
 WAVECAR not read
 entering main loop
       N       E                     dE             d eps       ncg     rms          rms(c)
Total vdW correction in eV:     15.8959371
DAV:   1     0.498778924511E+03    0.49878E+03   -0.28698E+04  7352   0.790E+02
DAV:   2    -0.641619073257E+02   -0.56294E+03   -0.54807E+03  9824   0.190E+02
DAV:   3    -0.120301890135E+03   -0.56140E+02   -0.55324E+02  8764   0.622E+01
DAV:   4    -0.122888593158E+03   -0.25867E+01   -0.25680E+01 11088   0.142E+01
DAV:   5    -0.122947559574E+03   -0.58966E-01   -0.58884E-01  9992   0.212E+00    0.107E+01
Total vdW correction in eV:     16.2875564
DAV:   6    -0.120025576601E+03    0.29220E+01   -0.79891E+00  8748   0.766E+00    0.584E+00
Total vdW correction in eV:     16.7119737
DAV:   7    -0.119934524440E+03    0.91052E-01   -0.61755E+00  9080   0.646E+00    0.256E+00
Total vdW correction in eV:     16.8766072
DAV:   8    -0.119854805477E+03    0.79719E-01   -0.15456E+00  9032   0.366E+00    0.128E+00
Total vdW correction in eV:     16.9675662
DAV:   9    -0.119836293496E+03    0.18512E-01   -0.22552E-01  8960   0.149E+00    0.512E-01
Total vdW correction in eV:     17.0148203
DAV:  10    -0.119826654506E+03    0.96390E-02   -0.44633E-02  9136   0.674E-01    0.181E-01
Total vdW correction in eV:     17.0297640
DAV:  11    -0.119818075490E+03    0.85790E-02   -0.10236E-02  9136   0.320E-01    0.845E-02
Total vdW correction in eV:     17.0359192
DAV:  12    -0.119811243416E+03    0.68321E-02   -0.22818E-03  9368   0.161E-01    0.373E-02
Total vdW correction in eV:     17.0395212
DAV:  13    -0.119808533334E+03    0.27101E-02   -0.57708E-04  9104   0.750E-02    0.235E-02
Total vdW correction in eV:     17.0430101
DAV:  14    -0.119806909063E+03    0.16243E-02   -0.15459E-04  9520   0.447E-02    0.137E-02
Total vdW correction in eV:     17.0461790
DAV:  15    -0.119806064714E+03    0.84435E-03   -0.84291E-05  9464   0.376E-02    0.772E-03
Total vdW correction in eV:     17.0482568
DAV:  16    -0.119806227618E+03   -0.16290E-03   -0.78931E-05  8456   0.257E-02    0.489E-03
Total vdW correction in eV:     17.0493549
DAV:  17    -0.119806853482E+03   -0.62586E-03   -0.12424E-04  8424   0.231E-02    0.258E-03
Total vdW correction in eV:     17.0494641
DAV:  18    -0.119807108084E+03   -0.25460E-03   -0.70698E-05  7792   0.151E-02    0.167E-03
Total vdW correction in eV:     17.0492950
DAV:  19    -0.119807082312E+03    0.25772E-04   -0.29038E-05  7032   0.124E-02    0.102E-03
Total vdW correction in eV:     17.0491806
DAV:  20    -0.119807083298E+03   -0.98622E-06   -0.13925E-05  6712   0.810E-03    0.723E-04
Total vdW correction in eV:     17.0491449
DAV:  21    -0.119807067841E+03    0.15457E-04   -0.86478E-06  6592   0.737E-03    0.468E-04
Total vdW correction in eV:     17.0490716
DAV:  22    -0.119807036334E+03    0.31507E-04   -0.87251E-06  6152   0.815E-03    0.282E-04
Total vdW correction in eV:     17.0490529
DAV:  23    -0.119807013005E+03    0.23329E-04   -0.28763E-06  6176   0.538E-03    0.184E-04
Total vdW correction in eV:     17.0490159
DAV:  24    -0.119806971863E+03    0.41142E-04   -0.54297E-06  6576   0.678E-03    0.976E-05
Total vdW correction in eV:     17.0490056
DAV:  25    -0.119806953555E+03    0.18309E-04   -0.23087E-06  6464   0.545E-03    0.575E-05
Total vdW correction in eV:     17.0489967
DAV:  26    -0.119806940614E+03    0.12940E-04   -0.22635E-06  6136   0.549E-03    0.266E-05
Total vdW correction in eV:     17.0489930
DAV:  27    -0.119806939773E+03    0.84108E-06   -0.12973E-06  6064   0.435E-03
Total vdW correction in eV:     17.0489904
Total vdW correction in eV:     17.0489912
   1 F= -.11980694E+03 E0= -.11979231E+03  d E =-.292628E-01
