 vasp.5.3.5 31Mar14 (build Oct 29 2014 16:16:03) complex                        
  
 executed on          Linux-UFHPC date 2016.02.09  17:25:16
 running on    8 total cores
 distrk:  each k-point on    8 cores,    1 groups
 distr:  one band on NCORES_PER_BAND=   2 cores,    4 groups


--------------------------------------------------------------------------------------------------------


 INCAR:
 POTCAR:    PAW_PBE P 17Jan2003                   
 POTCAR:   PAW_PBE Si 05Jan2001                   

 ----------------------------------------------------------------------------- 
|                                                                             |
|  ADVICE TO THIS USER RUNNING 'VASP/VAMP'   (HEAR YOUR MASTER'S VOICE ...):  |
|                                                                             |
|      You have switched on vdW-DFT.                                          |
|      This routine was written and supplied by Jiri Klimes.                  |
|      We recommed that you carefully read and cite the following             |
|      publication                                                            |
|      J. Klimes, D.R. Bowler, A. Michelides                                  |
|        J. Phys.: Cond Matt. 22 022201 (2010)                                |
|      J. Klimes, D.R. Bowler, A. Michelides                                  |
|        Phys. Rev. B. 83, 195131 (2011)                                      |
|      and references therein.                                                |
|                                                                             |
 ----------------------------------------------------------------------------- 

 POTCAR:    PAW_PBE P 17Jan2003                   
   VRHFIN =P : s2p3                                                             
   LEXCH  = PE                                                                  
   EATOM  =   176.0430 eV,   12.9388 Ry                                         
                                                                                
   TITEL  = PAW_PBE P 17Jan2003                                                 
   LULTRA =        F    use ultrasoft PP ?                                      
   IUNSCR =        1    unscreen: 0-lin 1-nonlin 2-no                           
   RPACOR =    1.500    partial core radius                                     
   POMASS =   30.974; ZVAL   =    5.000    mass and valenz                      
   RCORE  =    1.900    outmost cutoff radius                                   
   RWIGS  =    2.330; RWIGS  =    1.233    wigner-seitz radius (au A)           
   ENMAX  =  270.000; ENMIN  =  191.280 eV                                      
   ICORE  =        2    local potential                                         
   LCOR   =        T    correct aug charges                                     
   LPAW   =        T    paw PP                                                  
   EAUG   =  342.924                                                            
   DEXC   =    -.002                                                            
   RMAX   =    2.887    core radius for proj-oper                               
   RAUG   =    1.300    factor for augmentation sphere                          
   RDEP   =    1.931    radius for radial grids                                 
   QCUT   =   -4.330; QGAM   =    8.659    optimization parameters              
                                                                                
   Description                                                                  
     l     E      TYP  RCUT    TYP  RCUT                                        
     0   .000     23  1.900                                                     
     0   .000     23  1.900                                                     
     1   .000     23  1.900                                                     
     1   .000     23  1.900                                                     
     2   .000     23  1.900                                                     
  local pseudopotential read in
  partial core-charges read in
  atomic valenz-charges read in
  non local Contribution for L=           0  read in
    real space projection operators read in
  non local Contribution for L=           0  read in
    real space projection operators read in
  non local Contribution for L=           1  read in
    real space projection operators read in
  non local Contribution for L=           1  read in
    real space projection operators read in
    PAW grid and wavefunctions read in
 
   number of l-projection  operators is LMAX  =           4
   number of lm-projection operators is LMMAX =           8
 
 POTCAR:   PAW_PBE Si 05Jan2001                   
   VRHFIN =Si: s2p2                                                             
   LEXCH  = PE                                                                  
   EATOM  =   103.0669 eV,    7.5752 Ry                                         
                                                                                
   TITEL  = PAW_PBE Si 05Jan2001                                                
   LULTRA =        F    use ultrasoft PP ?                                      
   IUNSCR =        1    unscreen: 0-lin 1-nonlin 2-no                           
   RPACOR =    1.500    partial core radius                                     
   POMASS =   28.085; ZVAL   =    4.000    mass and valenz                      
   RCORE  =    1.900    outmost cutoff radius                                   
   RWIGS  =    2.480; RWIGS  =    1.312    wigner-seitz radius (au A)           
   ENMAX  =  245.345; ENMIN  =  184.009 eV                                      
   ICORE  =        2    local potential                                         
   LCOR   =        T    correct aug charges                                     
   LPAW   =        T    paw PP                                                  
   EAUG   =  322.069                                                            
   DEXC   =    -.007                                                            
   RMAX   =    2.944    core radius for proj-oper                               
   RAUG   =    1.300    factor for augmentation sphere                          
   RDEP   =    1.993    radius for radial grids                                 
   QCUT   =   -4.246; QGAM   =    8.493    optimization parameters              
                                                                                
   Description                                                                  
     l     E      TYP  RCUT    TYP  RCUT                                        
     0   .000     23  1.900                                                     
     0   .000     23  1.900                                                     
     1   .000     23  1.900                                                     
     1   .000     23  1.900                                                     
     2   .000      7  1.900                                                     
  local pseudopotential read in
  partial core-charges read in
  atomic valenz-charges read in
  non local Contribution for L=           0  read in
    real space projection operators read in
  non local Contribution for L=           0  read in
    real space projection operators read in
  non local Contribution for L=           1  read in
    real space projection operators read in
  non local Contribution for L=           1  read in
    real space projection operators read in
    PAW grid and wavefunctions read in
 
   number of l-projection  operators is LMAX  =           4
   number of lm-projection operators is LMMAX =           8
 
 Optimization of the real space projectors (new method)

 maximal supplied QI-value         = 19.84
 optimisation between [QCUT,QGAM] = [  8.73, 17.66] = [ 21.34, 87.33] Ry 
 Optimized for a Real-space Cutoff    1.50 Angstroem

   l    n(q)    QCUT    max X(q) W(low)/X(q) W(high)/X(q)  e(spline) 
   0      8     8.731     6.651    0.16E-04    0.15E-04    0.77E-08
   0      8     8.731    90.285    0.16E-03    0.90E-04    0.16E-06
   1      7     8.731     4.328    0.47E-04    0.36E-04    0.45E-07
   1      7     8.731    54.583    0.13E-03    0.39E-03    0.20E-06
 Optimization of the real space projectors (new method)

 maximal supplied QI-value         = 19.84
 optimisation between [QCUT,QGAM] = [  8.73, 17.66] = [ 21.34, 87.33] Ry 
 Optimized for a Real-space Cutoff    1.46 Angstroem

   l    n(q)    QCUT    max X(q) W(low)/X(q) W(high)/X(q)  e(spline) 
   0      8     8.731     8.708    0.16E-04    0.11E-04    0.68E-08
   0      8     8.731   106.241    0.24E-03    0.77E-04    0.13E-06
   1      7     8.731     5.901    0.34E-04    0.38E-04    0.36E-07
   1      7     8.731    73.241    0.12E-03    0.39E-03    0.15E-06

 ----------------------------------------------------------------------------- 
|                                                                             |
|  ADVICE TO THIS USER RUNNING 'VASP/VAMP'   (HEAR YOUR MASTER'S VOICE ...):  |
|                                                                             |
|      You enforced a specific xc-type in the INCAR file,                     |
|      a different type was found on the POTCAR file                          |
|          I HOPE YOU KNOW, WHAT YOU ARE  DOING                               |
|                                                                             |
 ----------------------------------------------------------------------------- 

  PAW_PBE P 17Jan2003                   :
 energy of atom  1       EATOM= -176.0430
 kinetic energy error for atom=    0.0040 (will be added to EATOM!!)
 PAW_PBE Si 05Jan2001                   :
 energy of atom  2       EATOM= -103.0669
 kinetic energy error for atom=    0.0021 (will be added to EATOM!!)
 
 
 POSCAR: Si12                                    
  positions in direct lattice
  No initial velocities read in
 exchange correlation table for  LEXCH =       42
   RHO(1)=    0.500       N(1)  =     2000
   RHO(2)=  100.500       N(2)  =     4000
 


--------------------------------------------------------------------------------------------------------


 ion  position               nearest neighbor table
   1  0.114  0.228  0.233-  15 2.28  21 2.29  21 2.29
   2  0.114  0.928  0.515-  16 2.28  22 2.29  22 2.29
   3  0.458  0.916  0.209-  21 2.28  13 2.30  13 2.30
   4  0.458  0.616  0.491-  22 2.28  14 2.30  14 2.30
   5  0.311  0.622  0.084-  17 2.28  23 2.30  23 2.30
   6  0.311  0.622  0.366-  18 2.28  14 2.41
   7  0.999  0.998  0.086-  19 2.29  19 2.29  13 2.32
   8  0.999  0.998  0.368-  20 2.29  20 2.29  16 3.02
   9  0.655  0.310  0.060-  19 2.28  17 2.29  17 2.29
  10  0.655  0.310  0.342-  24 2.20  20 2.28  18 2.29  18 2.29
  11  0.770  0.539  0.207-  15 2.29  15 2.29  23 2.32
  12  0.770  0.239  0.489-  16 2.29  16 2.29  24 2.32  20 3.02
  13  0.940  0.879  0.158-   3 2.30   3 2.30   7 2.32  23 2.35
  14  0.940  0.579  0.440-   4 2.30   4 2.30  24 2.35   6 2.41  18 2.71
  15  0.205  0.410  0.186-   1 2.28  11 2.29  11 2.29  17 2.37
  16  0.205  0.110  0.468-   2 2.28  12 2.29  12 2.29  20 2.48   8 3.02
  17  0.202  0.404  0.100-   5 2.28   9 2.29   9 2.29  15 2.37
  18  0.202  0.404  0.382-  24 1.65   6 2.28  10 2.29  10 2.29  24 2.55  14 2.71
  19  0.564  0.128  0.108-   9 2.28   7 2.29   7 2.29  21 2.37
  20  0.564  0.128  0.390-  10 2.28   8 2.29   8 2.29  16 2.48  24 2.55  12 3.02
  21  0.567  0.134  0.194-   3 2.28   1 2.29   1 2.29  19 2.37
  22  0.567  0.834  0.476-   4 2.28   2 2.29   2 2.29
  23  0.829  0.658  0.136-   5 2.30   5 2.30  11 2.32  13 2.35
  24  0.829  0.358  0.418-  18 1.65  10 2.20  12 2.32  14 2.35  18 2.55  20 2.55
 
  LATTYP: Found a base centered orthorhombic cell.
 ALAT       =     3.5404000000
 B/A-ratio  =     5.8153587165
 C/A-ratio  =     7.7678875268
  
  Lattice vectors:
  
 A1 = (   1.7702000000,  10.2943480000,   0.0000000000)
 A2 = (   1.7702000000, -10.2943480000,   0.0000000000)
 A3 = (   0.0000000000,   0.0000000000, -27.5014290000)


Analysis of symmetry for initial positions (statically):
=====================================================================
 Subroutine PRICEL returns:
 Original cell was already a primitive cell.
 

 Routine SETGRP: Setting up the symmetry group for a 
 base centered orthorhombic supercell.


 Subroutine GETGRP returns: Found  1 space group operations
 (whereof  1 operations were pure point group operations)
 out of a pool of  8 trial point group operations.


The static configuration has the point symmetry C_1 .


Analysis of symmetry for dynamics (positions and initial velocities):
=====================================================================
 Subroutine PRICEL returns:
 Original cell was already a primitive cell.
 

 Routine SETGRP: Setting up the symmetry group for a 
 base centered orthorhombic supercell.


 Subroutine GETGRP returns: Found  1 space group operations
 (whereof  1 operations were pure point group operations)
 out of a pool of  8 trial point group operations.


The dynamic configuration has the point symmetry C_1 .
 
 
 KPOINTS: pymatgen generated KPOINTS with grid den

Automatic generation of k-mesh.
Space group operators:
 irot       det(A)        alpha          n_x          n_y          n_z        tau_x        tau_y        tau_z
    1     1.000000     0.000000     1.000000     0.000000     0.000000     0.000000     0.000000     0.000000
 
 Subroutine IBZKPT returns following result:
 ===========================================
 
 Found     54 irreducible k-points:
 
 Following reciprocal coordinates:
            Coordinates               Weight
  0.000000  0.000000  0.000000      1.000000
  0.076923 -0.000000  0.000000      2.000000
  0.153846 -0.000000  0.000000      2.000000
  0.230769 -0.000000  0.000000      2.000000
  0.307692 -0.000000  0.000000      2.000000
  0.384615 -0.000000  0.000000      2.000000
  0.461538 -0.000000  0.000000      2.000000
  0.000000  0.250000  0.000000      2.000000
  0.076923  0.250000  0.000000      2.000000
  0.153846  0.250000  0.000000      2.000000
  0.230769  0.250000  0.000000      2.000000
  0.307692  0.250000  0.000000      2.000000
  0.384615  0.250000  0.000000      2.000000
  0.461538  0.250000  0.000000      2.000000
 -0.461538  0.250000  0.000000      2.000000
 -0.384615  0.250000  0.000000      2.000000
 -0.307692  0.250000  0.000000      2.000000
 -0.230769  0.250000  0.000000      2.000000
 -0.153846  0.250000  0.000000      2.000000
 -0.076923  0.250000  0.000000      2.000000
  0.000000  0.500000  0.000000      1.000000
  0.076923  0.500000  0.000000      2.000000
  0.153846  0.500000  0.000000      2.000000
  0.230769  0.500000  0.000000      2.000000
  0.307692  0.500000  0.000000      2.000000
  0.384615  0.500000  0.000000      2.000000
  0.461538  0.500000  0.000000      2.000000
  0.000000  0.000000  0.500000      1.000000
  0.076923 -0.000000  0.500000      2.000000
  0.153846 -0.000000  0.500000      2.000000
  0.230769 -0.000000  0.500000      2.000000
  0.307692 -0.000000  0.500000      2.000000
  0.384615 -0.000000  0.500000      2.000000
  0.461538 -0.000000  0.500000      2.000000
  0.000000  0.250000  0.500000      2.000000
  0.076923  0.250000  0.500000      2.000000
  0.153846  0.250000  0.500000      2.000000
  0.230769  0.250000  0.500000      2.000000
  0.307692  0.250000  0.500000      2.000000
  0.384615  0.250000  0.500000      2.000000
  0.461538  0.250000  0.500000      2.000000
 -0.461538  0.250000  0.500000      2.000000
 -0.384615  0.250000  0.500000      2.000000
 -0.307692  0.250000  0.500000      2.000000
 -0.230769  0.250000  0.500000      2.000000
 -0.153846  0.250000  0.500000      2.000000
 -0.076923  0.250000  0.500000      2.000000
  0.000000  0.500000  0.500000      1.000000
  0.076923  0.500000  0.500000      2.000000
  0.153846  0.500000  0.500000      2.000000
  0.230769  0.500000  0.500000      2.000000
  0.307692  0.500000  0.500000      2.000000
  0.384615  0.500000  0.500000      2.000000
  0.461538  0.500000  0.500000      2.000000
 
 Following cartesian coordinates:
            Coordinates               Weight
  0.000000  0.000000  0.000000      1.000000
  0.021727  0.003736  0.000000      2.000000
  0.043454  0.007472  0.000000      2.000000
  0.065182  0.011209  0.000000      2.000000
  0.086909  0.014945  0.000000      2.000000
  0.108636  0.018681  0.000000      2.000000
  0.130363  0.022417  0.000000      2.000000
  0.000000  0.024285  0.000000      2.000000
  0.021727  0.028021  0.000000      2.000000
  0.043454  0.031758  0.000000      2.000000
  0.065182  0.035494  0.000000      2.000000
  0.086909  0.039230  0.000000      2.000000
  0.108636  0.042966  0.000000      2.000000
  0.130363  0.046702  0.000000      2.000000
 -0.130363  0.001868  0.000000      2.000000
 -0.108636  0.005604  0.000000      2.000000
 -0.086909  0.009340  0.000000      2.000000
 -0.065182  0.013077  0.000000      2.000000
 -0.043454  0.016813  0.000000      2.000000
 -0.021727  0.020549  0.000000      2.000000
  0.000000  0.048570  0.000000      1.000000
  0.021727  0.052307  0.000000      2.000000
  0.043454  0.056043  0.000000      2.000000
  0.065182  0.059779  0.000000      2.000000
  0.086909  0.063515  0.000000      2.000000
  0.108636  0.067251  0.000000      2.000000
  0.130363  0.070987  0.000000      2.000000
  0.000000  0.000000  0.018181      1.000000
  0.021727  0.003736  0.018181      2.000000
  0.043454  0.007472  0.018181      2.000000
  0.065182  0.011209  0.018181      2.000000
  0.086909  0.014945  0.018181      2.000000
  0.108636  0.018681  0.018181      2.000000
  0.130363  0.022417  0.018181      2.000000
  0.000000  0.024285  0.018181      2.000000
  0.021727  0.028021  0.018181      2.000000
  0.043454  0.031758  0.018181      2.000000
  0.065182  0.035494  0.018181      2.000000
  0.086909  0.039230  0.018181      2.000000
  0.108636  0.042966  0.018181      2.000000
  0.130363  0.046702  0.018181      2.000000
 -0.130363  0.001868  0.018181      2.000000
 -0.108636  0.005604  0.018181      2.000000
 -0.086909  0.009340  0.018181      2.000000
 -0.065182  0.013077  0.018181      2.000000
 -0.043454  0.016813  0.018181      2.000000
 -0.021727  0.020549  0.018181      2.000000
  0.000000  0.048570  0.018181      1.000000
  0.021727  0.052307  0.018181      2.000000
  0.043454  0.056043  0.018181      2.000000
  0.065182  0.059779  0.018181      2.000000
  0.086909  0.063515  0.018181      2.000000
  0.108636  0.067251  0.018181      2.000000
  0.130363  0.070987  0.018181      2.000000
 


--------------------------------------------------------------------------------------------------------




 Dimension of arrays:
   k-points           NKPTS =     54   k-points in BZ     NKDIM =     54   number of bands    NBANDS=     68
   number of dos      NEDOS =    301   number of ions     NIONS =     24
   non local maximal  LDIM  =      4   non local SUM 2l+1 LMDIM =      8
   total plane-waves  NPLWV = 192000
   max r-space proj   IRMAX =   2772   max aug-charges    IRDMAX=   6603
   dimension x,y,z NGX =    20 NGY =   60 NGZ =  160
   dimension x,y,z NGXF=    40 NGYF=  120 NGZF=  320
   support grid    NGXF=    40 NGYF=  120 NGZF=  320
   ions per type =              12  12
 NGX,Y,Z   is equivalent  to a cutoff of   9.39,  9.55,  9.67 a.u.
 NGXF,Y,Z  is equivalent  to a cutoff of  18.78, 19.10, 19.34 a.u.


 I would recommend the setting:
   dimension x,y,z NGX =    20 NGY =   59 NGZ =  155
 SYSTEM =  unknown system                          
 POSCAR =  Si12                                    

 Startparameter for this run:
   NWRITE =      2    write-flag & timer
   PREC   = accura    normal or accurate (medium, high low for compatibility)
   ISTART =      0    job   : 0-new  1-cont  2-samecut
   ICHARG =      2    charge: 1-file 2-atom 10-const
   ISPIN  =      1    spin polarized calculation?
   LNONCOLLINEAR =      F non collinear calculations
   LSORBIT =      F    spin-orbit coupling
   INIWAV =      1    electr: 0-lowe 1-rand  2-diag
   LASPH  =      F    aspherical Exc in radial PAW
   METAGGA=      F    non-selfconsistent MetaGGA calc.

 Electronic Relaxation 1
   ENCUT  =  300.0 eV  22.05 Ry    4.70 a.u.   5.00 14.75 38.84*2*pi/ulx,y,z
   ENINI  =  300.0     initial cutoff
   ENAUG  =  342.9 eV  augmentation charge cutoff
   NELM   =     60;   NELMIN=  2; NELMDL= -5     # of ELM steps 
   EDIFF  = 0.1E-05   stopping-criterion for ELM
   LREAL  =      T    real-space projection
   NLSPLINE    = F    spline interpolate recip. space projectors
   LCOMPAT=      F    compatible to vasp.4.4
   GGA_COMPAT  = T    GGA compatible to vasp.4.4-vasp.4.6
   LMAXPAW     = -100 max onsite density
   LMAXMIX     =    2 max onsite mixed and CHGCAR
   VOSKOWN=      0    Vosko Wilk Nusair interpolation
   ROPT   =   -0.00025  -0.00025
 Ionic relaxation
   EDIFFG = 0.1E-04   stopping-criterion for IOM
   NSW    =      0    number of steps for IOM
   NBLOCK =      1;   KBLOCK =      1    inner block; outer block 
   IBRION =     -1    ionic relax: 0-MD 1-quasi-New 2-CG
   NFREE  =      1    steps in history (QN), initial steepest desc. (CG)
   ISIF   =      3    stress and relaxation
   IWAVPR =     10    prediction:  0-non 1-charg 2-wave 3-comb
   ISYM   =      2    0-nonsym 1-usesym 2-fastsym
   LCORR  =      T    Harris-Foulkes like correction to forces

   POTIM  = 0.5000    time-step for ionic-motion
   TEIN   =    0.0    initial temperature
   TEBEG  =    0.0;   TEEND  =   0.0 temperature during run
   SMASS  =  -3.00    Nose mass-parameter (am)
   estimated Nose-frequenzy (Omega)   =  0.10E-29 period in steps =****** mass=  -0.286E-27a.u.
   SCALEE = 1.0000    scale energy and forces
   NPACO  =    256;   APACO  = 16.0  distance and # of slots for P.C.
   PSTRESS=    0.0 pullay stress

  Mass of Ions in am
   POMASS =  30.97 28.09
  Ionic Valenz
   ZVAL   =   5.00  4.00
  Atomic Wigner-Seitz radii
   RWIGS  =  -1.00 -1.00
  virtual crystal weights 
   VCA    =   1.00  1.00
   NELECT =     108.0000    total number of electrons
   NUPDOWN=      -1.0000    fix difference up-down

 DOS related values:
   EMIN   =  10.00;   EMAX   =-10.00  energy-range for DOS
   EFERMI =   0.00
   ISMEAR =     0;   SIGMA  =   0.10  broadening in eV -4-tet -1-fermi 0-gaus

 Electronic relaxation 2 (details)
   IALGO  =     38    algorithm
   LDIAG  =      T    sub-space diagonalisation (order eigenvalues)
   LSUBROT=      F    optimize rotation matrix (better conditioning)
   TURBO    =      0    0=normal 1=particle mesh
   IRESTART =      0    0=no restart 2=restart with 2 vectors
   NREBOOT  =      0    no. of reboots
   NMIN     =      0    reboot dimension
   EREF     =   0.00    reference energy to select bands
   IMIX   =      4    mixing-type and parameters
     AMIX     =   0.40;   BMIX     =  1.00
     AMIX_MAG =   1.60;   BMIX_MAG =  1.00
     AMIN     =   0.10
     WC   =   100.;   INIMIX=   1;  MIXPRE=   1;  MAXMIX= -45

 Intra band minimization:
   WEIMIN = 0.0000     energy-eigenvalue tresh-hold
   EBREAK =  0.37E-08  absolut break condition
   DEPER  =   0.30     relativ break condition  

   TIME   =   0.40     timestep for ELM

  volume/ion in A,a.u.               =      41.76       281.83
  Fermi-wavevector in a.u.,A,eV,Ry     =   0.779018  1.472130  8.256946  0.606868
  Thomas-Fermi vector in A             =   1.882034
 
 Write flags
   LWAVE  =      F    write WAVECAR
   LCHARG =      F    write CHGCAR
   LVTOT  =      F    write LOCPOT, total local potential
   LVHAR  =      F    write LOCPOT, Hartree potential only
   LELF   =      F    write electronic localiz. function (ELF)
   LORBIT =      0    0 simple, 1 ext, 2 COOP (PROOUT)


 Dipole corrections
   LMONO  =      F    monopole corrections only (constant potential shift)
   LDIPOL =      F    correct potential (dipole corrections)
   IDIPOL =      0    1-x, 2-y, 3-z, 4-all directions 
   EPSILON=  1.0000000 bulk dielectric constant

 Exchange correlation treatment:
   GGA     =    BO    GGA type
   LEXCH   =    42    internal setting for exchange type
   VOSKOWN=      0    Vosko Wilk Nusair interpolation
   LHFCALC =     F    Hartree Fock is set to
   LHFONE  =     F    Hartree Fock one center treatment
   AEXX    =    0.0000 exact exchange contribution

 vdW DFT:
   LUSE_VDW   =     T    switch on vdW DFT
   Zab_VDW    =-.8491    correlation parameter
   PARAM1     =0.1833
   PARAM2     =0.2200
   PARAM3     =0.0000

 Linear response parameters
   LEPSILON=     F    determine dielectric tensor
   LRPA    =     F    only Hartree local field effects (RPA)
   LNABLA  =     F    use nabla operator in PAW spheres
   LVEL    =     F    velocity operator in full k-point grid
   LINTERFAST=   F  fast interpolation
   KINTER  =     0    interpolate to denser k-point grid
   CSHIFT  =0.1000    complex shift for real part using Kramers Kronig
   OMEGAMAX=  -1.0    maximum frequency
   DEG_THRESHOLD= 0.2000000E-02 threshold for treating states as degnerate
   RTIME   =    0.100 relaxation time in fs

 Orbital magnetization related:
   ORBITALMAG=     F  switch on orbital magnetization
   LCHIMAG   =     F  perturbation theory with respect to B field
   DQ        =  0.001000  dq finite difference perturbation B field



--------------------------------------------------------------------------------------------------------


 Static calculation
 charge density and potential will be updated during run
 non-spin polarized calculation
 Variant of blocked Davidson
 Davidson routine will perform the subspace rotation
 perform sub-space diagonalisation
    after iterative eigenvector-optimisation
 modified Broyden-mixing scheme, WC =      100.0
 initial mixing is a Kerker type mixing with AMIX =  0.4000 and BMIX =      1.0000
 Hartree-type preconditioning will be used
 using additional bands           14
 real space projection scheme for non local part
 use partial core corrections
 calculate Harris-corrections to forces 
   (improved forces if not selfconsistent)
 use gradient corrections 
 use of overlap-Matrix (Vanderbilt PP)
 Gauss-broadening in eV      SIGMA  =   0.10


--------------------------------------------------------------------------------------------------------


  energy-cutoff  :      300.00
  volume of cell :     1002.32
      direct lattice vectors                 reciprocal lattice vectors
     3.540400000  0.000000000  0.000000000     0.282453960  0.048570342  0.000000000
    -1.770200000 10.294348000  0.000000000     0.000000000  0.097140683  0.000000000
     0.000000000  0.000000000 27.501429000     0.000000000  0.000000000  0.036361747

  length of vectors
     3.540400000 10.445439617 27.501429000     0.286599577  0.097140683  0.036361747


 
 k-points in units of 2pi/SCALE and weight: pymatgen generated KPOINTS with grid den
   0.00000000  0.00000000  0.00000000       0.010
   0.02172723  0.00373618  0.00000000       0.019
   0.04345446  0.00747236  0.00000000       0.019
   0.06518168  0.01120854  0.00000000       0.019
   0.08690891  0.01494472  0.00000000       0.019
   0.10863614  0.01868090  0.00000000       0.019
   0.13036337  0.02241708  0.00000000       0.019
   0.00000000  0.02428517  0.00000000       0.019
   0.02172723  0.02802135  0.00000000       0.019
   0.04345446  0.03175753  0.00000000       0.019
   0.06518168  0.03549371  0.00000000       0.019
   0.08690891  0.03922989  0.00000000       0.019
   0.10863614  0.04296607  0.00000000       0.019
   0.13036337  0.04670225  0.00000000       0.019
  -0.13036337  0.00186809  0.00000000       0.019
  -0.10863614  0.00560427  0.00000000       0.019
  -0.08690891  0.00934045  0.00000000       0.019
  -0.06518168  0.01307663  0.00000000       0.019
  -0.04345446  0.01681281  0.00000000       0.019
  -0.02172723  0.02054899  0.00000000       0.019
   0.00000000  0.04857034  0.00000000       0.010
   0.02172723  0.05230652  0.00000000       0.019
   0.04345446  0.05604270  0.00000000       0.019
   0.06518168  0.05977888  0.00000000       0.019
   0.08690891  0.06351506  0.00000000       0.019
   0.10863614  0.06725124  0.00000000       0.019
   0.13036337  0.07098742  0.00000000       0.019
   0.00000000  0.00000000  0.01818087       0.010
   0.02172723  0.00373618  0.01818087       0.019
   0.04345446  0.00747236  0.01818087       0.019
   0.06518168  0.01120854  0.01818087       0.019
   0.08690891  0.01494472  0.01818087       0.019
   0.10863614  0.01868090  0.01818087       0.019
   0.13036337  0.02241708  0.01818087       0.019
   0.00000000  0.02428517  0.01818087       0.019
   0.02172723  0.02802135  0.01818087       0.019
   0.04345446  0.03175753  0.01818087       0.019
   0.06518168  0.03549371  0.01818087       0.019
   0.08690891  0.03922989  0.01818087       0.019
   0.10863614  0.04296607  0.01818087       0.019
   0.13036337  0.04670225  0.01818087       0.019
  -0.13036337  0.00186809  0.01818087       0.019
  -0.10863614  0.00560427  0.01818087       0.019
  -0.08690891  0.00934045  0.01818087       0.019
  -0.06518168  0.01307663  0.01818087       0.019
  -0.04345446  0.01681281  0.01818087       0.019
  -0.02172723  0.02054899  0.01818087       0.019
   0.00000000  0.04857034  0.01818087       0.010
   0.02172723  0.05230652  0.01818087       0.019
   0.04345446  0.05604270  0.01818087       0.019
   0.06518168  0.05977888  0.01818087       0.019
   0.08690891  0.06351506  0.01818087       0.019
   0.10863614  0.06725124  0.01818087       0.019
   0.13036337  0.07098742  0.01818087       0.019
 
 k-points in reciprocal lattice and weights: pymatgen generated KPOINTS with grid den
   0.00000000  0.00000000  0.00000000       0.010
   0.07692308 -0.00000000  0.00000000       0.019
   0.15384615 -0.00000000  0.00000000       0.019
   0.23076923 -0.00000000  0.00000000       0.019
   0.30769231 -0.00000000  0.00000000       0.019
   0.38461538 -0.00000000  0.00000000       0.019
   0.46153846 -0.00000000  0.00000000       0.019
   0.00000000  0.25000000  0.00000000       0.019
   0.07692308  0.25000000  0.00000000       0.019
   0.15384615  0.25000000  0.00000000       0.019
   0.23076923  0.25000000  0.00000000       0.019
   0.30769231  0.25000000  0.00000000       0.019
   0.38461538  0.25000000  0.00000000       0.019
   0.46153846  0.25000000  0.00000000       0.019
  -0.46153846  0.25000000  0.00000000       0.019
  -0.38461538  0.25000000  0.00000000       0.019
  -0.30769231  0.25000000  0.00000000       0.019
  -0.23076923  0.25000000  0.00000000       0.019
  -0.15384615  0.25000000  0.00000000       0.019
  -0.07692308  0.25000000  0.00000000       0.019
   0.00000000  0.50000000  0.00000000       0.010
   0.07692308  0.50000000  0.00000000       0.019
   0.15384615  0.50000000  0.00000000       0.019
   0.23076923  0.50000000  0.00000000       0.019
   0.30769231  0.50000000  0.00000000       0.019
   0.38461538  0.50000000  0.00000000       0.019
   0.46153846  0.50000000  0.00000000       0.019
   0.00000000  0.00000000  0.50000000       0.010
   0.07692308 -0.00000000  0.50000000       0.019
   0.15384615 -0.00000000  0.50000000       0.019
   0.23076923 -0.00000000  0.50000000       0.019
   0.30769231 -0.00000000  0.50000000       0.019
   0.38461538 -0.00000000  0.50000000       0.019
   0.46153846 -0.00000000  0.50000000       0.019
   0.00000000  0.25000000  0.50000000       0.019
   0.07692308  0.25000000  0.50000000       0.019
   0.15384615  0.25000000  0.50000000       0.019
   0.23076923  0.25000000  0.50000000       0.019
   0.30769231  0.25000000  0.50000000       0.019
   0.38461538  0.25000000  0.50000000       0.019
   0.46153846  0.25000000  0.50000000       0.019
  -0.46153846  0.25000000  0.50000000       0.019
  -0.38461538  0.25000000  0.50000000       0.019
  -0.30769231  0.25000000  0.50000000       0.019
  -0.23076923  0.25000000  0.50000000       0.019
  -0.15384615  0.25000000  0.50000000       0.019
  -0.07692308  0.25000000  0.50000000       0.019
   0.00000000  0.50000000  0.50000000       0.010
   0.07692308  0.50000000  0.50000000       0.019
   0.15384615  0.50000000  0.50000000       0.019
   0.23076923  0.50000000  0.50000000       0.019
   0.30769231  0.50000000  0.50000000       0.019
   0.38461538  0.50000000  0.50000000       0.019
   0.46153846  0.50000000  0.50000000       0.019
 
 position of ions in fractional coordinates (direct lattice) 
   0.11402300  0.22804500  0.23316207
   0.11402300  0.92804500  0.51499159
   0.45808900  0.91617900  0.20939482
   0.45808900  0.61617900  0.49122434
   0.31085400  0.62170900  0.08414979
   0.31085400  0.62170900  0.36597930
   0.99923000  0.99846000  0.08631254
   0.99923000  0.99846000  0.36814206
   0.65492700  0.30985400  0.06041748
   0.65492700  0.30985400  0.34224700
   0.76973800  0.53947500  0.20725292
   0.76973800  0.23947500  0.48908244
   0.93971600  0.87943300  0.15783749
   0.93971600  0.57943300  0.43966701
   0.20515200  0.41030300  0.18578822
   0.20515200  0.11030300  0.46761774
   0.20184900  0.40369900  0.09969156
   0.20184900  0.40369900  0.38152107
   0.56380500  0.12761000  0.10779021
   0.56380500  0.12761000  0.38961973
   0.56710600  0.13421200  0.19387616
   0.56710600  0.83421200  0.47570568
   0.82923400  0.65846800  0.13571444
   0.82923400  0.35846800  0.41754396
 
 position of ions in cartesian coordinates  (Angst):
   0.00000177  2.34757459  6.41229012
  -1.23913823  9.55361819 14.16300462
  -0.00000177  9.43146546  5.75865686
   0.53105823  6.34316106 13.50937136
  -0.00000177  6.40008880  2.31423934
  -0.00000177  6.40008880 10.06495384
   1.77020000 10.27849470  2.37371832
   1.77020000 10.27849470 10.12443282
   1.77020000  3.18974491  1.66156717
   1.77020000  3.18974491  9.41228167
   1.77020177  5.55354339  5.69975143
   2.30126177  2.46523899 13.45046593
   1.77019823  9.05318934  4.34075665
   2.30125823  5.96488494 12.09147115
   0.00000177  4.22380187  5.10944151
   0.53106177  1.13549747 12.86015601
  -0.00000177  4.15581799  2.74166024
  -0.00000177  4.15581799 10.49237474
   1.77020000  1.31366175  2.96438477
   1.77020000  1.31366175 10.71509927
   1.77020000  1.38162503  5.33187152
   0.53106000  8.58766863 13.08258602
   1.77020000  6.77849874  3.73234107
   2.30126000  3.69019434 11.48305557
 


--------------------------------------------------------------------------------------------------------


 k-point  1 :   0.0000 0.0000 0.0000  plane waves:   11717
 k-point  2 :   0.0769-0.0000 0.0000  plane waves:   11762
 k-point  3 :   0.1538-0.0000 0.0000  plane waves:   11805
 k-point  4 :   0.2308-0.0000 0.0000  plane waves:   11824
 k-point  5 :   0.3077-0.0000 0.0000  plane waves:   11875
 k-point  6 :   0.3846-0.0000 0.0000  plane waves:   11864
 k-point  7 :   0.4615-0.0000 0.0000  plane waves:   11883
 k-point  8 :   0.0000 0.2500 0.0000  plane waves:   11683
 k-point  9 :   0.0769 0.2500 0.0000  plane waves:   11756
 k-point 10 :   0.1538 0.2500 0.0000  plane waves:   11807
 k-point 11 :   0.2308 0.2500 0.0000  plane waves:   11853
 k-point 12 :   0.3077 0.2500 0.0000  plane waves:   11866
 k-point 13 :   0.3846 0.2500 0.0000  plane waves:   11889
 k-point 14 :   0.4615 0.2500 0.0000  plane waves:   11885
 k-point 15 :  -0.4615 0.2500 0.0000  plane waves:   11886
 k-point 16 :  -0.3846 0.2500 0.0000  plane waves:   11867
 k-point 17 :  -0.3077 0.2500 0.0000  plane waves:   11849
 k-point 18 :  -0.2308 0.2500 0.0000  plane waves:   11827
 k-point 19 :  -0.1538 0.2500 0.0000  plane waves:   11801
 k-point 20 :  -0.0769 0.2500 0.0000  plane waves:   11757
 k-point 21 :   0.0000 0.5000 0.0000  plane waves:   11710
 k-point 22 :   0.0769 0.5000 0.0000  plane waves:   11762
 k-point 23 :   0.1538 0.5000 0.0000  plane waves:   11782
 k-point 24 :   0.2308 0.5000 0.0000  plane waves:   11841
 k-point 25 :   0.3077 0.5000 0.0000  plane waves:   11876
 k-point 26 :   0.3846 0.5000 0.0000  plane waves:   11889
 k-point 27 :   0.4615 0.5000 0.0000  plane waves:   11881
 k-point 28 :   0.0000 0.0000 0.5000  plane waves:   11698
 k-point 29 :   0.0769-0.0000 0.5000  plane waves:   11752
 k-point 30 :   0.1538-0.0000 0.5000  plane waves:   11800
 k-point 31 :   0.2308-0.0000 0.5000  plane waves:   11834
 k-point 32 :   0.3077-0.0000 0.5000  plane waves:   11850
 k-point 33 :   0.3846-0.0000 0.5000  plane waves:   11888
 k-point 34 :   0.4615-0.0000 0.5000  plane waves:   11896
 k-point 35 :   0.0000 0.2500 0.5000  plane waves:   11714
 k-point 36 :   0.0769 0.2500 0.5000  plane waves:   11754
 k-point 37 :   0.1538 0.2500 0.5000  plane waves:   11802
 k-point 38 :   0.2308 0.2500 0.5000  plane waves:   11840
 k-point 39 :   0.3077 0.2500 0.5000  plane waves:   11858
 k-point 40 :   0.3846 0.2500 0.5000  plane waves:   11896
 k-point 41 :   0.4615 0.2500 0.5000  plane waves:   11886
 k-point 42 :  -0.4615 0.2500 0.5000  plane waves:   11852
 k-point 43 :  -0.3846 0.2500 0.5000  plane waves:   11838
 k-point 44 :  -0.3077 0.2500 0.5000  plane waves:   11842
 k-point 45 :  -0.2308 0.2500 0.5000  plane waves:   11840
 k-point 46 :  -0.1538 0.2500 0.5000  plane waves:   11804
 k-point 47 :  -0.0769 0.2500 0.5000  plane waves:   11748
 k-point 48 :   0.0000 0.5000 0.5000  plane waves:   11724
 k-point 49 :   0.0769 0.5000 0.5000  plane waves:   11748
 k-point 50 :   0.1538 0.5000 0.5000  plane waves:   11814
 k-point 51 :   0.2308 0.5000 0.5000  plane waves:   11832
 k-point 52 :   0.3077 0.5000 0.5000  plane waves:   11868
 k-point 53 :   0.3846 0.5000 0.5000  plane waves:   11892
 k-point 54 :   0.4615 0.5000 0.5000  plane waves:   11878

 maximum and minimum number of plane-waves per node :      5964     5832

 maximum number of plane-waves:     11896
 maximum index in each direction: 
   IXMAX=    5   IYMAX=   14   IZMAX=   38
   IXMIN=   -5   IYMIN=  -15   IZMIN=  -39

 WARNING: aliasing errors must be expected set NGX to  22 to avoid them
 NGY is ok and might be reduce to  60
 NGZ is ok and might be reduce to 156
 aliasing errors are usually negligible using standard VASP settings
 and one can safely disregard these warnings

 real space projection operators:
  total allocation   :       3793.25 KBytes
  max/ min on nodes  :       1899.38       1893.88


 parallel 3D FFT for wavefunctions:
    minimum data exchange during FFTs selected (reduces bandwidth)
 parallel 3D FFT for charge:
    minimum data exchange during FFTs selected (reduces bandwidth)


 total amount of memory used by VASP on root node   146493. kBytes
========================================================================

   base      :      30000. kBytes
   nonlr-proj:       3452. kBytes
   fftplans  :       9347. kBytes
   grid      :      14649. kBytes
   one-center:         36. kBytes
   wavefun   :      89009. kBytes
 
     INWAV:  cpu time    0.00: real time    0.00
 Broyden mixing: mesh for mixing (old mesh)
   NGX =  9   NGY = 29   NGZ = 77
  (NGX  = 40   NGY  =120   NGZ  =320)
  gives a total of  20097 points

 initial charge density was supplied:
 charge density of overlapping atoms calculated
 number of electron     108.0000000 magnetization 
 keeping initial charge density in first step


--------------------------------------------------------------------------------------------------------


 Maximum index for non-local projection operator         1333
 Maximum index for augmentation-charges          822 (set IRDMAX)


--------------------------------------------------------------------------------------------------------


 First call to EWALD:  gamma=   0.177
 Maximum number of real-space cells 7x 3x 1
 Maximum number of reciprocal cells 1x 3x 7

 FEWALD executed in parallel
    FEWALD:  cpu time    0.00: real time    0.00


----------------------------------------- Iteration    1(   1)  ---------------------------------------


vdW kernel read from vdw_kernel.bindat
  0.0000  0.2424  0.5071  0.7962  1.1119  1.4567  1.8333  2.2446  2.6937  3.1842
  3.7199  4.3049  4.9438  5.6415  6.4036  7.2358  8.1446  9.1372 10.2212 11.4050
 12.6979 14.1099 15.6519 17.3360 19.1751 21.1837 23.3773 25.7729 28.3892 31.2465
 34.3669 37.7748 41.4965 45.5611 50.0000
 
    POTLOK:  cpu time   16.04: real time   16.05
    SETDIJ:  cpu time    0.01: real time    0.01
     EDDAV:  cpu time   64.29: real time   64.38
       DOS:  cpu time    0.01: real time    0.01
    --------------------------------------------
      LOOP:  cpu time   80.36: real time   80.45

 eigenvalue-minimisations  :  7352
 total energy-change (2. order) : 0.4987789E+03  (-0.2869834E+04)
 number of electron     108.0000000 magnetization 
 augmentation part      108.0000000 magnetization 

 Free energy of the ion-electron system (eV)
  ---------------------------------------------------
  alpha Z        PSCENC =        36.80884744
  Ewald energy   TEWEN  =     11995.99507851
  -Hartree energ DENC   =    -15033.10937339
  -exchange      EXHF   =         0.00000000
  -V(xc)+E(xc)   XCENC  =       -87.31531291
  PAW double counting   =      1056.43050070     -732.41190547
  entropy T*S    EENTRO =        -0.04296795
  eigenvalues    EBANDS =       -91.61720286
  atomic energy  EATOM  =      3354.04126044
  ---------------------------------------------------
  free energy    TOTEN  =       498.77892451 eV

  energy without entropy =      498.82189246  energy(sigma->0) =      498.80040849


--------------------------------------------------------------------------------------------------------




----------------------------------------- Iteration    1(   2)  ---------------------------------------


     EDDAV:  cpu time   82.98: real time   83.18
       DOS:  cpu time    0.01: real time    0.01
    --------------------------------------------
      LOOP:  cpu time   83.00: real time   83.20

 eigenvalue-minimisations  :  9824
 total energy-change (2. order) :-0.5629408E+03  (-0.5480724E+03)
 number of electron     108.0000000 magnetization 
 augmentation part      108.0000000 magnetization 

 Free energy of the ion-electron system (eV)
  ---------------------------------------------------
  alpha Z        PSCENC =        36.80884744
  Ewald energy   TEWEN  =     11995.99507851
  -Hartree energ DENC   =    -15033.10937339
  -exchange      EXHF   =         0.00000000
  -V(xc)+E(xc)   XCENC  =       -87.31531291
  PAW double counting   =      1056.43050070     -732.41190547
  entropy T*S    EENTRO =        -0.01816500
  eigenvalues    EBANDS =      -654.58283765
  atomic energy  EATOM  =      3354.04126044
  ---------------------------------------------------
  free energy    TOTEN  =       -64.16190733 eV

  energy without entropy =      -64.14374233  energy(sigma->0) =      -64.15282483


--------------------------------------------------------------------------------------------------------




----------------------------------------- Iteration    1(   3)  ---------------------------------------


     EDDAV:  cpu time   76.02: real time   76.11
       DOS:  cpu time    0.01: real time    0.01
    --------------------------------------------
      LOOP:  cpu time   76.04: real time   76.12

 eigenvalue-minimisations  :  8764
 total energy-change (2. order) :-0.5613998E+02  (-0.5532351E+02)
 number of electron     108.0000000 magnetization 
 augmentation part      108.0000000 magnetization 

 Free energy of the ion-electron system (eV)
  ---------------------------------------------------
  alpha Z        PSCENC =        36.80884744
  Ewald energy   TEWEN  =     11995.99507851
  -Hartree energ DENC   =    -15033.10937339
  -exchange      EXHF   =         0.00000000
  -V(xc)+E(xc)   XCENC  =       -87.31531291
  PAW double counting   =      1056.43050070     -732.41190547
  entropy T*S    EENTRO =        -0.02457492
  eigenvalues    EBANDS =      -710.71641054
  atomic energy  EATOM  =      3354.04126044
  ---------------------------------------------------
  free energy    TOTEN  =      -120.30189013 eV

  energy without entropy =     -120.27731522  energy(sigma->0) =     -120.28960268


--------------------------------------------------------------------------------------------------------




----------------------------------------- Iteration    1(   4)  ---------------------------------------


     EDDAV:  cpu time   91.52: real time   91.64
       DOS:  cpu time    0.01: real time    0.01
    --------------------------------------------
      LOOP:  cpu time   91.53: real time   91.65

 eigenvalue-minimisations  : 11088
 total energy-change (2. order) :-0.2586703E+01  (-0.2568002E+01)
 number of electron     108.0000000 magnetization 
 augmentation part      108.0000000 magnetization 

 Free energy of the ion-electron system (eV)
  ---------------------------------------------------
  alpha Z        PSCENC =        36.80884744
  Ewald energy   TEWEN  =     11995.99507851
  -Hartree energ DENC   =    -15033.10937339
  -exchange      EXHF   =         0.00000000
  -V(xc)+E(xc)   XCENC  =       -87.31531291
  PAW double counting   =      1056.43050070     -732.41190547
  entropy T*S    EENTRO =        -0.02771500
  eigenvalues    EBANDS =      -713.29997348
  atomic energy  EATOM  =      3354.04126044
  ---------------------------------------------------
  free energy    TOTEN  =      -122.88859316 eV

  energy without entropy =     -122.86087816  energy(sigma->0) =     -122.87473566


--------------------------------------------------------------------------------------------------------




----------------------------------------- Iteration    1(   5)  ---------------------------------------


     EDDAV:  cpu time   84.20: real time   84.35
       DOS:  cpu time    0.01: real time    0.01
    CHARGE:  cpu time    4.59: real time    4.59
    MIXING:  cpu time    0.01: real time    0.01
    --------------------------------------------
      LOOP:  cpu time   88.81: real time   88.96

 eigenvalue-minimisations  :  9992
 total energy-change (2. order) :-0.5896642E-01  (-0.5888449E-01)
 number of electron     107.9999994 magnetization 
 augmentation part       -9.6001193 magnetization 

 Broyden mixing:
  rms(total) = 0.10695E+01    rms(broyden)= 0.10693E+01
  rms(prec ) = 0.11498E+01
  weight for this iteration     100.00

 Free energy of the ion-electron system (eV)
  ---------------------------------------------------
  alpha Z        PSCENC =        36.80884744
  Ewald energy   TEWEN  =     11995.99507851
  -Hartree energ DENC   =    -15033.10937339
  -exchange      EXHF   =         0.00000000
  -V(xc)+E(xc)   XCENC  =       -87.31531291
  PAW double counting   =      1056.43050070     -732.41190547
  entropy T*S    EENTRO =        -0.02784818
  eigenvalues    EBANDS =      -713.35880672
  atomic energy  EATOM  =      3354.04126044
  ---------------------------------------------------
  free energy    TOTEN  =      -122.94755957 eV

  energy without entropy =     -122.91971139  energy(sigma->0) =     -122.93363548


--------------------------------------------------------------------------------------------------------




----------------------------------------- Iteration    1(   6)  ---------------------------------------


    POTLOK:  cpu time   14.70: real time   14.71
    SETDIJ:  cpu time    0.01: real time    0.01
     EDDAV:  cpu time   75.97: real time   76.09
       DOS:  cpu time    0.01: real time    0.01
    CHARGE:  cpu time    4.38: real time    4.38
    MIXING:  cpu time    0.01: real time    0.01
    --------------------------------------------
      LOOP:  cpu time   95.09: real time   95.23

 eigenvalue-minimisations  :  8748
 total energy-change (2. order) : 0.2921983E+01  (-0.7989124E+00)
 number of electron     107.9999994 magnetization 
 augmentation part       -9.4578231 magnetization 

 Broyden mixing:
  rms(total) = 0.58426E+00    rms(broyden)= 0.58424E+00
  rms(prec ) = 0.62052E+00
  weight for this iteration     100.00

 eigenvalues of (default mixing * dielectric matrix)
  average eigenvalue GAMMA=   1.7801
  1.7801

 Free energy of the ion-electron system (eV)
  ---------------------------------------------------
  alpha Z        PSCENC =        36.80884744
  Ewald energy   TEWEN  =     11995.99507851
  -Hartree energ DENC   =    -15079.48210884
  -exchange      EXHF   =         0.00000000
  -V(xc)+E(xc)   XCENC  =       -84.25131663
  PAW double counting   =      1117.19121211     -794.93292236
  entropy T*S    EENTRO =        -0.02673784
  eigenvalues    EBANDS =      -665.36888944
  atomic energy  EATOM  =      3354.04126044
  ---------------------------------------------------
  free energy    TOTEN  =      -120.02557660 eV

  energy without entropy =     -119.99883876  energy(sigma->0) =     -120.01220768


--------------------------------------------------------------------------------------------------------




----------------------------------------- Iteration    1(   7)  ---------------------------------------


    POTLOK:  cpu time   14.72: real time   14.77
    SETDIJ:  cpu time    0.01: real time    0.01
     EDDAV:  cpu time   78.23: real time   78.29
       DOS:  cpu time    0.01: real time    0.01
    CHARGE:  cpu time    4.21: real time    4.24
    MIXING:  cpu time    0.01: real time    0.01
    --------------------------------------------
      LOOP:  cpu time   97.19: real time   97.34

 eigenvalue-minimisations  :  9080
 total energy-change (2. order) : 0.9105216E-01  (-0.6175549E+00)
 number of electron     107.9999994 magnetization 
 augmentation part       -9.3667944 magnetization 

 Broyden mixing:
  rms(total) = 0.25612E+00    rms(broyden)= 0.25609E+00
  rms(prec ) = 0.29958E+00
  weight for this iteration     100.00

 eigenvalues of (default mixing * dielectric matrix)
  average eigenvalue GAMMA=   1.3790
  0.7637  1.9943

 Free energy of the ion-electron system (eV)
  ---------------------------------------------------
  alpha Z        PSCENC =        36.80884744
  Ewald energy   TEWEN  =     11995.99507851
  -Hartree energ DENC   =    -15097.32723683
  -exchange      EXHF   =         0.00000000
  -V(xc)+E(xc)   XCENC  =       -81.42812116
  PAW double counting   =      1162.18811803     -841.23789179
  entropy T*S    EENTRO =        -0.02484064
  eigenvalues    EBANDS =      -648.94973844
  atomic energy  EATOM  =      3354.04126044
  ---------------------------------------------------
  free energy    TOTEN  =      -119.93452444 eV

  energy without entropy =     -119.90968380  energy(sigma->0) =     -119.92210412


--------------------------------------------------------------------------------------------------------




----------------------------------------- Iteration    1(   8)  ---------------------------------------


    POTLOK:  cpu time   14.63: real time   14.63
    SETDIJ:  cpu time    0.01: real time    0.01
     EDDAV:  cpu time   77.97: real time   78.00
       DOS:  cpu time    0.01: real time    0.01
    CHARGE:  cpu time    4.27: real time    4.28
    MIXING:  cpu time    0.01: real time    0.01
    --------------------------------------------
      LOOP:  cpu time   96.91: real time   96.95

 eigenvalue-minimisations  :  9032
 total energy-change (2. order) : 0.7971896E-01  (-0.1545594E+00)
 number of electron     107.9999994 magnetization 
 augmentation part       -9.3534658 magnetization 

 Broyden mixing:
  rms(total) = 0.12817E+00    rms(broyden)= 0.12815E+00
  rms(prec ) = 0.13623E+00
  weight for this iteration     100.00

 eigenvalues of (default mixing * dielectric matrix)
  average eigenvalue GAMMA=   1.4335
  2.1553  1.5148  0.6305

 Free energy of the ion-electron system (eV)
  ---------------------------------------------------
  alpha Z        PSCENC =        36.80884744
  Ewald energy   TEWEN  =     11995.99507851
  -Hartree energ DENC   =    -15116.44364418
  -exchange      EXHF   =         0.00000000
  -V(xc)+E(xc)   XCENC  =       -80.43424501
  PAW double counting   =      1172.74929495     -852.10061642
  entropy T*S    EENTRO =        -0.02982255
  eigenvalues    EBANDS =      -630.44095866
  atomic energy  EATOM  =      3354.04126044
  ---------------------------------------------------
  free energy    TOTEN  =      -119.85480548 eV

  energy without entropy =     -119.82498292  energy(sigma->0) =     -119.83989420


--------------------------------------------------------------------------------------------------------




----------------------------------------- Iteration    1(   9)  ---------------------------------------


    POTLOK:  cpu time   14.66: real time   14.67
    SETDIJ:  cpu time    0.01: real time    0.01
     EDDAV:  cpu time   77.49: real time   77.60
       DOS:  cpu time    0.01: real time    0.01
    CHARGE:  cpu time    4.22: real time    4.23
    MIXING:  cpu time    0.01: real time    0.01
    --------------------------------------------
      LOOP:  cpu time   96.40: real time   96.53

 eigenvalue-minimisations  :  8960
 total energy-change (2. order) : 0.1851198E-01  (-0.2255165E-01)
 number of electron     107.9999994 magnetization 
 augmentation part       -9.3510865 magnetization 

 Broyden mixing:
  rms(total) = 0.51243E-01    rms(broyden)= 0.51240E-01
  rms(prec ) = 0.54756E-01
  weight for this iteration     100.00

 eigenvalues of (default mixing * dielectric matrix)
  average eigenvalue GAMMA=   1.4318
  2.4988  1.4879  1.0996  0.6410

 Free energy of the ion-electron system (eV)
  ---------------------------------------------------
  alpha Z        PSCENC =        36.80884744
  Ewald energy   TEWEN  =     11995.99507851
  -Hartree energ DENC   =    -15120.12663959
  -exchange      EXHF   =         0.00000000
  -V(xc)+E(xc)   XCENC  =       -79.97765534
  PAW double counting   =      1172.15817172     -851.51231205
  entropy T*S    EENTRO =        -0.02917352
  eigenvalues    EBANDS =      -627.19387111
  atomic energy  EATOM  =      3354.04126044
  ---------------------------------------------------
  free energy    TOTEN  =      -119.83629350 eV

  energy without entropy =     -119.80711998  energy(sigma->0) =     -119.82170674


--------------------------------------------------------------------------------------------------------




----------------------------------------- Iteration    1(  10)  ---------------------------------------


    POTLOK:  cpu time   14.68: real time   14.69
    SETDIJ:  cpu time    0.01: real time    0.01
     EDDAV:  cpu time   78.43: real time   78.59
       DOS:  cpu time    0.01: real time    0.01
    CHARGE:  cpu time    4.24: real time    4.26
    MIXING:  cpu time    0.01: real time    0.01
    --------------------------------------------
      LOOP:  cpu time   97.39: real time   97.59

 eigenvalue-minimisations  :  9136
 total energy-change (2. order) : 0.9638990E-02  (-0.4463272E-02)
 number of electron     107.9999994 magnetization 
 augmentation part       -9.3526829 magnetization 

 Broyden mixing:
  rms(total) = 0.18081E-01    rms(broyden)= 0.18079E-01
  rms(prec ) = 0.20814E-01
  weight for this iteration     100.00

 eigenvalues of (default mixing * dielectric matrix)
  average eigenvalue GAMMA=   1.4203
  2.6073  0.6523  1.4189  1.4189  1.0044

 Free energy of the ion-electron system (eV)
  ---------------------------------------------------
  alpha Z        PSCENC =        36.80884744
  Ewald energy   TEWEN  =     11995.99507851
  -Hartree energ DENC   =    -15122.35320462
  -exchange      EXHF   =         0.00000000
  -V(xc)+E(xc)   XCENC  =       -79.77017736
  PAW double counting   =      1170.66847301     -849.99110888
  entropy T*S    EENTRO =        -0.02914867
  eigenvalues    EBANDS =      -625.19667439
  atomic energy  EATOM  =      3354.04126044
  ---------------------------------------------------
  free energy    TOTEN  =      -119.82665451 eV

  energy without entropy =     -119.79750583  energy(sigma->0) =     -119.81208017


--------------------------------------------------------------------------------------------------------




----------------------------------------- Iteration    1(  11)  ---------------------------------------


    POTLOK:  cpu time   14.74: real time   14.79
    SETDIJ:  cpu time    0.01: real time    0.01
     EDDAV:  cpu time   78.49: real time   78.67
       DOS:  cpu time    0.01: real time    0.01
    CHARGE:  cpu time    4.27: real time    4.27
    MIXING:  cpu time    0.01: real time    0.01
    --------------------------------------------
      LOOP:  cpu time   97.54: real time   97.78

 eigenvalue-minimisations  :  9136
 total energy-change (2. order) : 0.8579015E-02  (-0.1023615E-02)
 number of electron     107.9999994 magnetization 
 augmentation part       -9.3533614 magnetization 

 Broyden mixing:
  rms(total) = 0.84472E-02    rms(broyden)= 0.84458E-02
  rms(prec ) = 0.10316E-01
  weight for this iteration     100.00

 eigenvalues of (default mixing * dielectric matrix)
  average eigenvalue GAMMA=   1.4392
  2.6627  1.8740  0.6604  1.2565  1.2565  0.9250

 Free energy of the ion-electron system (eV)
  ---------------------------------------------------
  alpha Z        PSCENC =        36.80884744
  Ewald energy   TEWEN  =     11995.99507851
  -Hartree energ DENC   =    -15124.13448048
  -exchange      EXHF   =         0.00000000
  -V(xc)+E(xc)   XCENC  =       -79.72471824
  PAW double counting   =      1169.56135123     -848.85483964
  entropy T*S    EENTRO =        -0.02929880
  eigenvalues    EBANDS =      -623.48127596
  atomic energy  EATOM  =      3354.04126044
  ---------------------------------------------------
  free energy    TOTEN  =      -119.81807549 eV

  energy without entropy =     -119.78877669  energy(sigma->0) =     -119.80342609


--------------------------------------------------------------------------------------------------------




----------------------------------------- Iteration    1(  12)  ---------------------------------------


    POTLOK:  cpu time   14.64: real time   14.67
    SETDIJ:  cpu time    0.01: real time    0.01
     EDDAV:  cpu time   79.87: real time   79.95
       DOS:  cpu time    0.01: real time    0.01
    CHARGE:  cpu time    4.25: real time    4.25
    MIXING:  cpu time    0.01: real time    0.01
    --------------------------------------------
      LOOP:  cpu time   98.80: real time   98.91

 eigenvalue-minimisations  :  9368
 total energy-change (2. order) : 0.6832074E-02  (-0.2281836E-03)
 number of electron     107.9999994 magnetization 
 augmentation part       -9.3539400 magnetization 

 Broyden mixing:
  rms(total) = 0.37254E-02    rms(broyden)= 0.37249E-02
  rms(prec ) = 0.53040E-02
  weight for this iteration     100.00

 eigenvalues of (default mixing * dielectric matrix)
  average eigenvalue GAMMA=   1.4232
  2.7025  2.0318  1.3376  1.3376  0.6637  0.9981  0.8913

 Free energy of the ion-electron system (eV)
  ---------------------------------------------------
  alpha Z        PSCENC =        36.80884744
  Ewald energy   TEWEN  =     11995.99507851
  -Hartree energ DENC   =    -15124.87941313
  -exchange      EXHF   =         0.00000000
  -V(xc)+E(xc)   XCENC  =       -79.72190238
  PAW double counting   =      1168.45399861     -847.71844395
  entropy T*S    EENTRO =        -0.02925178
  eigenvalues    EBANDS =      -622.76141717
  atomic energy  EATOM  =      3354.04126044
  ---------------------------------------------------
  free energy    TOTEN  =      -119.81124342 eV

  energy without entropy =     -119.78199164  energy(sigma->0) =     -119.79661753


--------------------------------------------------------------------------------------------------------




----------------------------------------- Iteration    1(  13)  ---------------------------------------


    POTLOK:  cpu time   14.65: real time   14.66
    SETDIJ:  cpu time    0.01: real time    0.01
     EDDAV:  cpu time   78.02: real time   78.28
       DOS:  cpu time    0.01: real time    0.01
    CHARGE:  cpu time    4.32: real time    4.33
    MIXING:  cpu time    0.01: real time    0.01
    --------------------------------------------
      LOOP:  cpu time   97.03: real time   97.31

 eigenvalue-minimisations  :  9104
 total energy-change (2. order) : 0.2710081E-02  (-0.5770772E-04)
 number of electron     107.9999994 magnetization 
 augmentation part       -9.3540357 magnetization 

 Broyden mixing:
  rms(total) = 0.23490E-02    rms(broyden)= 0.23488E-02
  rms(prec ) = 0.35348E-02
  weight for this iteration     100.00

 eigenvalues of (default mixing * dielectric matrix)
  average eigenvalue GAMMA=   1.4068
  2.7169  2.1358  1.3653  1.3653  1.3667  0.9200  0.6704  0.7142

 Free energy of the ion-electron system (eV)
  ---------------------------------------------------
  alpha Z        PSCENC =        36.80884744
  Ewald energy   TEWEN  =     11995.99507851
  -Hartree energ DENC   =    -15125.65580562
  -exchange      EXHF   =         0.00000000
  -V(xc)+E(xc)   XCENC  =       -79.71781425
  PAW double counting   =      1168.11081538     -847.36631355
  entropy T*S    EENTRO =        -0.02926254
  eigenvalues    EBANDS =      -621.99533914
  atomic energy  EATOM  =      3354.04126044
  ---------------------------------------------------
  free energy    TOTEN  =      -119.80853333 eV

  energy without entropy =     -119.77927079  energy(sigma->0) =     -119.79390206


--------------------------------------------------------------------------------------------------------




----------------------------------------- Iteration    1(  14)  ---------------------------------------


    POTLOK:  cpu time   14.64: real time   14.66
    SETDIJ:  cpu time    0.01: real time    0.01
     EDDAV:  cpu time   81.14: real time   81.21
       DOS:  cpu time    0.01: real time    0.01
    CHARGE:  cpu time    4.23: real time    4.24
    MIXING:  cpu time    0.01: real time    0.01
    --------------------------------------------
      LOOP:  cpu time  100.05: real time  100.15

 eigenvalue-minimisations  :  9520
 total energy-change (2. order) : 0.1624272E-02  (-0.1545916E-04)
 number of electron     107.9999994 magnetization 
 augmentation part       -9.3538325 magnetization 

 Broyden mixing:
  rms(total) = 0.13732E-02    rms(broyden)= 0.13731E-02
  rms(prec ) = 0.23102E-02
  weight for this iteration     100.00

 eigenvalues of (default mixing * dielectric matrix)
  average eigenvalue GAMMA=   1.4569
  2.8951  2.5864  1.7508  1.2607  1.2607  0.6645  0.9593  0.8673  0.8673

 Free energy of the ion-electron system (eV)
  ---------------------------------------------------
  alpha Z        PSCENC =        36.80884744
  Ewald energy   TEWEN  =     11995.99507851
  -Hartree energ DENC   =    -15126.49033721
  -exchange      EXHF   =         0.00000000
  -V(xc)+E(xc)   XCENC  =       -79.71389759
  PAW double counting   =      1167.92576279     -847.17683178
  entropy T*S    EENTRO =        -0.02926740
  eigenvalues    EBANDS =      -621.16752428
  atomic energy  EATOM  =      3354.04126044
  ---------------------------------------------------
  free energy    TOTEN  =      -119.80690906 eV

  energy without entropy =     -119.77764166  energy(sigma->0) =     -119.79227536


--------------------------------------------------------------------------------------------------------




----------------------------------------- Iteration    1(  15)  ---------------------------------------


    POTLOK:  cpu time   14.67: real time   14.69
    SETDIJ:  cpu time    0.01: real time    0.01
     EDDAV:  cpu time   80.58: real time   80.81
       DOS:  cpu time    0.01: real time    0.01
    CHARGE:  cpu time    4.25: real time    4.31
    MIXING:  cpu time    0.01: real time    0.01
    --------------------------------------------
      LOOP:  cpu time   99.53: real time   99.84

 eigenvalue-minimisations  :  9464
 total energy-change (2. order) : 0.8443490E-03  (-0.8429148E-05)
 number of electron     107.9999994 magnetization 
 augmentation part       -9.3536833 magnetization 

 Broyden mixing:
  rms(total) = 0.77222E-03    rms(broyden)= 0.77216E-03
  rms(prec ) = 0.13856E-02
  weight for this iteration     100.00

 eigenvalues of (default mixing * dielectric matrix)
  average eigenvalue GAMMA=   1.5195
  3.3970  2.6356  1.6887  1.6887  1.2502  1.2502  0.6644  0.9591  0.8305  0.8305

 Free energy of the ion-electron system (eV)
  ---------------------------------------------------
  alpha Z        PSCENC =        36.80884744
  Ewald energy   TEWEN  =     11995.99507851
  -Hartree energ DENC   =    -15127.26780405
  -exchange      EXHF   =         0.00000000
  -V(xc)+E(xc)   XCENC  =       -79.71019579
  PAW double counting   =      1167.79619999     -847.04428418
  entropy T*S    EENTRO =        -0.02926612
  eigenvalues    EBANDS =      -620.39590097
  atomic energy  EATOM  =      3354.04126044
  ---------------------------------------------------
  free energy    TOTEN  =      -119.80606471 eV

  energy without entropy =     -119.77679859  energy(sigma->0) =     -119.79143165


--------------------------------------------------------------------------------------------------------




----------------------------------------- Iteration    1(  16)  ---------------------------------------


    POTLOK:  cpu time   14.66: real time   14.68
    SETDIJ:  cpu time    0.01: real time    0.01
     EDDAV:  cpu time   73.75: real time   73.91
       DOS:  cpu time    0.01: real time    0.01
    CHARGE:  cpu time    4.28: real time    4.28
    MIXING:  cpu time    0.01: real time    0.01
    --------------------------------------------
      LOOP:  cpu time   92.73: real time   92.91

 eigenvalue-minimisations  :  8456
 total energy-change (2. order) :-0.1629042E-03  (-0.7893132E-05)
 number of electron     107.9999994 magnetization 
 augmentation part       -9.3536397 magnetization 

 Broyden mixing:
  rms(total) = 0.48890E-03    rms(broyden)= 0.48884E-03
  rms(prec ) = 0.84771E-03
  weight for this iteration     100.00

 eigenvalues of (default mixing * dielectric matrix)
  average eigenvalue GAMMA=   1.6175
  4.1999  2.6895  2.1325  1.7387  1.2565  1.2565  1.2300  0.6645  0.8506  0.8871
  0.8871

 Free energy of the ion-electron system (eV)
  ---------------------------------------------------
  alpha Z        PSCENC =        36.80884744
  Ewald energy   TEWEN  =     11995.99507851
  -Hartree energ DENC   =    -15127.90843796
  -exchange      EXHF   =         0.00000000
  -V(xc)+E(xc)   XCENC  =       -79.70698661
  PAW double counting   =      1167.77566707     -847.02335316
  entropy T*S    EENTRO =        -0.02926397
  eigenvalues    EBANDS =      -619.75903938
  atomic energy  EATOM  =      3354.04126044
  ---------------------------------------------------
  free energy    TOTEN  =      -119.80622762 eV

  energy without entropy =     -119.77696364  energy(sigma->0) =     -119.79159563


--------------------------------------------------------------------------------------------------------




----------------------------------------- Iteration    1(  17)  ---------------------------------------


    POTLOK:  cpu time   14.63: real time   14.66
    SETDIJ:  cpu time    0.01: real time    0.01
     EDDAV:  cpu time   73.59: real time   73.68
       DOS:  cpu time    0.01: real time    0.01
    CHARGE:  cpu time    4.24: real time    4.24
    MIXING:  cpu time    0.01: real time    0.01
    --------------------------------------------
      LOOP:  cpu time   92.50: real time   92.62

 eigenvalue-minimisations  :  8424
 total energy-change (2. order) :-0.6258641E-03  (-0.1242372E-04)
 number of electron     107.9999994 magnetization 
 augmentation part       -9.3535735 magnetization 

 Broyden mixing:
  rms(total) = 0.25834E-03    rms(broyden)= 0.25831E-03
  rms(prec ) = 0.47439E-03
  weight for this iteration     100.00

 eigenvalues of (default mixing * dielectric matrix)
  average eigenvalue GAMMA=   1.7053
  5.1666  2.8329  2.4531  1.6086  1.6086  1.2446  1.2446  0.6644  0.9618  0.9618
  0.8581  0.8581

 Free energy of the ion-electron system (eV)
  ---------------------------------------------------
  alpha Z        PSCENC =        36.80884744
  Ewald energy   TEWEN  =     11995.99507851
  -Hartree energ DENC   =    -15128.40902394
  -exchange      EXHF   =         0.00000000
  -V(xc)+E(xc)   XCENC  =       -79.70412262
  PAW double counting   =      1167.82262739     -847.07149314
  entropy T*S    EENTRO =        -0.02926325
  eigenvalues    EBANDS =      -619.26076431
  atomic energy  EATOM  =      3354.04126044
  ---------------------------------------------------
  free energy    TOTEN  =      -119.80685348 eV

  energy without entropy =     -119.77759023  energy(sigma->0) =     -119.79222186


--------------------------------------------------------------------------------------------------------




----------------------------------------- Iteration    1(  18)  ---------------------------------------


    POTLOK:  cpu time   14.67: real time   14.68
    SETDIJ:  cpu time    0.01: real time    0.01
     EDDAV:  cpu time   69.45: real time   69.59
       DOS:  cpu time    0.01: real time    0.01
    CHARGE:  cpu time    4.27: real time    4.27
    MIXING:  cpu time    0.01: real time    0.01
    --------------------------------------------
      LOOP:  cpu time   88.42: real time   88.59

 eigenvalue-minimisations  :  7792
 total energy-change (2. order) :-0.2546017E-03  (-0.7069773E-05)
 number of electron     107.9999994 magnetization 
 augmentation part       -9.3535293 magnetization 

 Broyden mixing:
  rms(total) = 0.16692E-03    rms(broyden)= 0.16690E-03
  rms(prec ) = 0.30697E-03
  weight for this iteration     100.00

 eigenvalues of (default mixing * dielectric matrix)
  average eigenvalue GAMMA=   1.7832
  5.8246  2.9530  2.6283  2.0719  1.4431  1.4431  1.2540  1.2540  0.6644  0.9708
  0.9708  0.8515  0.8515

 Free energy of the ion-electron system (eV)
  ---------------------------------------------------
  alpha Z        PSCENC =        36.80884744
  Ewald energy   TEWEN  =     11995.99507851
  -Hartree energ DENC   =    -15128.65693513
  -exchange      EXHF   =         0.00000000
  -V(xc)+E(xc)   XCENC  =       -79.70288295
  PAW double counting   =      1167.84758114     -847.09700704
  entropy T*S    EENTRO =        -0.02926358
  eigenvalues    EBANDS =      -619.01378691
  atomic energy  EATOM  =      3354.04126044
  ---------------------------------------------------
  free energy    TOTEN  =      -119.80710808 eV

  energy without entropy =     -119.77784450  energy(sigma->0) =     -119.79247629


--------------------------------------------------------------------------------------------------------




----------------------------------------- Iteration    1(  19)  ---------------------------------------


    POTLOK:  cpu time   14.66: real time   14.71
    SETDIJ:  cpu time    0.01: real time    0.01
     EDDAV:  cpu time   64.15: real time   64.31
       DOS:  cpu time    0.01: real time    0.01
    CHARGE:  cpu time    4.31: real time    4.31
    MIXING:  cpu time    0.01: real time    0.01
    --------------------------------------------
      LOOP:  cpu time   83.15: real time   83.36

 eigenvalue-minimisations  :  7032
 total energy-change (2. order) : 0.2577173E-04  (-0.2903811E-05)
 number of electron     107.9999994 magnetization 
 augmentation part       -9.3535218 magnetization 

 Broyden mixing:
  rms(total) = 0.10186E-03    rms(broyden)= 0.10186E-03
  rms(prec ) = 0.17708E-03
  weight for this iteration     100.00

 eigenvalues of (default mixing * dielectric matrix)
  average eigenvalue GAMMA=   1.8267
  6.2639  3.3169  2.6855  2.2724  1.5937  1.5937  1.2473  1.2473  0.6644  1.0285
  1.0285  0.9232  0.8541  0.8541

 Free energy of the ion-electron system (eV)
  ---------------------------------------------------
  alpha Z        PSCENC =        36.80884744
  Ewald energy   TEWEN  =     11995.99507851
  -Hartree energ DENC   =    -15128.83944824
  -exchange      EXHF   =         0.00000000
  -V(xc)+E(xc)   XCENC  =       -79.70223883
  PAW double counting   =      1167.83586060     -847.08486938
  entropy T*S    EENTRO =        -0.02926235
  eigenvalues    EBANDS =      -618.83231050
  atomic energy  EATOM  =      3354.04126044
  ---------------------------------------------------
  free energy    TOTEN  =      -119.80708231 eV

  energy without entropy =     -119.77781996  energy(sigma->0) =     -119.79245114


--------------------------------------------------------------------------------------------------------




----------------------------------------- Iteration    1(  20)  ---------------------------------------


    POTLOK:  cpu time   14.70: real time   14.73
    SETDIJ:  cpu time    0.01: real time    0.01
     EDDAV:  cpu time   62.05: real time   62.13
       DOS:  cpu time    0.01: real time    0.01
    CHARGE:  cpu time    4.25: real time    4.26
    MIXING:  cpu time    0.01: real time    0.01
    --------------------------------------------
      LOOP:  cpu time   81.05: real time   81.16

 eigenvalue-minimisations  :  6712
 total energy-change (2. order) :-0.9862206E-06  (-0.1392479E-05)
 number of electron     107.9999994 magnetization 
 augmentation part       -9.3535173 magnetization 

 Broyden mixing:
  rms(total) = 0.72270E-04    rms(broyden)= 0.72264E-04
  rms(prec ) = 0.11902E-03
  weight for this iteration     100.00

 eigenvalues of (default mixing * dielectric matrix)
  average eigenvalue GAMMA=   1.8410
  6.6985  3.4510  2.7295  2.3046  1.6388  1.6388  1.2622  1.2622  0.6644  1.1909
  1.0831  1.0831  0.8538  0.8538  0.9006

 Free energy of the ion-electron system (eV)
  ---------------------------------------------------
  alpha Z        PSCENC =        36.80884744
  Ewald energy   TEWEN  =     11995.99507851
  -Hartree energ DENC   =    -15128.89229233
  -exchange      EXHF   =         0.00000000
  -V(xc)+E(xc)   XCENC  =       -79.70218022
  PAW double counting   =      1167.83176386     -847.08066552
  entropy T*S    EENTRO =        -0.02926247
  eigenvalues    EBANDS =      -618.77963300
  atomic energy  EATOM  =      3354.04126044
  ---------------------------------------------------
  free energy    TOTEN  =      -119.80708330 eV

  energy without entropy =     -119.77782082  energy(sigma->0) =     -119.79245206


--------------------------------------------------------------------------------------------------------




----------------------------------------- Iteration    1(  21)  ---------------------------------------


    POTLOK:  cpu time   14.72: real time   14.73
    SETDIJ:  cpu time    0.01: real time    0.01
     EDDAV:  cpu time   61.40: real time   61.46
       DOS:  cpu time    0.01: real time    0.01
    CHARGE:  cpu time    4.27: real time    4.27
    MIXING:  cpu time    0.01: real time    0.02
    --------------------------------------------
      LOOP:  cpu time   80.42: real time   80.51

 eigenvalue-minimisations  :  6592
 total energy-change (2. order) : 0.1545745E-04  (-0.8647800E-06)
 number of electron     107.9999994 magnetization 
 augmentation part       -9.3535144 magnetization 

 Broyden mixing:
  rms(total) = 0.46811E-04    rms(broyden)= 0.46808E-04
  rms(prec ) = 0.79087E-04
  weight for this iteration     100.00

 eigenvalues of (default mixing * dielectric matrix)
  average eigenvalue GAMMA=   1.9285
  6.9704  4.4515  2.8327  2.5753  1.6901  1.6901  1.5007  1.2435  1.2435  1.3553
  0.6644  1.0163  1.0163  0.8543  0.8543  0.8979

 Free energy of the ion-electron system (eV)
  ---------------------------------------------------
  alpha Z        PSCENC =        36.80884744
  Ewald energy   TEWEN  =     11995.99507851
  -Hartree energ DENC   =    -15128.92657389
  -exchange      EXHF   =         0.00000000
  -V(xc)+E(xc)   XCENC  =       -79.70211156
  PAW double counting   =      1167.82859470     -847.07743390
  entropy T*S    EENTRO =        -0.02926253
  eigenvalues    EBANDS =      -618.74546706
  atomic energy  EATOM  =      3354.04126044
  ---------------------------------------------------
  free energy    TOTEN  =      -119.80706784 eV

  energy without entropy =     -119.77780531  energy(sigma->0) =     -119.79243658


--------------------------------------------------------------------------------------------------------




----------------------------------------- Iteration    1(  22)  ---------------------------------------


    POTLOK:  cpu time   14.66: real time   14.68
    SETDIJ:  cpu time    0.01: real time    0.01
     EDDAV:  cpu time   58.50: real time   58.57
       DOS:  cpu time    0.01: real time    0.01
    CHARGE:  cpu time    4.22: real time    4.22
    MIXING:  cpu time    0.02: real time    0.02
    --------------------------------------------
      LOOP:  cpu time   77.42: real time   77.52

 eigenvalue-minimisations  :  6152
 total energy-change (2. order) : 0.3150725E-04  (-0.8725074E-06)
 number of electron     107.9999994 magnetization 
 augmentation part       -9.3535160 magnetization 

 Broyden mixing:
  rms(total) = 0.28249E-04    rms(broyden)= 0.28248E-04
  rms(prec ) = 0.44326E-04
  weight for this iteration     100.00

 eigenvalues of (default mixing * dielectric matrix)
  average eigenvalue GAMMA=   1.9582
  7.5084  4.7352  2.9808  2.5991  2.0254  1.6886  1.2600  1.2600  1.3722  1.3722
  0.6644  1.2097  0.8522  0.8522  0.8823  1.0136  1.0136

 Free energy of the ion-electron system (eV)
  ---------------------------------------------------
  alpha Z        PSCENC =        36.80884744
  Ewald energy   TEWEN  =     11995.99507851
  -Hartree energ DENC   =    -15128.94026208
  -exchange      EXHF   =         0.00000000
  -V(xc)+E(xc)   XCENC  =       -79.70218784
  PAW double counting   =      1167.82621086     -847.07500442
  entropy T*S    EENTRO =        -0.02926254
  eigenvalues    EBANDS =      -618.73171672
  atomic energy  EATOM  =      3354.04126044
  ---------------------------------------------------
  free energy    TOTEN  =      -119.80703633 eV

  energy without entropy =     -119.77777380  energy(sigma->0) =     -119.79240507


--------------------------------------------------------------------------------------------------------




----------------------------------------- Iteration    1(  23)  ---------------------------------------


    POTLOK:  cpu time   14.68: real time   14.72
    SETDIJ:  cpu time    0.01: real time    0.01
     EDDAV:  cpu time   58.53: real time   58.75
       DOS:  cpu time    0.01: real time    0.01
    CHARGE:  cpu time    4.24: real time    4.25
    MIXING:  cpu time    0.02: real time    0.02
    --------------------------------------------
      LOOP:  cpu time   77.50: real time   77.76

 eigenvalue-minimisations  :  6176
 total energy-change (2. order) : 0.2332864E-04  (-0.2876311E-06)
 number of electron     107.9999994 magnetization 
 augmentation part       -9.3535153 magnetization 

 Broyden mixing:
  rms(total) = 0.18435E-04    rms(broyden)= 0.18434E-04
  rms(prec ) = 0.26436E-04
  weight for this iteration     100.00

 eigenvalues of (default mixing * dielectric matrix)
  average eigenvalue GAMMA=   2.0602
  7.6935  5.9644  3.3199  2.7608  2.4358  1.6878  1.6165  1.6165  1.2515  1.2515
  0.6644  1.2017  1.0403  1.0403  0.8526  0.8526  0.9705  0.8631

 Free energy of the ion-electron system (eV)
  ---------------------------------------------------
  alpha Z        PSCENC =        36.80884744
  Ewald energy   TEWEN  =     11995.99507851
  -Hartree energ DENC   =    -15128.95127640
  -exchange      EXHF   =         0.00000000
  -V(xc)+E(xc)   XCENC  =       -79.70216586
  PAW double counting   =      1167.82677898     -847.07559790
  entropy T*S    EENTRO =        -0.02926270
  eigenvalues    EBANDS =      -618.72067552
  atomic energy  EATOM  =      3354.04126044
  ---------------------------------------------------
  free energy    TOTEN  =      -119.80701300 eV

  energy without entropy =     -119.77775031  energy(sigma->0) =     -119.79238166


[...]
     31      -4.1196      2.00000
     32      -3.8980      2.00000
     33      -3.7746      2.00000
     34      -3.4658      2.00000
     35      -3.3952      2.00000
     36      -3.3191      2.00000
     37      -3.2355      2.00000
     38      -3.0440      2.00000
     39      -2.8592      2.00000
     40      -2.7606      2.00000
     41      -2.7086      2.00000
     42      -2.6313      2.00000
     43      -2.3535      2.00000
     44      -2.1836      2.00000
     45      -2.0855      2.00000
     46      -1.9902      2.00000
     47      -1.9388      2.00000
     48      -1.7162      2.00000
     49      -1.5526      2.00000
     50      -1.2419      2.00000
     51      -1.0767      2.00000
     52      -0.9368      2.00000
     53      -0.1223      2.00000
     54       0.1467      1.99985
     55       0.7054      0.00004
     56       1.0538      0.00000
     57       1.2185      0.00000
     58       1.3703      0.00000
     59       1.5047      0.00000
     60       1.9338      0.00000
     61       2.1248      0.00000
     62       2.2069      0.00000
     63       2.4031      0.00000
     64       2.5454      0.00000
     65       2.7014      0.00000
     66       2.8483      0.00000
     67       2.9650      0.00000
     68       3.0621      0.00000

 k-point    52 :       0.3077    0.5000    0.5000
  band No.  band energies     occupation 
      1     -14.1637      2.00000
      2     -12.6879      2.00000
      3     -12.3339      2.00000
      4     -11.9893      2.00000
      5     -11.8297      2.00000
      6     -11.5599      2.00000
      7     -11.1928      2.00000
      8     -10.9822      2.00000
      9     -10.9519      2.00000
     10     -10.5679      2.00000
     11     -10.4227      2.00000
     12      -9.9949      2.00000
     13      -9.0980      2.00000
     14      -8.6883      2.00000
     15      -7.9736      2.00000
     16      -7.9339      2.00000
     17      -7.3804      2.00000
     18      -7.2373      2.00000
     19      -7.1487      2.00000
     20      -6.7293      2.00000
     21      -6.4693      2.00000
     22      -6.3476      2.00000
     23      -6.1083      2.00000
     24      -5.9358      2.00000
     25      -5.5297      2.00000
     26      -5.1264      2.00000
     27      -5.0714      2.00000
     28      -4.9134      2.00000
     29      -4.6514      2.00000
     30      -4.4981      2.00000
     31      -4.2494      2.00000
     32      -4.1140      2.00000
     33      -3.9691      2.00000
     34      -3.6299      2.00000
     35      -3.4322      2.00000
     36      -3.3515      2.00000
     37      -3.2486      2.00000
     38      -3.1546      2.00000
     39      -3.0591      2.00000
     40      -2.8767      2.00000
     41      -2.7013      2.00000
     42      -2.6314      2.00000
     43      -2.4790      2.00000
     44      -2.4194      2.00000
     45      -2.1784      2.00000
     46      -2.1217      2.00000
     47      -2.0322      2.00000
     48      -1.9786      2.00000
     49      -1.9006      2.00000
     50      -1.5531      2.00000
     51      -1.3758      2.00000
     52      -0.9177      2.00000
     53      -0.2854      2.00000
     54      -0.1260      2.00000
     55       0.5325      0.09426
     56       1.0160      0.00000
     57       1.1451      0.00000
     58       1.2161      0.00000
     59       1.3445      0.00000
     60       1.8313      0.00000
     61       1.9911      0.00000
     62       2.1017      0.00000
     63       2.1531      0.00000
     64       2.2710      0.00000
     65       2.3336      0.00000
     66       2.3700      0.00000
     67       2.6353      0.00000
     68       2.8105      0.00000

 k-point    53 :       0.3846    0.5000    0.5000
  band No.  band energies     occupation 
      1     -13.8082      2.00000
      2     -12.2112      2.00000
      3     -11.8371      2.00000
      4     -11.5280      2.00000
      5     -11.4348      2.00000
      6     -11.2739      2.00000
      7     -10.9500      2.00000
      8     -10.8491      2.00000
      9     -10.7874      2.00000
     10     -10.6344      2.00000
     11     -10.2490      2.00000
     12      -9.9205      2.00000
     13      -9.0824      2.00000
     14      -8.7381      2.00000
     15      -8.4291      2.00000
     16      -8.2037      2.00000
     17      -7.8674      2.00000
     18      -7.7867      2.00000
     19      -7.5684      2.00000
     20      -6.9994      2.00000
     21      -6.9289      2.00000
     22      -6.8900      2.00000
     23      -6.8325      2.00000
     24      -6.3395      2.00000
     25      -5.4736      2.00000
     26      -5.2518      2.00000
     27      -4.9523      2.00000
     28      -4.8451      2.00000
     29      -4.6770      2.00000
     30      -4.3138      2.00000
     31      -4.2421      2.00000
     32      -4.2081      2.00000
     33      -3.8980      2.00000
     34      -3.7576      2.00000
     35      -3.7025      2.00000
     36      -3.3883      2.00000
     37      -3.3209      2.00000
     38      -3.2294      2.00000
     39      -3.1605      2.00000
     40      -3.0559      2.00000
     41      -2.8124      2.00000
     42      -2.6966      2.00000
     43      -2.5648      2.00000
     44      -2.4605      2.00000
     45      -2.3190      2.00000
     46      -2.2770      2.00000
     47      -2.2281      2.00000
     48      -2.2043      2.00000
     49      -2.0304      2.00000
     50      -1.7491      2.00000
     51      -1.5718      2.00000
     52      -0.9316      2.00000
     53      -0.4627      2.00000
     54      -0.1808      2.00000
     55       0.4021      1.13507
     56       1.0421      0.00000
     57       1.1450      0.00000
     58       1.2614      0.00000
     59       1.3470      0.00000
     60       1.6811      0.00000
     61       1.7714      0.00000
     62       1.8157      0.00000
     63       1.9564      0.00000
     64       1.9953      0.00000
     65       2.0903      0.00000
     66       2.2177      0.00000
     67       2.2570      0.00000
     68       2.5349      0.00000

 k-point    54 :       0.4615    0.5000    0.5000
  band No.  band energies     occupation 
      1     -13.5456      2.00000
      2     -11.6687      2.00000
      3     -11.3396      2.00000
      4     -11.2895      2.00000
      5     -11.1411      2.00000
      6     -11.0272      2.00000
      7     -11.0181      2.00000
      8     -10.8939      2.00000
      9     -10.7941      2.00000
     10     -10.7571      2.00000
     11     -10.4053      2.00000
     12      -9.6647      2.00000
     13      -8.8380      2.00000
     14      -8.7494      2.00000
     15      -8.6213      2.00000
     16      -8.5187      2.00000
     17      -8.2940      2.00000
     18      -7.9512      2.00000
     19      -7.7448      2.00000
     20      -7.4713      2.00000
     21      -7.3994      2.00000
     22      -7.3378      2.00000
     23      -7.3085      2.00000
     24      -6.3333      2.00000
     25      -5.3350      2.00000
     26      -5.1182      2.00000
     27      -4.9868      2.00000
     28      -4.6471      2.00000
     29      -4.4765      2.00000
     30      -4.3164      2.00000
     31      -4.2191      2.00000
     32      -4.1180      2.00000
     33      -3.9358      2.00000
     34      -3.8098      2.00000
     35      -3.7400      2.00000
     36      -3.5672      2.00000
     37      -3.4324      2.00000
     38      -3.3358      2.00000
     39      -3.2067      2.00000
     40      -3.1268      2.00000
     41      -2.9780      2.00000
     42      -2.8607      2.00000
     43      -2.7387      2.00000
     44      -2.5996      2.00000
     45      -2.5177      2.00000
     46      -2.3442      2.00000
     47      -2.2582      2.00000
     48      -2.1284      2.00000
     49      -1.9132      2.00000
     50      -1.7923      2.00000
     51      -1.6770      2.00000
     52      -0.9991      2.00000
     53      -0.5106      2.00000
     54      -0.1431      2.00000
     55       0.2856      1.93093
     56       1.0585      0.00000
     57       1.1518      0.00000
     58       1.2500      0.00000
     59       1.4130      0.00000
     60       1.5392      0.00000
     61       1.5980      0.00000
     62       1.7563      0.00000
     63       1.8691      0.00000
     64       1.9320      0.00000
     65       1.9960      0.00000
     66       2.0520      0.00000
     67       2.2406      0.00000
     68       2.3993      0.00000


--------------------------------------------------------------------------------------------------------


 soft charge-density along one line, spin component           1
         0         1         2         3         4         5         6         7         8         9
 total charge-density along one line
 
 pseudopotential strength for first ion, spin component:           1
 29.828   0.008  -0.001  -0.022  -0.000  -0.000  -0.001   0.000
  0.008   0.009   0.000  -0.000   0.000  -0.000   0.000  -0.000
 -0.001   0.000   6.558  -0.001  -0.000  -0.003   0.000   0.000
 -0.022  -0.000  -0.001   6.553  -0.000   0.000  -0.003   0.000
 -0.000   0.000  -0.000  -0.000   6.559   0.000   0.000  -0.003
 -0.000  -0.000  -0.003   0.000   0.000   0.015  -0.000  -0.000
 -0.001   0.000   0.000  -0.003   0.000  -0.000   0.015   0.000
  0.000  -0.000   0.000   0.000  -0.003  -0.000   0.000   0.015
 total augmentation occupancy for first ion, spin component:           1
  1.805  -0.383   0.006   0.249  -0.000   0.000   0.110  -0.001
 -0.383   1.243   0.017   0.834  -0.001   0.003  -0.436  -0.000
  0.006   0.017   1.148   0.013   0.000  -0.504   0.012  -0.000
  0.249   0.834   0.013   1.300   0.001   0.011  -0.424  -0.001
 -0.000  -0.001   0.000   0.001   1.149  -0.000  -0.001  -0.530
  0.000   0.003  -0.504   0.011  -0.000   0.292  -0.014   0.000
  0.110  -0.436   0.012  -0.424  -0.001  -0.014   0.229   0.000
 -0.001  -0.000  -0.000  -0.001  -0.530   0.000   0.000   0.328


------------------------ aborting loop because EDIFF is reached ----------------------------------------


    CHARGE:  cpu time    4.27: real time    4.27
    FORLOC:  cpu time    0.06: real time    0.06
    FORNL :  cpu time   23.73: real time   23.82
    STRESS:  cpu time   74.01: real time   74.13
    FORCOR:  cpu time   15.46: real time   15.48
    FORHAR:  cpu time    0.15: real time    0.15
    MIXING:  cpu time    0.02: real time    0.02
    OFIELD:  cpu time    0.00: real time    0.00

  FORCE on cell =-STRESS in cart. coord.  units (eV):
  Direction    XX          YY          ZZ          XY          YZ          ZX
  --------------------------------------------------------------------------------------
  Alpha Z    36.80885    36.80885    36.80885
  Ewald   14495.10563 13895.69531-16394.81348    32.49815    20.90069   -41.35341
  Hartree 14969.79766 14568.73130-14409.57714     6.09244    12.06792    -0.50583
  E(xc)    -358.17325  -357.85359  -356.34812    -0.07789     0.24729     0.29225
  Local  -31011.31638-30029.42400 29219.03873   -33.62675   -33.71295    31.85765
  n-local  1166.82647  1157.11943  1150.42223     4.85325    -4.45180   -12.30149
  augment  -202.58830  -203.21840  -204.73542    -0.09725     0.06052    -0.09856
  Kinetic   929.61693   938.58588   975.63255     0.57358     0.75074     9.37302
  Fock        0.00000     0.00000     0.00000     0.00000     0.00000     0.00000
  -------------------------------------------------------------------------------------
  Total      26.07761     6.44477    16.42820    10.21552    -4.13759   -12.73636
  in kB      41.68424    10.30177    26.25996    16.32919    -6.61380   -20.35868
  external pressure =       26.08 kB  Pullay stress =        0.00 kB


 VOLUME and BASIS-vectors are now :
 -----------------------------------------------------------------------------
  energy-cutoff  :      300.00
  volume of cell :     1002.32
      direct lattice vectors                 reciprocal lattice vectors
     3.540400000  0.000000000  0.000000000     0.282453960  0.048570342  0.000000000
    -1.770200000 10.294348000  0.000000000     0.000000000  0.097140683  0.000000000
     0.000000000  0.000000000 27.501429000     0.000000000  0.000000000  0.036361747

  length of vectors
     3.540400000 10.445439617 27.501429000     0.286599577  0.097140683  0.036361747


 FORCES acting on ions
    electron-ion (+dipol)            ewald-force                    non-local-force                 convergence-correction
 -----------------------------------------------------------------------------------------------
   0.407E-01 0.117E+02 0.315E+02   0.174E-01 -.115E+02 -.271E+02   -.256E-01 -.293E+00 -.439E+01   0.664E-08 -.685E-06 0.440E-05
   0.242E+00 0.125E+02 -.554E+03   -.166E-01 -.126E+02 0.557E+03   -.160E+00 0.143E+00 -.351E+01   0.537E-06 0.101E-04 -.630E-05
   -.648E-02 0.645E+02 0.460E+02   0.677E-04 -.661E+02 -.416E+02   0.575E-02 0.161E+01 -.421E+01   0.458E-07 -.398E-05 0.141E-04
   -.345E+00 0.174E+02 -.526E+03   0.896E+00 -.185E+02 0.530E+03   -.203E+00 0.113E+01 -.334E+01   0.573E-06 0.477E-05 -.113E-04
   0.337E-03 -.576E+02 0.526E+03   0.970E-04 0.592E+02 -.531E+03   0.544E-04 -.154E+01 0.428E+01   -.113E-06 -.728E-05 0.345E-05
   -.663E+01 -.112E+03 -.551E+02   0.734E+01 0.115E+03 0.536E+02   -.131E+01 -.281E+01 0.199E+01   0.225E-06 -.117E-05 -.529E-05
   0.186E-02 0.542E+02 0.526E+03   0.183E-04 -.561E+02 -.530E+03   0.177E-03 0.194E+01 0.416E+01   -.234E-07 0.460E-05 0.107E-04
   0.189E+00 0.112E+03 -.818E+02   -.586E+00 -.115E+03 0.798E+02   -.342E+00 0.328E+01 0.252E+01   0.134E-05 0.985E-06 0.345E-05
   -.130E-03 0.184E+01 0.573E+03   -.893E-04 -.204E+01 -.577E+03   0.137E-02 0.201E+00 0.479E+01   0.218E-07 0.572E-05 -.784E-07
   0.747E+01 0.147E+01 0.251E+02   -.714E+01 -.244E+01 -.263E+02   -.133E+01 0.478E+00 -.228E+00   0.401E-05 -.146E-05 0.747E-05
   0.394E-03 -.671E+02 0.603E+02   -.539E-02 0.690E+02 -.560E+02   0.415E-02 -.196E+01 -.411E+01   0.251E-07 0.533E-05 0.811E-05
   -.551E+00 -.351E+02 -.553E+03   0.741E+00 0.371E+02 0.556E+03   0.303E+00 -.159E+01 -.274E+01   -.343E-06 -.106E-04 -.126E-04
   0.102E-01 0.311E+02 0.208E+03   -.508E-04 -.332E+02 -.208E+03   -.729E-02 0.212E+01 0.321E+00   0.107E-07 0.190E-05 0.113E-04
   0.112E+02 -.447E+02 -.269E+03   -.983E+01 0.437E+02 0.269E+03   -.139E+01 0.172E+01 -.102E+01   -.738E-06 -.249E-05 -.830E-05
   0.966E-02 -.129E+02 0.140E+03   0.196E-02 0.132E+02 -.143E+03   -.954E-02 -.281E+00 0.254E+01   -.315E-08 0.259E-05 0.313E-05
   0.429E+01 0.221E+02 -.336E+03   -.360E+01 -.226E+02 0.335E+03   -.542E+00 0.281E-01 0.870E+00   0.114E-06 -.330E-05 -.382E-05
   -.685E-02 -.537E+01 0.346E+03   0.977E-04 0.580E+01 -.344E+03   0.293E-02 -.446E+00 -.253E+01   -.166E-07 -.939E-06 0.488E-05
   -.398E+02 -.445E+02 -.955E+02   0.383E+02 0.453E+02 0.999E+02   0.206E+02 0.816E+01 -.199E+02   -.196E-05 -.440E-05 0.281E-05
   0.264E-02 0.103E+02 0.335E+03   -.224E-04 -.105E+02 -.333E+03   -.435E-03 0.204E+00 -.237E+01   0.674E-08 0.570E-05 0.892E-05
   -.106E+01 0.573E+02 -.140E+03   0.946E+00 -.602E+02 0.139E+03   -.390E+00 0.299E+00 -.493E+00   0.301E-06 -.153E-05 0.491E-05
   -.428E-01 0.129E+02 0.127E+03   -.101E-02 -.135E+02 -.130E+03   0.407E-01 0.560E+00 0.266E+01   -.316E-07 0.167E-05 0.373E-05
   -.106E+00 0.844E+01 -.297E+03   -.377E-01 -.762E+01 0.295E+03   0.175E+00 -.562E+00 0.175E+01   -.826E-07 0.116E-04 -.152E-05
   -.129E-02 -.321E+02 0.254E+03   -.167E-03 0.342E+02 -.253E+03   0.267E-02 -.212E+01 -.348E+00   0.243E-07 -.833E-05 0.969E-05
   0.322E+02 -.535E+01 -.285E+03   -.271E+02 0.958E+01 0.285E+03   -.225E+02 -.110E+02 0.171E+02   0.168E-05 -.639E-05 -.386E-05
 -----------------------------------------------------------------------------------------------
   0.711E+01 0.685E+00 0.615E+01   -.178E-13 0.213E-13 -.568E-13   -.710E+01 -.685E+00 -.614E+01   0.561E-05 0.246E-05 0.479E-04
 
 
 POSITION                                       TOTAL-FORCE (eV/Angst)
 -----------------------------------------------------------------------------------
      0.00000      2.34757      6.41229         0.032165     -0.014312      0.005640
     -1.23914      9.55362     14.16300         0.065249      0.073240     -0.010715
     -0.00000      9.43147      5.75866        -0.000934     -0.012830      0.111680
      0.53106      6.34316     13.50937         0.347745      0.029495      0.599477
     -0.00000      6.40009      2.31424         0.000221     -0.005076      0.006004
     -0.00000      6.40009     10.06495        -0.592835     -0.580899      0.487277
      1.77020     10.27849      2.37372         0.001786      0.016025      0.011126
      1.77020     10.27849     10.12443        -0.739268      0.402883      0.490511
      1.77020      3.18974      1.66157         0.000887     -0.003336      0.000734
      1.77020      3.18974      9.41228        -1.006888     -0.494743     -1.456738
      1.77020      5.55354      5.69975        -0.001122      0.004696      0.110886
      2.30126      2.46524     13.45047         0.491809      0.423063      0.282231
      1.77020      9.05319      4.34076         0.002600      0.000365      0.013925
      2.30126      5.96488     12.09147        -0.006374      0.776608     -1.149156
      0.00000      4.22380      5.10944         0.001810      0.067368     -0.000800
      0.53106      1.13550     12.86016         0.152984     -0.474991      0.134203
     -0.00000      4.15582      2.74166        -0.004081     -0.012512     -0.015965
     -0.00000      4.15582     10.49237        19.137168      8.938616    -15.486077
      1.77020      1.31366      2.96438         0.001913      0.021364     -0.046428
      1.77020      1.31366     10.71510        -0.501117     -2.600548     -1.266102
      1.77020      1.38163      5.33187        -0.003411     -0.083429      0.051176
      0.53106      8.58767     13.08259         0.031108      0.256861     -0.243180
      1.77020      6.77850      3.73234         0.000949     -0.006019      0.000143
      2.30126      3.69019     11.48306       -17.412363     -6.721889     17.370145
 -----------------------------------------------------------------------------------
    total drift:                                0.006419     -0.000334      0.003854


--------------------------------------------------------------------------------------------------------



  FREE ENERGIE OF THE ION-ELECTRON SYSTEM (eV)
  ---------------------------------------------------
  free  energy   TOTEN  =      -119.80693977 eV

  energy  without entropy=     -119.77767694  energy(sigma->0) =     -119.79230836
 


--------------------------------------------------------------------------------------------------------


    POTLOK:  cpu time   15.43: real time   15.44


--------------------------------------------------------------------------------------------------------


     LOOP+:  cpu time 2514.34: real time 2518.85
    4ORBIT:  cpu time    0.00: real time    0.00

 total amount of memory used by VASP on root node   146493. kBytes
========================================================================

   base      :      30000. kBytes
   nonlr-proj:       3452. kBytes
   fftplans  :       9347. kBytes
   grid      :      14649. kBytes
   one-center:         36. kBytes
   wavefun   :      89009. kBytes
 
  
  
 General timing and accounting informations for this job:
 ========================================================
  
                  Total CPU time used (sec):     2530.249
                            User time (sec):     2491.048
                          System time (sec):       39.201
                         Elapsed time (sec):     2535.950
  
                   Maximum memory used (kb):      335072.
                   Average memory used (kb):           0.
  
                          Minor page faults:      7986601
                          Major page faults:           14
                 Voluntary context switches:         1560
