  24  24   0   0
  0.4176334E+02  0.3540400E-09  0.1044544E-08  0.2750143E-08  0.5000000E-15
  1.000000000000000E-004
  CAR 
 unknown system                          
      4.21433499    -15.76561480  301      0.06390955      1.00000000
    -15.766  0.0000E+00  0.0000E+00
    -15.699  0.0000E+00  0.0000E+00
    -15.632  0.0000E+00  0.0000E+00
    -15.566  0.0000E+00  0.0000E+00
    -15.499  0.0000E+00  0.0000E+00
    -15.433  0.0000E+00  0.0000E+00
    -15.366  0.0000E+00  0.0000E+00
    -15.299  0.3925E-13  0.2614E-14
    -15.233  0.3619E-10  0.2413E-11
    -15.166  0.1405E-07  0.9380E-09
    -15.100  0.2314E-05  0.1550E-06
    -15.033  0.1638E-03  0.1106E-04
    -14.966  0.5087E-02  0.3498E-03
    -14.900  0.7137E-01  0.5103E-02
    -14.833  0.4694E+00  0.3637E-01
    -14.767  0.1499E+01  0.1362E+00
    -14.700  0.2402E+01  0.2962E+00
    -14.633  0.2194E+01  0.4423E+00
    -14.567  0.1884E+01  0.5678E+00
    -14.500  0.1768E+01  0.6856E+00
    -14.434  0.1043E+01  0.7550E+00
    -14.367  0.6743E+00  0.7999E+00
    -14.300  0.1293E+01  0.8860E+00
    -14.234  0.1654E+01  0.9962E+00
    -14.167  0.9497E+00  0.1059E+01
    -14.101  0.2773E+00  0.1078E+01
    -14.034  0.3421E+00  0.1101E+01
    -13.967  0.1100E+01  0.1174E+01
    -13.901  0.1674E+01  0.1285E+01
    -13.834  0.1118E+01  0.1360E+01
    -13.768  0.3341E+00  0.1382E+01
    -13.701  0.1424E+00  0.1392E+01
    -13.634  0.6582E+00  0.1435E+01
    -13.568  0.1990E+01  0.1568E+01
    -13.501  0.3051E+01  0.1771E+01
    -13.435  0.2840E+01  0.1960E+01
    -13.368  0.2435E+01  0.2122E+01
    -13.301  0.2911E+01  0.2316E+01
    -13.235  0.3447E+01  0.2546E+01
    -13.168  0.2816E+01  0.2734E+01
    -13.102  0.1869E+01  0.2858E+01
    -13.035  0.1921E+01  0.2986E+01
    -12.968  0.2847E+01  0.3176E+01
    -12.902  0.3775E+01  0.3427E+01
    -12.835  0.4236E+01  0.3709E+01
    -12.769  0.4010E+01  0.3976E+01
    -12.702  0.3617E+01  0.4217E+01
    -12.635  0.4130E+01  0.4492E+01
    -12.569  0.4831E+01  0.4814E+01
    -12.502  0.4769E+01  0.5132E+01
    -12.436  0.4637E+01  0.5440E+01
    -12.369  0.4598E+01  0.5747E+01
    -12.302  0.4605E+01  0.6053E+01
    -12.236  0.4772E+01  0.6371E+01
    -12.169  0.5383E+01  0.6730E+01
    -12.103  0.6800E+01  0.7182E+01
    -12.036  0.9057E+01  0.7786E+01
    -11.969  0.9932E+01  0.8447E+01
    -11.903  0.7647E+01  0.8956E+01
    -11.836  0.5526E+01  0.9324E+01
    -11.770  0.5766E+01  0.9708E+01
    -11.703  0.7435E+01  0.1020E+02
    -11.636  0.9178E+01  0.1081E+02
    -11.570  0.9808E+01  0.1147E+02
    -11.503  0.9201E+01  0.1208E+02
    -11.437  0.7964E+01  0.1261E+02
    -11.370  0.8100E+01  0.1315E+02
    -11.303  0.1033E+02  0.1384E+02
    -11.237  0.1098E+02  0.1457E+02
    -11.170  0.8679E+01  0.1515E+02
    -11.104  0.6998E+01  0.1561E+02
    -11.037  0.8631E+01  0.1619E+02
    -10.970  0.1144E+02  0.1695E+02
    -10.904  0.1120E+02  0.1770E+02
    -10.837  0.9822E+01  0.1835E+02
    -10.771  0.9856E+01  0.1901E+02
    -10.704  0.1027E+02  0.1969E+02
    -10.637  0.1082E+02  0.2041E+02
    -10.571  0.9542E+01  0.2105E+02
    -10.504  0.6211E+01  0.2146E+02
    -10.438  0.4119E+01  0.2173E+02
    -10.371  0.2679E+01  0.2191E+02
    -10.304  0.1066E+01  0.2198E+02
    -10.238  0.2142E+00  0.2200E+02
    -10.171  0.4363E-01  0.2200E+02
    -10.105  0.2180E+00  0.2202E+02
    -10.038  0.1007E+01  0.2208E+02
     -9.971  0.2500E+01  0.2225E+02
     -9.905  0.3808E+01  0.2250E+02
     -9.838  0.4875E+01  0.2283E+02
     -9.772  0.6524E+01  0.2326E+02
     -9.705  0.6502E+01  0.2370E+02
     -9.638  0.3521E+01  0.2393E+02
     -9.572  0.9352E+00  0.2399E+02
     -9.505  0.1903E+00  0.2400E+02
     -9.439  0.4821E+00  0.2404E+02
     -9.372  0.1335E+01  0.2413E+02
     -9.305  0.1769E+01  0.2424E+02
     -9.239  0.1556E+01  0.2435E+02
     -9.172  0.1674E+01  0.2446E+02
     -9.106  0.1611E+01  0.2457E+02
     -9.039  0.1310E+01  0.2465E+02
     -8.972  0.1801E+01  0.2477E+02
     -8.906  0.2872E+01  0.2496E+02
     -8.839  0.4106E+01  0.2524E+02
     -8.773  0.5339E+01  0.2559E+02
     -8.706  0.6273E+01  0.2601E+02
     -8.639  0.7086E+01  0.2648E+02
     -8.573  0.7665E+01  0.2699E+02
     -8.506  0.7037E+01  0.2746E+02
     -8.440  0.5699E+01  0.2784E+02
     -8.373  0.4372E+01  0.2813E+02
     -8.306  0.2792E+01  0.2832E+02
     -8.240  0.1908E+01  0.2845E+02
     -8.173  0.2229E+01  0.2859E+02
     -8.107  0.2780E+01  0.2878E+02
     -8.040  0.2591E+01  0.2895E+02
     -7.973  0.2632E+01  0.2913E+02
     -7.907  0.4614E+01  0.2944E+02
     -7.840  0.8161E+01  0.2998E+02
     -7.774  0.1071E+02  0.3069E+02
     -7.707  0.1015E+02  0.3137E+02
     -7.640  0.7776E+01  0.3189E+02
     -7.574  0.6190E+01  0.3230E+02
     -7.507  0.5941E+01  0.3269E+02
     -7.441  0.6503E+01  0.3313E+02
     -7.374  0.7634E+01  0.3364E+02
     -7.307  0.8461E+01  0.3420E+02
     -7.241  0.7810E+01  0.3472E+02
     -7.174  0.6211E+01  0.3513E+02
     -7.108  0.5209E+01  0.3548E+02
     -7.041  0.5297E+01  0.3583E+02
     -6.974  0.5839E+01  0.3622E+02
     -6.908  0.6674E+01  0.3667E+02
     -6.841  0.8135E+01  0.3721E+02
     -6.775  0.1092E+02  0.3793E+02
     -6.708  0.1436E+02  0.3889E+02
     -6.641  0.1397E+02  0.3982E+02
     -6.575  0.9239E+01  0.4044E+02
     -6.508  0.6211E+01  0.4085E+02
     -6.442  0.6676E+01  0.4130E+02
     -6.375  0.7492E+01  0.4179E+02
     -6.308  0.6567E+01  0.4223E+02
     -6.242  0.4896E+01  0.4256E+02
     -6.175  0.3842E+01  0.4281E+02
     -6.109  0.3210E+01  0.4303E+02
     -6.042  0.2770E+01  0.4321E+02
     -5.975  0.3105E+01  0.4342E+02
     -5.909  0.3934E+01  0.4368E+02
     -5.842  0.4711E+01  0.4399E+02
     -5.776  0.5628E+01  0.4437E+02
     -5.709  0.6146E+01  0.4478E+02
     -5.642  0.5519E+01  0.4515E+02
     -5.576  0.4326E+01  0.4543E+02
     -5.509  0.3518E+01  0.4567E+02
     -5.443  0.3833E+01  0.4592E+02
     -5.376  0.4619E+01  0.4623E+02
     -5.309  0.4316E+01  0.4652E+02
     -5.243  0.3715E+01  0.4677E+02
     -5.176  0.4363E+01  0.4706E+02
     -5.110  0.6025E+01  0.4746E+02
     -5.043  0.7466E+01  0.4796E+02
     -4.976  0.8021E+01  0.4849E+02
     -4.910  0.9422E+01  0.4912E+02
     -4.843  0.1097E+02  0.4985E+02
     -4.777  0.1092E+02  0.5058E+02
     -4.710  0.1019E+02  0.5125E+02
     -4.643  0.1033E+02  0.5194E+02
     -4.577  0.1148E+02  0.5271E+02
     -4.510  0.1239E+02  0.5353E+02
     -4.444  0.1209E+02  0.5434E+02
     -4.377  0.1157E+02  0.5511E+02
     -4.310  0.1176E+02  0.5589E+02
     -4.244  0.1247E+02  0.5672E+02
     -4.177  0.1395E+02  0.5765E+02
     -4.111  0.1577E+02  0.5870E+02
     -4.044  0.1577E+02  0.5975E+02
     -3.977  0.1301E+02  0.6062E+02
     -3.911  0.9816E+01  0.6127E+02
     -3.844  0.9662E+01  0.6191E+02
     -3.778  0.1260E+02  0.6275E+02
     -3.711  0.1479E+02  0.6374E+02
     -3.644  0.1437E+02  0.6469E+02
     -3.578  0.1292E+02  0.6556E+02
     -3.511  0.1234E+02  0.6638E+02
     -3.445  0.1291E+02  0.6724E+02
     -3.378  0.1357E+02  0.6814E+02
     -3.311  0.1407E+02  0.6908E+02
     -3.245  0.1489E+02  0.7007E+02
     -3.178  0.1619E+02  0.7115E+02
     -3.112  0.1753E+02  0.7232E+02
     -3.045  0.1740E+02  0.7347E+02
     -2.978  0.1612E+02  0.7455E+02
     -2.912  0.1433E+02  0.7550E+02
     -2.845  0.1260E+02  0.7634E+02
     -2.779  0.1327E+02  0.7723E+02
     -2.712  0.1611E+02  0.7830E+02
     -2.645  0.1736E+02  0.7945E+02
     -2.579  0.1634E+02  0.8054E+02
     -2.512  0.1529E+02  0.8156E+02
     -2.446  0.1554E+02  0.8260E+02
     -2.379  0.1691E+02  0.8372E+02
     -2.312  0.1761E+02  0.8489E+02
     -2.246  0.1676E+02  0.8601E+02
     -2.179  0.1585E+02  0.8707E+02
     -2.113  0.1561E+02  0.8811E+02
     -2.046  0.1544E+02  0.8913E+02
     -1.979  0.1676E+02  0.9025E+02
     -1.913  0.1853E+02  0.9148E+02
     -1.846  0.1774E+02  0.9267E+02
     -1.780  0.1610E+02  0.9374E+02
     -1.713  0.1400E+02  0.9467E+02
     -1.646  0.1029E+02  0.9536E+02
     -1.580  0.7757E+01  0.9587E+02
     -1.513  0.8999E+01  0.9647E+02
     -1.447  0.1129E+02  0.9722E+02
     -1.380  0.1140E+02  0.9798E+02
     -1.313  0.1012E+02  0.9866E+02
     -1.247  0.8783E+01  0.9924E+02
     -1.180  0.8251E+01  0.9979E+02
     -1.114  0.8857E+01  0.1004E+03
     -1.047  0.9650E+01  0.1010E+03
     -0.980  0.1065E+02  0.1017E+03
     -0.914  0.1093E+02  0.1025E+03
     -0.847  0.8819E+01  0.1030E+03
     -0.781  0.6142E+01  0.1035E+03
     -0.714  0.4785E+01  0.1038E+03
     -0.647  0.4099E+01  0.1040E+03
     -0.581  0.3853E+01  0.1043E+03
     -0.514  0.3507E+01  0.1045E+03
     -0.448  0.2826E+01  0.1047E+03
     -0.381  0.3375E+01  0.1050E+03
     -0.314  0.6164E+01  0.1054E+03
     -0.248  0.8671E+01  0.1059E+03
     -0.181  0.8331E+01  0.1065E+03
     -0.115  0.6954E+01  0.1070E+03
     -0.048  0.6461E+01  0.1074E+03
      0.019  0.5976E+01  0.1078E+03
      0.085  0.4398E+01  0.1081E+03
      0.152  0.2860E+01  0.1083E+03
      0.218  0.3103E+01  0.1085E+03
      0.285  0.4433E+01  0.1088E+03
      0.352  0.4523E+01  0.1091E+03
      0.418  0.3325E+01  0.1093E+03
      0.485  0.2567E+01  0.1095E+03
      0.551  0.2781E+01  0.1097E+03
      0.618  0.3193E+01  0.1099E+03
      0.685  0.3090E+01  0.1101E+03
      0.751  0.3314E+01  0.1103E+03
      0.818  0.4262E+01  0.1106E+03
      0.884  0.5183E+01  0.1109E+03
      0.951  0.6073E+01  0.1113E+03
      1.018  0.6828E+01  0.1118E+03
      1.084  0.6975E+01  0.1122E+03
      1.151  0.6789E+01  0.1127E+03
      1.217  0.6843E+01  0.1132E+03
      1.284  0.8379E+01  0.1137E+03
      1.351  0.1116E+02  0.1145E+03
      1.417  0.1192E+02  0.1152E+03
      1.484  0.1059E+02  0.1160E+03
      1.550  0.1030E+02  0.1166E+03
      1.617  0.1140E+02  0.1174E+03
      1.684  0.1196E+02  0.1182E+03
      1.750  0.1236E+02  0.1190E+03
      1.817  0.1253E+02  0.1198E+03
      1.883  0.1202E+02  0.1206E+03
      1.950  0.1245E+02  0.1215E+03
      2.017  0.1395E+02  0.1224E+03
      2.083  0.1513E+02  0.1234E+03
      2.150  0.1553E+02  0.1244E+03
      2.216  0.1594E+02  0.1255E+03
      2.283  0.1583E+02  0.1266E+03
      2.350  0.1464E+02  0.1275E+03
      2.416  0.1416E+02  0.1285E+03
      2.483  0.1468E+02  0.1295E+03
      2.549  0.1462E+02  0.1304E+03
      2.616  0.1409E+02  0.1314E+03
      2.683  0.1310E+02  0.1322E+03
      2.749  0.1153E+02  0.1330E+03
      2.816  0.9815E+01  0.1337E+03
      2.882  0.8558E+01  0.1342E+03
      2.949  0.7997E+01  0.1348E+03
      3.016  0.6863E+01  0.1352E+03
      3.082  0.5144E+01  0.1356E+03
      3.149  0.3470E+01  0.1358E+03
      3.215  0.1920E+01  0.1359E+03
      3.282  0.8000E+00  0.1360E+03
      3.349  0.2220E+00  0.1360E+03
      3.415  0.3406E-01  0.1360E+03
      3.482  0.2520E-02  0.1360E+03
      3.548  0.8391E-04  0.1360E+03
      3.615  0.1215E-05  0.1360E+03
      3.682  0.7516E-08  0.1360E+03
      3.748  0.1966E-10  0.1360E+03
      3.815  0.2161E-13  0.1360E+03
      3.881  0.0000E+00  0.1360E+03
      3.948  0.0000E+00  0.1360E+03
      4.015  0.0000E+00  0.1360E+03
      4.081  0.0000E+00  0.1360E+03
      4.148  0.0000E+00  0.1360E+03
      4.214  0.0000E+00  0.1360E+03
