       N       E                     dE             d eps       ncg     rms          rms(c)
DAV:   1     0.491171079391E+03    0.49117E+03   -0.28654E+04  7360   0.790E+02
DAV:   2    -0.664594818340E+02   -0.55763E+03   -0.54239E+03  9768   0.189E+02
DAV:   3    -0.122423708200E+03   -0.55964E+02   -0.55176E+02  8752   0.620E+01
DAV:   4    -0.125015284895E+03   -0.25916E+01   -0.25735E+01 10944   0.142E+01
DAV:   5    -0.125077999015E+03   -0.62714E-01   -0.62641E-01 10072   0.216E+00    0.104E+01
DAV:   6    -0.122477754285E+03    0.26002E+01   -0.91828E+00  8744   0.737E+00    0.568E+00
DAV:   7    -0.122261084554E+03    0.21667E+00   -0.45719E+00  8704   0.544E+00    0.246E+00
DAV:   8    -0.122280141057E+03   -0.19057E-01   -0.10407E+00  9248   0.278E+00    0.105E+00
DAV:   9    -0.122255894705E+03    0.24246E-01   -0.15658E-01  9016   0.129E+00    0.490E-01
DAV:  10    -0.122237504643E+03    0.18390E-01   -0.46548E-02  8744   0.633E-01    0.156E-01
DAV:  11    -0.122231701902E+03    0.58027E-02   -0.70473E-03  9008   0.271E-01    0.797E-02
DAV:  12    -0.122225649560E+03    0.60523E-02   -0.19743E-03  9200   0.122E-01    0.407E-02
DAV:  13    -0.122222534231E+03    0.31153E-02   -0.32526E-04  9080   0.574E-02    0.198E-02
DAV:  14    -0.122220676922E+03    0.18573E-02   -0.13378E-04  9224   0.318E-02    0.108E-02
DAV:  15    -0.122220297340E+03    0.37958E-03   -0.60394E-05  8512   0.225E-02    0.653E-03
DAV:  16    -0.122220791815E+03   -0.49447E-03   -0.94108E-05  8112   0.214E-02    0.379E-03
DAV:  17    -0.122221124893E+03   -0.33308E-03   -0.15216E-04  7728   0.205E-02    0.205E-03
DAV:  18    -0.122221230246E+03   -0.10535E-03   -0.49469E-05  7496   0.128E-02    0.135E-03
DAV:  19    -0.122221256483E+03   -0.26237E-04   -0.69578E-06  6152   0.628E-03    0.856E-04
DAV:  20    -0.122221266024E+03   -0.95413E-05   -0.39583E-05  7240   0.102E-02    0.623E-04
DAV:  21    -0.122221238869E+03    0.27156E-04   -0.17377E-05  6416   0.105E-02    0.329E-04
DAV:  22    -0.122221156272E+03    0.82597E-04   -0.20297E-05  6912   0.844E-03    0.183E-04
DAV:  23    -0.122221154958E+03    0.13137E-05   -0.10805E-05  6152   0.845E-03    0.108E-04
DAV:  24    -0.122221126118E+03    0.28840E-04   -0.86387E-06  6848   0.757E-03    0.485E-05
DAV:  25    -0.122221123803E+03    0.23150E-05   -0.40995E-06  6196   0.569E-03    0.268E-05
DAV:  26    -0.122221119446E+03    0.43562E-05   -0.11137E-06  5280   0.424E-03    0.129E-05
DAV:  27    -0.122221119272E+03    0.17446E-06   -0.99492E-07  5716   0.371E-03
   1 F= -.12222112E+03 E0= -.12221104E+03  d E =-.201652E-01
