  24  24   0   0
  0.4176334E+02  0.3540400E-09  0.1044544E-08  0.2750143E-08  0.5000000E-15
  1.000000000000000E-004
  CAR 
 unknown system                          
      4.24048523    -16.38923597  301      0.07004330      1.00000000
    -16.389  0.0000E+00  0.0000E+00
    -16.320  0.0000E+00  0.0000E+00
    -16.252  0.0000E+00  0.0000E+00
    -16.183  0.0000E+00  0.0000E+00
    -16.114  0.0000E+00  0.0000E+00
    -16.045  0.0000E+00  0.0000E+00
    -15.977  0.1242E-15  0.8540E-17
    -15.908  0.2266E-12  0.1559E-13
    -15.839  0.2067E-09  0.1423E-10
    -15.770  0.7518E-07  0.5184E-08
    -15.702  0.1103E-04  0.7638E-06
    -15.633  0.6646E-03  0.4646E-04
    -15.564  0.1686E-01  0.1206E-02
    -15.495  0.1861E+00  0.1400E-01
    -15.427  0.9252E+00  0.7763E-01
    -15.358  0.2142E+01  0.2249E+00
    -15.289  0.2523E+01  0.3984E+00
    -15.220  0.2172E+01  0.5478E+00
    -15.151  0.1895E+01  0.6781E+00
    -15.083  0.1195E+01  0.7602E+00
    -15.014  0.1017E+01  0.8302E+00
    -14.945  0.1611E+01  0.9410E+00
    -14.876  0.1394E+01  0.1037E+01
    -14.808  0.5880E+00  0.1077E+01
    -14.739  0.6027E+00  0.1119E+01
    -14.670  0.1413E+01  0.1216E+01
    -14.601  0.1572E+01  0.1324E+01
    -14.533  0.7635E+00  0.1376E+01
    -14.464  0.4351E+00  0.1406E+01
    -14.395  0.1099E+01  0.1482E+01
    -14.326  0.1702E+01  0.1599E+01
    -14.257  0.1360E+01  0.1693E+01
    -14.189  0.1363E+01  0.1786E+01
    -14.120  0.1701E+01  0.1903E+01
    -14.051  0.1082E+01  0.1978E+01
    -13.982  0.2908E+00  0.1998E+01
    -13.914  0.3233E-01  0.2000E+01
    -13.845  0.1476E-02  0.2000E+01
    -13.776  0.3861E-03  0.2000E+01
    -13.707  0.8115E-02  0.2001E+01
    -13.639  0.8551E-01  0.2006E+01
    -13.570  0.4481E+00  0.2037E+01
    -13.501  0.1233E+01  0.2122E+01
    -13.432  0.1913E+01  0.2254E+01
    -13.364  0.2000E+01  0.2391E+01
    -13.295  0.1889E+01  0.2521E+01
    -13.226  0.1786E+01  0.2644E+01
    -13.157  0.1654E+01  0.2758E+01
    -13.088  0.1801E+01  0.2881E+01
    -13.020  0.2965E+01  0.3085E+01
    -12.951  0.4743E+01  0.3411E+01
    -12.882  0.5260E+01  0.3773E+01
    -12.813  0.4428E+01  0.4078E+01
    -12.745  0.3441E+01  0.4314E+01
    -12.676  0.2825E+01  0.4509E+01
    -12.607  0.3542E+01  0.4752E+01
    -12.538  0.5484E+01  0.5129E+01
    -12.470  0.6746E+01  0.5593E+01
    -12.401  0.6369E+01  0.6031E+01
    -12.332  0.5526E+01  0.6411E+01
    -12.263  0.5385E+01  0.6782E+01
    -12.195  0.5561E+01  0.7164E+01
    -12.126  0.5713E+01  0.7557E+01
    -12.057  0.6517E+01  0.8005E+01
    -11.988  0.7713E+01  0.8535E+01
    -11.919  0.7767E+01  0.9070E+01
    -11.851  0.7168E+01  0.9562E+01
    -11.782  0.6543E+01  0.1001E+02
    -11.713  0.6747E+01  0.1048E+02
    -11.644  0.7966E+01  0.1102E+02
    -11.576  0.8426E+01  0.1160E+02
    -11.507  0.8385E+01  0.1218E+02
    -11.438  0.8574E+01  0.1277E+02
    -11.369  0.8387E+01  0.1335E+02
    -11.301  0.9259E+01  0.1398E+02
    -11.232  0.1021E+02  0.1469E+02
    -11.163  0.7945E+01  0.1523E+02
    -11.094  0.6001E+01  0.1564E+02
    -11.026  0.7920E+01  0.1619E+02
    -10.957  0.1063E+02  0.1692E+02
    -10.888  0.1067E+02  0.1765E+02
    -10.819  0.1021E+02  0.1836E+02
    -10.750  0.1050E+02  0.1908E+02
    -10.682  0.1022E+02  0.1978E+02
    -10.613  0.1019E+02  0.2048E+02
    -10.544  0.8891E+01  0.2109E+02
    -10.475  0.5964E+01  0.2150E+02
    -10.407  0.4017E+01  0.2178E+02
    -10.338  0.2325E+01  0.2194E+02
    -10.269  0.7585E+00  0.2199E+02
    -10.200  0.1174E+00  0.2200E+02
    -10.132  0.9131E-02  0.2200E+02
    -10.063  0.2984E-01  0.2200E+02
     -9.994  0.3660E+00  0.2203E+02
     -9.925  0.2030E+01  0.2217E+02
     -9.856  0.5318E+01  0.2253E+02
     -9.788  0.7400E+01  0.2304E+02
     -9.719  0.6830E+01  0.2351E+02
     -9.650  0.4724E+01  0.2384E+02
     -9.581  0.2360E+01  0.2400E+02
     -9.513  0.1648E+01  0.2411E+02
     -9.444  0.1738E+01  0.2423E+02
     -9.375  0.1357E+01  0.2432E+02
     -9.306  0.1520E+01  0.2443E+02
     -9.238  0.1985E+01  0.2457E+02
     -9.169  0.2080E+01  0.2471E+02
     -9.100  0.2517E+01  0.2488E+02
     -9.031  0.4208E+01  0.2517E+02
     -8.963  0.6724E+01  0.2563E+02
     -8.894  0.6668E+01  0.2609E+02
     -8.825  0.4728E+01  0.2642E+02
     -8.756  0.4811E+01  0.2675E+02
     -8.687  0.5530E+01  0.2713E+02
     -8.619  0.4638E+01  0.2745E+02
     -8.550  0.3947E+01  0.2772E+02
     -8.481  0.4915E+01  0.2806E+02
     -8.412  0.5850E+01  0.2846E+02
     -8.344  0.4709E+01  0.2878E+02
     -8.275  0.2689E+01  0.2897E+02
     -8.206  0.2062E+01  0.2911E+02
     -8.137  0.3060E+01  0.2932E+02
     -8.069  0.4082E+01  0.2960E+02
     -8.000  0.3405E+01  0.2983E+02
     -7.931  0.2116E+01  0.2998E+02
     -7.862  0.2524E+01  0.3015E+02
     -7.794  0.4595E+01  0.3047E+02
     -7.725  0.5944E+01  0.3088E+02
     -7.656  0.6278E+01  0.3131E+02
     -7.587  0.7177E+01  0.3180E+02
     -7.518  0.8335E+01  0.3238E+02
     -7.450  0.8788E+01  0.3298E+02
     -7.381  0.8726E+01  0.3358E+02
     -7.312  0.8212E+01  0.3415E+02
     -7.243  0.7070E+01  0.3463E+02
     -7.175  0.5628E+01  0.3502E+02
     -7.106  0.5140E+01  0.3537E+02
     -7.037  0.5902E+01  0.3578E+02
     -6.968  0.6088E+01  0.3620E+02
     -6.900  0.5332E+01  0.3656E+02
     -6.831  0.6360E+01  0.3700E+02
     -6.762  0.1003E+02  0.3769E+02
     -6.693  0.1371E+02  0.3863E+02
     -6.625  0.1360E+02  0.3957E+02
     -6.556  0.9532E+01  0.4022E+02
     -6.487  0.5961E+01  0.4063E+02
     -6.418  0.4544E+01  0.4095E+02
     -6.349  0.4138E+01  0.4123E+02
     -6.281  0.4535E+01  0.4154E+02
     -6.212  0.6038E+01  0.4196E+02
     -6.143  0.6945E+01  0.4244E+02
     -6.074  0.6184E+01  0.4286E+02
     -6.006  0.5484E+01  0.4324E+02
     -5.937  0.5865E+01  0.4364E+02
     -5.868  0.6064E+01  0.4406E+02
     -5.799  0.5717E+01  0.4445E+02
     -5.731  0.6215E+01  0.4488E+02
     -5.662  0.6995E+01  0.4536E+02
     -5.593  0.7173E+01  0.4585E+02
     -5.524  0.6616E+01  0.4631E+02
     -5.455  0.5339E+01  0.4668E+02
     -5.387  0.4968E+01  0.4702E+02
     -5.318  0.5630E+01  0.4740E+02
     -5.249  0.6337E+01  0.4784E+02
     -5.180  0.7211E+01  0.4834E+02
     -5.112  0.7886E+01  0.4888E+02
     -5.043  0.8790E+01  0.4948E+02
     -4.974  0.9590E+01  0.5014E+02
     -4.905  0.9246E+01  0.5078E+02
     -4.837  0.8921E+01  0.5139E+02
     -4.768  0.8631E+01  0.5198E+02
     -4.699  0.8573E+01  0.5257E+02
     -4.630  0.8969E+01  0.5319E+02
     -4.562  0.8958E+01  0.5381E+02
     -4.493  0.9168E+01  0.5444E+02
     -4.424  0.9964E+01  0.5512E+02
     -4.355  0.1074E+02  0.5586E+02
     -4.286  0.1098E+02  0.5662E+02
     -4.218  0.1161E+02  0.5741E+02
     -4.149  0.1309E+02  0.5831E+02
     -4.080  0.1401E+02  0.5928E+02
     -4.011  0.1415E+02  0.6025E+02
     -3.943  0.1272E+02  0.6113E+02
     -3.874  0.9971E+01  0.6181E+02
     -3.805  0.9808E+01  0.6249E+02
     -3.736  0.1222E+02  0.6333E+02
     -3.668  0.1299E+02  0.6422E+02
     -3.599  0.1123E+02  0.6499E+02
     -3.530  0.8994E+01  0.6561E+02
     -3.461  0.9078E+01  0.6623E+02
     -3.393  0.1245E+02  0.6709E+02
     -3.324  0.1545E+02  0.6815E+02
     -3.255  0.1642E+02  0.6928E+02
     -3.186  0.1632E+02  0.7040E+02
     -3.117  0.1611E+02  0.7151E+02
     -3.049  0.1715E+02  0.7269E+02
     -2.980  0.1841E+02  0.7396E+02
     -2.911  0.1736E+02  0.7515E+02
     -2.842  0.1518E+02  0.7620E+02
     -2.774  0.1419E+02  0.7717E+02
     -2.705  0.1442E+02  0.7816E+02
     -2.636  0.1528E+02  0.7921E+02
     -2.567  0.1630E+02  0.8033E+02
     -2.499  0.1726E+02  0.8152E+02
     -2.430  0.1795E+02  0.8276E+02
     -2.361  0.1672E+02  0.8391E+02
     -2.292  0.1307E+02  0.8480E+02
     -2.223  0.1138E+02  0.8559E+02
     -2.155  0.1371E+02  0.8653E+02
     -2.086  0.1609E+02  0.8764E+02
     -2.017  0.1603E+02  0.8874E+02
     -1.948  0.1689E+02  0.8990E+02
     -1.880  0.1926E+02  0.9122E+02
     -1.811  0.1889E+02  0.9252E+02
     -1.742  0.1610E+02  0.9363E+02
     -1.673  0.1315E+02  0.9453E+02
     -1.605  0.1063E+02  0.9527E+02
     -1.536  0.1065E+02  0.9600E+02
     -1.467  0.1197E+02  0.9682E+02
     -1.398  0.1217E+02  0.9766E+02
     -1.330  0.1136E+02  0.9844E+02
     -1.261  0.1052E+02  0.9916E+02
     -1.192  0.1029E+02  0.9987E+02
     -1.123  0.1099E+02  0.1006E+03
     -1.054  0.1197E+02  0.1014E+03
     -0.986  0.1188E+02  0.1023E+03
     -0.917  0.1074E+02  0.1030E+03
     -0.848  0.8296E+01  0.1036E+03
     -0.779  0.5534E+01  0.1040E+03
     -0.711  0.4455E+01  0.1043E+03
     -0.642  0.5045E+01  0.1046E+03
     -0.573  0.6241E+01  0.1050E+03
     -0.504  0.6912E+01  0.1055E+03
     -0.436  0.6436E+01  0.1060E+03
     -0.367  0.5284E+01  0.1063E+03
     -0.298  0.4198E+01  0.1066E+03
     -0.229  0.3668E+01  0.1069E+03
     -0.161  0.3371E+01  0.1071E+03
     -0.092  0.3089E+01  0.1073E+03
     -0.023  0.3570E+01  0.1075E+03
      0.046  0.4649E+01  0.1079E+03
      0.115  0.5710E+01  0.1083E+03
      0.183  0.6114E+01  0.1087E+03
      0.252  0.5597E+01  0.1091E+03
      0.321  0.4588E+01  0.1094E+03
      0.390  0.4544E+01  0.1097E+03
      0.458  0.5881E+01  0.1101E+03
      0.527  0.6009E+01  0.1105E+03
      0.596  0.4728E+01  0.1108E+03
      0.665  0.3903E+01  0.1111E+03
      0.733  0.4001E+01  0.1114E+03
      0.802  0.4399E+01  0.1117E+03
      0.871  0.4095E+01  0.1120E+03
      0.940  0.3659E+01  0.1122E+03
      1.008  0.3809E+01  0.1125E+03
      1.077  0.4699E+01  0.1128E+03
      1.146  0.6091E+01  0.1132E+03
      1.215  0.7083E+01  0.1137E+03
      1.284  0.7187E+01  0.1142E+03
      1.352  0.7505E+01  0.1147E+03
      1.421  0.8731E+01  0.1153E+03
      1.490  0.1006E+02  0.1160E+03
      1.559  0.1130E+02  0.1168E+03
      1.627  0.1243E+02  0.1176E+03
      1.696  0.1289E+02  0.1185E+03
      1.765  0.1232E+02  0.1194E+03
      1.834  0.1027E+02  0.1201E+03
      1.902  0.7828E+01  0.1206E+03
      1.971  0.7016E+01  0.1211E+03
      2.040  0.7668E+01  0.1216E+03
      2.109  0.8798E+01  0.1222E+03
      2.178  0.1107E+02  0.1230E+03
      2.246  0.1445E+02  0.1240E+03
      2.315  0.1634E+02  0.1251E+03
      2.384  0.1693E+02  0.1263E+03
      2.453  0.1694E+02  0.1274E+03
      2.521  0.1534E+02  0.1285E+03
      2.590  0.1468E+02  0.1295E+03
      2.659  0.1696E+02  0.1307E+03
      2.728  0.1733E+02  0.1319E+03
      2.796  0.1355E+02  0.1328E+03
      2.865  0.1045E+02  0.1335E+03
      2.934  0.9336E+01  0.1342E+03
      3.003  0.8323E+01  0.1347E+03
      3.071  0.7265E+01  0.1352E+03
      3.140  0.5571E+01  0.1356E+03
      3.209  0.3290E+01  0.1358E+03
      3.278  0.1619E+01  0.1359E+03
      3.347  0.6123E+00  0.1360E+03
      3.415  0.1295E+00  0.1360E+03
      3.484  0.1250E-01  0.1360E+03
      3.553  0.5104E-03  0.1360E+03
      3.622  0.8550E-05  0.1360E+03
      3.690  0.5787E-07  0.1360E+03
      3.759  0.1568E-09  0.1360E+03
      3.828  0.1688E-12  0.1360E+03
      3.897  0.0000E+00  0.1360E+03
      3.965  0.0000E+00  0.1360E+03
      4.034  0.0000E+00  0.1360E+03
      4.103  0.0000E+00  0.1360E+03
      4.172  0.0000E+00  0.1360E+03
      4.240  0.0000E+00  0.1360E+03
