   24   24    1    1
  0.4176334E+02  0.3540400E-09  0.1044544E-08  0.2750143E-08  0.5000000E-15
  1.000000000000000E-004
  CAR 
 unknown system                          
    108     54     68
 
  0.0000000E+00  0.0000000E+00  0.0000000E+00  0.9615385E-02
    1      -15.389236
    2      -13.545755
    3      -12.941916
    4      -12.805681
    5      -12.571144
    6      -12.483587
    7      -12.099810
    8      -11.965513
    9      -11.454053
   10      -11.437425
   11      -10.995171
   12       -9.898227
   13       -8.949476
   14       -8.038346
   15       -7.834728
   16       -7.455423
   17       -6.863523
   18       -6.716395
   19       -6.494985
   20       -6.252238
   21       -5.827673
   22       -5.419739
   23       -4.998071
   24       -4.740928
   25       -4.636442
   26       -3.921356
   27       -3.828436
   28       -3.691166
   29       -3.417737
   30       -3.132707
   31       -3.061377
   32       -2.969283
   33       -2.848240
   34       -2.801499
   35       -2.556220
   36       -2.460764
   37       -2.398367
   38       -2.376304
   39       -2.157003
   40       -2.101888
   41       -1.945735
   42       -1.828132
   43       -1.732624
   44       -1.661623
   45       -1.647725
   46       -1.597987
   47       -1.470334
   48       -1.437097
   49       -1.294618
   50       -1.167629
   51       -1.022349
   52       -0.811775
   53       -0.549577
   54        0.005868
   55        0.613276
   56        1.155830
   57        1.205574
   58        1.318388
   59        1.472106
   60        1.648192
   61        1.710196
   62        1.966983
   63        1.977458
   64        2.047138
   65        2.163295
   66        2.414769
   67        2.444432
   68        2.659756
 
  0.7692308E-01 -0.1387779E-16  0.0000000E+00  0.1923077E-01
    1      -15.338688
    2      -13.484404
    3      -12.889294
    4      -12.753511
    5      -12.513334
    6      -12.427878
    7      -12.038122
    8      -11.911857
    9      -11.404103
   10      -11.388480
   11      -10.946807
   12       -9.869492
   13       -8.933717
   14       -8.075254
   15       -7.797598
   16       -7.441355
   17       -6.831389
   18       -6.694127
   19       -6.489219
   20       -6.250673
   21       -5.794165
   22       -5.476793
   23       -5.231023
   24       -4.804813
   25       -4.704056
   26       -3.949095
   27       -3.813355
   28       -3.707918
   29       -3.570898
   30       -3.407174
   31       -3.302862
   32       -3.242038
   33       -3.092269
   34       -2.955830
   35       -2.755509
   36       -2.705346
   37       -2.486280
   38       -2.468566
   39       -2.357269
   40       -2.199680
   41       -2.139126
   42       -2.073815
   43       -1.969532
   44       -1.889254
   45       -1.840876
   46       -1.703189
   47       -1.523892
   48       -1.445163
   49       -1.131332
   50       -1.081488
   51       -0.964941
   52       -0.832499
   53       -0.438209
   54        0.011987
   55        0.845784
   56        1.102476
   57        1.484704
   58        1.560774
   59        1.704332
   60        1.763043
   61        2.117124
   62        2.147230
   63        2.219597
   64        2.283733
   65        2.349041
   66        2.602859
   67        2.640872
   68        2.764330
 
  0.1538462E+00 -0.2775558E-16  0.0000000E+00  0.1923077E-01
    1      -15.190416
    2      -13.301421
    3      -12.733733
    4      -12.597721
    5      -12.343103
    6      -12.262898
    7      -11.857692
    8      -11.753344
    9      -11.258765
   10      -11.246445
   11      -10.808050
   12       -9.794015
   13       -8.907269
   14       -8.171863
   15       -7.755250
   16       -7.449060
   17       -6.768845
   18       -6.669426
   19       -6.502667
   20       -6.402486
   21       -5.907144
   22       -5.718983
   23       -5.323101
   24       -4.905376
   25       -4.839949
   26       -4.233315
   27       -4.199735
   28       -4.090286
   29       -3.983076
   30       -3.903244
   31       -3.699714
   32       -3.654511
   33       -3.485576
   34       -3.391834
   35       -3.171751
   36       -3.022195
   37       -2.973519
   38       -2.901833
   39       -2.797747
   40       -2.607830
   41       -2.391215
   42       -2.343167
   43       -2.164196
   44       -2.018136
   45       -1.938799
   46       -1.752686
   47       -1.666224
   48       -1.411625
   49       -1.193878
   50       -0.998844
   51       -0.947353
   52       -0.634155
   53       -0.249770
   54        0.170039
   55        0.455143
   56        0.925922
   57        1.516541
   58        1.726942
   59        1.941030
   60        2.239319
   61        2.369033
   62        2.428755
   63        2.610031
   64        2.659472
   65        2.680239
   66        2.900913
   67        2.952130
   68        3.054562
 
  0.2307692E+00 -0.4163336E-16  0.0000000E+00  0.1923077E-01
    1      -14.956136
    2      -13.000385
    3      -12.484161
    4      -12.341400
    5      -12.071294
    6      -11.996382
    7      -11.574879
    8      -11.498542
    9      -11.035302
   10      -11.029231
   11      -10.605056
   12       -9.713014
   13       -8.942986
   14       -8.363565
   15       -7.828753
   16       -7.690581
   17       -6.959820
   18       -6.698479
   19       -6.640523
   20       -6.575389
   21       -6.028260
   22       -5.742110
   23       -5.550076
   24       -5.342381
   25       -5.148927
   26       -4.818818
   27       -4.731220
   28       -4.607685
   29       -4.514486
   30       -4.395189
   31       -4.188607
   32       -4.012525
   33       -3.786918
   34       -3.705999
   35       -3.474462
   36       -3.338056
   37       -3.208267
   38       -3.000889
   39       -2.879293
   40       -2.685256
   41       -2.533185
   42       -2.501011
   43       -2.413960
   44       -2.078011
   45       -1.914948
   46       -1.829892
   47       -1.742022
   48       -1.488794
   49       -1.438462
   50       -1.123191
   51       -1.079523
   52       -0.683998
   53       -0.464271
   54       -0.180624
   55        0.465348
   56        0.752972
   57        1.283537
   58        1.698613
   59        1.861067
   60        2.019131
   61        2.249929
   62        2.331211
   63        2.400683
   64        2.674835
   65        2.776560
   66        2.873297
   67        2.935758
   68        3.069341
 
  0.3076923E+00 -0.5551115E-16  0.0000000E+00  0.1923077E-01
    1      -14.661848
    2      -12.588611
    3      -12.165445
    4      -11.993032
    5      -11.721474
    6      -11.646214
    7      -11.226380
    8      -11.169659
    9      -10.786075
   10      -10.775639
   11      -10.419354
   12       -9.728102
   13       -9.102545
   14       -8.658572
   15       -8.111796
   16       -8.089262
   17       -7.283808
   18       -7.000555
   19       -6.904593
   20       -6.674560
   21       -6.342686
   22       -6.165903
   23       -5.976330
   24       -5.949257
   25       -5.529596
   26       -5.216234
   27       -4.993761
   28       -4.783489
   29       -4.707294
   30       -4.592964
   31       -4.326515
   32       -4.230784
   33       -4.154123
   34       -3.760079
   35       -3.403786
   36       -3.251858
   37       -3.130432
   38       -3.076285
   39       -2.995694
   40       -2.815041
   41       -2.767376
   42       -2.618307
   43       -2.415192
   44       -2.132258
   45       -2.048950
   46       -1.900839
   47       -1.873904
   48       -1.723812
   49       -1.683842
   50       -1.320352
   51       -1.220869
   52       -1.056268
   53       -0.696001
   54       -0.479879
   55        0.256211
   56        0.519964
   57        0.996224
   58        1.498757
   59        1.590723
   60        1.773220
   61        1.982560
   62        2.222349
   63        2.352832
   64        2.478710
   65        2.651202
   66        2.679478
   67        2.809823
   68        2.884944
 
  0.3846154E+00 -0.8326673E-16  0.0000000E+00  0.1923077E-01
    1      -14.361316
    2      -12.080400
    3      -11.848370
    4      -11.573834
    5      -11.338116
    6      -11.251109
    7      -10.881008
    8      -10.841559
    9      -10.631127
   10      -10.588020
   11      -10.459851
   12       -9.872474
   13       -9.274413
   14       -8.834828
   15       -8.465013
   16       -8.381703
   17       -7.673118
   18       -7.463348
   19       -7.419507
   20       -7.001353
   21       -6.794101
   22       -6.761365
   23       -6.661181
   24       -6.217237
   25       -5.624278
   26       -5.220149
   27       -5.009219
   28       -4.642330
   29       -4.534163
   30       -4.446038
   31       -4.258525
   32       -4.194823
   33       -4.073563
   34       -3.779626
   35       -3.659841
   36       -3.278674
   37       -3.214493
   38       -3.167340
   39       -3.054187
   40       -2.999850
   41       -2.796418
   42       -2.621602
   43       -2.450293
   44       -2.299193
   45       -2.211598
   46       -2.096871
   47       -2.033552
   48       -1.884699
   49       -1.805905
   50       -1.492918
   51       -1.422482
   52       -1.277219
   53       -0.891669
   54       -0.545112
   55        0.064221
   56        0.272426
   57        0.668679
   58        1.286593
   59        1.397857
   60        1.691637
   61        1.724760
   62        2.048619
   63        2.232044
   64        2.266198
   65        2.368125
   66        2.626420
   67        2.695202
   68        2.813473
 
  0.4615385E+00 -0.8326673E-16  0.0000000E+00  0.1923077E-01
    1      -14.154242
    2      -11.675696
    3      -11.505776
    4      -11.151298
    5      -10.971443
    6      -10.951731
    7      -10.847945
    8      -10.734069
    9      -10.661354
   10      -10.638529
   11      -10.614611
   12       -9.835405
   13       -9.498877
   14       -8.693822
   15       -8.684114
   16       -8.444553
   17       -8.083694
   18       -7.812988
   19       -7.575541
   20       -7.507954
   21       -7.291041
   22       -7.185351
   23       -7.079178
   24       -6.122383
   25       -5.603730
   26       -5.050032
   27       -4.918206
   28       -4.509539
   29       -4.434018
   30       -4.279715
   31       -4.088265
   32       -3.999844
   33       -3.941803
   34       -3.833895
   35       -3.670983
   36       -3.595120
   37       -3.414838
   38       -3.258805
   39       -3.173982
   40       -3.017159
   41       -2.937698
   42       -2.699814
   43       -2.573280
   44       -2.376895
   45       -2.320911
   46       -2.205683
   47       -2.099085
   48       -1.958964
   49       -1.723844
   50       -1.659772
   51       -1.519569
   52       -1.235800
   53       -1.025443
   54       -0.525029
   55       -0.069024
   56        0.101264
   57        0.412518
   58        1.165411
   59        1.367830
   60        1.558090
   61        1.652016
   62        1.839043
   63        2.069504
   64        2.243651
   65        2.375502
   66        2.457544
   67        2.605960
   68        2.683977
 
  0.0000000E+00  0.2500000E+00  0.0000000E+00  0.1923077E-01
    1      -15.388251
    2      -13.490438
    3      -12.998537
    4      -12.978316
    5      -12.503728
    6      -12.449794
    7      -12.027912
    8      -11.869546
    9      -11.483377
   10      -11.452747
   11      -11.004172
   12       -9.858732
   13       -8.989343
   14       -8.520606
   15       -7.581727
   16       -7.391036
   17       -6.770495
   18       -6.672285
   19       -6.596648
   20       -6.098843
   21       -5.750620
   22       -5.241689
   23       -5.033408
   24       -4.654851
   25       -4.609462
   26       -4.057929
   27       -3.962772
   28       -3.711235
   29       -3.419552
   30       -3.285562
   31       -3.132901
   32       -3.044794
   33       -2.838522
   34       -2.713779
   35       -2.550792
   36       -2.464912
   37       -2.400427
   38       -2.372256
   39       -2.210732
   40       -2.155105
   41       -1.981305
   42       -1.917678
   43       -1.884980
   44       -1.719791
   45       -1.633049
   46       -1.553692
   47       -1.379873
   48       -1.366790
   49       -1.232105
   50       -1.129495
   51       -0.971362
   52       -0.913521
   53       -0.397327
   54        0.084143
   55        0.572793
   56        1.176827
   57        1.221482
   58        1.376117
   59        1.510952
   60        1.673957
   61        1.725278
   62        1.823332
   63        1.946271
   64        2.235428
   65        2.306374
   66        2.414211
   67        2.574543
   68        2.657398
 
  0.7692308E-01  0.2500000E+00  0.0000000E+00  0.1923077E-01
    1      -15.337552
    2      -13.413609
    3      -12.962314
    4      -12.950895
    5      -12.442318
    6      -12.376003
    7      -11.986317
    8      -11.771621
    9      -11.442024
   10      -11.401517
   11      -10.959915
   12       -9.825100
   13       -8.971598
   14       -8.579146
   15       -7.596635
   16       -7.343008
   17       -6.759717
   18       -6.681301
   19       -6.530021
   20       -6.011513
   21       -5.702118
   22       -5.434485
   23       -5.163160
   24       -4.783450
   25       -4.671397
   26       -4.113505
   27       -3.985657
   28       -3.704282
   29       -3.601028
   30       -3.414637
   31       -3.374220
   32       -3.186744
   33       -3.036580
   34       -3.000311
   35       -2.759922
   36       -2.686275
   37       -2.585594
   38       -2.500700
   39       -2.407690
   40       -2.300723
   41       -2.167675
   42       -2.124112
   43       -2.018942
   44       -1.863270
   45       -1.824827
   46       -1.750284
   47       -1.524366
   48       -1.315141
   49       -1.110665
   50       -1.032406
   51       -0.968970
   52       -0.844908
   53       -0.388767
   54        0.109004
   55        0.812471
   56        1.067795
   57        1.528384
   58        1.586789
   59        1.711446
   60        1.788294
   61        1.950912
   62        2.199480
   63        2.250677
   64        2.479591
   65        2.523467
   66        2.650700
   67        2.667039
   68        2.958487
 
  0.1538462E+00  0.2500000E+00  0.0000000E+00  0.1923077E-01
    1      -15.189244
    2      -13.217088
    3      -12.824376
    4      -12.797901
    5      -12.273880
    6      -12.197444
    7      -11.840962
    8      -11.574634
    9      -11.302592
   10      -11.252394
   11      -10.818729
   12       -9.751099
   13       -8.943061
   14       -8.644848
   15       -7.567599
   16       -7.312071
   17       -6.830081
   18       -6.660898
   19       -6.503412
   20       -6.130215
   21       -5.899930
   22       -5.655003
   23       -5.277852
   24       -4.874291
   25       -4.825273
   26       -4.386667
   27       -4.301553
   28       -4.219373
   29       -3.981186
   30       -3.856284
   31       -3.794670
   32       -3.616541
   33       -3.404539
   34       -3.276743
   35       -3.086333
   36       -3.000987
   37       -2.962988
   38       -2.856989
   39       -2.788672
   40       -2.618889
   41       -2.578418
   42       -2.475385
   43       -2.324144
   44       -1.982670
   45       -1.895026
   46       -1.846191
   47       -1.539479
   48       -1.415589
   49       -1.154270
   50       -1.035237
   51       -0.927416
   52       -0.631589
   53       -0.310333
   54        0.210394
   55        0.459873
   56        0.969862
   57        1.451584
   58        1.647284
   59        1.759503
   60        2.102165
   61        2.344599
   62        2.402822
   63        2.711382
   64        2.747446
   65        2.876968
   66        3.016663
   67        3.067024
   68        3.118273
 
  0.2307692E+00  0.2500000E+00  0.0000000E+00  0.1923077E-01
    1      -14.955090
    2      -12.905743
    3      -12.572762
    4      -12.542353
    5      -12.005304
    6      -11.929352
    7      -11.599596
    8      -11.298627
    9      -11.080821
   10      -11.021807
   11      -10.601464
   12       -9.679681
   13       -8.975900
   14       -8.776179
   15       -7.664305
   16       -7.399265
   17       -7.160819
   18       -6.701726
   19       -6.650393
   20       -6.459139
   21       -5.906804
   22       -5.817763
   23       -5.680770
   24       -5.215486
   25       -5.106629
   26       -5.026027
   27       -4.682194
   28       -4.668241
   29       -4.557504
   30       -4.325962
   31       -4.145202
   32       -4.021215
   33       -3.746023
   34       -3.578321
   35       -3.382520
   36       -3.211771
   37       -3.131135
   38       -3.096510
   39       -2.917409
   40       -2.673824
   41       -2.611731
   42       -2.532545
   43       -2.451356
   44       -2.004603
   45       -1.941686
   46       -1.890896
   47       -1.775745
   48       -1.515925
   49       -1.397284
   50       -1.143791
   51       -1.053326
   52       -0.784898
   53       -0.508580
   54       -0.215360
   55        0.389841
   56        0.788213
   57        1.195069
   58        1.445846
   59        1.594724
   60        1.668442
   61        2.205593
   62        2.450501
   63        2.530349
   64        2.642144
   65        2.704049
   66        3.025802
   67        3.112861
   68        3.227738
 
  0.3076923E+00  0.2500000E+00  0.0000000E+00  0.1923077E-01
    1      -14.661038
    2      -12.489145
    3      -12.215361
    4      -12.207283
    5      -11.654762
    6      -11.601901
    7      -11.282260
    8      -10.985657
    9      -10.817103
   10      -10.752645
   11      -10.395963
   12       -9.715623
   13       -9.117083
   14       -8.975426
   15       -8.052589
   16       -7.712561
   17       -7.407952
   18       -7.116963
   19       -6.966811
   20       -6.621616
   21       -6.218516
   22       -6.190630
   23       -6.169283
   24       -5.922208
   25       -5.542282
   26       -5.383749
   27       -4.984684
   28       -4.941744
   29       -4.483505
   30       -4.406939
   31       -4.334606
   32       -4.192299
   33       -4.014678
   34       -3.758252
   35       -3.354327
   36       -3.285066
   37       -3.044806
   38       -2.995537
   39       -2.898181
   40       -2.856279
   41       -2.705063
   42       -2.531037
   43       -2.435080
   44       -2.281679
   45       -2.067376
   46       -1.953351
   47       -1.898063
   48       -1.757497
   49       -1.715547
   50       -1.327777
   51       -1.271876
   52       -1.010194
   53       -0.747906
   54       -0.595581
   55        0.163031
   56        0.494918
   57        0.787974
   58        1.229777
   59        1.291334
   60        1.416944
   61        2.151924
   62        2.273402
   63        2.407935
   64        2.452288
   65        2.610183
   66        2.716349
   67        2.930270
   68        3.019881
 
  0.3846154E+00  0.2500000E+00  0.0000000E+00  0.1923077E-01
    1      -14.360889
    2      -11.986297
    3      -11.867586
    4      -11.762857
    5      -11.282962
    6      -11.248134
    7      -10.940110
    8      -10.728550
    9      -10.606112
   10      -10.550990
   11      -10.472457
   12       -9.874543
   13       -9.263068
   14       -8.965231
   15       -8.440616
   16       -8.116926
   17       -7.784229
   18       -7.739451
   19       -7.362377
   20       -6.982970
   21       -6.740605
   22       -6.691492
   23       -6.660281
   24       -6.258793
   25       -5.726071
   26       -5.349383
   27       -5.026254
   28       -4.788401
   29       -4.516099
   30       -4.363009
   31       -4.158367
   32       -4.115902
   33       -3.864919
   34       -3.727098
   35       -3.357841
   36       -3.292939
   37       -3.223642
   38       -3.134494
   39       -3.051570
   40       -2.948506
   41       -2.802715
   42       -2.672267
   43       -2.575080
   44       -2.362588
   45       -2.260362
   46       -2.096089
   47       -2.074443
   48       -1.874932
   49       -1.841091
   50       -1.508642
   51       -1.386002
   52       -1.309765
   53       -0.920487
   54       -0.565354
   55       -0.016700
   56        0.217313
   57        0.516941
   58        1.173759
   59        1.198887
   60        1.331654
   61        1.811664
   62        1.999918
   63        2.132942
   64        2.317677
   65        2.515846
   66        2.633202
   67        2.687892
   68        2.882728
 
  0.4615385E+00  0.2500000E+00  0.0000000E+00  0.1923077E-01
    1      -14.154145
    2      -11.677206
    3      -11.435193
    4      -11.267741
    5      -10.968245
    6      -10.963983
    7      -10.868864
    8      -10.704839
    9      -10.687100
   10      -10.592226
   11      -10.585252
   12       -9.833935
   13       -9.477429
   14       -8.710219
   15       -8.558806
   16       -8.403910
   17       -8.333126
   18       -7.839938
   19       -7.521489
   20       -7.486420
   21       -7.320577
   22       -7.145025
   23       -7.061418
   24       -6.096193
   25       -5.622699
   26       -5.133877
   27       -5.021479
   28       -4.475216
   29       -4.399108
   30       -4.226392
   31       -4.148182
   32       -4.032793
   33       -3.929594
   34       -3.665078
   35       -3.572693
   36       -3.509158
   37       -3.353308
   38       -3.292695
   39       -3.236611
   40       -2.993418
   41       -2.914097
   42       -2.697669
   43       -2.616103
   44       -2.570460
   45       -2.388160
   46       -2.158544
   47       -2.113618
   48       -1.896785
   49       -1.700203
   50       -1.612565
   51       -1.519337
   52       -1.297216
   53       -1.060003
   54       -0.563153
   55       -0.069416
   56        0.136523
   57        0.476112
   58        1.066111
   59        1.417083
   60        1.501370
   61        1.557755
   62        1.743880
   63        2.050934
   64        2.255339
   65        2.421306
   66        2.461506
   67        2.528991
   68        2.705951
 
 -0.4615385E+00  0.2500000E+00  0.0000000E+00  0.1923077E-01
    1      -14.154331
    2      -11.677472
    3      -11.539342
    4      -11.074870
    5      -10.957807
    6      -10.937591
    7      -10.812402
    8      -10.761801
    9      -10.710995
   10      -10.687545
   11      -10.592937
   12       -9.831461
   13       -9.501375
   14       -8.761450
   15       -8.724855
   16       -8.438365
   17       -7.948724
   18       -7.767225
   19       -7.608683
   20       -7.520570
   21       -7.284544
   22       -7.225032
   23       -7.076871
   24       -6.112912
   25       -5.511323
   26       -5.126191
   27       -4.740366
   28       -4.582917
   29       -4.426963
   30       -4.369825
   31       -4.046062
   32       -4.013252
   33       -3.960408
   34       -3.891042
   35       -3.751989
   36       -3.662446
   37       -3.448838
   38       -3.345747
   39       -3.182313
   40       -2.979824
   41       -2.812014
   42       -2.687909
   43       -2.513971
   44       -2.478542
   45       -2.359847
   46       -2.165769
   47       -2.128847
   48       -1.880998
   49       -1.702618
   50       -1.582004
   51       -1.502312
   52       -1.279862
   53       -1.056104
   54       -0.584545
   55       -0.021496
   56        0.254296
   57        0.603770
   58        1.097960
   59        1.362517
   60        1.638954
   61        1.750942
   62        1.769262
   63        2.176151
   64        2.292123
   65        2.353784
   66        2.474396
   67        2.566791
   68        2.628301
 
 -0.3846154E+00  0.2500000E+00  0.0000000E+00  0.1923077E-01
    1      -14.361496
    2      -12.106882
    3      -11.843889
    4      -11.489265
    5      -11.349210
    6      -11.248819
    7      -10.940698
    8      -10.849609
    9      -10.633880
   10      -10.586339
   11      -10.455345
   12       -9.867290
   13       -9.307510
   14       -8.746706
   15       -8.496902
   16       -8.483953
   17       -7.603167
   18       -7.444654
   19       -7.334099
   20       -7.048872
   21       -6.812907
   22       -6.757902
   23       -6.663706
   24       -6.199455
   25       -5.608299
   26       -5.095596
   27       -4.992522
   28       -4.842704
   29       -4.438928
   30       -4.404522
   31       -4.293772
   32       -4.201340
   33       -4.083739
   34       -3.788977
   35       -3.726868
   36       -3.413592
   37       -3.373993
   38       -3.197407
   39       -3.103290
   40       -2.952568
   41       -2.758132
   42       -2.586836
   43       -2.441443
   44       -2.284379
   45       -2.227797
   46       -2.106774
   47       -1.949154
   48       -1.874077
   49       -1.797625
   50       -1.463246
   51       -1.397652
   52       -1.228166
   53       -0.871349
   54       -0.500706
   55        0.090037
   56        0.423876
   57        0.750241
   58        1.231315
   59        1.379373
   60        1.770065
   61        1.888279
   62        2.107615
   63        2.261297
   64        2.352029
   65        2.417455
   66        2.511995
   67        2.584439
   68        2.684320
 
 -0.3076923E+00  0.2500000E+00  0.0000000E+00  0.1923077E-01
    1      -14.661955
    2      -12.600890
    3      -12.159168
    4      -11.951564
    5      -11.735456
    6      -11.646358
    7      -11.256812
    8      -11.173102
    9      -10.778424
   10      -10.773648
   11      -10.425426
   12       -9.717754
   13       -9.156773
   14       -8.559706
   15       -8.192154
   16       -8.078687
   17       -7.214601
   18       -7.005546
   19       -6.874718
   20       -6.727673
   21       -6.359389
   22       -6.158919
   23       -5.980210
   24       -5.894587
   25       -5.573333
   26       -5.163364
   27       -5.016110
   28       -4.877829
   29       -4.652143
   30       -4.533639
   31       -4.330389
   32       -4.254795
   33       -4.166841
   34       -3.768360
   35       -3.465335
   36       -3.284311
   37       -3.155981
   38       -3.088048
   39       -2.998973
   40       -2.840543
   41       -2.752457
   42       -2.634519
   43       -2.389927
   44       -2.158676
   45       -2.031015
   46       -1.891908
   47       -1.869058
   48       -1.740049
   49       -1.685901
   50       -1.315247
   51       -1.218654
   52       -0.947285
   53       -0.654453
   54       -0.360090
   55        0.263087
   56        0.549246
   57        0.918811
   58        1.441116
   59        1.631399
   60        1.899573
   61        1.984427
   62        2.245733
   63        2.374703
   64        2.520020
   65        2.650624
   66        2.669394
   67        2.767627
   68        2.849899
 
 -0.2307692E+00  0.2500000E+00  0.0000000E+00  0.1923077E-01
    1      -14.956042
    2      -12.996149
    3      -12.489945
    4      -12.356028
    5      -12.064576
    6      -11.995515
    7      -11.562551
    8      -11.494571
    9      -11.035456
   10      -11.030119
   11      -10.603649
   12       -9.700989
   13       -8.998029
   14       -8.403821
   15       -7.787608
   16       -7.574980
   17       -7.025974
   18       -6.704205
   19       -6.643490
   20       -6.594151
   21       -6.032992
   22       -5.742790
   23       -5.476543
   24       -5.336928
   25       -5.197982
   26       -4.841170
   27       -4.754092
   28       -4.603889
   29       -4.518540
   30       -4.359544
   31       -4.187618
   32       -4.043988
   33       -3.786421
   34       -3.679404
   35       -3.456333
   36       -3.316457
   37       -3.226251
   38       -2.996856
   39       -2.906469
   40       -2.690547
   41       -2.551167
   42       -2.483685
   43       -2.415749
   44       -2.131508
   45       -1.905734
   46       -1.833797
   47       -1.760228
   48       -1.501547
   49       -1.440834
   50       -1.100390
   51       -1.052000
   52       -0.589442
   53       -0.379366
   54       -0.147805
   55        0.438429
   56        0.682501
   57        1.189038
   58        1.615494
   59        1.822111
   60        1.999993
   61        2.234429
   62        2.369953
   63        2.421589
   64        2.699638
   65        2.833138
   66        2.907633
   67        2.929381
   68        3.061516
 
 -0.1538462E+00  0.2500000E+00  0.0000000E+00  0.1923077E-01
    1      -15.190028
    2      -13.279949
    3      -12.757603
    4      -12.671138
    5      -12.309813
    6      -12.256715
    7      -11.804607
    8      -11.733172
    9      -11.267108
   10      -11.255438
   11      -10.806114
   12       -9.774591
   13       -8.953793
   14       -8.383641
   15       -7.545247
   16       -7.379758
   17       -6.826455
   18       -6.676761
   19       -6.557226
   20       -6.383207
   21       -5.841740
   22       -5.693280
   23       -5.206594
   24       -4.984418
   25       -4.837379
   26       -4.291609
   27       -4.213220
   28       -4.155969
   29       -3.966380
   30       -3.906657
   31       -3.714706
   32       -3.673288
   33       -3.451397
   34       -3.322253
   35       -3.148050
   36       -3.046073
   37       -2.936028
   38       -2.900069
   39       -2.817413
   40       -2.634700
   41       -2.510216
   42       -2.326442
   43       -2.189185
   44       -2.015419
   45       -1.923478
   46       -1.779101
   47       -1.623837
   48       -1.431074
   49       -1.191283
   50       -1.006319
   51       -0.933296
   52       -0.515427
   53       -0.176904
   54        0.113874
   55        0.445435
   56        0.917988
   57        1.471094
   58        1.637545
   59        1.809380
   60        2.194698
   61        2.377368
   62        2.464014
   63        2.639378
   64        2.704941
   65        2.789206
   66        2.922854
   67        3.007670
   68        3.133521
 
 -0.7692308E-01  0.2500000E+00  0.0000000E+00  0.1923077E-01
    1      -15.337995
    2      -13.445728
    3      -12.931234
    4      -12.881394
    5      -12.458123