 running on    8 total cores
 distrk:  each k-point on    8 cores,    1 groups
 distr:  one band on    2 cores,    4 groups
 using from now: INCAR     
 vasp.5.3.5 31Mar14 (build Oct 29 2014 16:16:03) complex                        
  
 POSCAR found type information on POSCAR  P  Si
 POSCAR found :  2 types and      24 ions
 scaLAPACK will be used

 ----------------------------------------------------------------------------- 
|                                                                             |
|  ADVICE TO THIS USER RUNNING 'VASP/VAMP'   (HEAR YOUR MASTER'S VOICE ...):  |
|                                                                             |
|      You have switched on vdW-DFT.                                          |
|      This routine was written and supplied by Jiri Klimes.                  |
|      We recommed that you carefully read and cite the following             |
|      publication                                                            |
|      J. Klimes, D.R. Bowler, A. Michelides                                  |
|        J. Phys.: Cond Matt. 22 022201 (2010)                                |
|      J. Klimes, D.R. Bowler, A. Michelides                                  |
|        Phys. Rev. B. 83, 195131 (2011)                                      |
|      and references therein.                                                |
|                                                                             |
 ----------------------------------------------------------------------------- 


 ----------------------------------------------------------------------------- 
|                                                                             |
|  ADVICE TO THIS USER RUNNING 'VASP/VAMP'   (HEAR YOUR MASTER'S VOICE ...):  |
|                                                                             |
|      You enforced a specific xc-type in the INCAR file,                     |
|      a different type was found on the POTCAR file                          |
|          I HOPE YOU KNOW, WHAT YOU ARE  DOING                               |
|                                                                             |
 ----------------------------------------------------------------------------- 

 LDA part: xc-table for Pade appr. of Perdew


 VERY BAD NEWS! internal error in subroutine IBZKPT:
 Reciprocal lattice and k-lattice belong to different class of lattices. Often results are still useful...      96


 VERY BAD NEWS! internal error in subroutine IBZKPT:
 Reciprocal lattice and k-lattice belong to different class of lattices. Often results are still useful...      96


 VERY BAD NEWS! internal error in subroutine IBZKPT:
 Reciprocal lattice and k-lattice belong to different class of lattices. Often results are still useful...      96


 VERY BAD NEWS! internal error in subroutine IBZKPT:
 Reciprocal lattice and k-lattice belong to different class of lattices. Often results are still useful...      96


 VERY BAD NEWS! internal error in subroutine IBZKPT:
 Reciprocal lattice and k-lattice belong to different class of lattices. Often results are still useful...      96


 VERY BAD NEWS! internal error in subroutine IBZKPT:
 Reciprocal lattice and k-lattice belong to different class of lattices. Often results are still useful...      96


 VERY BAD NEWS! internal error in subroutine IBZKPT:
 Reciprocal lattice and k-lattice belong to different class of lattices. Often results are still useful...      96


 VERY BAD NEWS! internal error in subroutine IBZKPT:
 Reciprocal lattice and k-lattice belong to different class of lattices. Often results are still useful...      96
 POSCAR, INCAR and KPOINTS ok, starting setup
 WARNING: small aliasing (wrap around) errors must be expected
 FFT: planning ...
 WAVECAR not read
 entering main loop
       N       E                     dE             d eps       ncg     rms          rms(c)
Total vdW correction in eV:     15.9610555
DAV:   1     0.506567948744E+03    0.50657E+03   -0.28735E+04  7376   0.790E+02
DAV:   2    -0.588214632476E+02   -0.56539E+03   -0.55103E+03  9764   0.190E+02
DAV:   3    -0.116733270088E+03   -0.57912E+02   -0.57114E+02  8776   0.631E+01
DAV:   4    -0.119490433417E+03   -0.27572E+01   -0.27407E+01 11320   0.147E+01
DAV:   5    -0.119541038530E+03   -0.50605E-01   -0.50547E-01  9784   0.205E+00    0.124E+01
Total vdW correction in eV:     16.3653579
DAV:   6    -0.115001215717E+03    0.45398E+01   -0.14272E+01  9036   0.105E+01    0.655E+00
Total vdW correction in eV:     16.7557394
DAV:   7    -0.114814175556E+03    0.18704E+00   -0.12326E+01  8516   0.809E+00    0.285E+00
Total vdW correction in eV:     16.9058757
DAV:   8    -0.114814243037E+03   -0.67481E-04   -0.13036E+00  8720   0.319E+00    0.158E+00
Total vdW correction in eV:     17.0358306
DAV:   9    -0.114787621660E+03    0.26621E-01   -0.23039E-01  8968   0.158E+00    0.474E-01
Total vdW correction in eV:     17.0898556
DAV:  10    -0.114789913457E+03   -0.22918E-02   -0.80837E-02  8792   0.866E-01    0.237E-01
Total vdW correction in eV:     17.1036234
DAV:  11    -0.114785149293E+03    0.47642E-02   -0.10585E-02  9064   0.343E-01    0.114E-01
Total vdW correction in eV:     17.1116644
DAV:  12    -0.114778573307E+03    0.65760E-02   -0.54103E-03  8992   0.191E-01    0.612E-02
Total vdW correction in eV:     17.1167649
DAV:  13    -0.114774464607E+03    0.41087E-02   -0.67259E-04  8864   0.844E-02    0.273E-02
Total vdW correction in eV:     17.1216138
DAV:  14    -0.114772115152E+03    0.23495E-02   -0.29809E-04  9200   0.450E-02    0.152E-02
Total vdW correction in eV:     17.1249451
DAV:  15    -0.114771171975E+03    0.94318E-03   -0.67908E-05  9040   0.235E-02    0.955E-03
Total vdW correction in eV:     17.1278924
DAV:  16    -0.114771002456E+03    0.16952E-03   -0.61487E-05  8200   0.210E-02    0.639E-03
Total vdW correction in eV:     17.1293808
DAV:  17    -0.114771400314E+03   -0.39786E-03   -0.85763E-05  8368   0.216E-02    0.363E-03
Total vdW correction in eV:     17.1297621
DAV:  18    -0.114771705848E+03   -0.30553E-03   -0.10511E-04  8256   0.191E-02    0.220E-03
Total vdW correction in eV:     17.1296290
DAV:  19    -0.114771874789E+03   -0.16894E-03   -0.54523E-05  7488   0.136E-02    0.127E-03
Total vdW correction in eV:     17.1293924
DAV:  20    -0.114771896059E+03   -0.21271E-04   -0.14551E-05  6888   0.794E-03    0.831E-04
Total vdW correction in eV:     17.1291645
DAV:  21    -0.114771889605E+03    0.64541E-05   -0.32389E-05  7208   0.102E-02    0.611E-04
Total vdW correction in eV:     17.1290753
DAV:  22    -0.114771867760E+03    0.21845E-04   -0.14336E-05  6600   0.102E-02    0.357E-04
Total vdW correction in eV:     17.1290421
DAV:  23    -0.114771790195E+03    0.77566E-04   -0.10022E-05  6720   0.815E-03    0.200E-04
Total vdW correction in eV:     17.1290369
DAV:  24    -0.114771771699E+03    0.18496E-04   -0.64686E-06  6208   0.828E-03    0.870E-05
Total vdW correction in eV:     17.1290418
DAV:  25    -0.114771761217E+03    0.10481E-04   -0.56316E-06  6736   0.747E-03    0.755E-05
Total vdW correction in eV:     17.1290428
DAV:  26    -0.114771760680E+03    0.53764E-06   -0.30460E-06  6048   0.594E-03
Total vdW correction in eV:     17.1290420
Total vdW correction in eV:     17.1290431
   1 F= -.11477176E+03 E0= -.11475775E+03  d E =-.280198E-01
