       N       E                     dE             d eps       ncg     rms          rms(c)
DAV:   1     0.506567948744E+03    0.50657E+03   -0.28735E+04  7376   0.790E+02
DAV:   2    -0.588214632476E+02   -0.56539E+03   -0.55103E+03  9764   0.190E+02
DAV:   3    -0.116733270088E+03   -0.57912E+02   -0.57114E+02  8776   0.631E+01
DAV:   4    -0.119490433417E+03   -0.27572E+01   -0.27407E+01 11320   0.147E+01
DAV:   5    -0.119541038530E+03   -0.50605E-01   -0.50547E-01  9784   0.205E+00    0.124E+01
DAV:   6    -0.115001215717E+03    0.45398E+01   -0.14272E+01  9036   0.105E+01    0.655E+00
DAV:   7    -0.114814175556E+03    0.18704E+00   -0.12326E+01  8516   0.809E+00    0.285E+00
DAV:   8    -0.114814243037E+03   -0.67481E-04   -0.13036E+00  8720   0.319E+00    0.158E+00
DAV:   9    -0.114787621660E+03    0.26621E-01   -0.23039E-01  8968   0.158E+00    0.474E-01
DAV:  10    -0.114789913457E+03   -0.22918E-02   -0.80837E-02  8792   0.866E-01    0.237E-01
DAV:  11    -0.114785149293E+03    0.47642E-02   -0.10585E-02  9064   0.343E-01    0.114E-01
DAV:  12    -0.114778573307E+03    0.65760E-02   -0.54103E-03  8992   0.191E-01    0.612E-02
DAV:  13    -0.114774464607E+03    0.41087E-02   -0.67259E-04  8864   0.844E-02    0.273E-02
DAV:  14    -0.114772115152E+03    0.23495E-02   -0.29809E-04  9200   0.450E-02    0.152E-02
DAV:  15    -0.114771171975E+03    0.94318E-03   -0.67908E-05  9040   0.235E-02    0.955E-03
DAV:  16    -0.114771002456E+03    0.16952E-03   -0.61487E-05  8200   0.210E-02    0.639E-03
DAV:  17    -0.114771400314E+03   -0.39786E-03   -0.85763E-05  8368   0.216E-02    0.363E-03
DAV:  18    -0.114771705848E+03   -0.30553E-03   -0.10511E-04  8256   0.191E-02    0.220E-03
DAV:  19    -0.114771874789E+03   -0.16894E-03   -0.54523E-05  7488   0.136E-02    0.127E-03
DAV:  20    -0.114771896059E+03   -0.21271E-04   -0.14551E-05  6888   0.794E-03    0.831E-04
DAV:  21    -0.114771889605E+03    0.64541E-05   -0.32389E-05  7208   0.102E-02    0.611E-04
DAV:  22    -0.114771867760E+03    0.21845E-04   -0.14336E-05  6600   0.102E-02    0.357E-04
DAV:  23    -0.114771790195E+03    0.77566E-04   -0.10022E-05  6720   0.815E-03    0.200E-04
DAV:  24    -0.114771771699E+03    0.18496E-04   -0.64686E-06  6208   0.828E-03    0.870E-05
DAV:  25    -0.114771761217E+03    0.10481E-04   -0.56316E-06  6736   0.747E-03    0.755E-05
DAV:  26    -0.114771760680E+03    0.53764E-06   -0.30460E-06  6048   0.594E-03
   1 F= -.11477176E+03 E0= -.11475775E+03  d E =-.280198E-01
