<?xml version="1.0" encoding="ISO-8859-1"?>
<modeling>
 <generator>
  <i name="program" type="string">vasp </i>
  <i name="version" type="string">5.4.1  </i>
  <i name="subversion" type="string">24Jun15 (build May 10 2016 14:18:23) complex                          parallel </i>
  <i name="platform" type="string">IFC91_ompi </i>
  <i name="date" type="string">2016 12 09 </i>
  <i name="time" type="string">14:58:04 </i>
 </generator>
 <incar>
  <i type="string" name="PREC">accurate</i>
  <i type="string" name="ALGO"> Fast</i>
  <i type="int" name="ISPIN">     2</i>
  <i type="int" name="IBRION">     2</i>
  <i name="EDIFF">      0.00010000</i>
  <i type="int" name="NSW">     0</i>
  <i type="int" name="ISIF">     3</i>
  <i name="ENCUT">    500.00000000</i>
  <v name="MAGMOM">      6.00000000      0.50000000      0.50000000      6.00000000      0.50000000      0.50000000</v>
  <i type="string" name="LREAL"> Auto</i>
  <i type="int" name="ISMEAR">     1</i>
  <i name="SIGMA">      0.10000000</i>
  <i type="logical" name="LWAVE"> F  </i>
  <i type="logical" name="LCHARG"> F  </i>
  <i type="logical" name="LVTOT"> T  </i>
  <i type="logical" name="LVHAR"> T  </i>
  <i type="logical" name="LAECHG"> F  </i>
  <v type="int" name="KPOINT_BSE">    -1     0     0     0</v>
  <i type="string" name="GGA"> Bo</i>
  <i name="PARAM1">      0.18333333</i>
  <i name="PARAM2">      0.22000000</i>
  <i type="logical" name="LUSE_VDW"> T  </i>
  <i name="AGGAC">      0.00000000</i>
 </incar>
 <kpoints>
  <generation param="Gamma">
   <v type="int" name="divisions">      13       13        1 </v>
   <v name="usershift">      0.00000000       0.00000000       0.00000000 </v>
   <v name="genvec1">      0.07692308       0.00000000       0.00000000 </v>
   <v name="genvec2">      0.00000000       0.07692308       0.00000000 </v>
   <v name="genvec3">      0.00000000       0.00000000       1.00000000 </v>
   <v name="shift">      0.00000000       0.00000000       0.00000000 </v>
  </generation>
  <varray name="kpointlist" >
   <v>       0.00000000       0.00000000       0.00000000 </v>
   <v>       0.07692308      -0.00000000       0.00000000 </v>
   <v>       0.15384615       0.00000000       0.00000000 </v>
   <v>       0.23076923       0.00000000       0.00000000 </v>
   <v>       0.30769231      -0.00000000       0.00000000 </v>
   <v>       0.38461538       0.00000000       0.00000000 </v>
   <v>       0.46153846       0.00000000       0.00000000 </v>
   <v>       0.00000000       0.07692308       0.00000000 </v>
   <v>       0.07692308       0.07692308       0.00000000 </v>
   <v>       0.15384615       0.07692308       0.00000000 </v>
   <v>       0.23076923       0.07692308       0.00000000 </v>
   <v>       0.30769231       0.07692308       0.00000000 </v>
   <v>       0.38461538       0.07692308       0.00000000 </v>
   <v>       0.46153846       0.07692308       0.00000000 </v>
   <v>      -0.46153846       0.07692308       0.00000000 </v>
   <v>      -0.38461538       0.07692308       0.00000000 </v>
   <v>      -0.30769231       0.07692308       0.00000000 </v>
   <v>      -0.23076923       0.07692308       0.00000000 </v>
   <v>      -0.15384615       0.07692308       0.00000000 </v>
   <v>      -0.07692308       0.07692308       0.00000000 </v>
   <v>       0.00000000       0.15384615       0.00000000 </v>
   <v>       0.07692308       0.15384615       0.00000000 </v>
   <v>       0.15384615       0.15384615       0.00000000 </v>
   <v>       0.23076923       0.15384615       0.00000000 </v>
   <v>       0.30769231       0.15384615       0.00000000 </v>
   <v>       0.38461538       0.15384615       0.00000000 </v>
   <v>       0.46153846       0.15384615       0.00000000 </v>
   <v>      -0.46153846       0.15384615       0.00000000 </v>
   <v>      -0.38461538       0.15384615       0.00000000 </v>
   <v>      -0.30769231       0.15384615       0.00000000 </v>
   <v>      -0.23076923       0.15384615       0.00000000 </v>
   <v>      -0.15384615       0.15384615       0.00000000 </v>
   <v>      -0.07692308       0.15384615       0.00000000 </v>
   <v>       0.00000000       0.23076923       0.00000000 </v>
   <v>       0.07692308       0.23076923       0.00000000 </v>
   <v>       0.15384615       0.23076923       0.00000000 </v>
   <v>       0.23076923       0.23076923       0.00000000 </v>
   <v>       0.30769231       0.23076923       0.00000000 </v>
   <v>       0.38461538       0.23076923       0.00000000 </v>
   <v>       0.46153846       0.23076923       0.00000000 </v>
   <v>      -0.46153846       0.23076923       0.00000000 </v>
   <v>      -0.38461538       0.23076923       0.00000000 </v>
   <v>      -0.30769231       0.23076923       0.00000000 </v>
   <v>      -0.23076923       0.23076923       0.00000000 </v>
   <v>      -0.15384615       0.23076923       0.00000000 </v>
   <v>      -0.07692308       0.23076923       0.00000000 </v>
   <v>       0.00000000       0.30769231       0.00000000 </v>
   <v>       0.07692308       0.30769231       0.00000000 </v>
   <v>       0.15384615       0.30769231       0.00000000 </v>
   <v>       0.23076923       0.30769231       0.00000000 </v>
   <v>       0.30769231       0.30769231       0.00000000 </v>
   <v>       0.38461538       0.30769231       0.00000000 </v>
   <v>       0.46153846       0.30769231       0.00000000 </v>
   <v>      -0.46153846       0.30769231       0.00000000 </v>
   <v>      -0.38461538       0.30769231       0.00000000 </v>
   <v>      -0.30769231       0.30769231       0.00000000 </v>
   <v>      -0.23076923       0.30769231       0.00000000 </v>
   <v>      -0.15384615       0.30769231       0.00000000 </v>
   <v>      -0.07692308       0.30769231       0.00000000 </v>
   <v>       0.00000000       0.38461538       0.00000000 </v>
   <v>       0.07692308       0.38461538       0.00000000 </v>
   <v>       0.15384615       0.38461538       0.00000000 </v>
   <v>       0.23076923       0.38461538       0.00000000 </v>
   <v>       0.30769231       0.38461538       0.00000000 </v>
   <v>       0.38461538       0.38461538       0.00000000 </v>
   <v>       0.46153846       0.38461538       0.00000000 </v>
   <v>      -0.46153846       0.38461538       0.00000000 </v>
   <v>      -0.38461538       0.38461538       0.00000000 </v>
   <v>      -0.30769231       0.38461538       0.00000000 </v>
   <v>      -0.23076923       0.38461538       0.00000000 </v>
   <v>      -0.15384615       0.38461538       0.00000000 </v>
   <v>      -0.07692308       0.38461538       0.00000000 </v>
   <v>       0.00000000       0.46153846       0.00000000 </v>
   <v>       0.07692308       0.46153846       0.00000000 </v>
   <v>       0.15384615       0.46153846       0.00000000 </v>
   <v>       0.23076923       0.46153846       0.00000000 </v>
   <v>       0.30769231       0.46153846       0.00000000 </v>
   <v>       0.38461538       0.46153846       0.00000000 </v>
   <v>       0.46153846       0.46153846       0.00000000 </v>
   <v>      -0.46153846       0.46153846       0.00000000 </v>
   <v>      -0.38461538       0.46153846       0.00000000 </v>
   <v>      -0.30769231       0.46153846       0.00000000 </v>
   <v>      -0.23076923       0.46153846       0.00000000 </v>
   <v>      -0.15384615       0.46153846       0.00000000 </v>
   <v>      -0.07692308       0.46153846       0.00000000 </v>
  </varray>
  <varray name="weights" >
   <v>       0.00591716 </v>
   <v>       0.01183432 </v>
   <v>       0.01183432 </v>
   <v>       0.01183432 </v>
   <v>       0.01183432 </v>
   <v>       0.01183432 </v>
   <v>       0.01183432 </v>
   <v>       0.01183432 </v>
   <v>       0.01183432 </v>
   <v>       0.01183432 </v>
   <v>       0.01183432 </v>
   <v>       0.01183432 </v>
   <v>       0.01183432 </v>
   <v>       0.01183432 </v>
   <v>       0.01183432 </v>
   <v>       0.01183432 </v>
   <v>       0.01183432 </v>
   <v>       0.01183432 </v>
   <v>       0.01183432 </v>
   <v>       0.01183432 </v>
   <v>       0.01183432 </v>
   <v>       0.01183432 </v>
   <v>       0.01183432 </v>
   <v>       0.01183432 </v>
   <v>       0.01183432 </v>
   <v>       0.01183432 </v>
   <v>       0.01183432 </v>
   <v>       0.01183432 </v>
   <v>       0.01183432 </v>
   <v>       0.01183432 </v>
   <v>       0.01183432 </v>
   <v>       0.01183432 </v>
   <v>       0.01183432 </v>
   <v>       0.01183432 </v>
   <v>       0.01183432 </v>
   <v>       0.01183432 </v>
   <v>       0.01183432 </v>
   <v>       0.01183432 </v>
   <v>       0.01183432 </v>
   <v>       0.01183432 </v>
   <v>       0.01183432 </v>
   <v>       0.01183432 </v>
   <v>       0.01183432 </v>
   <v>       0.01183432 </v>
   <v>       0.01183432 </v>
   <v>       0.01183432 </v>
   <v>       0.01183432 </v>
   <v>       0.01183432 </v>
   <v>       0.01183432 </v>
   <v>       0.01183432 </v>
   <v>       0.01183432 </v>
   <v>       0.01183432 </v>
   <v>       0.01183432 </v>
   <v>       0.01183432 </v>
   <v>       0.01183432 </v>
   <v>       0.01183432 </v>
   <v>       0.01183432 </v>
   <v>       0.01183432 </v>
   <v>       0.01183432 </v>
   <v>       0.01183432 </v>
   <v>       0.01183432 </v>
   <v>       0.01183432 </v>
   <v>       0.01183432 </v>
   <v>       0.01183432 </v>
   <v>       0.01183432 </v>
   <v>       0.01183432 </v>
   <v>       0.01183432 </v>
   <v>       0.01183432 </v>
   <v>       0.01183432 </v>
   <v>       0.01183432 </v>
   <v>       0.01183432 </v>
   <v>       0.01183432 </v>
   <v>       0.01183432 </v>
   <v>       0.01183432 </v>
   <v>       0.01183432 </v>
   <v>       0.01183432 </v>
   <v>       0.01183432 </v>
   <v>       0.01183432 </v>
   <v>       0.01183432 </v>
   <v>       0.01183432 </v>
   <v>       0.01183432 </v>
   <v>       0.01183432 </v>
   <v>       0.01183432 </v>
   <v>       0.01183432 </v>
   <v>       0.01183432 </v>
  </varray>
 </kpoints>
 <parameters>
  <separator name="general" >
   <i type="string" name="SYSTEM">unknown system</i>
   <i type="logical" name="LCOMPAT"> F  </i>
  </separator>
  <separator name="electronic" >
   <i type="string" name="PREC">accura</i>
   <i name="ENMAX">    500.00000000</i>
   <i name="ENAUG">    392.42700000</i>
   <i name="EDIFF">      0.00010000</i>
   <i type="int" name="IALGO">    68</i>
   <i type="int" name="IWAVPR">    10</i>
   <i type="int" name="NBANDS">    36</i>
   <i name="NELECT">     48.00000000</i>
   <i type="int" name="TURBO">     0</i>
   <i type="int" name="IRESTART">     0</i>
   <i type="int" name="NREBOOT">     0</i>
   <i type="int" name="NMIN">     0</i>
   <i name="EREF">      0.00000000</i>
   <separator name="electronic smearing" >
    <i type="int" name="ISMEAR">     1</i>
    <i name="SIGMA">      0.10000000</i>
    <i name="KSPACING">      0.50000000</i>
    <i type="logical" name="KGAMMA"> T  </i>
   </separator>
   <separator name="electronic projectors" >
    <i type="logical" name="LREAL"> T  </i>
    <v name="ROPT">     -0.00025000     -0.00025000     -0.00025000     -0.00025000</v>
    <i type="int" name="LMAXPAW">  -100</i>
    <i type="int" name="LMAXMIX">     2</i>
    <i type="logical" name="NLSPLINE"> F  </i>
   </separator>
   <separator name="electronic startup" >
    <i type="int" name="ISTART">     0</i>
    <i type="int" name="ICHARG">     2</i>
    <i type="int" name="INIWAV">     1</i>
   </separator>
   <separator name="electronic spin" >
    <i type="int" name="ISPIN">     2</i>
    <i type="logical" name="LNONCOLLINEAR"> F  </i>
    <v name="MAGMOM">      6.00000000      0.50000000      0.50000000      6.00000000      0.50000000      0.50000000</v>
    <i name="NUPDOWN">     -1.00000000</i>
    <i type="logical" name="LSORBIT"> F  </i>
    <v name="SAXIS">      0.00000000      0.00000000      1.00000000</v>
    <i type="logical" name="LSPIRAL"> F  </i>
    <v name="QSPIRAL">      0.00000000      0.00000000      0.00000000</v>
    <i type="logical" name="LZEROZ"> F  </i>
   </separator>
   <separator name="electronic exchange-correlation" >
    <i type="logical" name="LASPH"> F  </i>
    <i type="logical" name="LMETAGGA"> F  </i>
   </separator>
   <separator name="electronic convergence" >
    <i type="int" name="NELM">    60</i>
    <i type="int" name="NELMDL">     0</i>
    <i type="int" name="NELMIN">     2</i>
    <i name="ENINI">    500.00000000</i>
    <separator name="electronic convergence detail" >
     <i type="logical" name="LDIAG"> T  </i>
     <i type="logical" name="LSUBROT"> F  </i>
     <i name="WEIMIN">      0.00000000</i>
     <i name="EBREAK">      0.00000069</i>
     <i name="DEPER">      0.30000000</i>
     <i type="int" name="NRMM">     4</i>
     <i name="TIME">      0.40000000</i>
    </separator>
   </separator>
   <separator name="electronic mixer" >
    <i name="AMIX">      0.40000000</i>
    <i name="BMIX">      1.00000000</i>
    <i name="AMIN">      0.10000000</i>
    <i name="AMIX_MAG">      1.60000000</i>
    <i name="BMIX_MAG">      1.00000000</i>
    <separator name="electronic mixer details" >
     <i type="int" name="IMIX">     4</i>
     <i type="logical" name="MIXFIRST"> F  </i>
     <i type="int" name="MAXMIX">   -45</i>
     <i name="WC">    100.00000000</i>
     <i type="int" name="INIMIX">     1</i>
     <i type="int" name="MIXPRE">     1</i>
     <i type="int" name="MREMOVE">     5</i>
    </separator>
   </separator>
   <separator name="electronic dipolcorrection" >
    <i type="logical" name="LDIPOL"> F  </i>
    <i type="logical" name="LMONO"> F  </i>
    <i type="int" name="IDIPOL">     0</i>
    <i name="EPSILON">      1.00000000</i>
    <v name="DIPOL">   -100.00000000   -100.00000000   -100.00000000</v>
    <i name="EFIELD">      0.00000000</i>
   </separator>
  </separator>
  <separator name="grids" >
   <i type="int" name="NGX">    24</i>
   <i type="int" name="NGY">    24</i>
   <i type="int" name="NGZ">   180</i>
   <i type="int" name="NGXF">    48</i>
   <i type="int" name="NGYF">    48</i>
   <i type="int" name="NGZF">   360</i>
   <i type="logical" name="ADDGRID"> F  </i>
  </separator>
  <separator name="ionic" >
   <i type="int" name="NSW">     0</i>
   <i type="int" name="IBRION">    -1</i>
   <i type="int" name="ISIF">     3</i>
   <i name="PSTRESS">      0.00000000</i>
   <i name="EDIFFG">      0.00100000</i>
   <i type="int" name="NFREE">     1</i>
   <i name="POTIM">      0.50000000</i>
   <i name="SMASS">     -3.00000000</i>
   <i name="SCALEE">      1.00000000</i>
  </separator>
  <separator name="ionic md" >
   <i name="TEBEG">      0.00010000</i>
   <i name="TEEND">      0.00010000</i>
   <i type="int" name="NBLOCK">     1</i>
   <i type="int" name="KBLOCK">     1</i>
   <i type="int" name="NPACO">   256</i>
   <i name="APACO">     16.00000000</i>
  </separator>
  <separator name="symmetry" >
   <i type="int" name="ISYM">     2</i>
   <i name="SYMPREC">      0.00001000</i>
  </separator>
  <separator name="dos" >
   <i type="logical" name="LORBIT"> F  </i>
   <v name="RWIGS">     -1.00000000     -1.00000000     -1.00000000     -1.00000000</v>
   <i type="int" name="NEDOS">   301</i>
   <i name="EMIN">     10.00000000</i>
   <i name="EMAX">    -10.00000000</i>
   <i name="EFERMI">      0.00000000</i>
  </separator>
  <separator name="writing" >
   <i type="int" name="NWRITE">     2</i>
   <i type="logical" name="LWAVE"> F  </i>
   <i type="logical" name="LCHARG"> F  </i>
   <i type="logical" name="LPARD"> F  </i>
   <i type="logical" name="LVTOT"> F  </i>
   <i type="logical" name="LVHAR"> T  </i>
   <i type="logical" name="LELF"> F  </i>
   <i type="logical" name="LOPTICS"> F  </i>
   <v name="STM">      0.00000000      0.00000000      0.00000000      0.00000000      0.00000000      0.00000000      0.00000000</v>
  </separator>
  <separator name="performance" >
   <i type="int" name="NPAR">     4</i>
   <i type="int" name="NSIM">     4</i>
   <i type="int" name="NBLK">    -1</i>
   <i type="logical" name="LPLANE"> T  </i>
   <i type="logical" name="LSCALAPACK"> T  </i>
   <i type="logical" name="LSCAAWARE"> F  </i>
   <i type="logical" name="LSCALU"> F  </i>
   <i type="logical" name="LASYNC"> F  </i>
   <i type="logical" name="LORBITALREAL"> F  </i>
  </separator>
  <separator name="miscellaneous" >
   <i type="int" name="IDIOT">     3</i>
   <i type="logical" name="LMUSIC"> F  </i>
   <v name="POMASS">     95.94000000     32.06600000     95.94000000     32.06600000</v>
   <v name="DARWINR">      0.00000000      0.00000000      0.00000000      0.00000000</v>
   <v name="DARWINV">      1.00000000      1.00000000      1.00000000      1.00000000</v>
   <i type="logical" name="LCORR"> T  </i>
  </separator>
  <i type="logical" name="GGA_COMPAT"> T  </i>
  <i type="logical" name="LBERRY"> F  </i>
  <i type="int" name="ICORELEVEL">     0</i>
  <i type="logical" name="LDAU"> F  </i>
  <i type="int" name="I_CONSTRAINED_M">     0</i>
  <separator name="electronic exchange-correlation" >
   <i type="string" name="GGA">BO</i>
   <i type="int" name="VOSKOWN">     0</i>
   <i type="logical" name="LHFCALC"> F  </i>
   <i type="string" name="PRECFOCK"></i>
   <i type="logical" name="LSYMGRAD"> F  </i>
   <i type="logical" name="LHFONE"> F  </i>
   <i type="logical" name="LRHFCALC"> F  </i>
   <i type="logical" name="LTHOMAS"> F  </i>
   <i type="logical" name="LMODELHF"> F  </i>
   <i name="ENCUT4O">     -1.00000000</i>
   <i type="int" name="EXXOEP">     0</i>
   <i type="int" name="FOURORBIT">     0</i>
   <i name="AEXX">      0.00000000</i>
   <i name="HFALPHA">      0.00000000</i>
   <i name="MCALPHA">      0.00000000</i>
   <i name="ALDAX">      1.00000000</i>
   <i name="AGGAX">      1.00000000</i>
   <i name="ALDAC">      1.00000000</i>
   <i name="AGGAC">      0.00000000</i>
   <i type="int" name="NKREDX">     1</i>
   <i type="int" name="NKREDY">     1</i>
   <i type="int" name="NKREDZ">     1</i>
   <i type="logical" name="SHIFTRED"> F  </i>
   <i type="logical" name="ODDONLY"> F  </i>
   <i type="logical" name="EVENONLY"> F  </i>
   <i type="int" name="LMAXFOCK">     0</i>
   <i type="int" name="NMAXFOCKAE">     0</i>
   <i type="logical" name="LFOCKAEDFT"> F  </i>
   <i name="HFSCREEN">      0.00000000</i>
   <i name="HFSCREENC">      0.00000000</i>
   <i type="int" name="NBANDSGWLOW">     0</i>
  </separator>
  <separator name="vdW DFT" >
   <i type="logical" name="LUSE_VDW"> T  </i>
   <i name="Zab_VDW">     -0.84910000</i>
   <i name="PARAM1">      0.18333333</i>
   <i name="PARAM2">      0.22000000</i>
   <i name="PARAM3">      0.00000000</i>
  </separator>
  <separator name="model GW" >
   <i type="int" name="MODEL_GW">     0</i>
   <i name="MODEL_EPS0">     20.39722663</i>
   <i name="MODEL_ALPHA">      1.00000000</i>
  </separator>
  <separator name="linear response parameters" >
   <i type="logical" name="LEPSILON"> F  </i>
   <i type="logical" name="LRPA"> F  </i>
   <i type="logical" name="LNABLA"> F  </i>
   <i type="logical" name="LVEL"> F  </i>
   <i type="int" name="KINTER">     0</i>
   <i name="CSHIFT">      0.10000000</i>
   <i name="OMEGAMAX">     -1.00000000</i>
   <i name="DEG_THRESHOLD">      0.00200000</i>
  </separator>
  <separator name="orbital magnetization" >
   <i type="logical" name="NUCIND"> F  </i>
   <v name="MAGPOS">      0.00000000      0.00000000      0.00000000</v>
   <i type="logical" name="LNICSALL"> T  </i>
   <i type="logical" name="ORBITALMAG"> F  </i>
   <i type="logical" name="LMAGBLOCH"> F  </i>
   <i type="logical" name="LCHIMAG"> F  </i>
   <i type="logical" name="LGAUGE"> T  </i>
   <i type="int" name="MAGATOM">     0</i>
   <v name="MAGDIPOL">      0.00000000      0.00000000      0.00000000</v>
   <v name="AVECCONST">      0.00000000      0.00000000      0.00000000</v>
  </separator>
  <separator name="response functions" >
   <i type="logical" name="LADDER"> F  </i>
   <i type="logical" name="LFXC"> F  </i>
   <i type="logical" name="LHARTREE"> T  </i>
   <i type="int" name="IBSE">     0</i>
   <v type="int" name="KPOINT">    -1     0     0     0</v>
   <i type="logical" name="LTCTE"> F  </i>
   <i type="logical" name="LTETE"> F  </i>
   <i type="logical" name="LTRIPLET"> F  </i>
   <i type="logical" name="LFXCEPS"> F  </i>
   <i type="logical" name="LFXHEG"> F  </i>
   <i type="int" name="NATURALO">     0</i>
   <i type="logical" name="L2ORDER"> F  </i>
   <i type="logical" name="LUSEW"> F  </i>
   <i name="ENCUTGW">     -2.00000000</i>
   <i name="ENCUTGWSOFT">     -2.00000000</i>
   <i name="ENCUTLF">     -1.00000000</i>
   <i type="int" name="LMAXMP2">    -1</i>
   <i name="SCISSOR">      0.00000000</i>
   <i type="int" name="NOMEGA">     0</i>
   <i type="int" name="NOMEGAR">     0</i>
   <i type="int" name="NBANDSGW">    -1</i>
   <i type="int" name="NBANDSO">    -1</i>
   <i type="int" name="NBANDSV">    -1</i>
   <i type="int" name="NELM">     1</i>
   <i type="int" name="NELMHF">     1</i>
   <i type="int" name="DIM">     3</i>
   <i type="int" name="ANTIRES">     0</i>
   <i name="OMEGAMAX">    -30.00000000</i>
   <i name="OMEGAMIN">    -30.00000000</i>
   <i name="OMEGATL">   -200.00000000</i>
   <i type="int" name="OMEGAGRID">     0</i>
   <i name="CSHIFT">     -0.10000000</i>
   <i type="logical" name="SELFENERGY"> F  </i>
   <i type="logical" name="LSPECTRAL"> F  </i>
   <i type="logical" name="LSPECTRALGW"> F  </i>
   <i type="logical" name="LSINGLES"> F  </i>
   <i type="logical" name="LFERMIGW"> F  </i>
   <i type="logical" name="ODDONLYGW"> F  </i>
   <i type="logical" name="EVENONLYGW"> F  </i>
   <i type="int" name="NKREDLFX">     1</i>
   <i type="int" name="NKREDLFY">     1</i>
   <i type="int" name="NKREDLFZ">     1</i>
   <i type="int" name="MAXMEM">  1800</i>
   <i type="int" name="TELESCOPE">     0</i>
   <i type="int" name="TAUPAR">     1</i>
   <i type="int" name="OMEGAPAR">    -1</i>
   <i name="LAMBDA">      1.00000000</i>
  </separator>
  <separator name="External order field" >
   <i name="OFIELD_KAPPA">      0.00000000</i>
   <v name="OFIELD_K">      0.00000000      0.00000000      0.00000000</v>
   <i name="OFIELD_Q6_NEAR">      0.00000000</i>
   <i name="OFIELD_Q6_FAR">      0.00000000</i>
   <i name="OFIELD_A">      0.00000000</i>
  </separator>
 </parameters>
 <atominfo>
  <atoms>       6 </atoms>
  <types>       4 </types>
  <array name="atoms" >
   <dimension dim="1">ion</dimension>
   <field type="string">element</field>
   <field type="int">atomtype</field>
   <set>
    <rc><c>Mo</c><c>   1</c></rc>
    <rc><c>S </c><c>   2</c></rc>
    <rc><c>S </c><c>   2</c></rc>
    <rc><c>Mo</c><c>   3</c></rc>
    <rc><c>S </c><c>   4</c></rc>
    <rc><c>S </c><c>   4</c></rc>
   </set>
  </array>
  <array name="atomtypes" >
   <dimension dim="1">type</dimension>
   <field type="int">atomspertype</field>
   <field type="string">element</field>
   <field>mass</field>
   <field>valence</field>
   <field type="string">pseudopotential</field>
   <set>
    <rc><c>   1</c><c>Mo</c><c>     95.94000000</c><c>     12.00000000</c><c> PAW_PBE Mo_pv 08Apr2002                </c></rc>
    <rc><c>   2</c><c>S </c><c>     32.06600000</c><c>      6.00000000</c><c>  PAW_PBE S 17Jan2003                   </c></rc>
    <rc><c>   1</c><c>Mo</c><c>     95.94000000</c><c>     12.00000000</c><c> PAW_PBE Mo_pv 08Apr2002                </c></rc>
    <rc><c>   2</c><c>S </c><c>     32.06600000</c><c>      6.00000000</c><c>  PAW_PBE S 17Jan2003                   </c></rc>
   </set>
  </array>
 </atominfo>
 <structure name="initialpos" >
  <crystal>
   <varray name="basis" >
    <v>       3.19031700       0.00000000       0.00000000 </v>
    <v>      -1.59515800       2.76289700       0.00000000 </v>
    <v>       0.00000000       0.00000000      23.14049200 </v>
   </varray>
   <i name="volume">    203.97226633 </i>
   <varray name="rec_basis" >
    <v>       0.31344848       0.18096941       0.00000000 </v>
    <v>       0.00000000       0.36193894       0.00000000 </v>
    <v>       0.00000000       0.00000000       0.04321429 </v>
   </varray>
  </crystal>
  <varray name="positions" >
   <v>       0.66666700       0.33333300       0.06785900 </v>
   <v>       0.33333300       0.66666700       0.00000000 </v>
   <v>       0.33333300       0.66666700       0.13571500 </v>
   <v>       0.95238129       0.33333300       0.35482300 </v>
   <v>       0.61904729       0.66666700       0.28696500 </v>
   <v>       0.61904729       0.66666700       0.42267900 </v>
  </varray>
 </structure>
 <calculation>
  <scstep>
   <time name="dav">  103.38  103.47</time>
   <time name="total">  122.81  122.92</time>
   <energy>
    <i name="alphaZ">    104.15310261 </i>
    <i name="ewald">   7699.15925170 </i>
    <i name="hartreedc"> -11109.20445279 </i>
    <i name="XCdc">    128.46668660 </i>
    <i name="pawpsdc">   2252.92270536 </i>
    <i name="pawaedc">  -2205.68654582 </i>
    <i name="eentropy">     -0.00096033 </i>
    <i name="bandstr">   -159.58487922 </i>
    <i name="atom">   3688.31848598 </i>
    <i name="e_fr_energy">    398.54339409 </i>
    <i name="e_wo_entrp">    398.54435442 </i>
    <i name="e_0_energy">    398.54371420 </i>
   </energy>
  </scstep>
  <scstep>
   <time name="dav">  111.81  111.90</time>
   <time name="total">  111.82  111.92</time>
   <energy>
    <i name="e_fr_energy">     -1.67514223 </i>
    <i name="e_wo_entrp">     -1.67443705 </i>
    <i name="e_0_energy">     -1.67490717 </i>
   </energy>
  </scstep>
  <scstep>
   <time name="dav">  115.03  115.12</time>
   <time name="total">  115.04  115.13</time>
   <energy>
    <i name="e_fr_energy">    -32.96171614 </i>
    <i name="e_wo_entrp">    -32.96258411 </i>
    <i name="e_0_energy">    -32.96200546 </i>
   </energy>
  </scstep>
  <scstep>
   <time name="dav">  110.29  110.38</time>
   <time name="total">  110.30  110.39</time>
   <energy>
    <i name="e_fr_energy">    -33.83834984 </i>
    <i name="e_wo_entrp">    -33.83930844 </i>
    <i name="e_0_energy">    -33.83866937 </i>
   </energy>
  </scstep>
  <scstep>
   <time name="dav">  114.54  114.63</time>
   <time name="total">  123.81  123.91</time>
   <energy>
    <i name="e_fr_energy">    -33.86537669 </i>
    <i name="e_wo_entrp">    -33.86635200 </i>
    <i name="e_0_energy">    -33.86570179 </i>
   </energy>
  </scstep>
  <scstep>
   <time name="diag">   21.60   21.62</time>
   <time name="diis">   75.25   75.32</time>
   <time name="orth">    0.72    0.72</time>
   <time name="total">  125.70  125.80</time>
   <energy>
    <i name="e_fr_energy">    -30.09001993 </i>
    <i name="e_wo_entrp">    -30.08984767 </i>
    <i name="e_0_energy">    -30.08996251 </i>
   </energy>
  </scstep>
  <scstep>
   <time name="diag">   21.74   21.76</time>
   <time name="diis">   75.25   75.31</time>
   <time name="orth">    0.72    0.72</time>
   <time name="total">  125.63  125.73</time>
   <energy>
    <i name="e_fr_energy">    -32.81091358 </i>
    <i name="e_wo_entrp">    -32.81109264 </i>
    <i name="e_0_energy">    -32.81097327 </i>
   </energy>
  </scstep>
  <scstep>
   <time name="diag">   21.48   21.50</time>
   <time name="diis">   79.38   79.44</time>
   <time name="orth">    0.72    0.72</time>
   <time name="total">  129.55  129.65</time>
   <energy>
    <i name="e_fr_energy">    -34.62310065 </i>
    <i name="e_wo_entrp">    -34.62326436 </i>
    <i name="e_0_energy">    -34.62315522 </i>
   </energy>
  </scstep>
  <scstep>
   <time name="diag">   21.37   21.39</time>
   <time name="diis">   86.20   86.27</time>
   <time name="orth">    0.72    0.72</time>
   <time name="total">  136.25  136.36</time>
   <energy>
    <i name="e_fr_energy">    -38.75040226 </i>
    <i name="e_wo_entrp">    -38.75056811 </i>
    <i name="e_0_energy">    -38.75045754 </i>
   </energy>
  </scstep>
  <scstep>
   <time name="diag">   21.53   21.54</time>
   <time name="diis">   67.75   67.81</time>
   <time name="orth">    0.72    0.72</time>
   <time name="total">  117.77  117.86</time>
   <energy>
    <i name="e_fr_energy">    -38.48421386 </i>
    <i name="e_wo_entrp">    -38.48470560 </i>
    <i name="e_0_energy">    -38.48437778 </i>
   </energy>
  </scstep>
  <scstep>
   <time name="diag">   21.44   21.46</time>
   <time name="diis">   70.96   71.01</time>
   <time name="orth">    0.72    0.72</time>
   <time name="total">  121.24  121.34</time>
   <energy>
    <i name="e_fr_energy">    -39.20774337 </i>
    <i name="e_wo_entrp">    -39.20793156 </i>
    <i name="e_0_energy">    -39.20780610 </i>
   </energy>
  </scstep>
  <scstep>
   <time name="diag">   21.28   21.30</time>
   <time name="diis">   77.56   77.62</time>
   <time name="orth">    0.72    0.72</time>
   <time name="total">  127.54  127.64</time>
   <energy>
    <i name="e_fr_energy">    -39.33958306 </i>
    <i name="e_wo_entrp">    -39.33988888 </i>
    <i name="e_0_energy">    -39.33968500 </i>
   </energy>
  </scstep>
  <scstep>
   <time name="diag">   21.38   21.40</time>
   <time name="diis">   76.83   76.89</time>
   <time name="orth">    0.72    0.72</time>
   <time name="total">  127.18  127.42</time>
   <energy>
    <i name="e_fr_energy">    -39.37871821 </i>
    <i name="e_wo_entrp">    -39.37904734 </i>
    <i name="e_0_energy">    -39.37882792 </i>
   </energy>
  </scstep>
  <scstep>
   <time name="diag">   21.43   21.44</time>
   <time name="diis">   77.95   78.01</time>
   <time name="orth">    0.72    0.72</time>
   <time name="total">  128.39  128.49</time>
   <energy>
    <i name="e_fr_energy">    -39.40413126 </i>
    <i name="e_wo_entrp">    -39.40446273 </i>
    <i name="e_0_energy">    -39.40424175 </i>
   </energy>
  </scstep>
  <scstep>
   <time name="diag">   21.37   21.38</time>
   <time name="diis">   77.02   77.08</time>
   <time name="orth">    0.72    0.72</time>
   <time name="total">  127.44  127.76</time>
   <energy>
    <i name="e_fr_energy">    -39.41043075 </i>
    <i name="e_wo_entrp">    -39.41076255 </i>
    <i name="e_0_energy">    -39.41054135 </i>
   </energy>
  </scstep>
  <scstep>
   <time name="diag">   21.29   21.30</time>
   <time name="diis">   67.92   67.97</time>
   <time name="orth">    0.72    0.72</time>
   <time name="total">  118.29  118.39</time>
   <energy>
    <i name="e_fr_energy">    -39.40970475 </i>
    <i name="e_wo_entrp">    -39.41003669 </i>
    <i name="e_0_energy">    -39.40981539 </i>
   </energy>
  </scstep>
  <scstep>
   <time name="diag">   21.42   21.44</time>
   <time name="diis">   57.36   57.40</time>
   <time name="orth">    0.72    0.72</time>
   <time name="total">  107.83  107.92</time>
   <energy>
    <i name="e_fr_energy">    -39.40939305 </i>
    <i name="e_wo_entrp">    -39.40972506 </i>
    <i name="e_0_energy">    -39.40950372 </i>
   </energy>
  </scstep>
  <scstep>
   <time name="diag">   21.38   21.40</time>
   <time name="diis">   53.46   53.51</time>
   <time name="orth">    0.72    0.72</time>
   <time name="total">  103.93  104.02</time>
   <energy>
    <i name="e_fr_energy">    -39.40954768 </i>
    <i name="e_wo_entrp">    -39.40987966 </i>
    <i name="e_0_energy">    -39.40965834 </i>
   </energy>
  </scstep>
  <scstep>
   <time name="diag">   21.49   21.51</time>
   <time name="diis">   50.55   50.59</time>
   <time name="orth">    0.72    0.72</time>
   <time name="total">  101.26  101.34</time>
   <energy>
    <i name="e_fr_energy">    -39.40999015 </i>
    <i name="e_wo_entrp">    -39.41032212 </i>
    <i name="e_0_energy">    -39.41010081 </i>
   </energy>
  </scstep>
  <scstep>
   <time name="diag">   21.40   21.42</time>
   <time name="diis">   50.33   50.37</time>
   <time name="orth">    0.72    0.72</time>
   <time name="total">  100.95  101.03</time>
   <energy>
    <i name="e_fr_energy">    -39.41028218 </i>
    <i name="e_wo_entrp">    -39.41061412 </i>
    <i name="e_0_energy">    -39.41039282 </i>
   </energy>
  </scstep>
  <scstep>
   <time name="diag">   21.30   21.31</time>
   <time name="diis">   50.51   50.55</time>
   <time name="orth">    0.72    0.72</time>
   <time name="total">  100.96  101.04</time>
   <energy>
    <i name="e_fr_energy">    -39.41049176 </i>
    <i name="e_wo_entrp">    -39.41082369 </i>
    <i name="e_0_energy">    -39.41060240 </i>
   </energy>
  </scstep>
  <scstep>
   <time name="diag">   21.55   21.56</time>
   <time name="diis">   50.05   50.09</time>
   <time name="orth">    0.72    0.72</time>
   <time name="total">   90.85   90.93</time>
   <energy>
    <i name="alphaZ">    104.15310261 </i>
    <i name="ewald">   7699.15925170 </i>
    <i name="hartreedc"> -11092.90626304 </i>
    <i name="XCdc">    122.66860554 </i>
    <i name="pawpsdc">   2399.37083018 </i>
    <i name="pawaedc">  -2361.55556530 </i>
    <i name="eentropy">      0.00033192 </i>
    <i name="bandstr">   -598.61933315 </i>
    <i name="atom">   3688.31848598 </i>
    <i name="e_fr_energy">    -39.41055356 </i>
    <i name="e_wo_entrp">    -39.41088548 </i>
    <i name="e_0_energy">    -39.41066420 </i>
   </energy>
  </scstep>
  <structure>
   <crystal>
    <varray name="basis" >
     <v>       3.19031700       0.00000000       0.00000000 </v>
     <v>      -1.59515800       2.76289700       0.00000000 </v>
     <v>       0.00000000       0.00000000      23.14049200 </v>
    </varray>
    <i name="volume">    203.97226633 </i>
    <varray name="rec_basis" >
     <v>       0.31344848       0.18096941       0.00000000 </v>
     <v>       0.00000000       0.36193894       0.00000000 </v>
     <v>       0.00000000       0.00000000       0.04321429 </v>
    </varray>
   </crystal>
   <varray name="positions" >
    <v>       0.66666700       0.33333300       0.06785900 </v>
    <v>       0.33333300       0.66666700       0.00000000 </v>
    <v>       0.33333300       0.66666700       0.13571500 </v>
    <v>       0.95238129       0.33333300       0.35482300 </v>
    <v>       0.61904729       0.66666700       0.28696500 </v>
    <v>       0.61904729       0.66666700       0.42267900 </v>
   </varray>
  </structure>
  <varray name="forces" >
   <v>      -0.00658171       0.00055227      -0.01035135 </v>
   <v>      -0.00030912      -0.00086498      -0.05518879 </v>
   <v>      -0.03582743       0.00037762       0.07887402 </v>
   <v>       0.00760022       0.00049861       0.01216043 </v>
   <v>       0.03084488       0.00038629      -0.08345998 </v>
   <v>       0.00427316      -0.00094981       0.05796567 </v>
  </varray>
  <varray name="stress" >
   <v>       3.68618770      -0.00473677       1.24904495 </v>
   <v>      -0.00473668       3.25916178      -0.00220230 </v>
   <v>       1.24904499      -0.00220223       1.43839700 </v>
  </varray>
  <energy>
   <i name="e_fr_energy">    -39.41055356 </i>
   <i name="e_wo_entrp">    -39.41066420 </i>
   <i name="e_0_energy">      0.00033192 </i>
  </energy>
  <time name="totalsc"> 2762.24 2764.93</time>
  <eigenvalues>
   <array>
    <dimension dim="1">band</dimension>
    <dimension dim="2">kpoint</dimension>
    <dimension dim="3">spin</dimension>
    <field>eigene</field>
    <field>occ</field>
    <set>
     <set comment="spin 1">
      <set comment="kpoint 1">
       <r>  -34.9917    1.0000 </r>
       <r>  -34.9868    1.0000 </r>
       <r>  -34.8005    1.0000 </r>
       <r>  -34.8003    1.0000 </r>
       <r>  -34.7956    1.0000 </r>
       <r>  -34.7954    1.0000 </r>
       <r>  -13.9747    1.0000 </r>
       <r>  -13.9173    1.0000 </r>
       <r>  -12.7095    1.0000 </r>
       <r>  -12.6136    1.0000 </r>
       <r>   -5.6901    1.0000 </r>
       <r>   -5.3941    1.0000 </r>
       <r>   -2.6212    1.0000 </r>
       <r>   -2.6208    1.0000 </r>
       <r>   -2.6157    1.0000 </r>
       <r>   -2.6152    1.0000 </r>
       <r>   -2.1858    1.0000 </r>
       <r>   -1.5288    1.0000 </r>
       <r>   -1.5278    1.0000 </r>
       <r>   -1.5228    1.0000 </r>
       <r>   -1.5209    1.0000 </r>
       <r>   -1.4660    1.0000 </r>
       <r>   -0.2265    1.0000 </r>
       <r>    0.2258    0.7990 </r>
       <r>    2.6937   -0.0000 </r>
       <r>    2.7012   -0.0000 </r>
       <r>    2.7111   -0.0000 </r>
       <r>    2.7171   -0.0000 </r>
       <r>    2.8746   -0.0000 </r>
       <r>    2.8827   -0.0000 </r>
       <r>    2.8950   -0.0000 </r>
       <r>    2.9045   -0.0000 </r>
       <r>    5.2899    0.0000 </r>
       <r>    5.4126    0.0000 </r>
       <r>    6.3857    0.0000 </r>
       <r>    6.5484    0.0000 </r>
      </set>
      <set comment="kpoint 2">
       <r>  -34.9876    1.0000 </r>
       <r>  -34.9827    1.0000 </r>
       <r>  -34.8218    1.0000 </r>
       <r>  -34.8167    1.0000 </r>
       <r>  -34.8052    1.0000 </r>
       <r>  -34.8004    1.0000 </r>
       <r>  -13.8880    1.0000 </r>
       <r>  -13.8308    1.0000 </r>
       <r>  -12.6728    1.0000 </r>
       <r>  -12.5793    1.0000 </r>
       <r>   -5.5909    1.0000 </r>
       <r>   -5.2953    1.0000 </r>
       <r>   -2.8086    1.0000 </r>
       <r>   -2.8017    1.0000 </r>
       <r>   -2.5304    1.0000 </r>
       <r>   -2.5247    1.0000 </r>
       <r>   -2.4675    1.0000 </r>
       <r>   -2.0688    1.0000 </r>
       <r>   -1.6658    1.0000 </r>
       <r>   -1.6589    1.0000 </r>
       <r>   -1.3644    1.0000 </r>
       <r>   -1.0650    1.0000 </r>
       <r>   -0.2473    1.0000 </r>
       <r>    0.1507    1.0340 </r>
       <r>    2.5817   -0.0000 </r>
       <r>    2.6072   -0.0000 </r>
       <r>    2.6394   -0.0000 </r>
       <r>    2.7123   -0.0000 </r>
       <r>    2.7822   -0.0000 </r>
       <r>    2.8056   -0.0000 </r>
       <r>    2.8475   -0.0000 </r>
       <r>    2.8631   -0.0000 </r>
       <r>    5.4326    0.0000 </r>
       <r>    5.5503    0.0000 </r>
       <r>    6.7473    0.0000 </r>
       <r>    6.9313    0.0000 </r>
      </set>
      <set comment="kpoint 3">
       <r>  -34.9763    1.0000 </r>
       <r>  -34.9713    1.0000 </r>
       <r>  -34.8802    1.0000 </r>
       <r>  -34.8752    1.0000 </r>
       <r>  -34.8186    1.0000 </r>
       <r>  -34.8138    1.0000 </r>
       <r>  -13.6395    1.0000 </r>
       <r>  -13.5830    1.0000 </r>
       <r>  -12.5677    1.0000 </r>
       <r>  -12.4810    1.0000 </r>
       <r>   -5.3307    1.0000 </r>
       <r>   -5.0414    1.0000 </r>
       <r>   -3.2627    1.0000 </r>
       <r>   -3.2464    1.0000 </r>
       <r>   -2.9639    1.0000 </r>
       <r>   -2.6854    1.0000 </r>
       <r>   -2.2752    1.0000 </r>
       <r>   -2.2687    1.0000 </r>
       <r>   -2.0014    1.0000 </r>
       <r>   -1.9935    1.0000 </r>
       <r>   -1.2827    1.0000 </r>
       <r>   -0.9343    1.0000 </r>
       <r>   -0.3771    1.0000 </r>
       <r>   -0.1269    1.0000 </r>
       <r>    2.1716   -0.0000 </r>
       <r>    2.3611   -0.0000 </r>
       <r>    2.4914   -0.0000 </r>
       <r>    2.5525   -0.0000 </r>
       <r>    2.5795   -0.0000 </r>
       <r>    2.6244   -0.0000 </r>
       <r>    3.1916    0.0000 </r>
       <r>    3.2135    0.0000 </r>
       <r>    5.7872    0.0000 </r>
       <r>    5.8994    0.0000 </r>
       <r>    7.4132    0.0000 </r>
       <r>    7.8307    0.0000 </r>
      </set>
      <set comment="kpoint 4">
       <r>  -34.9618    1.0000 </r>
       <r>  -34.9600    1.0000 </r>
       <r>  -34.9570    1.0000 </r>
       <r>  -34.9549    1.0000 </r>
       <r>  -34.8374    1.0000 </r>
       <r>  -34.8326    1.0000 </r>
       <r>  -13.2642    1.0000 </r>
       <r>  -13.2098    1.0000 </r>
       <r>  -12.4098    1.0000 </r>
       <r>  -12.3338    1.0000 </r>
       <r>   -5.0662    1.0000 </r>
       <r>   -4.8255    1.0000 </r>
       <r>   -3.7329    1.0000 </r>
       <r>   -3.6709    1.0000 </r>
       <r>   -3.4916    1.0000 </r>
       <r>   -3.3050    1.0000 </r>
       <r>   -2.3969    1.0000 </r>
       <r>   -2.3881    1.0000 </r>
       <r>   -1.9068    1.0000 </r>
       <r>   -1.8984    1.0000 </r>
       <r>   -1.4566    1.0000 </r>
       <r>   -1.1227    1.0000 </r>
       <r>   -0.6950    1.0000 </r>
       <r>   -0.5765    1.0000 </r>
       <r>    1.9412   -0.0000 </r>
       <r>    2.2378   -0.0000 </r>
       <r>    2.3033   -0.0000 </r>
       <r>    2.3299   -0.0000 </r>
       <r>    2.6882   -0.0000 </r>
       <r>    2.9037   -0.0000 </r>
       <r>    3.5708    0.0000 </r>
       <r>    3.6018    0.0000 </r>
       <r>    6.3010    0.0000 </r>
       <r>    6.4069    0.0000 </r>
       <r>    7.8795    0.0000 </r>
       <r>    8.3066    0.0000 </r>
      </set>
      <set comment="kpoint 5">
       <r>  -35.0470    1.0000 </r>
       <r>  -35.0419    1.0000 </r>
       <r>  -34.9430    1.0000 </r>
       <r>  -34.9381    1.0000 </r>
       <r>  -34.8573    1.0000 </r>
       <r>  -34.8525    1.0000 </r>
       <r>  -12.8236    1.0000 </r>
       <r>  -12.7736    1.0000 </r>
       <r>  -12.2271    1.0000 </r>
       <r>  -12.1646    1.0000 </r>
       <r>   -5.1177    1.0000 </r>
       <r>   -4.9968    1.0000 </r>
       <r>   -4.0651    1.0000 </r>
       <r>   -3.9335    1.0000 </r>
       <r>   -3.8678    1.0000 </r>
       <r>   -3.7398    1.0000 </r>
       <r>   -2.7525    1.0000 </r>
       <r>   -2.7430    1.0000 </r>
       <r>   -1.7296    1.0000 </r>
       <r>   -1.5138    1.0000 </r>
       <r>   -1.4999    1.0000 </r>
       <r>   -1.4195    1.0000 </r>
       <r>   -0.9869    1.0000 </r>
       <r>   -0.9007    1.0000 </r>
       <r>    2.0352   -0.0000 </r>
       <r>    2.1361   -0.0000 </r>
       <r>    2.1590   -0.0000 </r>
       <r>    2.3202   -0.0000 </r>
       <r>    3.0969    0.0000 </r>
       <r>    3.3496    0.0000 </r>
       <r>    3.8705    0.0000 </r>
       <r>    3.9125    0.0000 </r>
       <r>    6.9245    0.0000 </r>
       <r>    7.0149    0.0000 </r>
       <r>    7.8527    0.0000 </r>
       <r>    8.0755    0.0000 </r>
      </set>
      <set comment="kpoint 6">
       <r>  -35.1167    1.0000 </r>
       <r>  -35.1117    1.0000 </r>
       <r>  -34.9288    1.0000 </r>
       <r>  -34.9239    1.0000 </r>
       <r>  -34.8738    1.0000 </r>
       <r>  -34.8690    1.0000 </r>
       <r>  -12.4118    1.0000 </r>
       <r>  -12.3689    1.0000 </r>
       <r>  -12.0607    1.0000 </r>
       <r>  -12.0125    1.0000 </r>
       <r>   -5.4316    1.0000 </r>
       <r>   -5.3708    1.0000 </r>
       <r>   -4.4787    1.0000 </r>
       <r>   -4.3891    1.0000 </r>
       <r>   -3.9626    1.0000 </r>
       <r>   -3.8154    1.0000 </r>
       <r>   -3.0126    1.0000 </r>
       <r>   -3.0026    1.0000 </r>
       <r>   -1.9390    1.0000 </r>
       <r>   -1.6525    1.0000 </r>
       <r>   -1.1979    1.0000 </r>
       <r>   -1.1793    1.0000 </r>
       <r>   -0.9471    1.0000 </r>
       <r>   -0.8337    1.0000 </r>
       <r>    2.0945   -0.0000 </r>
       <r>    2.1093   -0.0000 </r>
       <r>    2.3013   -0.0000 </r>
       <r>    2.4940   -0.0000 </r>
       <r>    3.4933    0.0000 </r>
       <r>    3.7306    0.0000 </r>
       <r>    4.0563    0.0000 </r>
       <r>    4.1081    0.0000 </r>
       <r>    6.8084    0.0000 </r>
       <r>    7.1530    0.0000 </r>
       <r>    7.5576    0.0000 </r>
       <r>    7.8757    0.0000 </r>
      </set>
      <set comment="kpoint 7">
       <r>  -35.1558    1.0000 </r>
       <r>  -35.1507    1.0000 </r>
       <r>  -34.9207    1.0000 </r>
       <r>  -34.9158    1.0000 </r>
       <r>  -34.8830    1.0000 </r>
       <r>  -34.8782    1.0000 </r>
       <r>  -12.1530    1.0000 </r>
       <r>  -12.1172    1.0000 </r>
       <r>  -11.9587    1.0000 </r>
       <r>  -11.9213    1.0000 </r>
       <r>   -5.6696    1.0000 </r>
       <r>   -5.6253    1.0000 </r>
       <r>   -4.7271    1.0000 </r>
       <r>   -4.6577    1.0000 </r>
       <r>   -4.0640    1.0000 </r>
       <r>   -3.9287    1.0000 </r>
       <r>   -3.1486    1.0000 </r>
       <r>   -3.1385    1.0000 </r>
       <r>   -2.0400    1.0000 </r>
       <r>   -1.7684    1.0000 </r>
       <r>   -1.0328    1.0000 </r>
       <r>   -1.0096    1.0000 </r>
       <r>   -0.7317    1.0000 </r>
       <r>   -0.6014    1.0000 </r>
       <r>    2.1230   -0.0000 </r>
       <r>    2.1317   -0.0000 </r>
       <r>    2.5583   -0.0000 </r>
       <r>    2.6386   -0.0000 </r>
       <r>    3.7121    0.0000 </r>
       <r>    3.9208    0.0000 </r>
       <r>    4.1401    0.0000 </r>
       <r>    4.1977    0.0000 </r>
       <r>    6.0468    0.0000 </r>
       <r>    6.4784    0.0000 </r>
       <r>    7.8464    0.0000 </r>
       <r>    8.0269    0.0000 </r>
      </set>
      <set comment="kpoint 8">
       <r>  -34.9876    1.0000 </r>
       <r>  -34.9827    1.0000 </r>
       <r>  -34.8217    1.0000 </r>
       <r>  -34.8167    1.0000 </r>
       <r>  -34.8053    1.0000 </r>
       <r>  -34.8004    1.0000 </r>
       <r>  -13.8881    1.0000 </r>
       <r>  -13.8307    1.0000 </r>
       <r>  -12.6729    1.0000 </r>
       <r>  -12.5791    1.0000 </r>
       <r>   -5.5912    1.0000 </r>
       <r>   -5.2951    1.0000 </r>
       <r>   -2.8090    1.0000 </r>
       <r>   -2.8014    1.0000 </r>
       <r>   -2.5304    1.0000 </r>
       <r>   -2.5251    1.0000 </r>
       <r>   -2.4664    1.0000 </r>
       <r>   -2.0688    1.0000 </r>
       <r>   -1.6651    1.0000 </r>
       <r>   -1.6596    1.0000 </r>
       <r>   -1.3717    1.0000 </r>
       <r>   -1.0591    1.0000 </r>
       <r>   -0.2482    1.0000 </r>
       <r>    0.1558    1.0317 </r>
       <r>    2.5622   -0.0000 </r>
       <r>    2.6097   -0.0000 </r>
       <r>    2.6331   -0.0000 </r>
       <r>    2.7335   -0.0000 </r>
       <r>    2.7879   -0.0000 </r>
       <r>    2.8010   -0.0000 </r>
       <r>    2.8490   -0.0000 </r>
       <r>    2.8586   -0.0000 </r>
       <r>    5.4326    0.0000 </r>
       <r>    5.5504    0.0000 </r>
       <r>    6.7501    0.0000 </r>
       <r>    6.9308    0.0000 </r>
      </set>
      <set comment="kpoint 9">
       <r>  -34.9799    1.0000 </r>
       <r>  -34.9750    1.0000 </r>
       <r>  -34.8607    1.0000 </r>
       <r>  -34.8556    1.0000 </r>
       <r>  -34.8152    1.0000 </r>
       <r>  -34.8105    1.0000 </r>
       <r>  -13.7205    1.0000 </r>
       <r>  -13.6634    1.0000 </r>
       <r>  -12.6021    1.0000 </r>
       <r>  -12.5126    1.0000 </r>
       <r>   -5.4098    1.0000 </r>
       <r>   -5.1160    1.0000 </r>
       <r>   -3.1246    1.0000 </r>
       <r>   -3.1129    1.0000 </r>
       <r>   -2.8022    1.0000 </r>
       <r>   -2.4837    1.0000 </r>
       <r>   -2.3621    1.0000 </r>
       <r>   -2.3565    1.0000 </r>
       <r>   -1.9803    1.0000 </r>
       <r>   -1.9708    1.0000 </r>
       <r>   -1.2177    1.0000 </r>
       <r>   -0.8751    1.0000 </r>
       <r>   -0.3236    1.0000 </r>
       <r>   -0.0169    1.0003 </r>
       <r>    2.2736   -0.0000 </r>
       <r>    2.4198   -0.0000 </r>
       <r>    2.4506   -0.0000 </r>
       <r>    2.5604   -0.0000 </r>
       <r>    2.6202   -0.0000 </r>
       <r>    2.6422   -0.0000 </r>
       <r>    3.1265    0.0000 </r>
       <r>    3.1411    0.0000 </r>
       <r>    5.6755    0.0000 </r>
       <r>    5.7916    0.0000 </r>
       <r>    7.2659    0.0000 </r>
       <r>    7.5912    0.0000 </r>
      </set>
      <set comment="kpoint 10">
       <r>  -34.9662    1.0000 </r>
       <r>  -34.9612    1.0000 </r>
       <r>  -34.9283    1.0000 </r>
       <r>  -34.9232    1.0000 </r>
       <r>  -34.8337    1.0000 </r>
       <r>  -34.8290    1.0000 </r>
       <r>  -13.4081    1.0000 </r>
       <r>  -13.3522    1.0000 </r>
       <r>  -12.4701    1.0000 </r>
       <r>  -12.3891    1.0000 </r>
       <r>   -5.1302    1.0000 </r>
       <r>   -4.8581    1.0000 </r>
       <r>   -3.5732    1.0000 </r>
       <r>   -3.5386    1.0000 </r>
       <r>   -3.2352    1.0000 </r>
       <r>   -3.0050    1.0000 </r>
       <r>   -2.4722    1.0000 </r>
       <r>   -2.4384    1.0000 </r>
       <r>   -2.0788    1.0000 </r>
       <r>   -2.0715    1.0000 </r>
       <r>   -1.1991    1.0000 </r>
       <r>   -0.8811    1.0000 </r>
       <r>   -0.5542    1.0000 </r>
       <r>   -0.3901    1.0000 </r>
       <r>    1.9441   -0.0000 </r>
       <r>    2.1863   -0.0000 </r>
       <r>    2.3830   -0.0000 </r>
       <r>    2.4319   -0.0000 </r>
       <r>    2.4535   -0.0000 </r>
       <r>    2.6336   -0.0000 </r>
       <r>    3.5232    0.0000 </r>
       <r>    3.5656    0.0000 </r>
       <r>    6.1097    0.0000 </r>
       <r>    6.2217    0.0000 </r>
       <r>    7.7987    0.0000 </r>
       <r>    8.2534    0.0000 </r>
      </set>
      <set comment="kpoint 11">
       <r>  -35.0086    1.0000 </r>
       <r>  -35.0035    1.0000 </r>
       <r>  -34.9495    1.0000 </r>
       <r>  -34.9446    1.0000 </r>
       <r>  -34.8561    1.0000 </r>
       <r>  -34.8514    1.0000 </r>
       <r>  -12.9982    1.0000 </r>
       <r>  -12.9453    1.0000 </r>
       <r>  -12.2980    1.0000 </r>
       <r>  -12.2288    1.0000 </r>
       <r>   -5.0038    1.0000 </r>
       <r>   -4.8298    1.0000 </r>
       <r>   -3.8876    1.0000 </r>
       <r>   -3.7657    1.0000 </r>
       <r>   -3.7201    1.0000 </r>
       <r>   -3.5948    1.0000 </r>
       <r>   -2.8683    1.0000 </r>
       <r>   -2.8007    1.0000 </r>
       <r>   -1.7995    1.0000 </r>
       <r>   -1.7851    1.0000 </r>
       <r>   -1.4087    1.0000 </r>
       <r>   -1.1281    1.0000 </r>
       <r>   -0.8568    1.0000 </r>
       <r>   -0.7756    1.0000 </r>
       <r>    1.8394   -0.0000 </r>
       <r>    2.0687   -0.0000 </r>
       <r>    2.2687   -0.0000 </r>
       <r>    2.3768   -0.0000 </r>
       <r>    2.7318   -0.0000 </r>
       <r>    2.9604   -0.0000 </r>
       <r>    3.8670    0.0000 </r>
       <r>    3.9364    0.0000 </r>
       <r>    6.7023    0.0000 </r>
       <r>    6.7960    0.0000 </r>
       <r>    8.1742    0.0000 </r>
       <r>    8.5022    0.0000 </r>
      </set>
      <set comment="kpoint 12">
       <r>  -35.0832    1.0000 </r>
       <r>  -35.0782    1.0000 </r>
       <r>  -34.9338    1.0000 </r>
       <r>  -34.9289    1.0000 </r>
       <r>  -34.8771    1.0000 </r>
       <r>  -34.8724    1.0000 </r>
       <r>  -12.5670    1.0000 </r>
       <r>  -12.5198    1.0000 </r>
       <r>  -12.1198    1.0000 </r>
       <r>  -12.0644    1.0000 </r>
       <r>   -5.2229    1.0000 </r>
       <r>   -5.1409    1.0000 </r>
       <r>   -4.2975    1.0000 </r>
       <r>   -4.2089    1.0000 </r>
       <r>   -3.8860    1.0000 </r>
       <r>   -3.7301    1.0000 </r>
       <r>   -3.0817    1.0000 </r>
       <r>   -3.0150    1.0000 </r>
       <r>   -1.7332    1.0000 </r>
       <r>   -1.6286    1.0000 </r>
       <r>   -1.6119    1.0000 </r>
       <r>   -1.4299    1.0000 </r>
       <r>   -0.8794    1.0000 </r>
       <r>   -0.8176    1.0000 </r>
       <r>    1.9473   -0.0000 </r>
       <r>    2.1004   -0.0000 </r>
       <r>    2.3135   -0.0000 </r>
       <r>    2.4373   -0.0000 </r>
       <r>    3.1528    0.0000 </r>
       <r>    3.3894    0.0000 </r>
       <r>    4.0614    0.0000 </r>
       <r>    4.1558    0.0000 </r>
       <r>    7.2628    0.0000 </r>
       <r>    7.3966    0.0000 </r>
       <r>    7.5491    0.0000 </r>
       <r>    8.0942    0.0000 </r>
      </set>
      <set comment="kpoint 13">
       <r>  -35.1356    1.0000 </r>
       <r>  -35.1305    1.0000 </r>
       <r>  -34.9227    1.0000 </r>
       <r>  -34.9178    1.0000 </r>
       <r>  -34.8920    1.0000 </r>
       <r>  -34.8872    1.0000 </r>
       <r>  -12.2237    1.0000 </r>
       <r>  -12.1843    1.0000 </r>
       <r>  -11.9809    1.0000 </r>
       <r>  -11.9387    1.0000 </r>
       <r>   -5.5017    1.0000 </r>
       <r>   -5.4517    1.0000 </r>
       <r>   -4.6805    1.0000 </r>
       <r>   -4.6172    1.0000 </r>
       <r>   -3.9867    1.0000 </r>
       <r>   -3.8431    1.0000 </r>
       <r>   -3.1673    1.0000 </r>
       <r>   -3.1229    1.0000 </r>
       <r>   -1.9477    1.0000 </r>
       <r>   -1.6931    1.0000 </r>
       <r>   -1.5132    1.0000 </r>
       <r>   -1.4350    1.0000 </r>
       <r>   -0.6662    1.0000 </r>
       <r>   -0.5924    1.0000 </r>
       <r>    2.0991   -0.0000 </r>
       <r>    2.1616   -0.0000 </r>
       <r>    2.4914   -0.0000 </r>
       <r>    2.5921   -0.0000 </r>
       <r>    3.5500    0.0000 </r>
       <r>    3.7575    0.0000 </r>
       <r>    4.0624    0.0000 </r>
       <r>    4.1864    0.0000 </r>
       <r>    6.4533    0.0000 </r>
       <r>    6.8836    0.0000 </r>
       <r>    7.9800    0.0000 </r>
       <r>    8.1960    0.0000 </r>
      </set>
      <set comment="kpoint 14">
       <r>  -35.1544    1.0000 </r>
       <r>  -35.1493    1.0000 </r>
       <r>  -34.9187    1.0000 </r>
       <r>  -34.9137    1.0000 </r>
       <r>  -34.8973    1.0000 </r>
       <r>  -34.8926    1.0000 </r>
       <r>  -12.0893    1.0000 </r>
       <r>  -12.0548    1.0000 </r>
       <r>  -11.9271    1.0000 </r>
       <r>  -11.8916    1.0000 </r>
       <r>   -5.6176    1.0000 </r>
       <r>   -5.5753    1.0000 </r>
       <r>   -4.8216    1.0000 </r>
       <r>   -4.7656    1.0000 </r>
       <r>   -4.0545    1.0000 </r>
       <r>   -3.9190    1.0000 </r>
       <r>   -3.1857    1.0000 </r>
       <r>   -3.1551    1.0000 </r>
       <r>   -2.0323    1.0000 </r>
       <r>   -1.7753    1.0000 </r>
       <r>   -1.4465    1.0000 </r>
       <r>   -1.3744    1.0000 </r>
       <r>   -0.5344    1.0000 </r>
       <r>   -0.4487    1.0000 </r>
       <r>    2.1374   -0.0000 </r>
       <r>    2.1612   -0.0000 </r>
       <r>    2.6464   -0.0000 </r>
       <r>    2.6991   -0.0000 </r>
       <r>    3.8289    0.0000 </r>
       <r>    3.8915    0.0000 </r>
       <r>    3.9801    0.0000 </r>
       <r>    4.1014    0.0000 </r>
       <r>    6.0308    0.0000 </r>
       <r>    6.4832    0.0000 </r>
       <r>    8.2851    0.0000 </r>
       <r>    8.3707    0.0000 </r>
      </set>
      <set comment="kpoint 15">
       <r>  -35.1356    1.0000 </r>
       <r>  -35.1305    1.0000 </r>
       <r>  -34.9227    1.0000 </r>
       <r>  -34.9178    1.0000 </r>
       <r>  -34.8920    1.0000 </r>
       <r>  -34.8872    1.0000 </r>
       <r>  -12.2230    1.0000 </r>
       <r>  -12.1848    1.0000 </r>
       <r>  -11.9803    1.0000 </r>
       <r>  -11.9395    1.0000 </r>
       <r>   -5.5016    1.0000 </r>
       <r>   -5.4520    1.0000 </r>
       <r>   -4.6794    1.0000 </r>
       <r>   -4.6181    1.0000 </r>
       <r>   -3.9865    1.0000 </r>
       <r>   -3.8437    1.0000 </r>
       <r>   -3.1680    1.0000 </r>
       <r>   -3.1214    1.0000 </r>
       <r>   -1.9428    1.0000 </r>
       <r>   -1.6925    1.0000 </r>
       <r>   -1.5069    1.0000 </r>
       <r>   -1.4493    1.0000 </r>
       <r>   -0.6672    1.0000 </r>
       <r>   -0.5912    1.0000 </r>
       <r>    2.0961   -0.0000 </r>
       <r>    2.1659   -0.0000 </r>
       <r>    2.4932   -0.0000 </r>
       <r>    2.5902   -0.0000 </r>
       <r>    3.5680    0.0000 </r>
       <r>    3.7399    0.0000 </r>
       <r>    4.0557    0.0000 </r>
       <r>    4.1907    0.0000 </r>
       <r>    6.4533    0.0000 </r>
       <r>    6.8834    0.0000 </r>
       <r>    8.0126    0.0000 </r>
       <r>    8.2019    0.0000 </r>
      </set>
      <set comment="kpoint 16">
       <r>  -35.0832    1.0000 </r>
       <r>  -35.0782    1.0000 </r>
       <r>  -34.9338    1.0000 </r>
       <r>  -34.9289    1.0000 </r>
       <r>  -34.8771    1.0000 </r>
       <r>  -34.8723    1.0000 </r>
       <r>  -12.5662    1.0000 </r>
       <r>  -12.5205    1.0000 </r>
       <r>  -12.1189    1.0000 </r>
       <r>  -12.0654    1.0000 </r>
       <r>   -5.2228    1.0000 </r>
       <r>   -5.1411    1.0000 </r>
       <r>   -4.2957    1.0000 </r>
       <r>   -4.2101    1.0000 </r>
       <r>   -3.8845    1.0000 </r>
       <r>   -3.7325    1.0000 </r>
       <r>   -3.0807    1.0000 </r>
       <r>   -3.0142    1.0000 </r>
       <r>   -1.7185    1.0000 </r>
       <r>   -1.6304    1.0000 </r>
       <r>   -1.6151    1.0000 </r>
       <r>   -1.4429    1.0000 </r>
       <r>   -0.8785    1.0000 </r>
       <r>   -0.8190    1.0000 </r>
       <r>    1.9495   -0.0000 </r>
       <r>    2.1007   -0.0000 </r>
       <r>    2.3143   -0.0000 </r>
       <r>    2.4352   -0.0000 </r>
       <r>    3.1685    0.0000 </r>
       <r>    3.3719    0.0000 </r>
       <r>    4.0606    0.0000 </r>
       <r>    4.1578    0.0000 </r>
       <r>    7.2631    0.0000 </r>
       <r>    7.3913    0.0000 </r>
       <r>    7.5456    0.0000 </r>
       <r>    8.0807    0.0000 </r>
      </set>
      <set comment="kpoint 17">
       <r>  -35.0086    1.0000 </r>
       <r>  -35.0036    1.0000 </r>
       <r>  -34.9495    1.0000 </r>
       <r>  -34.9446    1.0000 </r>
       <r>  -34.8561    1.0000 </r>
       <r>  -34.8513    1.0000 </r>
       <r>  -12.9976    1.0000 </r>
       <r>  -12.9458    1.0000 </r>
       <r>  -12.2972    1.0000 </r>
       <r>  -12.2297    1.0000 </r>
       <r>   -5.0038    1.0000 </r>
       <r>   -4.8297    1.0000 </r>
       <r>   -3.8842    1.0000 </r>
       <r>   -3.7687    1.0000 </r>
       <r>   -3.7192    1.0000 </r>
       <r>   -3.5967    1.0000 </r>
       <r>   -2.8660    1.0000 </r>
       <r>   -2.8015    1.0000 </r>
       <r>   -1.7997    1.0000 </r>
       <r>   -1.7836    1.0000 </r>
       <r>   -1.4023    1.0000 </r>
       <r>   -1.1363    1.0000 </r>
       <r>   -0.8560    1.0000 </r>
       <r>   -0.7809    1.0000 </r>
       <r>    1.8441   -0.0000 </r>
       <r>    2.0655   -0.0000 </r>
       <r>    2.2698   -0.0000 </r>
       <r>    2.3747   -0.0000 </r>
       <r>    2.7434   -0.0000 </r>
       <r>    2.9494   -0.0000 </r>
       <r>    3.8657    0.0000 </r>
       <r>    3.9399    0.0000 </r>
       <r>    6.7010    0.0000 </r>
       <r>    6.7960    0.0000 </r>
       <r>    8.2004    0.0000 </r>
       <r>    8.4736    0.0000 </r>
      </set>
      <set comment="kpoint 18">
       <r>  -34.9662    1.0000 </r>
       <r>  -34.9612    1.0000 </r>
       <r>  -34.9282    1.0000 </r>
       <r>  -34.9232    1.0000 </r>
       <r>  -34.8338    1.0000 </r>
       <r>  -34.8289    1.0000 </r>
       <r>  -13.4077    1.0000 </r>
       <r>  -13.3526    1.0000 </r>
       <r>  -12.4695    1.0000 </r>
       <r>  -12.3897    1.0000 </r>
       <r>   -5.1295    1.0000 </r>
       <r>   -4.8585    1.0000 </r>
       <r>   -3.5725    1.0000 </r>
       <r>   -3.5391    1.0000 </r>
       <r>   -3.2364    1.0000 </r>
       <r>   -3.0040    1.0000 </r>
       <r>   -2.4705    1.0000 </r>
       <r>   -2.4396    1.0000 </r>
       <r>   -2.0795    1.0000 </r>
       <r>   -2.0707    1.0000 </r>
       <r>   -1.1893    1.0000 </r>
       <r>   -0.8887    1.0000 </r>
       <r>   -0.5514    1.0000 </r>
       <r>   -0.4023    1.0000 </r>
       <r>    1.9501   -0.0000 </r>
       <r>    2.1876   -0.0000 </r>
       <r>    2.3814   -0.0000 </r>
       <r>    2.4248   -0.0000 </r>
       <r>    2.4651   -0.0000 </r>
       <r>    2.6285   -0.0000 </r>
       <r>    3.5181    0.0000 </r>
       <r>    3.5723    0.0000 </r>
       <r>    6.1099    0.0000 </r>
       <r>    6.2213    0.0000 </r>
       <r>    7.7967    0.0000 </r>
       <r>    8.2426    0.0000 </r>
      </set>
      <set comment="kpoint 19">
       <r>  -34.9799    1.0000 </r>
       <r>  -34.9750    1.0000 </r>
       <r>  -34.8606    1.0000 </r>
       <r>  -34.8557    1.0000 </r>
       <r>  -34.8153    1.0000 </r>
       <r>  -34.8104    1.0000 </r>
       <r>  -13.7203    1.0000 </r>
       <r>  -13.6636    1.0000 </r>
       <r>  -12.6017    1.0000 </r>
       <r>  -12.5130    1.0000 </r>
       <r>   -5.4091    1.0000 </r>
       <r>   -5.1166    1.0000 </r>
       <r>   -3.1252    1.0000 </r>
       <r>   -3.1122    1.0000 </r>
       <r>   -2.8037    1.0000 </r>
       <r>   -2.4823    1.0000 </r>
       <r>   -2.3627    1.0000 </r>
       <r>   -2.3560    1.0000 </r>
       <r>   -1.9815    1.0000 </r>
       <r>   -1.9691    1.0000 </r>
       <r>   -1.2075    1.0000 </r>
       <r>   -0.8833    1.0000 </r>
       <r>   -0.3209    1.0000 </r>
       <r>   -0.0296    1.0001 </r>
       <r>    2.2916   -0.0000 </r>
       <r>    2.4211   -0.0000 </r>
       <r>    2.4559   -0.0000 </r>
       <r>    2.5485   -0.0000 </r>
       <r>    2.6102   -0.0000 </r>
       <r>    2.6472   -0.0000 </r>
       <r>    3.1166    0.0000 </r>
       <r>    3.1519    0.0000 </r>
       <r>    5.6761    0.0000 </r>
       <r>    5.7914    0.0000 </r>
       <r>    7.2687    0.0000 </r>
       <r>    7.5944    0.0000 </r>
      </set>
      <set comment="kpoint 20">
       <r>  -34.9876    1.0000 </r>
       <r>  -34.9827    1.0000 </r>
       <r>  -34.8216    1.0000 </r>
       <r>  -34.8168    1.0000 </r>
       <r>  -34.8053    1.0000 </r>
       <r>  -34.8003    1.0000 </r>
       <r>  -13.8880    1.0000 </r>
       <r>  -13.8308    1.0000 </r>
       <r>  -12.6728    1.0000 </r>
       <r>  -12.5793    1.0000 </r>
       <r>   -5.5909    1.0000 </r>
       <r>   -5.2953    1.0000 </r>
       <r>   -2.8088    1.0000 </r>
       <r>   -2.8015    1.0000 </r>
       <r>   -2.5303    1.0000 </r>
       <r>   -2.5249    1.0000 </r>
       <r>   -2.4675    1.0000 </r>
       <r>   -2.0687    1.0000 </r>
       <r>   -1.6659    1.0000 </r>
       <r>   -1.6588    1.0000 </r>
       <r>   -1.3645    1.0000 </r>
       <r>   -1.0650    1.0000 </r>
       <r>   -0.2473    1.0000 </r>
       <r>    0.1506    1.0340 </r>
       <r>    2.5816   -0.0000 </r>
       <r>    2.6074   -0.0000 </r>
       <r>    2.6393   -0.0000 </r>
       <r>    2.7123   -0.0000 </r>
       <r>    2.7820   -0.0000 </r>
       <r>    2.8060   -0.0000 </r>
       <r>    2.8471   -0.0000 </r>
       <r>    2.8633   -0.0000 </r>
       <r>    5.4325    0.0000 </r>
       <r>    5.5503    0.0000 </r>
       <r>    6.7437    0.0000 </r>
       <r>    6.9332    0.0000 </r>
      </set>
      <set comment="kpoint 21">
       <r>  -34.9763    1.0000 </r>
       <r>  -34.9713    1.0000 </r>
       <r>  -34.8801    1.0000 </r>
       <r>  -34.8752    1.0000 </r>
       <r>  -34.8187    1.0000 </r>
       <r>  -34.8138    1.0000 </r>
       <r>  -13.6398    1.0000 </r>
       <r>  -13.5827    1.0000 </r>
       <r>  -12.5682    1.0000 </r>
       <r>  -12.4804    1.0000 </r>
       <r>   -5.3316    1.0000 </r>
       <r>   -5.0407    1.0000 </r>
       <r>   -3.2645    1.0000 </r>
       <r>   -3.2448    1.0000 </r>
       <r>   -2.9631    1.0000 </r>
       <r>   -2.6851    1.0000 </r>
       <r>   -2.2745    1.0000 </r>
       <r>   -2.2692    1.0000 </r>
       <r>   -2.0003    1.0000 </r>
       <r>   -1.9947    1.0000 </r>
       <r>   -1.3016    1.0000 </r>
       <r>   -0.9200    1.0000 </r>
       <r>   -0.3813    1.0000 </r>
       <r>   -0.1081    1.0000 </r>
       <r>    2.1490   -0.0000 </r>
       <r>    2.3635   -0.0000 </r>
       <r>    2.4850   -0.0000 </r>
       <r>    2.5611   -0.0000 </r>
       <r>    2.5717   -0.0000 </r>
       <r>    2.6386   -0.0000 </r>
       <r>    3.1966    0.0000 </r>
       <r>    3.2081    0.0000 </r>
       <r>    5.7862    0.0000 </r>
       <r>    5.9003    0.0000 </r>
       <r>    7.4118    0.0000 </r>
       <r>    7.8338    0.0000 </r>
      </set>
      <set comment="kpoint 22">
       <r>  -34.9662    1.0000 </r>
       <r>  -34.9612    1.0000 </r>
       <r>  -34.9282    1.0000 </r>
       <r>  -34.9232    1.0000 </r>
       <r>  -34.8338    1.0000 </r>
       <r>  -34.8290    1.0000 </r>
       <r>  -13.4084    1.0000 </r>
       <r>  -13.3520    1.0000 </r>
       <r>  -12.4705    1.0000 </r>
       <r>  -12.3886    1.0000 </r>
       <r>   -5.1306    1.0000 </r>
       <r>   -4.8578    1.0000 </r>
       <r>   -3.5762    1.0000 </r>
       <r>   -3.5355    1.0000 </r>
       <r>   -3.2356    1.0000 </r>
       <r>   -3.0040    1.0000 </r>
       <r>   -2.4711    1.0000 </r>
       <r>   -2.4402    1.0000 </r>
       <r>   -2.0781    1.0000 </r>
       <r>   -2.0721    1.0000 </r>
       <r>   -1.2119    1.0000 </r>
       <r>   -0.8722    1.0000 </r>
       <r>   -0.5569    1.0000 </r>
       <r>   -0.3768    1.0000 </r>
       <r>    1.9359   -0.0000 </r>
       <r>    2.1862   -0.0000 </r>
       <r>    2.3864   -0.0000 </r>
       <r>    2.4191   -0.0000 </r>
       <r>    2.4603   -0.0000 </r>
       <r>    2.6364   -0.0000 </r>
       <r>    3.5300    0.0000 </r>
       <r>    3.5597    0.0000 </r>
       <r>    6.1090    0.0000 </r>
       <r>    6.2228    0.0000 </r>
       <r>    7.7973    0.0000 </r>
       <r>    8.2567    0.0000 </r>
      </set>
      <set comment="kpoint 23">
       <r>  -34.9904    1.0000 </r>
       <r>  -34.9853    1.0000 </r>
       <r>  -34.9519    1.0000 </r>
       <r>  -34.9470    1.0000 </r>
       <r>  -34.8601    1.0000 </r>
       <r>  -34.8553    1.0000 </r>
       <r>  -13.0600    1.0000 </r>
       <r>  -13.0055    1.0000 </r>
       <r>  -12.3229    1.0000 </r>
       <r>  -12.2504    1.0000 </r>
       <r>   -4.9556    1.0000 </r>
       <r>   -4.7542    1.0000 </r>
       <r>   -3.8303    1.0000 </r>
       <r>   -3.7207    1.0000 </r>
       <r>   -3.5266    1.0000 </r>
       <r>   -3.3994    1.0000 </r>
       <r>   -3.1046    1.0000 </r>
       <r>   -2.9900    1.0000 </r>
       <r>   -1.9498    1.0000 </r>
       <r>   -1.9380    1.0000 </r>
       <r>   -1.1865    1.0000 </r>
       <r>   -0.9141    1.0000 </r>
       <r>   -0.7911    1.0000 </r>
       <r>   -0.6982    1.0000 </r>
       <r>    1.7475   -0.0000 </r>
       <r>    1.9912   -0.0000 </r>
       <r>    2.3111   -0.0000 </r>
       <r>    2.4087   -0.0000 </r>
       <r>    2.5066   -0.0000 </r>
       <r>    2.7140   -0.0000 </r>
       <r>    3.9105    0.0000 </r>
       <r>    3.9936    0.0000 </r>
       <r>    6.6259    0.0000 </r>
       <r>    6.7286    0.0000 </r>
       <r>    8.3162    0.0000 </r>
       <r>    8.5944    0.0000 </r>
      </set>
      <set comment="kpoint 24">
       <r>  -35.0532    1.0000 </r>
       <r>  -35.0481    1.0000 </r>
       <r>  -34.9367    1.0000 </r>
       <r>  -34.9318    1.0000 </r>
       <r>  -34.8904    1.0000 </r>
       <r>  -34.8856    1.0000 </r>
       <r>  -12.6539    1.0000 </r>
       <r>  -12.6037    1.0000 </r>
       <r>  -12.1508    1.0000 </r>
       <r>  -12.0903    1.0000 </r>
       <r>   -5.0292    1.0000 </r>
       <r>   -4.9232    1.0000 </r>
       <r>   -4.1065    1.0000 </r>
       <r>   -4.0534    1.0000 </r>
       <r>   -3.8099    1.0000 </r>
       <r>   -3.6365    1.0000 </r>
       <r>   -3.3213    1.0000 </r>
       <r>   -3.1616    1.0000 </r>
       <r>   -2.0815    1.0000 </r>
       <r>   -2.0551    1.0000 </r>
       <r>   -1.3923    1.0000 </r>
       <r>   -1.1551    1.0000 </r>
       <r>   -0.8460    1.0000 </r>
       <r>   -0.8068    1.0000 </r>
       <r>    1.7766   -0.0000 </r>
       <r>    2.0439   -0.0000 </r>
       <r>    2.3829   -0.0000 </r>
       <r>    2.4521   -0.0000 </r>
       <r>    2.7598   -0.0000 </r>
       <r>    2.9805   -0.0000 </r>
       <r>    4.1584    0.0000 </r>
       <r>    4.2812    0.0000 </r>
       <r>    7.2657    0.0000 </r>
       <r>    7.3523    0.0000 </r>
       <r>    8.1179    0.0000 </r>
       <r>    8.5474    0.0000 </r>
      </set>
      <set comment="kpoint 25">
       <r>  -35.1038    1.0000 </r>
       <r>  -35.0987    1.0000 </r>
       <r>  -34.9242    1.0000 </r>
       <r>  -34.9192    1.0000 </r>
       <r>  -34.9163    1.0000 </r>
       <r>  -34.9116    1.0000 </r>
       <r>  -12.2794    1.0000 </r>
       <r>  -12.2357    1.0000 </r>
       <r>  -11.9926    1.0000 </r>
       <r>  -11.9450    1.0000 </r>
       <r>   -5.2273    1.0000 </r>
       <r>   -5.1635    1.0000 </r>
       <r>   -4.6461    1.0000 </r>
       <r>   -4.6067    1.0000 </r>
       <r>   -3.8279    1.0000 </r>
       <r>   -3.6650    1.0000 </r>
       <r>   -3.2907    1.0000 </r>
       <r>   -3.1632    1.0000 </r>
       <r>   -2.2360    1.0000 </r>
       <r>   -2.1608    1.0000 </r>
       <r>   -1.7197    1.0000 </r>
       <r>   -1.4964    1.0000 </r>
       <r>   -0.6727    1.0000 </r>
       <r>   -0.6358    1.0000 </r>
       <r>    2.0037   -0.0000 </r>
       <r>    2.2117   -0.0000 </r>
       <r>    2.5046   -0.0000 </r>
       <r>    2.5543   -0.0000 </r>
       <r>    3.1005    0.0000 </r>
       <r>    3.3117    0.0000 </r>
       <r>    4.2316    0.0000 </r>
       <r>    4.3824    0.0000 </r>
       <r>    7.0806    0.0000 </r>
       <r>    7.4732    0.0000 </r>
       <r>    8.0854    0.0000 </r>
       <r>    8.4369    0.0000 </r>
      </set>
      <set comment="kpoint 26">
       <r>  -35.1320    1.0000 </r>
       <r>  -35.1269    1.0000 </r>
       <r>  -34.9313    1.0000 </r>
       <r>  -34.9265    1.0000 </r>
       <r>  -34.9169    1.0000 </r>
       <r>  -34.9120    1.0000 </r>
       <r>  -12.0473    1.0000 </r>
       <r>  -12.0106    1.0000 </r>
       <r>  -11.8944    1.0000 </r>
       <r>  -11.8573    1.0000 </r>
       <r>   -5.3550    1.0000 </r>
       <r>   -5.3106    1.0000 </r>
       <r>   -4.9527    1.0000 </r>
       <r>   -4.9163    1.0000 </r>
       <r>   -3.9595    1.0000 </r>
       <r>   -3.8191    1.0000 </r>
       <r>   -3.1938    1.0000 </r>
       <r>   -3.1163    1.0000 </r>
       <r>   -2.2505    1.0000 </r>
       <r>   -2.1483    1.0000 </r>
       <r>   -1.9709    1.0000 </r>
       <r>   -1.7418    1.0000 </r>
       <r>   -0.4445    1.0000 </r>
       <r>   -0.3953    1.0000 </r>
       <r>    2.0580   -0.0000 </r>
       <r>    2.1083   -0.0000 </r>
       <r>    2.7590   -0.0000 </r>
       <r>    2.8530   -0.0000 </r>
       <r>    3.3609    0.0000 </r>
       <r>    3.5281    0.0000 </r>
       <r>    4.1867    0.0000 </r>
       <r>    4.3627    0.0000 </r>
       <r>    6.3798    0.0000 </r>
       <r>    6.8535    0.0000 </r>
       <r>    8.6779    0.0000 </r>
       <r>    8.7767    0.0000 </r>
      </set>
      <set comment="kpoint 27">
       <r>  -35.1320    1.0000 </r>
       <r>  -35.1269    1.0000 </r>
       <r>  -34.9313    1.0000 </r>
       <r>  -34.9265    1.0000 </r>
       <r>  -34.9169    1.0000 </r>
       <r>  -34.9120    1.0000 </r>
       <r>  -12.0462    1.0000 </r>
       <r>  -12.0113    1.0000 </r>
       <r>  -11.8937    1.0000 </r>
       <r>  -11.8584    1.0000 </r>
       <r>   -5.3548    1.0000 </r>
       <r>   -5.3110    1.0000 </r>
       <r>   -4.9522    1.0000 </r>
       <r>   -4.9167    1.0000 </r>
       <r>   -3.9593    1.0000 </r>
       <r>   -3.8192    1.0000 </r>
       <r>   -3.1945    1.0000 </r>
       <r>   -3.1147    1.0000 </r>
       <r>   -2.2402    1.0000 </r>
       <r>   -2.1534    1.0000 </r>
       <r>   -1.9752    1.0000 </r>
       <r>   -1.7450    1.0000 </r>
       <r>   -0.4442    1.0000 </r>
       <r>   -0.3952    1.0000 </r>
       <r>    2.0559   -0.0000 </r>
       <r>    2.1103   -0.0000 </r>
       <r>    2.7585   -0.0000 </r>
       <r>    2.8540   -0.0000 </r>
       <r>    3.3823    0.0000 </r>
       <r>    3.5044    0.0000 </r>
       <r>    4.1861    0.0000 </r>
       <r>    4.3633    0.0000 </r>
       <r>    6.3807    0.0000 </r>
       <r>    6.8541    0.0000 </r>
       <r>    8.7082    0.0000 </r>
       <r>    8.8331    0.0000 </r>
      </set>
      <set comment="kpoint 28">
       <r>  -35.1038    1.0000 </r>
       <r>  -35.0988    1.0000 </r>
       <r>  -34.9241    1.0000 </r>
       <r>  -34.9192    1.0000 </r>
       <r>  -34.9164    1.0000 </r>
       <r>  -34.9116    1.0000 </r>
       <r>  -12.2774    1.0000 </r>
       <r>  -12.2371    1.0000 </r>
       <r>  -11.9909    1.0000 </r>
       <r>  -11.9471    1.0000 </r>
       <r>   -5.2273    1.0000 </r>
       <r>   -5.1641    1.0000 </r>
       <r>   -4.6445    1.0000 </r>
       <r>   -4.6084    1.0000 </r>
       <r>   -3.8251    1.0000 </r>
       <r>   -3.6670    1.0000 </r>
       <r>   -3.2891    1.0000 </r>
       <r>   -3.1626    1.0000 </r>
       <r>   -2.2229    1.0000 </r>
       <r>   -2.1699    1.0000 </r>
       <r>   -1.7220    1.0000 </r>
       <r>   -1.5044    1.0000 </r>
       <r>   -0.6722    1.0000 </r>
       <r>   -0.6351    1.0000 </r>
       <r>    2.0005   -0.0000 </r>
       <r>    2.2172   -0.0000 </r>
       <r>    2.5062   -0.0000 </r>
       <r>    2.5510   -0.0000 </r>
       <r>    3.1257    0.0000 </r>
       <r>    3.2825    0.0000 </r>
       <r>    4.2322    0.0000 </r>
       <r>    4.3833    0.0000 </r>
       <r>    7.0782    0.0000 </r>
       <r>    7.4764    0.0000 </r>
       <r>    8.0871    0.0000 </r>
       <r>    8.5301    0.0000 </r>
      </set>
      <set comment="kpoint 29">
       <r>  -35.0532    1.0000 </r>
       <r>  -35.0482    1.0000 </r>
       <r>  -34.9367    1.0000 </r>
       <r>  -34.9318    1.0000 </r>
       <r>  -34.8904    1.0000 </r>
       <r>  -34.8856    1.0000 </r>
       <r>  -12.6522    1.0000 </r>
       <r>  -12.6050    1.0000 </r>
       <r>  -12.1490    1.0000 </r>
       <r>  -12.0924    1.0000 </r>
       <r>   -5.0299    1.0000 </r>
       <r>   -4.9230    1.0000 </r>
       <r>   -4.1045    1.0000 </r>
       <r>   -4.0580    1.0000 </r>
       <r>   -3.7989    1.0000 </r>
       <r>   -3.6434    1.0000 </r>
       <r>   -3.3183    1.0000 </r>
       <r>   -3.1636    1.0000 </r>
       <r>   -2.0835    1.0000 </r>
       <r>   -2.0520    1.0000 </r>
       <r>   -1.3847    1.0000 </r>
       <r>   -1.1700    1.0000 </r>
       <r>   -0.8488    1.0000 </r>
       <r>   -0.8049    1.0000 </r>
       <r>    1.7783   -0.0000 </r>
       <r>    2.0440   -0.0000 </r>
       <r>    2.3841   -0.0000 </r>
       <r>    2.4481   -0.0000 </r>
       <r>    2.7748   -0.0000 </r>
       <r>    2.9665   -0.0000 </r>
       <r>    4.1608    0.0000 </r>
       <r>    4.2808    0.0000 </r>
       <r>    7.2655    0.0000 </r>
       <r>    7.3522    0.0000 </r>
       <r>    8.0902    0.0000 </r>
       <r>    8.6719    0.0000 </r>
      </set>
      <set comment="kpoint 30">
       <r>  -34.9903    1.0000 </r>
       <r>  -34.9854    1.0000 </r>
       <r>  -34.9519    1.0000 </r>
       <r>  -34.9470    1.0000 </r>
       <r>  -34.8601    1.0000 </r>
       <r>  -34.8552    1.0000 </r>
       <r>  -13.0588    1.0000 </r>
       <r>  -13.0065    1.0000 </r>
       <r>  -12.3214    1.0000 </r>
       <r>  -12.2521    1.0000 </r>
       <r>   -4.9559    1.0000 </r>
       <r>   -4.7536    1.0000 </r>
       <r>   -3.8230    1.0000 </r>
       <r>   -3.7300    1.0000 </r>
       <r>   -3.5251    1.0000 </r>
       <r>   -3.3989    1.0000 </r>
       <r>   -3.1000    1.0000 </r>
       <r>   -2.9937    1.0000 </r>
       <r>   -1.9527    1.0000 </r>
       <r>   -1.9347    1.0000 </r>
       <r>   -1.1677    1.0000 </r>
       <r>   -0.9273    1.0000 </r>
       <r>   -0.7905    1.0000 </r>
       <r>   -0.7148    1.0000 </r>
       <r>    1.7523   -0.0000 </r>
       <r>    1.9904   -0.0000 </r>
       <r>    2.3129   -0.0000 </r>
       <r>    2.4053   -0.0000 </r>
       <r>    2.5148   -0.0000 </r>
       <r>    2.7104   -0.0000 </r>
       <r>    3.9077    0.0000 </r>
       <r>    3.9975    0.0000 </r>
       <r>    6.6266    0.0000 </r>
       <r>    6.7272    0.0000 </r>
       <r>    8.3202    0.0000 </r>
       <r>    8.6363    0.0000 </r>
      </set>
      <set comment="kpoint 31">
       <r>  -34.9662    1.0000 </r>
       <r>  -34.9612    1.0000 </r>
       <r>  -34.9282    1.0000 </r>
       <r>  -34.9233    1.0000 </r>
       <r>  -34.8338    1.0000 </r>
       <r>  -34.8288    1.0000 </r>
       <r>  -13.4077    1.0000 </r>
       <r>  -13.3526    1.0000 </r>
       <r>  -12.4695    1.0000 </r>
       <r>  -12.3897    1.0000 </r>
       <r>   -5.1295    1.0000 </r>
       <r>   -4.8586    1.0000 </r>
       <r>   -3.5725    1.0000 </r>
       <r>   -3.5392    1.0000 </r>
       <r>   -3.2364    1.0000 </r>
       <r>   -3.0039    1.0000 </r>
       <r>   -2.4706    1.0000 </r>
       <r>   -2.4395    1.0000 </r>
       <r>   -2.0795    1.0000 </r>
       <r>   -2.0707    1.0000 </r>
       <r>   -1.1893    1.0000 </r>
       <r>   -0.8887    1.0000 </r>
       <r>   -0.5514    1.0000 </r>
       <r>   -0.4023    1.0000 </r>
       <r>    1.9501   -0.0000 </r>
       <r>    2.1877   -0.0000 </r>
       <r>    2.3812   -0.0000 </r>
       <r>    2.4249   -0.0000 </r>
       <r>    2.4652   -0.0000 </r>
       <r>    2.6285   -0.0000 </r>
       <r>    3.5180    0.0000 </r>
       <r>    3.5724    0.0000 </r>
       <r>    6.1097    0.0000 </r>
       <r>    6.2214    0.0000 </r>
       <r>    7.7988    0.0000 </r>
       <r>    8.2625    0.0000 </r>
      </set>
      <set comment="kpoint 32">
       <r>  -34.9763    1.0000 </r>
       <r>  -34.9713    1.0000 </r>
       <r>  -34.8801    1.0000 </r>
       <r>  -34.8753    1.0000 </r>
       <r>  -34.8187    1.0000 </r>
       <r>  -34.8137    1.0000 </r>
       <r>  -13.6395    1.0000 </r>
       <r>  -13.5830    1.0000 </r>
       <r>  -12.5677    1.0000 </r>
       <r>  -12.4810    1.0000 </r>
       <r>   -5.3307    1.0000 </r>
       <r>   -5.0414    1.0000 </r>
       <r>   -3.2628    1.0000 </r>
       <r>   -3.2464    1.0000 </r>
       <r>   -2.9639    1.0000 </r>
       <r>   -2.6854    1.0000 </r>
       <r>   -2.2751    1.0000 </r>
       <r>   -2.2688    1.0000 </r>
       <r>   -2.0015    1.0000 </r>
       <r>   -1.9934    1.0000 </r>
       <r>   -1.2827    1.0000 </r>
       <r>   -0.9343    1.0000 </r>
       <r>   -0.3771    1.0000 </r>
       <r>   -0.1269    1.0000 </r>
       <r>    2.1717   -0.0000 </r>
       <r>    2.3612   -0.0000 </r>
       <r>    2.4914   -0.0000 </r>
       <r>    2.5525   -0.0000 </r>
       <r>    2.5794   -0.0000 </r>
       <r>    2.6243   -0.0000 </r>
       <r>    3.1916    0.0000 </r>
       <r>    3.2135    0.0000 </r>
       <r>    5.7867    0.0000 </r>
       <r>    5.8996    0.0000 </r>
       <r>    7.4122    0.0000 </r>
       <r>    7.8356    0.0000 </r>
      </set>
      <set comment="kpoint 33">
       <r>  -34.9799    1.0000 </r>
       <r>  -34.9750    1.0000 </r>
       <r>  -34.8605    1.0000 </r>
       <r>  -34.8558    1.0000 </r>
       <r>  -34.8154    1.0000 </r>
       <r>  -34.8103    1.0000 </r>
       <r>  -13.7205    1.0000 </r>
       <r>  -13.6634    1.0000 </r>
       <r>  -12.6021    1.0000 </r>
       <r>  -12.5126    1.0000 </r>
       <r>   -5.4098    1.0000 </r>
       <r>   -5.1160    1.0000 </r>
       <r>   -3.1246    1.0000 </r>
       <r>   -3.1129    1.0000 </r>
       <r>   -2.8022    1.0000 </r>
       <r>   -2.4837    1.0000 </r>
       <r>   -2.3618    1.0000 </r>
       <r>   -2.3569    1.0000 </r>
       <r>   -1.9806    1.0000 </r>
       <r>   -1.9704    1.0000 </r>
       <r>   -1.2177    1.0000 </r>
       <r>   -0.8751    1.0000 </r>
       <r>   -0.3236    1.0000 </r>
       <r>   -0.0169    1.0003 </r>
       <r>    2.2736   -0.0000 </r>
       <r>    2.4196   -0.0000 </r>
       <r>    2.4507   -0.0000 </r>
       <r>    2.5607   -0.0000 </r>
       <r>    2.6201   -0.0000 </r>
       <r>    2.6421   -0.0000 </r>
       <r>    3.1271    0.0000 </r>
       <r>    3.1405    0.0000 </r>
       <r>    5.6767    0.0000 </r>
       <r>    5.7914    0.0000 </r>
       <r>    7.2593    0.0000 </r>
       <r>    7.6168    0.0000 </r>
      </set>
      <set comment="kpoint 34">
       <r>  -34.9617    1.0000 </r>
       <r>  -34.9601    1.0000 </r>
       <r>  -34.9567    1.0000 </r>
       <r>  -34.9552    1.0000 </r>
       <r>  -34.8375    1.0000 </r>
       <r>  -34.8326    1.0000 </r>
       <r>  -13.2652    1.0000 </r>
       <r>  -13.2090    1.0000 </r>
       <r>  -12.4111    1.0000 </r>
       <r>  -12.3323    1.0000 </r>
       <r>   -5.0668    1.0000 </r>
       <r>   -4.8252    1.0000 </r>
       <r>   -3.7429    1.0000 </r>
       <r>   -3.6611    1.0000 </r>
       <r>   -3.4934    1.0000 </r>
       <r>   -3.3017    1.0000 </r>
       <r>   -2.3954    1.0000 </r>
       <r>   -2.3896    1.0000 </r>
       <r>   -1.9055    1.0000 </r>
[...]
       <r>    -2.1669     1.9763    18.5419 </r>
       <r>    -2.0047     3.7274    19.1466 </r>
       <r>    -1.8424     3.2562    19.6748 </r>
       <r>    -1.6802     3.4266    20.2306 </r>
       <r>    -1.5180     2.6078    20.6536 </r>
       <r>    -1.3558     3.5604    21.2312 </r>
       <r>    -1.1936     1.3782    21.4548 </r>
       <r>    -1.0314     1.9749    21.7751 </r>
       <r>    -0.8691     2.3280    22.1528 </r>
       <r>    -0.7069     3.4779    22.7169 </r>
       <r>    -0.5447     2.7431    23.1619 </r>
       <r>    -0.3825     2.3754    23.5472 </r>
       <r>    -0.2203     1.4745    23.7864 </r>
       <r>    -0.0581     0.8807    23.9293 </r>
       <r>     0.1041     0.2189    23.9648 </r>
       <r>     0.2664     0.2177    24.0001 </r>
       <r>     0.4286    -0.0004    24.0001 </r>
       <r>     0.5908    -0.0003    24.0000 </r>
       <r>     0.7530    -0.0000    24.0000 </r>
       <r>     0.9152    -0.0000    24.0000 </r>
       <r>     1.0774    -0.0000    24.0000 </r>
       <r>     1.2397    -0.0000    24.0000 </r>
       <r>     1.4019    -0.0001    24.0000 </r>
       <r>     1.5641    -0.0203    23.9967 </r>
       <r>     1.7263     0.4641    24.0720 </r>
       <r>     1.8885     1.5377    24.3214 </r>
       <r>     2.0507     3.5941    24.9044 </r>
       <r>     2.2130     5.0946    25.7309 </r>
       <r>     2.3752     3.6846    26.3286 </r>
       <r>     2.5374     5.1785    27.1686 </r>
       <r>     2.6996     4.4278    27.8869 </r>
       <r>     2.8618     3.2056    28.4069 </r>
       <r>     3.0240     2.6891    28.8431 </r>
       <r>     3.1863     2.8342    29.3028 </r>
       <r>     3.3485     2.0509    29.6355 </r>
       <r>     3.5107     1.7102    29.9129 </r>
       <r>     3.6729     1.8486    30.2128 </r>
       <r>     3.8351     1.0259    30.3792 </r>
       <r>     3.9973     2.1453    30.7272 </r>
       <r>     4.1596     2.6267    31.1533 </r>
       <r>     4.3218     2.2831    31.5237 </r>
       <r>     4.4840     1.5361    31.7729 </r>
       <r>     4.6462     0.8605    31.9125 </r>
       <r>     4.8084     0.4827    31.9908 </r>
       <r>     4.9706     0.0599    32.0005 </r>
       <r>     5.1329    -0.0038    31.9999 </r>
       <r>     5.2951     0.0121    32.0018 </r>
       <r>     5.4573     0.2058    32.0352 </r>
       <r>     5.6195     0.2998    32.0838 </r>
       <r>     5.7817     0.3991    32.1486 </r>
       <r>     5.9439     0.5344    32.2353 </r>
       <r>     6.1062     0.5438    32.3235 </r>
       <r>     6.2684     0.7906    32.4517 </r>
       <r>     6.4306     1.0198    32.6171 </r>
       <r>     6.5928     0.8060    32.7479 </r>
       <r>     6.7550     1.1666    32.9371 </r>
       <r>     6.9172     1.8649    33.2396 </r>
       <r>     7.0795     1.4070    33.4679 </r>
       <r>     7.2417     0.8388    33.6039 </r>
       <r>     7.4039     1.9737    33.9241 </r>
       <r>     7.5661     1.7278    34.2044 </r>
       <r>     7.7283     0.5491    34.2935 </r>
       <r>     7.8905     1.4436    34.5276 </r>
       <r>     8.0527     1.3775    34.7511 </r>
       <r>     8.2150     2.5743    35.1687 </r>
       <r>     8.3772     1.8090    35.4621 </r>
       <r>     8.5394     1.0061    35.6253 </r>
       <r>     8.7016     1.5186    35.8717 </r>
       <r>     8.8638     0.6509    35.9773 </r>
       <r>     9.0260     0.0770    35.9898 </r>
       <r>     9.1883     0.0652    36.0003 </r>
       <r>     9.3505    -0.0020    36.0000 </r>
       <r>     9.5127    -0.0000    36.0000 </r>
       <r>     9.6749    -0.0000    36.0000 </r>
       <r>     9.8371    -0.0000    36.0000 </r>
       <r>     9.9993     0.0000    36.0000 </r>
       <r>    10.1616     0.0000    36.0000 </r>
       <r>    10.3238     0.0000    36.0000 </r>
       <r>    10.4860     0.0000    36.0000 </r>
       <r>    10.6482     0.0000    36.0000 </r>
       <r>    10.8104     0.0000    36.0000 </r>
       <r>    10.9726     0.0000    36.0000 </r>
       <r>    11.1349     0.0000    36.0000 </r>
       <r>    11.2971     0.0000    36.0000 </r>
      </set>
      <set comment="spin 2">
       <r>   -37.3678     0.0000     0.0000 </r>
       <r>   -37.2056     0.0000     0.0000 </r>
       <r>   -37.0434     0.0000     0.0000 </r>
       <r>   -36.8812     0.0000     0.0000 </r>
       <r>   -36.7190     0.0000     0.0000 </r>
       <r>   -36.5567     0.0000     0.0000 </r>
       <r>   -36.3945     0.0000     0.0000 </r>
       <r>   -36.2323     0.0000     0.0000 </r>
       <r>   -36.0701    -0.0000    -0.0000 </r>
       <r>   -35.9079    -0.0000    -0.0000 </r>
       <r>   -35.7457    -0.0000    -0.0000 </r>
       <r>   -35.5834    -0.0000    -0.0000 </r>
       <r>   -35.4212    -0.0008    -0.0001 </r>
       <r>   -35.2590    -0.1899    -0.0309 </r>
       <r>   -35.0968     4.1929     0.6492 </r>
       <r>   -34.9346    15.3919     3.1460 </r>
       <r>   -34.7724    17.6280     6.0056 </r>
       <r>   -34.6101    -0.0094     6.0041 </r>
       <r>   -34.4479    -0.0251     6.0000 </r>
       <r>   -34.2857    -0.0000     6.0000 </r>
       <r>   -34.1235    -0.0000     6.0000 </r>
       <r>   -33.9613     0.0000     6.0000 </r>
       <r>   -33.7991     0.0000     6.0000 </r>
       <r>   -33.6368     0.0000     6.0000 </r>
       <r>   -33.4746     0.0000     6.0000 </r>
       <r>   -33.3124     0.0000     6.0000 </r>
       <r>   -33.1502     0.0000     6.0000 </r>
       <r>   -32.9880     0.0000     6.0000 </r>
       <r>   -32.8258     0.0000     6.0000 </r>
       <r>   -32.6635     0.0000     6.0000 </r>
       <r>   -32.5013     0.0000     6.0000 </r>
       <r>   -32.3391     0.0000     6.0000 </r>
       <r>   -32.1769     0.0000     6.0000 </r>
       <r>   -32.0147     0.0000     6.0000 </r>
       <r>   -31.8525     0.0000     6.0000 </r>
       <r>   -31.6902     0.0000     6.0000 </r>
       <r>   -31.5280     0.0000     6.0000 </r>
       <r>   -31.3658     0.0000     6.0000 </r>
       <r>   -31.2036     0.0000     6.0000 </r>
       <r>   -31.0414     0.0000     6.0000 </r>
       <r>   -30.8792     0.0000     6.0000 </r>
       <r>   -30.7169     0.0000     6.0000 </r>
       <r>   -30.5547     0.0000     6.0000 </r>
       <r>   -30.3925     0.0000     6.0000 </r>
       <r>   -30.2303     0.0000     6.0000 </r>
       <r>   -30.0681     0.0000     6.0000 </r>
       <r>   -29.9059     0.0000     6.0000 </r>
       <r>   -29.7437     0.0000     6.0000 </r>
       <r>   -29.5814     0.0000     6.0000 </r>
       <r>   -29.4192     0.0000     6.0000 </r>
       <r>   -29.2570     0.0000     6.0000 </r>
       <r>   -29.0948     0.0000     6.0000 </r>
       <r>   -28.9326     0.0000     6.0000 </r>
       <r>   -28.7704     0.0000     6.0000 </r>
       <r>   -28.6081     0.0000     6.0000 </r>
       <r>   -28.4459     0.0000     6.0000 </r>
       <r>   -28.2837     0.0000     6.0000 </r>
       <r>   -28.1215     0.0000     6.0000 </r>
       <r>   -27.9593     0.0000     6.0000 </r>
       <r>   -27.7971     0.0000     6.0000 </r>
       <r>   -27.6348     0.0000     6.0000 </r>
       <r>   -27.4726     0.0000     6.0000 </r>
       <r>   -27.3104     0.0000     6.0000 </r>
       <r>   -27.1482     0.0000     6.0000 </r>
       <r>   -26.9860     0.0000     6.0000 </r>
       <r>   -26.8238     0.0000     6.0000 </r>
       <r>   -26.6615     0.0000     6.0000 </r>
       <r>   -26.4993     0.0000     6.0000 </r>
       <r>   -26.3371     0.0000     6.0000 </r>
       <r>   -26.1749     0.0000     6.0000 </r>
       <r>   -26.0127     0.0000     6.0000 </r>
       <r>   -25.8505     0.0000     6.0000 </r>
       <r>   -25.6882     0.0000     6.0000 </r>
       <r>   -25.5260     0.0000     6.0000 </r>
       <r>   -25.3638     0.0000     6.0000 </r>
       <r>   -25.2016     0.0000     6.0000 </r>
       <r>   -25.0394     0.0000     6.0000 </r>
       <r>   -24.8772     0.0000     6.0000 </r>
       <r>   -24.7149     0.0000     6.0000 </r>
       <r>   -24.5527     0.0000     6.0000 </r>
       <r>   -24.3905     0.0000     6.0000 </r>
       <r>   -24.2283     0.0000     6.0000 </r>
       <r>   -24.0661     0.0000     6.0000 </r>
       <r>   -23.9039     0.0000     6.0000 </r>
       <r>   -23.7416     0.0000     6.0000 </r>
       <r>   -23.5794     0.0000     6.0000 </r>
       <r>   -23.4172     0.0000     6.0000 </r>
       <r>   -23.2550     0.0000     6.0000 </r>
       <r>   -23.0928     0.0000     6.0000 </r>
       <r>   -22.9306     0.0000     6.0000 </r>
       <r>   -22.7684     0.0000     6.0000 </r>
       <r>   -22.6061     0.0000     6.0000 </r>
       <r>   -22.4439     0.0000     6.0000 </r>
       <r>   -22.2817     0.0000     6.0000 </r>
       <r>   -22.1195     0.0000     6.0000 </r>
       <r>   -21.9573     0.0000     6.0000 </r>
       <r>   -21.7951     0.0000     6.0000 </r>
       <r>   -21.6328     0.0000     6.0000 </r>
       <r>   -21.4706     0.0000     6.0000 </r>
       <r>   -21.3084     0.0000     6.0000 </r>
       <r>   -21.1462     0.0000     6.0000 </r>
       <r>   -20.9840     0.0000     6.0000 </r>
       <r>   -20.8218     0.0000     6.0000 </r>
       <r>   -20.6595     0.0000     6.0000 </r>
       <r>   -20.4973     0.0000     6.0000 </r>
       <r>   -20.3351     0.0000     6.0000 </r>
       <r>   -20.1729     0.0000     6.0000 </r>
       <r>   -20.0107     0.0000     6.0000 </r>
       <r>   -19.8485     0.0000     6.0000 </r>
       <r>   -19.6862     0.0000     6.0000 </r>
       <r>   -19.5240     0.0000     6.0000 </r>
       <r>   -19.3618     0.0000     6.0000 </r>
       <r>   -19.1996     0.0000     6.0000 </r>
       <r>   -19.0374     0.0000     6.0000 </r>
       <r>   -18.8752     0.0000     6.0000 </r>
       <r>   -18.7129     0.0000     6.0000 </r>
       <r>   -18.5507     0.0000     6.0000 </r>
       <r>   -18.3885     0.0000     6.0000 </r>
       <r>   -18.2263     0.0000     6.0000 </r>
       <r>   -18.0641     0.0000     6.0000 </r>
       <r>   -17.9019     0.0000     6.0000 </r>
       <r>   -17.7396     0.0000     6.0000 </r>
       <r>   -17.5774     0.0000     6.0000 </r>
       <r>   -17.4152     0.0000     6.0000 </r>
       <r>   -17.2530     0.0000     6.0000 </r>
       <r>   -17.0908     0.0000     6.0000 </r>
       <r>   -16.9286     0.0000     6.0000 </r>
       <r>   -16.7663     0.0000     6.0000 </r>
       <r>   -16.6041     0.0000     6.0000 </r>
       <r>   -16.4419     0.0000     6.0000 </r>
       <r>   -16.2797     0.0000     6.0000 </r>
       <r>   -16.1175     0.0000     6.0000 </r>
       <r>   -15.9553     0.0000     6.0000 </r>
       <r>   -15.7930     0.0000     6.0000 </r>
       <r>   -15.6308     0.0000     6.0000 </r>
       <r>   -15.4686     0.0000     6.0000 </r>
       <r>   -15.3064     0.0000     6.0000 </r>
       <r>   -15.1442     0.0000     6.0000 </r>
       <r>   -14.9820     0.0000     6.0000 </r>
       <r>   -14.8198    -0.0000     6.0000 </r>
       <r>   -14.6575    -0.0000     6.0000 </r>
       <r>   -14.4953    -0.0000     6.0000 </r>
       <r>   -14.3331    -0.0000     6.0000 </r>
       <r>   -14.1709    -0.0004     5.9999 </r>
       <r>   -14.0087    -0.0028     5.9995 </r>
       <r>   -13.8465     0.3244     6.0521 </r>
       <r>   -13.6842     0.4707     6.1284 </r>
       <r>   -13.5220     0.5707     6.2210 </r>
       <r>   -13.3598     0.5820     6.3154 </r>
       <r>   -13.1976     0.6563     6.4219 </r>
       <r>   -13.0354     0.3983     6.4865 </r>
       <r>   -12.8732     1.0443     6.6559 </r>
       <r>   -12.7109     0.4459     6.7282 </r>
       <r>   -12.5487     2.0412     7.0593 </r>
       <r>   -12.3865     2.1109     7.4018 </r>
       <r>   -12.2243     3.1785     7.9174 </r>
       <r>   -12.0621     3.9895     8.5645 </r>
       <r>   -11.8999     5.7207     9.4925 </r>
       <r>   -11.7376     3.1167     9.9981 </r>
       <r>   -11.5754     0.0170    10.0009 </r>
       <r>   -11.4132    -0.0053    10.0000 </r>
       <r>   -11.2510    -0.0000    10.0000 </r>
       <r>   -11.0888    -0.0000    10.0000 </r>
       <r>   -10.9266     0.0000    10.0000 </r>
       <r>   -10.7643     0.0000    10.0000 </r>
       <r>   -10.6021     0.0000    10.0000 </r>
       <r>   -10.4399     0.0000    10.0000 </r>
       <r>   -10.2777     0.0000    10.0000 </r>
       <r>   -10.1155     0.0000    10.0000 </r>
       <r>    -9.9533     0.0000    10.0000 </r>
       <r>    -9.7910     0.0000    10.0000 </r>
       <r>    -9.6288     0.0000    10.0000 </r>
       <r>    -9.4666     0.0000    10.0000 </r>
       <r>    -9.3044     0.0000    10.0000 </r>
       <r>    -9.1422     0.0000    10.0000 </r>
       <r>    -8.9800     0.0000    10.0000 </r>
       <r>    -8.8177     0.0000    10.0000 </r>
       <r>    -8.6555     0.0000    10.0000 </r>
       <r>    -8.4933     0.0000    10.0000 </r>
       <r>    -8.3311     0.0000    10.0000 </r>
       <r>    -8.1689     0.0000    10.0000 </r>
       <r>    -8.0067     0.0000    10.0000 </r>
       <r>    -7.8445     0.0000    10.0000 </r>
       <r>    -7.6822     0.0000    10.0000 </r>
       <r>    -7.5200     0.0000    10.0000 </r>
       <r>    -7.3578     0.0000    10.0000 </r>
       <r>    -7.1956     0.0000    10.0000 </r>
       <r>    -7.0334     0.0000    10.0000 </r>
       <r>    -6.8712     0.0000    10.0000 </r>
       <r>    -6.7089     0.0000    10.0000 </r>
       <r>    -6.5467    -0.0000    10.0000 </r>
       <r>    -6.3845    -0.0000    10.0000 </r>
       <r>    -6.2223    -0.0000    10.0000 </r>
       <r>    -6.0601    -0.0000    10.0000 </r>
       <r>    -5.8979    -0.0011     9.9998 </r>
       <r>    -5.7356    -0.0052     9.9990 </r>
       <r>    -5.5734     0.8760    10.1411 </r>
       <r>    -5.4112     1.3723    10.3637 </r>
       <r>    -5.2490     2.3318    10.7419 </r>
       <r>    -5.0868     3.1810    11.2579 </r>
       <r>    -4.9246     4.7713    12.0319 </r>
       <r>    -4.7623     2.2156    12.3913 </r>
       <r>    -4.6001     2.6455    12.8205 </r>
       <r>    -4.4379     0.8543    12.9591 </r>
       <r>    -4.2757     0.5309    13.0452 </r>
       <r>    -4.1135     0.8691    13.1862 </r>
       <r>    -3.9513     2.2926    13.5581 </r>
       <r>    -3.7890     4.4773    14.2844 </r>
       <r>    -3.6268     4.1115    14.9513 </r>
       <r>    -3.4646     2.5005    15.3569 </r>
       <r>    -3.3024     1.2626    15.5618 </r>
       <r>    -3.1402     4.3989    16.2753 </r>
       <r>    -2.9780     4.8945    17.0693 </r>
       <r>    -2.8157     2.6498    17.4991 </r>
       <r>    -2.6535     1.3729    17.7218 </r>
       <r>    -2.4913     1.2403    17.9230 </r>
       <r>    -2.3291     1.8388    18.2213 </r>
       <r>    -2.1669     1.9766    18.5420 </r>
       <r>    -2.0047     3.7277    19.1467 </r>
       <r>    -1.8424     3.2557    19.6748 </r>
       <r>    -1.6802     3.4273    20.2307 </r>
       <r>    -1.5180     2.6074    20.6537 </r>
       <r>    -1.3558     3.5603    21.2313 </r>
       <r>    -1.1936     1.3782    21.4548 </r>
       <r>    -1.0314     1.9749    21.7752 </r>
       <r>    -0.8691     2.3286    22.1529 </r>
       <r>    -0.7069     3.4772    22.7170 </r>
       <r>    -0.5447     2.7431    23.1620 </r>
       <r>    -0.3825     2.3753    23.5473 </r>
       <r>    -0.2203     1.4745    23.7865 </r>
       <r>    -0.0581     0.8806    23.9293 </r>
       <r>     0.1041     0.2189    23.9648 </r>
       <r>     0.2664     0.2177    24.0001 </r>
       <r>     0.4286    -0.0004    24.0001 </r>
       <r>     0.5908    -0.0003    24.0000 </r>
       <r>     0.7530    -0.0000    24.0000 </r>
       <r>     0.9152    -0.0000    24.0000 </r>
       <r>     1.0774    -0.0000    24.0000 </r>
       <r>     1.2397    -0.0000    24.0000 </r>
       <r>     1.4019    -0.0001    24.0000 </r>
       <r>     1.5641    -0.0202    23.9967 </r>
       <r>     1.7263     0.4641    24.0720 </r>
       <r>     1.8885     1.5376    24.3214 </r>
       <r>     2.0507     3.5946    24.9045 </r>
       <r>     2.2130     5.0945    25.7309 </r>
       <r>     2.3752     3.6848    26.3287 </r>
       <r>     2.5374     5.1783    27.1687 </r>
       <r>     2.6996     4.4277    27.8869 </r>
       <r>     2.8618     3.2056    28.4069 </r>
       <r>     3.0240     2.6893    28.8431 </r>
       <r>     3.1863     2.8342    29.3029 </r>
       <r>     3.3485     2.0507    29.6356 </r>
       <r>     3.5107     1.7103    29.9130 </r>
       <r>     3.6729     1.8484    30.2128 </r>
       <r>     3.8351     1.0259    30.3792 </r>
       <r>     3.9973     2.1454    30.7273 </r>
       <r>     4.1596     2.6269    31.1534 </r>
       <r>     4.3218     2.2829    31.5237 </r>
       <r>     4.4840     1.5361    31.7729 </r>
       <r>     4.6462     0.8606    31.9125 </r>
       <r>     4.8084     0.4825    31.9908 </r>
       <r>     4.9706     0.0598    32.0005 </r>
       <r>     5.1329    -0.0032    31.9999 </r>
       <r>     5.2951     0.0036    32.0005 </r>
       <r>     5.4573     0.1466    32.0243 </r>
       <r>     5.6195     0.3279    32.0775 </r>
       <r>     5.7817     0.3414    32.1329 </r>
       <r>     5.9439     0.6032    32.2307 </r>
       <r>     6.1062     0.4702    32.3070 </r>
       <r>     6.2684     0.7927    32.4356 </r>
       <r>     6.4306     1.0651    32.6084 </r>
       <r>     6.5928     0.8033    32.7387 </r>
       <r>     6.7550     0.9823    32.8980 </r>
       <r>     6.9172     1.9290    33.2109 </r>
       <r>     7.0795     1.4762    33.4504 </r>
       <r>     7.2417     0.7407    33.5706 </r>
       <r>     7.4039     2.0355    33.9008 </r>
       <r>     7.5661     1.7878    34.1908 </r>
       <r>     7.7283     0.5878    34.2861 </r>
       <r>     7.8905     1.4035    34.5138 </r>
       <r>     8.0527     1.3333    34.7301 </r>
       <r>     8.2150     2.3982    35.1191 </r>
       <r>     8.3772     2.3204    35.4955 </r>
       <r>     8.5394     0.5945    35.5920 </r>
       <r>     8.7016     1.1062    35.7714 </r>
       <r>     8.8638     0.7739    35.8969 </r>
       <r>     9.0260     0.4440    35.9690 </r>
       <r>     9.1883     0.2000    36.0014 </r>
       <r>     9.3505    -0.0086    36.0000 </r>
       <r>     9.5127    -0.0000    36.0000 </r>
       <r>     9.6749    -0.0000    36.0000 </r>
       <r>     9.8371    -0.0000    36.0000 </r>
       <r>     9.9993     0.0000    36.0000 </r>
       <r>    10.1616     0.0000    36.0000 </r>
       <r>    10.3238     0.0000    36.0000 </r>
       <r>    10.4860     0.0000    36.0000 </r>
       <r>    10.6482     0.0000    36.0000 </r>
       <r>    10.8104     0.0000    36.0000 </r>
       <r>    10.9726     0.0000    36.0000 </r>
       <r>    11.1349     0.0000    36.0000 </r>
       <r>    11.2971     0.0000    36.0000 </r>
      </set>
     </set>
    </array>
   </total>
  </dos>
 </calculation>
 <structure name="finalpos" >
  <crystal>
   <varray name="basis" >
    <v>       3.19031700       0.00000000       0.00000000 </v>
    <v>      -1.59515800       2.76289700       0.00000000 </v>
    <v>       0.00000000       0.00000000      23.14049200 </v>
   </varray>
   <i name="volume">    203.97226633 </i>
   <varray name="rec_basis" >
    <v>       0.31344848       0.18096941       0.00000000 </v>
    <v>       0.00000000       0.36193894       0.00000000 </v>
    <v>       0.00000000       0.00000000       0.04321429 </v>
   </varray>
  </crystal>
  <varray name="positions" >
   <v>       0.66666700       0.33333300       0.06785900 </v>
   <v>       0.33333300       0.66666700       0.00000000 </v>
   <v>       0.33333300       0.66666700       0.13571500 </v>
   <v>       0.95238129       0.33333300       0.35482300 </v>
   <v>       0.61904729       0.66666700       0.28696500 </v>
   <v>       0.61904729       0.66666700       0.42267900 </v>
  </varray>
 </structure>
</modeling>
