  24  24   0   0
  0.4176334E+02  0.3540400E-09  0.1044544E-08  0.2750143E-08  0.5000000E-15
  1.000000000000000E-004
  CAR 
 unknown system                          
      4.21588435    -15.03178665  301      0.17425341      1.00000000
    -15.032  0.0000E+00  0.0000E+00
    -14.968  0.0000E+00  0.0000E+00
    -14.903  0.0000E+00  0.0000E+00
    -14.839  0.0000E+00  0.0000E+00
    -14.775  0.0000E+00  0.0000E+00
    -14.711  0.0000E+00  0.0000E+00
    -14.647  0.0000E+00  0.0000E+00
    -14.583  0.3461E-14  0.2220E-15
    -14.519  0.3287E-11  0.2111E-12
    -14.454  0.1397E-08  0.8982E-10
    -14.390  0.2696E-06  0.1739E-07
    -14.326  0.2390E-04  0.1551E-05
    -14.262  0.9874E-03  0.6490E-04
    -14.198  0.1936E-01  0.1307E-02
    -14.134  0.1839E+00  0.1311E-01
    -14.069  0.8648E+00  0.6859E-01
    -14.005  0.2069E+01  0.2014E+00
    -13.941  0.2732E+01  0.3766E+00
    -13.877  0.2535E+01  0.5392E+00
    -13.813  0.2100E+01  0.6739E+00
    -13.749  0.1534E+01  0.7723E+00
    -13.684  0.1725E+01  0.8830E+00
    -13.620  0.2644E+01  0.1053E+01
    -13.556  0.2968E+01  0.1243E+01
    -13.492  0.2904E+01  0.1429E+01
    -13.428  0.3327E+01  0.1643E+01
    -13.364  0.3531E+01  0.1869E+01
    -13.299  0.2890E+01  0.2055E+01
    -13.235  0.2645E+01  0.2225E+01
    -13.171  0.3219E+01  0.2431E+01
    -13.107  0.3960E+01  0.2685E+01
    -13.043  0.4892E+01  0.2999E+01
    -12.979  0.5305E+01  0.3339E+01
    -12.915  0.4584E+01  0.3633E+01
    -12.850  0.3673E+01  0.3869E+01
    -12.786  0.3411E+01  0.4088E+01
    -12.722  0.4094E+01  0.4351E+01
    -12.658  0.4960E+01  0.4669E+01
    -12.594  0.5268E+01  0.5007E+01
    -12.530  0.5290E+01  0.5346E+01
    -12.465  0.5061E+01  0.5671E+01
    -12.401  0.4848E+01  0.5982E+01
    -12.337  0.4935E+01  0.6299E+01
    -12.273  0.4857E+01  0.6610E+01
    -12.209  0.4739E+01  0.6914E+01
    -12.145  0.5527E+01  0.7269E+01
    -12.080  0.6706E+01  0.7699E+01
    -12.016  0.6793E+01  0.8135E+01
    -11.952  0.5976E+01  0.8518E+01
    -11.888  0.5076E+01  0.8844E+01
    -11.824  0.4923E+01  0.9160E+01
    -11.760  0.6476E+01  0.9575E+01
    -11.696  0.8867E+01  0.1014E+02
    -11.631  0.1021E+02  0.1080E+02
    -11.567  0.9817E+01  0.1143E+02
    -11.503  0.7974E+01  0.1194E+02
    -11.439  0.6910E+01  0.1238E+02
    -11.375  0.8301E+01  0.1292E+02
    -11.311  0.9924E+01  0.1355E+02
    -11.246  0.9810E+01  0.1418E+02
    -11.182  0.9509E+01  0.1479E+02
    -11.118  0.1031E+02  0.1545E+02
    -11.054  0.1096E+02  0.1616E+02
    -10.990  0.1067E+02  0.1684E+02
    -10.926  0.1125E+02  0.1756E+02
    -10.861  0.1266E+02  0.1838E+02
    -10.797  0.1282E+02  0.1920E+02
    -10.733  0.1237E+02  0.1999E+02
    -10.669  0.1178E+02  0.2075E+02
    -10.605  0.1040E+02  0.2142E+02
    -10.541  0.9498E+01  0.2203E+02
    -10.477  0.8223E+01  0.2255E+02
    -10.412  0.5201E+01  0.2289E+02
    -10.348  0.2321E+01  0.2304E+02
    -10.284  0.1162E+01  0.2311E+02
    -10.220  0.1404E+01  0.2320E+02
    -10.156  0.1590E+01  0.2330E+02
    -10.092  0.1012E+01  0.2337E+02
    -10.027  0.6602E+00  0.2341E+02
     -9.963  0.1207E+01  0.2349E+02
     -9.899  0.1725E+01  0.2360E+02
     -9.835  0.1449E+01  0.2369E+02
     -9.771  0.1434E+01  0.2378E+02
     -9.707  0.1723E+01  0.2389E+02
     -9.642  0.1202E+01  0.2397E+02
     -9.578  0.3983E+00  0.2400E+02
     -9.514  0.6108E-01  0.2400E+02
     -9.450  0.4300E-02  0.2400E+02
     -9.386  0.1444E-03  0.2400E+02
     -9.322  0.3294E-03  0.2400E+02
     -9.257  0.7663E-02  0.2400E+02
     -9.193  0.8465E-01  0.2401E+02
     -9.129  0.4547E+00  0.2404E+02
     -9.065  0.1260E+01  0.2412E+02
     -9.001  0.2135E+01  0.2425E+02
     -8.937  0.3184E+01  0.2446E+02
     -8.873  0.4842E+01  0.2477E+02
     -8.808  0.5997E+01  0.2515E+02
     -8.744  0.5757E+01  0.2552E+02
     -8.680  0.4737E+01  0.2583E+02
     -8.616  0.4122E+01  0.2609E+02
     -8.552  0.4766E+01  0.2640E+02
     -8.488  0.5869E+01  0.2677E+02
     -8.423  0.6124E+01  0.2717E+02
     -8.359  0.6669E+01  0.2759E+02
     -8.295  0.7732E+01  0.2809E+02
     -8.231  0.7189E+01  0.2855E+02
     -8.167  0.5699E+01  0.2892E+02
     -8.103  0.4181E+01  0.2918E+02
     -8.038  0.2735E+01  0.2936E+02
     -7.974  0.2484E+01  0.2952E+02
     -7.910  0.3418E+01  0.2974E+02
     -7.846  0.4120E+01  0.3000E+02
     -7.782  0.3913E+01  0.3025E+02
     -7.718  0.4007E+01  0.3051E+02
     -7.654  0.4796E+01  0.3082E+02
     -7.589  0.5683E+01  0.3118E+02
     -7.525  0.7057E+01  0.3164E+02
     -7.461  0.9201E+01  0.3223E+02
     -7.397  0.1064E+02  0.3291E+02
     -7.333  0.1010E+02  0.3356E+02
     -7.269  0.9129E+01  0.3414E+02
     -7.204  0.8481E+01  0.3469E+02
     -7.140  0.7720E+01  0.3518E+02
     -7.076  0.7812E+01  0.3568E+02
     -7.012  0.8840E+01  0.3625E+02
     -6.948  0.9496E+01  0.3686E+02
     -6.884  0.9203E+01  0.3745E+02
     -6.819  0.9819E+01  0.3808E+02
     -6.755  0.1127E+02  0.3880E+02
     -6.691  0.1004E+02  0.3945E+02
     -6.627  0.7173E+01  0.3991E+02
     -6.563  0.5201E+01  0.4024E+02
     -6.499  0.3514E+01  0.4047E+02
     -6.434  0.2574E+01  0.4063E+02
     -6.370  0.3141E+01  0.4083E+02
     -6.306  0.4573E+01  0.4113E+02
     -6.242  0.5607E+01  0.4149E+02
     -6.178  0.5704E+01  0.4185E+02
     -6.114  0.5819E+01  0.4223E+02
     -6.050  0.6523E+01  0.4265E+02
     -5.985  0.6631E+01  0.4307E+02
     -5.921  0.6199E+01  0.4347E+02
     -5.857  0.6679E+01  0.4390E+02
     -5.793  0.7114E+01  0.4435E+02
     -5.729  0.5850E+01  0.4473E+02
     -5.665  0.3640E+01  0.4496E+02
     -5.600  0.2393E+01  0.4512E+02
     -5.536  0.3291E+01  0.4533E+02
     -5.472  0.5546E+01  0.4568E+02
     -5.408  0.7144E+01  0.4614E+02
     -5.344  0.8087E+01  0.4666E+02
     -5.280  0.9158E+01  0.4725E+02
     -5.215  0.8977E+01  0.4782E+02
     -5.151  0.8609E+01  0.4838E+02
     -5.087  0.1012E+02  0.4902E+02
     -5.023  0.1153E+02  0.4976E+02
     -4.959  0.1114E+02  0.5048E+02
     -4.895  0.9469E+01  0.5109E+02
     -4.831  0.7696E+01  0.5158E+02
     -4.766  0.7213E+01  0.5204E+02
     -4.702  0.7501E+01  0.5252E+02
     -4.638  0.7542E+01  0.5301E+02
     -4.574  0.7549E+01  0.5349E+02
     -4.510  0.8015E+01  0.5401E+02
     -4.446  0.9527E+01  0.5462E+02
     -4.381  0.1133E+02  0.5535E+02
     -4.317  0.1148E+02  0.5608E+02
     -4.253  0.1061E+02  0.5676E+02
     -4.189  0.1152E+02  0.5750E+02
     -4.125  0.1341E+02  0.5836E+02
     -4.061  0.1376E+02  0.5925E+02
     -3.996  0.1292E+02  0.6007E+02
     -3.932  0.1299E+02  0.6091E+02
     -3.868  0.1380E+02  0.6179E+02
     -3.804  0.1362E+02  0.6267E+02
     -3.740  0.1279E+02  0.6349E+02
     -3.676  0.1176E+02  0.6424E+02
     -3.612  0.1147E+02  0.6498E+02
     -3.547  0.1283E+02  0.6580E+02
     -3.483  0.1376E+02  0.6668E+02
     -3.419  0.1388E+02  0.6757E+02
     -3.355  0.1479E+02  0.6852E+02
     -3.291  0.1512E+02  0.6949E+02
     -3.227  0.1503E+02  0.7046E+02
     -3.162  0.1573E+02  0.7147E+02
     -3.098  0.1581E+02  0.7248E+02
     -3.034  0.1458E+02  0.7342E+02
     -2.970  0.1317E+02  0.7426E+02
     -2.906  0.1318E+02  0.7511E+02
     -2.842  0.1473E+02  0.7605E+02
     -2.777  0.1609E+02  0.7709E+02
     -2.713  0.1730E+02  0.7819E+02
     -2.649  0.1838E+02  0.7937E+02
     -2.585  0.1793E+02  0.8052E+02
     -2.521  0.1661E+02  0.8159E+02
     -2.457  0.1590E+02  0.8261E+02
     -2.392  0.1578E+02  0.8362E+02
     -2.328  0.1556E+02  0.8462E+02
     -2.264  0.1555E+02  0.8562E+02
     -2.200  0.1606E+02  0.8665E+02
     -2.136  0.1674E+02  0.8772E+02
     -2.072  0.1822E+02  0.8889E+02
     -2.008  0.1974E+02  0.9016E+02
     -1.943  0.1988E+02  0.9143E+02
     -1.879  0.1933E+02  0.9267E+02
     -1.815  0.1868E+02  0.9387E+02
     -1.751  0.1586E+02  0.9489E+02
     -1.687  0.1216E+02  0.9567E+02
     -1.623  0.1143E+02  0.9640E+02
     -1.558  0.1244E+02  0.9720E+02
     -1.494  0.1230E+02  0.9799E+02
     -1.430  0.1065E+02  0.9867E+02
     -1.366  0.9765E+01  0.9930E+02
     -1.302  0.1084E+02  0.1000E+03
     -1.238  0.1155E+02  0.1007E+03
     -1.173  0.1082E+02  0.1014E+03
     -1.109  0.9713E+01  0.1021E+03
     -1.045  0.9150E+01  0.1026E+03
     -0.981  0.8820E+01  0.1032E+03
     -0.917  0.7670E+01  0.1037E+03
     -0.853  0.5805E+01  0.1041E+03
     -0.789  0.3975E+01  0.1043E+03
     -0.724  0.2709E+01  0.1045E+03
     -0.660  0.2220E+01  0.1046E+03
     -0.596  0.1857E+01  0.1048E+03
     -0.532  0.1846E+01  0.1049E+03
     -0.468  0.2365E+01  0.1050E+03
     -0.404  0.2662E+01  0.1052E+03
     -0.339  0.2880E+01  0.1054E+03
     -0.275  0.3339E+01  0.1056E+03
     -0.211  0.4034E+01  0.1059E+03
     -0.147  0.4924E+01  0.1062E+03
     -0.083  0.5991E+01  0.1066E+03
     -0.019  0.6610E+01  0.1070E+03
      0.046  0.6066E+01  0.1074E+03
      0.110  0.5234E+01  0.1077E+03
      0.174  0.4486E+01  0.1080E+03
      0.238  0.4045E+01  0.1083E+03
      0.302  0.4445E+01  0.1085E+03
      0.366  0.4496E+01  0.1088E+03
      0.431  0.3434E+01  0.1091E+03
      0.495  0.2215E+01  0.1092E+03
      0.559  0.1688E+01  0.1093E+03
      0.623  0.1801E+01  0.1094E+03
      0.687  0.1933E+01  0.1095E+03
      0.751  0.2680E+01  0.1097E+03
      0.815  0.3895E+01  0.1100E+03
      0.880  0.3974E+01  0.1102E+03
      0.944  0.3302E+01  0.1104E+03
      1.008  0.3091E+01  0.1106E+03
      1.072  0.3974E+01  0.1109E+03
      1.136  0.6010E+01  0.1113E+03
      1.200  0.8404E+01  0.1118E+03
      1.265  0.1077E+02  0.1125E+03
      1.329  0.1224E+02  0.1133E+03
      1.393  0.1183E+02  0.1140E+03
      1.457  0.1060E+02  0.1147E+03
      1.521  0.1039E+02  0.1154E+03
      1.585  0.1152E+02  0.1161E+03
      1.650  0.1337E+02  0.1170E+03
      1.714  0.1421E+02  0.1179E+03
      1.778  0.1292E+02  0.1187E+03
      1.842  0.1073E+02  0.1194E+03
      1.906  0.9861E+01  0.1200E+03
      1.970  0.1165E+02  0.1208E+03
      2.034  0.1450E+02  0.1217E+03
      2.099  0.1617E+02  0.1228E+03
      2.163  0.1647E+02  0.1238E+03
      2.227  0.1528E+02  0.1248E+03
      2.291  0.1463E+02  0.1257E+03
      2.355  0.1544E+02  0.1267E+03
      2.419  0.1547E+02  0.1277E+03
      2.484  0.1518E+02  0.1287E+03
      2.548  0.1618E+02  0.1297E+03
      2.612  0.1668E+02  0.1308E+03
      2.676  0.1477E+02  0.1318E+03
      2.740  0.1203E+02  0.1325E+03
      2.804  0.1036E+02  0.1332E+03
      2.869  0.9172E+01  0.1338E+03
      2.933  0.8091E+01  0.1343E+03
      2.997  0.7153E+01  0.1348E+03
      3.061  0.6338E+01  0.1352E+03
      3.125  0.5370E+01  0.1355E+03
      3.189  0.4048E+01  0.1358E+03
      3.254  0.2444E+01  0.1359E+03
      3.318  0.9566E+00  0.1360E+03
      3.382  0.2042E+00  0.1360E+03
      3.446  0.2185E-01  0.1360E+03
      3.510  0.1126E-02  0.1360E+03
      3.574  0.2729E-04  0.1360E+03
      3.638  0.3065E-06  0.1360E+03
      3.703  0.1577E-08  0.1360E+03
      3.767  0.3682E-11  0.1360E+03
      3.831  0.3927E-14  0.1360E+03
      3.895  0.0000E+00  0.1360E+03
      3.959  0.0000E+00  0.1360E+03
      4.023  0.0000E+00  0.1360E+03
      4.088  0.0000E+00  0.1360E+03
      4.152  0.0000E+00  0.1360E+03
      4.216  0.0000E+00  0.1360E+03
