   24   24    1    1
  0.4176334E+02  0.3540400E-09  0.1044544E-08  0.2750143E-08  0.5000000E-15
  1.000000000000000E-004
  CAR 
 unknown system                          
    108     54     68
 
  0.0000000E+00  0.0000000E+00  0.0000000E+00  0.9615385E-02
    1      -14.031787
    2      -13.637772
    3      -12.897665
    4      -12.750952
    5      -12.592346
    6      -12.494376
    7      -12.183154
    8      -11.739615
    9      -11.528714
   10      -11.155078
   11      -11.090618
   12      -10.970773
   13       -8.326836
   14       -8.121100
   15       -7.927128
   16       -7.196390
   17       -6.935243
   18       -6.842519
   19       -6.590029
   20       -6.376610
   21       -5.920897
   22       -5.428625
   23       -5.071276
   24       -4.832710
   25       -4.091925
   26       -3.945577
   27       -3.851156
   28       -3.763052
   29       -3.280916
   30       -3.153586
   31       -2.963728
   32       -2.940072
   33       -2.804231
   34       -2.613280
   35       -2.559724
   36       -2.488289
   37       -2.442710
   38       -2.195992
   39       -2.130251
   40       -2.035941
   41       -1.925657
   42       -1.826408
   43       -1.789476
   44       -1.738748
   45       -1.675170
   46       -1.534653
   47       -1.528548
   48       -1.411937
   49       -1.340576
   50       -1.137511
   51       -0.985924
   52       -0.556541
   53       -0.353397
   54        0.324124
   55        0.779536
   56        1.008254
   57        1.178106
   58        1.223414
   59        1.330967
   60        1.609210
   61        1.675223
   62        1.856605
   63        1.963875
   64        2.007225
   65        2.336639
   66        2.412183
   67        2.514568
   68        2.611589
 
  0.7692308E-01 -0.1387779E-16  0.0000000E+00  0.1923077E-01
    1      -13.986668
    2      -13.576459
    3      -12.845527
    4      -12.704951
    5      -12.535911
    6      -12.432715
    7      -12.120895
    8      -11.688704
    9      -11.479790
   10      -11.117894
   11      -11.041702
   12      -10.916080
   13       -8.313111
   14       -8.158466
   15       -7.889434
   16       -7.176969
   17       -6.915169
   18       -6.834980
   19       -6.584182
   20       -6.346495
   21       -5.887296
   22       -5.411134
   23       -5.063695
   24       -4.837944
   25       -4.362043
   26       -3.936939
   27       -3.875354
   28       -3.773547
   29       -3.570612
   30       -3.372250
   31       -3.297090
   32       -3.124434
   33       -2.952729
   34       -2.843765
   35       -2.801260
   36       -2.580803
   37       -2.486078
   38       -2.328464
   39       -2.277061
   40       -2.227150
   41       -2.126969
   42       -2.062878
   43       -2.047640
   44       -1.928359
   45       -1.829630
   46       -1.805396
   47       -1.608508
   48       -1.557491
   49       -1.289160
   50       -1.133742
   51       -0.998369
   52       -0.669926
   53       -0.305923
   54        0.311032
   55        0.806530
   56        1.225468
   57        1.381079
   58        1.520236
   59        1.669700
   60        1.927532
   61        2.024295
   62        2.107486
   63        2.145667
   64        2.301756
   65        2.505702
   66        2.627327
   67        2.676410
   68        2.806003
 
  0.1538462E+00 -0.2775558E-16  0.0000000E+00  0.1923077E-01
    1      -13.855733
    2      -13.393579
    3      -12.689830
    4      -12.565569
    5      -12.369526
    6      -12.252312
    7      -11.938396
    8      -11.540418
    9      -11.337852
   10      -11.006901
   11      -10.901977
   12      -10.758246
   13       -8.299333
   14       -8.246389
   15       -7.847594
   16       -7.148090
   17       -6.908032
   18       -6.792849
   19       -6.596241
   20       -6.290830
   21       -5.812931
   22       -5.405786
   23       -5.107557
   24       -4.984484
   25       -4.927106
   26       -4.310222
   27       -4.183006
   28       -4.075726
   29       -3.943141
   30       -3.821751
   31       -3.789686
   32       -3.594495
   33       -3.331392
   34       -3.201869
   35       -3.101344
   36       -3.062633
   37       -2.945241
   38       -2.860086
   39       -2.720334
   40       -2.542733
   41       -2.486196
   42       -2.278261
   43       -2.225827
   44       -2.097186
   45       -2.009741
   46       -1.884923
   47       -1.793787
   48       -1.725303
   49       -1.324122
   50       -1.214058
   51       -1.089619
   52       -0.844702
   53       -0.216672
   54        0.090309
   55        0.625433
   56        1.386827
   57        1.643253
   58        1.881282
   59        2.145270
   60        2.267032
   61        2.368589
   62        2.522486
   63        2.556160
   64        2.617469
   65        2.804392
   66        2.927185
   67        3.045585
   68        3.118836
 
  0.2307692E+00 -0.4163336E-16  0.0000000E+00  0.1923077E-01
    1      -13.653884
    2      -13.092692
    3      -12.433658
    4      -12.332845
    5      -12.101430
    6      -11.966007
    7      -11.650525
    8      -11.310590
    9      -11.121114
   10      -10.831230
   11      -10.698118
   12      -10.515222
   13       -8.457431
   14       -8.314658
   15       -7.922108
   16       -7.229119
   17       -6.959575
   18       -6.778468
   19       -6.729614
   20       -6.337517
   21       -5.835349
   22       -5.724602
   23       -5.486815
   24       -5.431951
   25       -5.103185
   26       -4.901515
   27       -4.704646
   28       -4.605764
   29       -4.461091
   30       -4.289342
   31       -4.162266
   32       -3.901917
   33       -3.783606
   34       -3.564849
   35       -3.546420
   36       -3.356021
   37       -3.182906
   38       -3.086721
   39       -3.066661
   40       -2.698129
   41       -2.634261
   42       -2.543118
   43       -2.246277
   44       -2.071244
   45       -2.032222
   46       -1.962720
   47       -1.901879
   48       -1.788887
   49       -1.561509
   50       -1.482927
   51       -1.181263
   52       -0.995815
   53       -0.483009
   54       -0.019890
   55        0.454509
   56        1.309380
   57        1.753784
   58        1.801664
   59        1.939267
   60        2.133195
   61        2.175385
   62        2.294555
   63        2.450205
   64        2.591475
   65        2.773606
   66        2.830451
   67        2.885380
   68        3.086456
 
  0.3076923E+00 -0.5551115E-16  0.0000000E+00  0.1923077E-01
    1      -13.411369
    2      -12.681079
    3      -12.085512
    4      -12.014188
    5      -11.748542
    6      -11.596660
    7      -11.292108
    8      -11.034692
    9      -10.876994
   10      -10.626093
   11      -10.511795
   12      -10.221814
   13       -8.751501
   14       -8.490366
   15       -8.182387
   16       -7.551165
   17       -7.105005
   18       -7.087888
   19       -6.993273
   20       -6.630564
   21       -6.260806
   22       -6.186722
   23       -6.061039
   24       -5.869500
   25       -5.313270
   26       -5.219781
   27       -4.890510
   28       -4.798568
   29       -4.739488
   30       -4.549127
   31       -4.399476
   32       -4.311548
   33       -3.987774
   34       -3.861242
   35       -3.496354
   36       -3.462480
   37       -3.234086
   38       -3.159509
   39       -3.018784
   40       -2.858220
   41       -2.743764
   42       -2.668543
   43       -2.432997
   44       -2.187105
   45       -2.123277
   46       -1.979435
   47       -1.956894
   48       -1.897748
   49       -1.800326
   50       -1.720740
   51       -1.361349
   52       -1.129812
   53       -0.807745
   54       -0.098541
   55        0.310473
   56        1.134920
   57        1.505816
   58        1.623823
   59        1.739131
   60        1.884004
   61        1.995739
   62        2.138208
   63        2.248821
   64        2.316158
   65        2.491905
   66        2.606085
   67        2.728785
   68        2.756420
 
  0.3846154E+00 -0.8326673E-16  0.0000000E+00  0.1923077E-01
    1      -13.180418
    2      -12.172913
    3      -11.666788
    4      -11.631103
    5      -11.349215
    6      -11.190628
    7      -10.948473
    8      -10.782507
    9      -10.722441
   10      -10.552194
   11      -10.499929
   12       -9.936567
   13       -8.927771
   14       -8.733623
   15       -8.474389
   16       -7.960860
   17       -7.555936
   18       -7.512961
   19       -7.410523
   20       -7.082637
   21       -6.855699
   22       -6.759141
   23       -6.613128
   24       -6.163936
   25       -5.320985
   26       -5.261579
   27       -5.010959
   28       -4.737809
   29       -4.622634
   30       -4.480683
   31       -4.330528
   32       -4.174876
   33       -4.078750
   34       -3.752072
   35       -3.667928
   36       -3.537979
   37       -3.365169
   38       -3.266484
   39       -3.155965
   40       -2.937934
   41       -2.838895
   42       -2.689161
   43       -2.584538
   44       -2.400395
   45       -2.347797
   46       -2.218998
   47       -2.123826
   48       -1.978360
   49       -1.889337
   50       -1.595036
   51       -1.494133
   52       -1.258607
   53       -0.937986
   54       -0.231132
   55        0.166798
   56        0.943637
   57        1.310980
   58        1.457517
   59        1.611986
   60        1.649497
   61        1.885255
   62        1.998036
   63        2.130662
   64        2.152288
   65        2.209773
   66        2.340536
   67        2.407672
   68        2.645989
 
  0.4615385E+00 -0.8326673E-16  0.0000000E+00  0.1923077E-01
    1      -13.033990
    2      -11.599545
    3      -11.259987
    4      -11.242222
    5      -11.046921
    6      -10.940045
    7      -10.863985
    8      -10.825854
    9      -10.731795
   10      -10.691179
   11      -10.553170
   12       -9.735792
   13       -8.894019
   14       -8.784282
   15       -8.537956
   16       -8.176450
   17       -8.140798
   18       -7.716470
   19       -7.664186
   20       -7.383588
   21       -7.372913
   22       -7.275388
   23       -7.147612
   24       -6.021768
   25       -5.535692
   26       -5.046216
   27       -5.010825
   28       -4.599397
   29       -4.375237
   30       -4.191019
   31       -4.144102
   32       -4.041694
   33       -3.942371
   34       -3.920949
   35       -3.698018
   36       -3.648737
   37       -3.556832
   38       -3.352350
   39       -3.299203
   40       -3.125983
   41       -3.025300
   42       -2.852882
   43       -2.765050
   44       -2.470939
   45       -2.435938
   46       -2.280738
   47       -2.200537
   48       -1.979930
   49       -1.812060
   50       -1.626870
   51       -1.494319
   52       -1.330382
   53       -0.928045
   54       -0.343204
   55        0.062673
   56        0.787130
   57        1.268672
   58        1.343904
   59        1.490035
   60        1.582413
   61        1.756475
   62        1.857470
   63        1.986757
   64        1.997810
   65        2.179088
   66        2.301538
   67        2.369960
   68        2.445267
 
  0.0000000E+00  0.2500000E+00  0.0000000E+00  0.1923077E-01
    1      -14.021629
    2      -13.582516
    3      -13.071390
    4      -12.895104
    5      -12.583037
    6      -12.293233
    7      -11.970759
    8      -11.777464
    9      -11.573841
   10      -11.316214
   11      -11.097384
   12      -10.821298
   13       -8.615371
   14       -8.353671
   15       -7.494736
   16       -7.266481
   17       -7.019230
   18       -6.767879
   19       -6.692896
   20       -6.096872
   21       -5.841880
   22       -5.277142
   23       -5.093600
   24       -4.729961
   25       -4.146972
   26       -4.076955
   27       -3.861901
   28       -3.668698
   29       -3.427954
   30       -3.340148
   31       -3.225018
   32       -2.805673
   33       -2.711270
   34       -2.592581
   35       -2.493877
   36       -2.489930
   37       -2.441190
   38       -2.328684
   39       -2.214906
   40       -2.060718
   41       -2.029907
   42       -1.979151
   43       -1.827888
   44       -1.724974
   45       -1.621973
   46       -1.522173
   47       -1.460014
   48       -1.409271
   49       -1.281634
   50       -1.143442
   51       -0.961377
   52       -0.504379
   53       -0.140029
   54        0.346525
   55        0.777981
   56        1.063032
   57        1.149708
   58        1.270194
   59        1.340159
   60        1.637562
   61        1.683617
   62        1.751485
   63        2.047873
   64        2.166645
   65        2.229936
   66        2.442469
   67        2.543801
   68        2.600427
 
  0.7692308E-01  0.2500000E+00  0.0000000E+00  0.1923077E-01
    1      -13.974731
    2      -13.505743
    3      -13.052237
    4      -12.862903
    5      -12.525807
    6      -12.197841
    7      -11.871267
    8      -11.741847
    9      -11.532616
   10      -11.289905
   11      -11.053027
   12      -10.756389
   13       -8.673038
   14       -8.339439
   15       -7.451260
   16       -7.290318
   17       -7.001156
   18       -6.775785
   19       -6.623412
   20       -6.023578
   21       -5.793258
   22       -5.264884
   23       -5.079448
   24       -4.775869
   25       -4.369614
   26       -4.195053
   27       -3.887735
   28       -3.736314
   29       -3.567634
   30       -3.481774
   31       -3.375428
   32       -3.119110
   33       -2.983358
   34       -2.842923
   35       -2.699920
   36       -2.635134
   37       -2.570980
   38       -2.396085
   39       -2.345408
   40       -2.266848
   41       -2.215580
   42       -2.099117
   43       -2.076951
   44       -1.936708
   45       -1.844505
   46       -1.819697
   47       -1.600855
   48       -1.448156
   49       -1.252123
   50       -1.132807
   51       -0.965263
   52       -0.686168
   53       -0.049632
   54        0.310671
   55        0.821425
   56        1.242028
   57        1.366495
   58        1.530111
   59        1.690848
   60        1.843126
   61        1.984552
   62        2.105305
   63        2.327751
   64        2.387479
   65        2.533235
   66        2.584025
   67        2.781384
   68        2.929528
 
  0.1538462E+00  0.2500000E+00  0.0000000E+00  0.1923077E-01
    1      -13.843861
    2      -13.309346
    3      -12.915653
    4      -12.717111
    5      -12.359573
    6      -12.004034
    7      -11.675539
    8      -11.613117
    9      -11.393374
   10      -11.159597
   11      -10.911725
   12      -10.613670
   13       -8.738028
   14       -8.297706
   15       -7.424913
   16       -7.325682
   17       -6.949515
   18       -6.753156
   19       -6.591869
   20       -5.965634
   21       -5.746358
   22       -5.302652
   23       -5.185432
   24       -4.965007
   25       -4.907845
   26       -4.477822
   27       -4.394872
   28       -4.080591
   29       -3.944111
   30       -3.731669
   31       -3.703582
   32       -3.537613
   33       -3.358523
   34       -3.186181
   35       -3.117831
   36       -3.056541
   37       -2.889571
   38       -2.823367
   39       -2.703209
   40       -2.630474
   41       -2.566724
   42       -2.418853
   43       -2.365526
   44       -2.139420
   45       -2.019954
   46       -1.985537
   47       -1.736774
   48       -1.571740
   49       -1.312560
   50       -1.224792
   51       -1.067063
   52       -0.862042
   53       -0.095814
   54        0.113385
   55        0.634952
   56        1.354411
   57        1.604853
   58        1.653906
   59        2.010679
   60        2.198691
   61        2.348674
   62        2.481425
   63        2.643272
   64        2.761162
   65        2.921948
   66        2.988821
   67        3.070771
   68        3.172526
 
  0.2307692E+00  0.2500000E+00  0.0000000E+00  0.1923077E-01
    1      -13.644139
    2      -12.998183
    3      -12.664160
    4      -12.461625
    5      -12.092191
    6      -11.727030
    7      -11.420682
    8      -11.383817
    9      -11.171842
   10      -10.938100
   11      -10.694273
   12      -10.411001
   13       -8.868937
   14       -8.289384
   15       -7.506823
   16       -7.452657
   17       -6.923486
   18       -6.793410
   19       -6.735210
   20       -6.085091
   21       -5.916196
   22       -5.756133
   23       -5.506027
   24       -5.304007
   25       -5.224441
   26       -5.114610
   27       -4.762548
   28       -4.651085
   29       -4.281114
   30       -4.154096
   31       -4.107725
   32       -3.873978
   33       -3.810830
   34       -3.616011
   35       -3.354475
   36       -3.301690
   37       -3.189101
   38       -3.141786
   39       -2.912339
   40       -2.739875
   41       -2.627678
   42       -2.624173
   43       -2.467493
   44       -2.105044
   45       -2.067318
   46       -1.953233
   47       -1.888570
   48       -1.803762
   49       -1.511141
   50       -1.478604
   51       -1.175821
   52       -1.010568
   53       -0.500560
   54       -0.039016
   55        0.430281
   56        1.287649
   57        1.397298
   58        1.512736
   59        1.670035
   60        2.037465
   61        2.087122
   62        2.368171
   63        2.483002
   64        2.637690
   65        2.855231
   66        2.943935
   67        3.053617
   68        3.208775
 
  0.3076923E+00  0.2500000E+00  0.0000000E+00  0.1923077E-01
    1      -13.405200
    2      -12.581781
    3      -12.304924
    4      -12.106699
    5      -11.741361
    6      -11.403659
    7      -11.138478
    8      -11.076156
    9      -10.908372
   10      -10.672731
   11      -10.488413
   12      -10.179429
   13       -9.068073
   14       -8.425385
   15       -7.807362
   16       -7.727268
   17       -7.209987
   18       -7.058618
   19       -6.998672
   20       -6.511584
   21       -6.290754
   22       -6.206420
   23       -6.070390
   24       -6.010190
   25       -5.478648
   26       -5.316027
   27       -5.034920
   28       -4.654175
   29       -4.513261
   30       -4.417257
   31       -4.390704
   32       -4.108467
   33       -4.003405
   34       -3.864328
   35       -3.512068
   36       -3.435705
   37       -3.118094
   38       -3.066471
   39       -2.968319
   40       -2.867434
   41       -2.698716
   42       -2.598219
   43       -2.553543
   44       -2.408771
   45       -2.101034
   46       -2.018272
   47       -1.982016
   48       -1.870304
   49       -1.828833
   50       -1.653919
   51       -1.354311
   52       -1.186465
   53       -0.857154
   54       -0.253817
   55        0.248836
   56        1.092504
   57        1.156236
   58        1.218946
   59        1.490306
   60        1.773068
   61        2.045543
   62        2.170556
   63        2.251673
   64        2.364251
   65        2.531483
   66        2.614606
   67        2.841679
   68        2.911443
 
  0.3846154E+00  0.2500000E+00  0.0000000E+00  0.1923077E-01
    1      -13.177880
    2      -12.078661
    3      -11.854627
    4      -11.676763
    5      -11.346800
    6      -11.102145
    7      -10.832737
    8      -10.813741
    9      -10.697786
   10      -10.564832
   11      -10.509252
   12       -9.933906
   13       -9.058122
   14       -8.717297
   15       -8.209434
   16       -8.000902
   17       -7.874939
   18       -7.454807
   19       -7.245507
   20       -7.064444
   21       -6.801788
   22       -6.784012
   23       -6.755732
   24       -6.261288
   25       -5.440690
   26       -5.303727
   27       -4.944783
   28       -4.878899
   29       -4.585071
   30       -4.412033
   31       -4.212001
   32       -3.959095
   33       -3.891106
   34       -3.826863
   35       -3.530195
   36       -3.449974
   37       -3.378808
   38       -3.243292
   39       -3.211683
   40       -3.019103
   41       -2.779643
   42       -2.695991
   43       -2.624007
   44       -2.444343
   45       -2.348821
   46       -2.237088
   47       -2.164752
   48       -1.963710
   49       -1.825144
   50       -1.617436
   51       -1.451101
   52       -1.347161
   53       -1.033184
   54       -0.354926
   55        0.071863
   56        0.923013
   57        1.104748
   58        1.209556
   59        1.308748
   60        1.659054
   61        1.740488
   62        1.933526
   63        2.028181
   64        2.139880
   65        2.386240
   66        2.524061
   67        2.579445
   68        2.712948
 
  0.4615385E+00  0.2500000E+00  0.0000000E+00  0.1923077E-01
    1      -13.033552
    2      -11.529607
    3      -11.359211
    4      -11.257354
    5      -11.059112
    6      -10.961040
    7      -10.891517
    8      -10.796354
    9      -10.677838
   10      -10.661833
   11      -10.555947
   12       -9.729653
   13       -8.916444
   14       -8.651185
   15       -8.497041
   16       -8.425790
   17       -8.133393
   18       -7.616302
   19       -7.550427
   20       -7.422453
   21       -7.403486
   22       -7.279166
   23       -7.235088
   24       -6.073446
   25       -5.463456
   26       -5.114723
   27       -5.056915
   28       -4.567278
   29       -4.338936
   30       -4.240410
   31       -4.147232
   32       -4.030871
   33       -3.909647
   34       -3.760358
   35       -3.722750
   36       -3.594481
   37       -3.542534
   38       -3.372195
   39       -3.355031
   40       -3.098615
   41       -2.950886
   42       -2.806469
   43       -2.725661
   44       -2.689425
   45       -2.402248
   46       -2.252640
   47       -2.210085
   48       -1.918462
   49       -1.812181
   50       -1.656626
   51       -1.527549
   52       -1.320628
   53       -1.037665
   54       -0.307154
   55       -0.022084
   56        0.828958
   57        1.181058
   58        1.328960
   59        1.415394
   60        1.464462
   61        1.604210
   62        1.723082
   63        2.011802
   64        2.091449
   65        2.280618
   66        2.351057
   67        2.409570
   68        2.557212
 
 -0.4615385E+00  0.2500000E+00  0.0000000E+00  0.1923077E-01
    1      -13.034538
    2      -11.633051
    3      -11.244374
    4      -11.166721
    5      -11.033230
    6      -10.903866
    7      -10.879911
    8      -10.854134
    9      -10.798423
   10      -10.696144
   11      -10.553471
   12       -9.739339
   13       -8.862642
   14       -8.849227
   15       -8.531825
   16       -8.166958
   17       -8.040849
   18       -7.736056
   19       -7.699233
   20       -7.414492
   21       -7.375473
   22       -7.315580
   23       -7.105412
   24       -5.944175
   25       -5.556314
   26       -5.027106
   27       -4.830095
   28       -4.674272
   29       -4.461376
   30       -4.201824
   31       -4.150241
   32       -4.099742
   33       -4.028341
   34       -3.981924
   35       -3.749995
   36       -3.677002
   37       -3.516721
   38       -3.444555
   39       -3.216309
   40       -3.103732
   41       -2.889678
   42       -2.854476
   43       -2.752768
   44       -2.479172
   45       -2.395759
   46       -2.258996
   47       -2.223004
   48       -2.034177
   49       -1.790000
   50       -1.602061
   51       -1.552976
   52       -1.289466
   53       -0.993319
   54       -0.194423
   55        0.027620
   56        0.844293
   57        1.249034
   58        1.319492
   59        1.559227
   60        1.612492
   61        1.683001
   62        1.776318
   63        2.021006
   64        2.152448
   65        2.261730
   66        2.364442
   67        2.452574
   68        2.523948
 
 -0.3846154E+00  0.2500000E+00  0.0000000E+00  0.1923077E-01
    1      -13.181811
    2      -12.199386
    3      -11.591790
    4      -11.578313
    5      -11.349606
    6      -11.258585
    7      -11.029267
    8      -10.782575
    9      -10.725200
   10      -10.547655
   11      -10.462811
   12       -9.931486
   13       -8.840780
   14       -8.785397
   15       -8.588732
   16       -7.815655
   17       -7.587546
   18       -7.535386
   19       -7.426232
   20       -7.048775
   21       -6.904160
   22       -6.763676
   23       -6.606426
   24       -6.079126
   25       -5.256659
   26       -5.133962
   27       -5.041128
   28       -4.938621
   29       -4.504986
   30       -4.474068
   31       -4.377625
   32       -4.218017
   33       -4.151322
   34       -3.819434
   35       -3.741410
   36       -3.505611
   37       -3.422706
   38       -3.281967
   39       -3.191106
   40       -2.928873
   41       -2.782555
   42       -2.700332
   43       -2.593951
   44       -2.367371
   45       -2.304486
   46       -2.217225
   47       -2.043277
   48       -1.973395
   49       -1.864537
   50       -1.664786
   51       -1.501969
   52       -1.231455
   53       -0.967802
   54       -0.079358
   55        0.168815
   56        0.949796
   57        1.303823
   58        1.466941
   59        1.688193
   60        1.790392
   61        1.859236
   62        2.024947
   63        2.070895
   64        2.185495
   65        2.326677
   66        2.476723
   67        2.528388
   68        2.615854
 
 -0.3076923E+00  0.2500000E+00  0.0000000E+00  0.1923077E-01
    1      -13.412712
    2      -12.693344
    3      -12.043930
    4      -11.979366
    5      -11.750730
    6      -11.645095
    7      -11.338729
    8      -11.037266
    9      -10.868757
   10      -10.593325
   11      -10.517821
   12      -10.226257
   13       -8.652918
   14       -8.535291
   15       -8.285044
   16       -7.387423
   17       -7.258362
   18       -7.096807
   19       -6.967765
   20       -6.572598
   21       -6.255277
   22       -6.213312
   23       -6.070351
   24       -5.849634
   25       -5.254099
   26       -5.184952
   27       -4.982944
   28       -4.825616
   29       -4.740422
   30       -4.480271
   31       -4.390740
   32       -4.336486
   33       -4.018564
   34       -3.906170
   35       -3.555348
   36       -3.432490
   37       -3.241180
   38       -3.174590
   39       -3.030279
   40       -2.891286
   41       -2.755724
   42       -2.663074
   43       -2.379391
   44       -2.149281
   45       -2.076097
   46       -1.972278
   47       -1.929395
   48       -1.882466
   49       -1.810198
   50       -1.758988
   51       -1.371801
   52       -1.189098
   53       -0.783194
   54       -0.023908
   55        0.301373
   56        1.132484
   57        1.542179
   58        1.704858
   59        1.832018
   60        1.877872
   61        1.972344
   62        2.163044
   63        2.213579
   64        2.313481
   65        2.541751
   66        2.599911
   67        2.678446
   68        2.946930
 
 -0.2307692E+00  0.2500000E+00  0.0000000E+00  0.1923077E-01
    1      -13.653482
    2      -13.088460
    3      -12.448279
    4      -12.338766
    5      -12.100890
    6      -11.956667
    7      -11.633314
    8      -11.322089
    9      -11.124901
   10      -10.831350
   11      -10.696695
   12      -10.501674
   13       -8.497601
   14       -8.330942
   15       -7.880931
   16       -7.212006
   17       -6.990708
   18       -6.779345
   19       -6.733608
   20       -6.285328
   21       -5.837230
   22       -5.748840
   23       -5.472656
   24       -5.427087
   25       -5.120805
   26       -4.923192
   27       -4.698708
   28       -4.610848
   29       -4.488279
   30       -4.280699
   31       -4.085732
   32       -3.907899
   33       -3.816715
   34       -3.548525
   35       -3.520003
   36       -3.378978
   37       -3.200136
   38       -3.086920
   39       -3.058011
   40       -2.728194
   41       -2.575174
   42       -2.543918
   43       -2.356431
   44       -2.048875
   45       -1.992423
   46       -1.963121
   47       -1.878887
   48       -1.795626
   49       -1.558423
   50       -1.470240
   51       -1.181352
   52       -1.067301
   53       -0.405445
   54       -0.023430
   55        0.421557
   56        1.313691
   57        1.746807
   58        1.775659
   59        1.949975
   60        2.101621
   61        2.155556
   62        2.296354
   63        2.467379
   64        2.627704
   65        2.786796
   66        2.825087
   67        2.897413
   68        3.160715
 
 -0.1538462E+00  0.2500000E+00  0.0000000E+00  0.1923077E-01
    1      -13.852209
    2      -13.372129
    3      -12.763434
    4      -12.624864
    5      -12.365684
    6      -12.171775
    7      -11.849268
    8      -11.559999
    9      -11.357273
   10      -11.067417
   11      -10.899471
   12      -10.694923
   13       -8.478777
   14       -8.293684
   15       -7.637376
   16       -7.192109
   17       -6.948557
   18       -6.751078
   19       -6.648349
   20       -6.174297
   21       -5.787227
   22       -5.376652
   23       -5.100590
   24       -4.983029
   25       -4.916888
   26       -4.383678
   27       -4.256785
   28       -4.043779
   29       -3.914397
   30       -3.808315
   31       -3.781546
   32       -3.586268
   33       -3.386624
   34       -3.213504
   35       -3.073181
   36       -3.009148
   37       -2.949971
   38       -2.862860
   39       -2.668979
   40       -2.609959
   41       -2.516409
   42       -2.350250
   43       -2.267189
   44       -2.126982
   45       -2.012411
   46       -1.868857
   47       -1.790228
   48       -1.672691
   49       -1.309016
   50       -1.239811
   51       -1.065700
   52       -0.874834
   53       -0.101356
   54        0.102414
   55        0.575366
   56        1.366274
   57        1.662736
   58        1.738543
   59        2.093511
   60        2.294763
   61        2.410548
   62        2.575551
   63        2.674631
   64        2.696144
   65        2.784317
   66        2.976876
   67        3.043173
   68        3.123390
 
 -0.7692308E-01  0.2500000E+00  0.0000000E+00  0.1923077E-01
    1      -13.979589
    2      -13.537823
    3      -12.973847
    4      -12.814155
    5      -12.528938