       N       E                     dE             d eps       ncg     rms          rms(c)
DAV:   1     0.530558404913E+03    0.53056E+03   -0.28727E+04  7352   0.790E+02
DAV:   2    -0.364756500544E+02   -0.56703E+03   -0.55229E+03  9780   0.190E+02
DAV:   3    -0.955586739899E+02   -0.59083E+02   -0.58311E+02  9200   0.633E+01
DAV:   4    -0.984595721555E+02   -0.29009E+01   -0.28783E+01 11568   0.148E+01
DAV:   5    -0.985063951868E+02   -0.46823E-01   -0.46762E-01 10384   0.200E+00    0.134E+01
DAV:   6    -0.930527129979E+02    0.54537E+01   -0.13908E+01  9036   0.118E+01    0.632E+00
DAV:   7    -0.934381427408E+02   -0.38543E+00   -0.11918E+01  8648   0.772E+00    0.311E+00
DAV:   8    -0.933177159092E+02    0.12043E+00   -0.13723E+00  8868   0.366E+00    0.179E+00
DAV:   9    -0.933522175163E+02   -0.34502E-01   -0.54273E-01  8936   0.202E+00    0.688E-01
DAV:  10    -0.933543078742E+02   -0.20904E-02   -0.10163E-01  8896   0.102E+00    0.260E-01
DAV:  11    -0.933400401545E+02    0.14268E-01   -0.31817E-02  8976   0.435E-01    0.141E-01
DAV:  12    -0.933301583772E+02    0.98818E-02   -0.48081E-03  9024   0.222E-01    0.448E-02
DAV:  13    -0.933262643391E+02    0.38940E-02   -0.13256E-03  8920   0.908E-02    0.296E-02
DAV:  14    -0.933237776088E+02    0.24867E-02   -0.18873E-04  9480   0.402E-02    0.144E-02
DAV:  15    -0.933228841016E+02    0.89351E-03   -0.10316E-04  9136   0.257E-02    0.989E-03
DAV:  16    -0.933229996896E+02   -0.11559E-03   -0.94950E-05  8048   0.251E-02    0.513E-03
DAV:  17    -0.933236249689E+02   -0.62528E-03   -0.13613E-04  8432   0.239E-02    0.303E-03
DAV:  18    -0.933238178781E+02   -0.19291E-03   -0.99332E-05  7712   0.176E-02    0.162E-03
DAV:  19    -0.933238534257E+02   -0.35548E-04   -0.22031E-05  6992   0.105E-02    0.132E-03
DAV:  20    -0.933238895228E+02   -0.36097E-04   -0.20168E-05  6912   0.100E-02    0.781E-04
DAV:  21    -0.933238598249E+02    0.29698E-04   -0.17831E-05  7088   0.957E-03    0.553E-04
DAV:  22    -0.933238139338E+02    0.45891E-04   -0.16403E-05  6748   0.103E-02    0.308E-04
DAV:  23    -0.933237693749E+02    0.44559E-04   -0.68225E-06  6320   0.852E-03    0.192E-04
DAV:  24    -0.933237588333E+02    0.10542E-04   -0.30942E-06  6364   0.627E-03    0.964E-05
DAV:  25    -0.933237502345E+02    0.85988E-05   -0.56624E-06  6528   0.761E-03    0.404E-05
DAV:  26    -0.933237540719E+02   -0.38374E-05   -0.27081E-06  6512   0.579E-03    0.274E-05
DAV:  27    -0.933237535153E+02    0.55658E-06   -0.34222E-06  6184   0.646E-03
   1 F= -.93323754E+02 E0= -.93313426E+02  d E =-.206553E-01
