 vasp.5.3.5 31Mar14 (build Oct 29 2014 16:16:03) complex                        
  
 executed on          Linux-UFHPC date 2016.02.09  17:46:03
 running on    8 total cores
 distrk:  each k-point on    8 cores,    1 groups
 distr:  one band on NCORES_PER_BAND=   2 cores,    4 groups


--------------------------------------------------------------------------------------------------------


 INCAR:
 POTCAR:    PAW_PBE P 17Jan2003                   
 POTCAR:   PAW_PBE Si 05Jan2001                   

 ----------------------------------------------------------------------------- 
|                                                                             |
|  ADVICE TO THIS USER RUNNING 'VASP/VAMP'   (HEAR YOUR MASTER'S VOICE ...):  |
|                                                                             |
|      You have switched on vdW-DFT.                                          |
|      This routine was written and supplied by Jiri Klimes.                  |
|      We recommed that you carefully read and cite the following             |
|      publication                                                            |
|      J. Klimes, D.R. Bowler, A. Michelides                                  |
|        J. Phys.: Cond Matt. 22 022201 (2010)                                |
|      J. Klimes, D.R. Bowler, A. Michelides                                  |
|        Phys. Rev. B. 83, 195131 (2011)                                      |
|      and references therein.                                                |
|                                                                             |
 ----------------------------------------------------------------------------- 

 POTCAR:    PAW_PBE P 17Jan2003                   
   VRHFIN =P : s2p3                                                             
   LEXCH  = PE                                                                  
   EATOM  =   176.0430 eV,   12.9388 Ry                                         
                                                                                
   TITEL  = PAW_PBE P 17Jan2003                                                 
   LULTRA =        F    use ultrasoft PP ?                                      
   IUNSCR =        1    unscreen: 0-lin 1-nonlin 2-no                           
   RPACOR =    1.500    partial core radius                                     
   POMASS =   30.974; ZVAL   =    5.000    mass and valenz                      
   RCORE  =    1.900    outmost cutoff radius                                   
   RWIGS  =    2.330; RWIGS  =    1.233    wigner-seitz radius (au A)           
   ENMAX  =  270.000; ENMIN  =  191.280 eV                                      
   ICORE  =        2    local potential                                         
   LCOR   =        T    correct aug charges                                     
   LPAW   =        T    paw PP                                                  
   EAUG   =  342.924                                                            
   DEXC   =    -.002                                                            
   RMAX   =    2.887    core radius for proj-oper                               
   RAUG   =    1.300    factor for augmentation sphere                          
   RDEP   =    1.931    radius for radial grids                                 
   QCUT   =   -4.330; QGAM   =    8.659    optimization parameters              
                                                                                
   Description                                                                  
     l     E      TYP  RCUT    TYP  RCUT                                        
     0   .000     23  1.900                                                     
     0   .000     23  1.900                                                     
     1   .000     23  1.900                                                     
     1   .000     23  1.900                                                     
     2   .000     23  1.900                                                     
  local pseudopotential read in
  partial core-charges read in
  atomic valenz-charges read in
  non local Contribution for L=           0  read in
    real space projection operators read in
  non local Contribution for L=           0  read in
    real space projection operators read in
  non local Contribution for L=           1  read in
    real space projection operators read in
  non local Contribution for L=           1  read in
    real space projection operators read in
    PAW grid and wavefunctions read in
 
   number of l-projection  operators is LMAX  =           4
   number of lm-projection operators is LMMAX =           8
 
 POTCAR:   PAW_PBE Si 05Jan2001                   
   VRHFIN =Si: s2p2                                                             
   LEXCH  = PE                                                                  
   EATOM  =   103.0669 eV,    7.5752 Ry                                         
                                                                                
   TITEL  = PAW_PBE Si 05Jan2001                                                
   LULTRA =        F    use ultrasoft PP ?                                      
   IUNSCR =        1    unscreen: 0-lin 1-nonlin 2-no                           
   RPACOR =    1.500    partial core radius                                     
   POMASS =   28.085; ZVAL   =    4.000    mass and valenz                      
   RCORE  =    1.900    outmost cutoff radius                                   
   RWIGS  =    2.480; RWIGS  =    1.312    wigner-seitz radius (au A)           
   ENMAX  =  245.345; ENMIN  =  184.009 eV                                      
   ICORE  =        2    local potential                                         
   LCOR   =        T    correct aug charges                                     
   LPAW   =        T    paw PP                                                  
   EAUG   =  322.069                                                            
   DEXC   =    -.007                                                            
   RMAX   =    2.944    core radius for proj-oper                               
   RAUG   =    1.300    factor for augmentation sphere                          
   RDEP   =    1.993    radius for radial grids                                 
   QCUT   =   -4.246; QGAM   =    8.493    optimization parameters              
                                                                                
   Description                                                                  
     l     E      TYP  RCUT    TYP  RCUT                                        
     0   .000     23  1.900                                                     
     0   .000     23  1.900                                                     
     1   .000     23  1.900                                                     
     1   .000     23  1.900                                                     
     2   .000      7  1.900                                                     
  local pseudopotential read in
  partial core-charges read in
  atomic valenz-charges read in
  non local Contribution for L=           0  read in
    real space projection operators read in
  non local Contribution for L=           0  read in
    real space projection operators read in
  non local Contribution for L=           1  read in
    real space projection operators read in
  non local Contribution for L=           1  read in
    real space projection operators read in
    PAW grid and wavefunctions read in
 
   number of l-projection  operators is LMAX  =           4
   number of lm-projection operators is LMMAX =           8
 
 Optimization of the real space projectors (new method)

 maximal supplied QI-value         = 19.84
 optimisation between [QCUT,QGAM] = [  8.73, 17.66] = [ 21.34, 87.33] Ry 
 Optimized for a Real-space Cutoff    1.50 Angstroem

   l    n(q)    QCUT    max X(q) W(low)/X(q) W(high)/X(q)  e(spline) 
   0      8     8.731     6.651    0.16E-04    0.15E-04    0.77E-08
   0      8     8.731    90.285    0.16E-03    0.90E-04    0.16E-06
   1      7     8.731     4.328    0.47E-04    0.36E-04    0.45E-07
   1      7     8.731    54.583    0.13E-03    0.39E-03    0.20E-06
 Optimization of the real space projectors (new method)

 maximal supplied QI-value         = 19.84
 optimisation between [QCUT,QGAM] = [  8.73, 17.66] = [ 21.34, 87.33] Ry 
 Optimized for a Real-space Cutoff    1.46 Angstroem

   l    n(q)    QCUT    max X(q) W(low)/X(q) W(high)/X(q)  e(spline) 
   0      8     8.731     8.708    0.16E-04    0.11E-04    0.68E-08
   0      8     8.731   106.241    0.24E-03    0.77E-04    0.13E-06
   1      7     8.731     5.901    0.34E-04    0.38E-04    0.36E-07
   1      7     8.731    73.241    0.12E-03    0.39E-03    0.15E-06

 ----------------------------------------------------------------------------- 
|                                                                             |
|  ADVICE TO THIS USER RUNNING 'VASP/VAMP'   (HEAR YOUR MASTER'S VOICE ...):  |
|                                                                             |
|      You enforced a specific xc-type in the INCAR file,                     |
|      a different type was found on the POTCAR file                          |
|          I HOPE YOU KNOW, WHAT YOU ARE  DOING                               |
|                                                                             |
 ----------------------------------------------------------------------------- 

  PAW_PBE P 17Jan2003                   :
 energy of atom  1       EATOM= -176.0430
 kinetic energy error for atom=    0.0040 (will be added to EATOM!!)
 PAW_PBE Si 05Jan2001                   :
 energy of atom  2       EATOM= -103.0669
 kinetic energy error for atom=    0.0021 (will be added to EATOM!!)
 
 
 POSCAR: Si12                                    
  positions in direct lattice
  No initial velocities read in
 exchange correlation table for  LEXCH =       42
   RHO(1)=    0.500       N(1)  =     2000
   RHO(2)=  100.500       N(2)  =     4000
 


--------------------------------------------------------------------------------------------------------


 ion  position               nearest neighbor table
   1  0.114  0.228  0.233-  15 2.28  21 2.29  21 2.29
   2  0.414  0.028  0.515-  16 2.28  22 2.29  22 2.29
   3  0.458  0.916  0.209-  21 2.28  13 2.30  13 2.30
   4  0.758  0.716  0.491-  22 2.28  14 2.30  14 2.30
   5  0.311  0.622  0.084-  17 2.28  23 2.30  23 2.30
   6  0.311  0.622  0.366-  14 2.14  24 2.23  18 2.28
   7  0.999  0.998  0.086-  19 2.29  19 2.29  13 2.32
   8  0.999  0.998  0.368-  20 2.29  20 2.29  22 3.05
   9  0.655  0.310  0.060-  19 2.28  17 2.29  17 2.29
  10  0.655  0.310  0.342-  20 2.28  18 2.29  18 2.29  24 2.94
  11  0.770  0.539  0.207-  15 2.29  15 2.29  23 2.32
  12  0.070  0.339  0.489-  16 2.29  16 2.29  24 2.32  18 3.05
  13  0.940  0.879  0.158-   3 2.30   3 2.30   7 2.32  23 2.35
  14  0.240  0.679  0.440-   6 2.14   4 2.30   4 2.30  24 2.35
  15  0.205  0.410  0.186-   1 2.28  11 2.29  11 2.29  17 2.37
  16  0.505  0.210  0.468-   2 2.28  12 2.29  12 2.29  20 2.33
  17  0.202  0.404  0.100-   5 2.28   9 2.29   9 2.29  15 2.37
  18  0.202  0.404  0.382-  24 1.19   6 2.28  10 2.29  10 2.29  12 3.05
  19  0.564  0.128  0.108-   9 2.28   7 2.29   7 2.29  21 2.37
  20  0.564  0.128  0.390-  10 2.28   8 2.29   8 2.29  16 2.33
  21  0.567  0.134  0.194-   3 2.28   1 2.29   1 2.29  19 2.37
  22  0.867  0.934  0.476-   4 2.28   2 2.29   2 2.29   8 3.05
  23  0.829  0.658  0.136-   5 2.30   5 2.30  11 2.32  13 2.35
  24  0.129  0.458  0.418-  18 1.19   6 2.23  12 2.32  14 2.35  10 2.94
 

 ----------------------------------------------------------------------------- 
|                                                                             |
|           W    W    AA    RRRRR   N    N  II  N    N   GGGG   !!!           |
|           W    W   A  A   R    R  NN   N  II  NN   N  G    G  !!!           |
|           W    W  A    A  R    R  N N  N  II  N N  N  G       !!!           |
|           W WW W  AAAAAA  RRRRR   N  N N  II  N  N N  G  GGG   !            |
|           WW  WW  A    A  R   R   N   NN  II  N   NN  G    G                |
|           W    W  A    A  R    R  N    N  II  N    N   GGGG   !!!           |
|                                                                             |
|      The distance between some ions is very small                           |
|      please check the nearest neigbor list in the OUTCAR file               |
|          I HOPE YOU KNOW, WHAT YOU ARE  DOING                               |
|                                                                             |
 ----------------------------------------------------------------------------- 

  LATTYP: Found a base centered orthorhombic cell.
 ALAT       =     3.5404000000
 B/A-ratio  =     5.8153587165
 C/A-ratio  =     7.7678875268
  
  Lattice vectors:
  
 A1 = (   1.7702000000,  10.2943480000,   0.0000000000)
 A2 = (   1.7702000000, -10.2943480000,   0.0000000000)
 A3 = (   0.0000000000,   0.0000000000, -27.5014290000)


Analysis of symmetry for initial positions (statically):
=====================================================================
 Subroutine PRICEL returns:
 Original cell was already a primitive cell.
 

 Routine SETGRP: Setting up the symmetry group for a 
 base centered orthorhombic supercell.


 Subroutine GETGRP returns: Found  1 space group operations
 (whereof  1 operations were pure point group operations)
 out of a pool of  8 trial point group operations.


The static configuration has the point symmetry C_1 .


Analysis of symmetry for dynamics (positions and initial velocities):
=====================================================================
 Subroutine PRICEL returns:
 Original cell was already a primitive cell.
 

 Routine SETGRP: Setting up the symmetry group for a 
 base centered orthorhombic supercell.


 Subroutine GETGRP returns: Found  1 space group operations
 (whereof  1 operations were pure point group operations)
 out of a pool of  8 trial point group operations.


The dynamic configuration has the point symmetry C_1 .
 
 
 KPOINTS: pymatgen generated KPOINTS with grid den

Automatic generation of k-mesh.
Space group operators:
 irot       det(A)        alpha          n_x          n_y          n_z        tau_x        tau_y        tau_z
    1     1.000000     0.000000     1.000000     0.000000     0.000000     0.000000     0.000000     0.000000
 
 Subroutine IBZKPT returns following result:
 ===========================================
 
 Found     54 irreducible k-points:
 
 Following reciprocal coordinates:
            Coordinates               Weight
  0.000000  0.000000  0.000000      1.000000
  0.076923 -0.000000  0.000000      2.000000
  0.153846 -0.000000  0.000000      2.000000
  0.230769 -0.000000  0.000000      2.000000
  0.307692 -0.000000  0.000000      2.000000
  0.384615 -0.000000  0.000000      2.000000
  0.461538 -0.000000  0.000000      2.000000
  0.000000  0.250000  0.000000      2.000000
  0.076923  0.250000  0.000000      2.000000
  0.153846  0.250000  0.000000      2.000000
  0.230769  0.250000  0.000000      2.000000
  0.307692  0.250000  0.000000      2.000000
  0.384615  0.250000  0.000000      2.000000
  0.461538  0.250000  0.000000      2.000000
 -0.461538  0.250000  0.000000      2.000000
 -0.384615  0.250000  0.000000      2.000000
 -0.307692  0.250000  0.000000      2.000000
 -0.230769  0.250000  0.000000      2.000000
 -0.153846  0.250000  0.000000      2.000000
 -0.076923  0.250000  0.000000      2.000000
  0.000000  0.500000  0.000000      1.000000
  0.076923  0.500000  0.000000      2.000000
  0.153846  0.500000  0.000000      2.000000
  0.230769  0.500000  0.000000      2.000000
  0.307692  0.500000  0.000000      2.000000
  0.384615  0.500000  0.000000      2.000000
  0.461538  0.500000  0.000000      2.000000
  0.000000  0.000000  0.500000      1.000000
  0.076923 -0.000000  0.500000      2.000000
  0.153846 -0.000000  0.500000      2.000000
  0.230769 -0.000000  0.500000      2.000000
  0.307692 -0.000000  0.500000      2.000000
  0.384615 -0.000000  0.500000      2.000000
  0.461538 -0.000000  0.500000      2.000000
  0.000000  0.250000  0.500000      2.000000
  0.076923  0.250000  0.500000      2.000000
  0.153846  0.250000  0.500000      2.000000
  0.230769  0.250000  0.500000      2.000000
  0.307692  0.250000  0.500000      2.000000
  0.384615  0.250000  0.500000      2.000000
  0.461538  0.250000  0.500000      2.000000
 -0.461538  0.250000  0.500000      2.000000
 -0.384615  0.250000  0.500000      2.000000
 -0.307692  0.250000  0.500000      2.000000
 -0.230769  0.250000  0.500000      2.000000
 -0.153846  0.250000  0.500000      2.000000
 -0.076923  0.250000  0.500000      2.000000
  0.000000  0.500000  0.500000      1.000000
  0.076923  0.500000  0.500000      2.000000
  0.153846  0.500000  0.500000      2.000000
  0.230769  0.500000  0.500000      2.000000
  0.307692  0.500000  0.500000      2.000000
  0.384615  0.500000  0.500000      2.000000
  0.461538  0.500000  0.500000      2.000000
 
 Following cartesian coordinates:
            Coordinates               Weight
  0.000000  0.000000  0.000000      1.000000
  0.021727  0.003736  0.000000      2.000000
  0.043454  0.007472  0.000000      2.000000
  0.065182  0.011209  0.000000      2.000000
  0.086909  0.014945  0.000000      2.000000
  0.108636  0.018681  0.000000      2.000000
  0.130363  0.022417  0.000000      2.000000
  0.000000  0.024285  0.000000      2.000000
  0.021727  0.028021  0.000000      2.000000
  0.043454  0.031758  0.000000      2.000000
  0.065182  0.035494  0.000000      2.000000
  0.086909  0.039230  0.000000      2.000000
  0.108636  0.042966  0.000000      2.000000
  0.130363  0.046702  0.000000      2.000000
 -0.130363  0.001868  0.000000      2.000000
 -0.108636  0.005604  0.000000      2.000000
 -0.086909  0.009340  0.000000      2.000000
 -0.065182  0.013077  0.000000      2.000000
 -0.043454  0.016813  0.000000      2.000000
 -0.021727  0.020549  0.000000      2.000000
  0.000000  0.048570  0.000000      1.000000
  0.021727  0.052307  0.000000      2.000000
  0.043454  0.056043  0.000000      2.000000
  0.065182  0.059779  0.000000      2.000000
  0.086909  0.063515  0.000000      2.000000
  0.108636  0.067251  0.000000      2.000000
  0.130363  0.070987  0.000000      2.000000
  0.000000  0.000000  0.018181      1.000000
  0.021727  0.003736  0.018181      2.000000
  0.043454  0.007472  0.018181      2.000000
  0.065182  0.011209  0.018181      2.000000
  0.086909  0.014945  0.018181      2.000000
  0.108636  0.018681  0.018181      2.000000
  0.130363  0.022417  0.018181      2.000000
  0.000000  0.024285  0.018181      2.000000
  0.021727  0.028021  0.018181      2.000000
  0.043454  0.031758  0.018181      2.000000
  0.065182  0.035494  0.018181      2.000000
  0.086909  0.039230  0.018181      2.000000
  0.108636  0.042966  0.018181      2.000000
  0.130363  0.046702  0.018181      2.000000
 -0.130363  0.001868  0.018181      2.000000
 -0.108636  0.005604  0.018181      2.000000
 -0.086909  0.009340  0.018181      2.000000
 -0.065182  0.013077  0.018181      2.000000
 -0.043454  0.016813  0.018181      2.000000
 -0.021727  0.020549  0.018181      2.000000
  0.000000  0.048570  0.018181      1.000000
  0.021727  0.052307  0.018181      2.000000
  0.043454  0.056043  0.018181      2.000000
  0.065182  0.059779  0.018181      2.000000
  0.086909  0.063515  0.018181      2.000000
  0.108636  0.067251  0.018181      2.000000
  0.130363  0.070987  0.018181      2.000000
 


--------------------------------------------------------------------------------------------------------




 Dimension of arrays:
   k-points           NKPTS =     54   k-points in BZ     NKDIM =     54   number of bands    NBANDS=     68
   number of dos      NEDOS =    301   number of ions     NIONS =     24
   non local maximal  LDIM  =      4   non local SUM 2l+1 LMDIM =      8
   total plane-waves  NPLWV = 192000
   max r-space proj   IRMAX =   2772   max aug-charges    IRDMAX=   6603
   dimension x,y,z NGX =    20 NGY =   60 NGZ =  160
   dimension x,y,z NGXF=    40 NGYF=  120 NGZF=  320
   support grid    NGXF=    40 NGYF=  120 NGZF=  320
   ions per type =              12  12
 NGX,Y,Z   is equivalent  to a cutoff of   9.39,  9.55,  9.67 a.u.
 NGXF,Y,Z  is equivalent  to a cutoff of  18.78, 19.10, 19.34 a.u.


 I would recommend the setting:
   dimension x,y,z NGX =    20 NGY =   59 NGZ =  155
 SYSTEM =  unknown system                          
 POSCAR =  Si12                                    

 Startparameter for this run:
   NWRITE =      2    write-flag & timer
   PREC   = accura    normal or accurate (medium, high low for compatibility)
   ISTART =      0    job   : 0-new  1-cont  2-samecut
   ICHARG =      2    charge: 1-file 2-atom 10-const
   ISPIN  =      1    spin polarized calculation?
   LNONCOLLINEAR =      F non collinear calculations
   LSORBIT =      F    spin-orbit coupling
   INIWAV =      1    electr: 0-lowe 1-rand  2-diag
   LASPH  =      F    aspherical Exc in radial PAW
   METAGGA=      F    non-selfconsistent MetaGGA calc.

 Electronic Relaxation 1
   ENCUT  =  300.0 eV  22.05 Ry    4.70 a.u.   5.00 14.75 38.84*2*pi/ulx,y,z
   ENINI  =  300.0     initial cutoff
   ENAUG  =  342.9 eV  augmentation charge cutoff
   NELM   =     60;   NELMIN=  2; NELMDL= -5     # of ELM steps 
   EDIFF  = 0.1E-05   stopping-criterion for ELM
   LREAL  =      T    real-space projection
   NLSPLINE    = F    spline interpolate recip. space projectors
   LCOMPAT=      F    compatible to vasp.4.4
   GGA_COMPAT  = T    GGA compatible to vasp.4.4-vasp.4.6
   LMAXPAW     = -100 max onsite density
   LMAXMIX     =    2 max onsite mixed and CHGCAR
   VOSKOWN=      0    Vosko Wilk Nusair interpolation
   ROPT   =   -0.00025  -0.00025
 Ionic relaxation
   EDIFFG = 0.1E-04   stopping-criterion for IOM
   NSW    =      0    number of steps for IOM
   NBLOCK =      1;   KBLOCK =      1    inner block; outer block 
   IBRION =     -1    ionic relax: 0-MD 1-quasi-New 2-CG
   NFREE  =      1    steps in history (QN), initial steepest desc. (CG)
   ISIF   =      3    stress and relaxation
   IWAVPR =     10    prediction:  0-non 1-charg 2-wave 3-comb
   ISYM   =      2    0-nonsym 1-usesym 2-fastsym
   LCORR  =      T    Harris-Foulkes like correction to forces

   POTIM  = 0.5000    time-step for ionic-motion
   TEIN   =    0.0    initial temperature
   TEBEG  =    0.0;   TEEND  =   0.0 temperature during run
   SMASS  =  -3.00    Nose mass-parameter (am)
   estimated Nose-frequenzy (Omega)   =  0.10E-29 period in steps =****** mass=  -0.286E-27a.u.
   SCALEE = 1.0000    scale energy and forces
   NPACO  =    256;   APACO  = 16.0  distance and # of slots for P.C.
   PSTRESS=    0.0 pullay stress

  Mass of Ions in am
   POMASS =  30.97 28.09
  Ionic Valenz
   ZVAL   =   5.00  4.00
  Atomic Wigner-Seitz radii
   RWIGS  =  -1.00 -1.00
  virtual crystal weights 
   VCA    =   1.00  1.00
   NELECT =     108.0000    total number of electrons
   NUPDOWN=      -1.0000    fix difference up-down

 DOS related values:
   EMIN   =  10.00;   EMAX   =-10.00  energy-range for DOS
   EFERMI =   0.00
   ISMEAR =     0;   SIGMA  =   0.10  broadening in eV -4-tet -1-fermi 0-gaus

 Electronic relaxation 2 (details)
   IALGO  =     38    algorithm
   LDIAG  =      T    sub-space diagonalisation (order eigenvalues)
   LSUBROT=      F    optimize rotation matrix (better conditioning)
   TURBO    =      0    0=normal 1=particle mesh
   IRESTART =      0    0=no restart 2=restart with 2 vectors
   NREBOOT  =      0    no. of reboots
   NMIN     =      0    reboot dimension
   EREF     =   0.00    reference energy to select bands
   IMIX   =      4    mixing-type and parameters
     AMIX     =   0.40;   BMIX     =  1.00
     AMIX_MAG =   1.60;   BMIX_MAG =  1.00
     AMIN     =   0.10
     WC   =   100.;   INIMIX=   1;  MIXPRE=   1;  MAXMIX= -45

 Intra band minimization:
   WEIMIN = 0.0000     energy-eigenvalue tresh-hold
   EBREAK =  0.37E-08  absolut break condition
   DEPER  =   0.30     relativ break condition  

   TIME   =   0.40     timestep for ELM

  volume/ion in A,a.u.               =      41.76       281.83
  Fermi-wavevector in a.u.,A,eV,Ry     =   0.779018  1.472130  8.256946  0.606868
  Thomas-Fermi vector in A             =   1.882034
 
 Write flags
   LWAVE  =      F    write WAVECAR
   LCHARG =      F    write CHGCAR
   LVTOT  =      F    write LOCPOT, total local potential
   LVHAR  =      F    write LOCPOT, Hartree potential only
   LELF   =      F    write electronic localiz. function (ELF)
   LORBIT =      0    0 simple, 1 ext, 2 COOP (PROOUT)


 Dipole corrections
   LMONO  =      F    monopole corrections only (constant potential shift)
   LDIPOL =      F    correct potential (dipole corrections)
   IDIPOL =      0    1-x, 2-y, 3-z, 4-all directions 
   EPSILON=  1.0000000 bulk dielectric constant

 Exchange correlation treatment:
   GGA     =    BO    GGA type
   LEXCH   =    42    internal setting for exchange type
   VOSKOWN=      0    Vosko Wilk Nusair interpolation
   LHFCALC =     F    Hartree Fock is set to
   LHFONE  =     F    Hartree Fock one center treatment
   AEXX    =    0.0000 exact exchange contribution

 vdW DFT:
   LUSE_VDW   =     T    switch on vdW DFT
   Zab_VDW    =-.8491    correlation parameter
   PARAM1     =0.1833
   PARAM2     =0.2200
   PARAM3     =0.0000

 Linear response parameters
   LEPSILON=     F    determine dielectric tensor
   LRPA    =     F    only Hartree local field effects (RPA)
   LNABLA  =     F    use nabla operator in PAW spheres
   LVEL    =     F    velocity operator in full k-point grid
   LINTERFAST=   F  fast interpolation
   KINTER  =     0    interpolate to denser k-point grid
   CSHIFT  =0.1000    complex shift for real part using Kramers Kronig
   OMEGAMAX=  -1.0    maximum frequency
   DEG_THRESHOLD= 0.2000000E-02 threshold for treating states as degnerate
   RTIME   =    0.100 relaxation time in fs

 Orbital magnetization related:
   ORBITALMAG=     F  switch on orbital magnetization
   LCHIMAG   =     F  perturbation theory with respect to B field
   DQ        =  0.001000  dq finite difference perturbation B field



--------------------------------------------------------------------------------------------------------


 Static calculation
 charge density and potential will be updated during run
 non-spin polarized calculation
 Variant of blocked Davidson
 Davidson routine will perform the subspace rotation
 perform sub-space diagonalisation
    after iterative eigenvector-optimisation
 modified Broyden-mixing scheme, WC =      100.0
 initial mixing is a Kerker type mixing with AMIX =  0.4000 and BMIX =      1.0000
 Hartree-type preconditioning will be used
 using additional bands           14
 real space projection scheme for non local part
 use partial core corrections
 calculate Harris-corrections to forces 
   (improved forces if not selfconsistent)
 use gradient corrections 
 use of overlap-Matrix (Vanderbilt PP)
 Gauss-broadening in eV      SIGMA  =   0.10


--------------------------------------------------------------------------------------------------------


  energy-cutoff  :      300.00
  volume of cell :     1002.32
      direct lattice vectors                 reciprocal lattice vectors
     3.540400000  0.000000000  0.000000000     0.282453960  0.048570342  0.000000000
    -1.770200000 10.294348000  0.000000000     0.000000000  0.097140683  0.000000000
     0.000000000  0.000000000 27.501429000     0.000000000  0.000000000  0.036361747

  length of vectors
     3.540400000 10.445439617 27.501429000     0.286599577  0.097140683  0.036361747


 
 k-points in units of 2pi/SCALE and weight: pymatgen generated KPOINTS with grid den
   0.00000000  0.00000000  0.00000000       0.010
   0.02172723  0.00373618  0.00000000       0.019
   0.04345446  0.00747236  0.00000000       0.019
   0.06518168  0.01120854  0.00000000       0.019
   0.08690891  0.01494472  0.00000000       0.019
   0.10863614  0.01868090  0.00000000       0.019
   0.13036337  0.02241708  0.00000000       0.019
   0.00000000  0.02428517  0.00000000       0.019
   0.02172723  0.02802135  0.00000000       0.019
   0.04345446  0.03175753  0.00000000       0.019
   0.06518168  0.03549371  0.00000000       0.019
   0.08690891  0.03922989  0.00000000       0.019
   0.10863614  0.04296607  0.00000000       0.019
   0.13036337  0.04670225  0.00000000       0.019
  -0.13036337  0.00186809  0.00000000       0.019
  -0.10863614  0.00560427  0.00000000       0.019
  -0.08690891  0.00934045  0.00000000       0.019
  -0.06518168  0.01307663  0.00000000       0.019
  -0.04345446  0.01681281  0.00000000       0.019
  -0.02172723  0.02054899  0.00000000       0.019
   0.00000000  0.04857034  0.00000000       0.010
   0.02172723  0.05230652  0.00000000       0.019
   0.04345446  0.05604270  0.00000000       0.019
   0.06518168  0.05977888  0.00000000       0.019
   0.08690891  0.06351506  0.00000000       0.019
   0.10863614  0.06725124  0.00000000       0.019
   0.13036337  0.07098742  0.00000000       0.019
   0.00000000  0.00000000  0.01818087       0.010
   0.02172723  0.00373618  0.01818087       0.019
   0.04345446  0.00747236  0.01818087       0.019
   0.06518168  0.01120854  0.01818087       0.019
   0.08690891  0.01494472  0.01818087       0.019
   0.10863614  0.01868090  0.01818087       0.019
   0.13036337  0.02241708  0.01818087       0.019
   0.00000000  0.02428517  0.01818087       0.019
   0.02172723  0.02802135  0.01818087       0.019
   0.04345446  0.03175753  0.01818087       0.019
   0.06518168  0.03549371  0.01818087       0.019
   0.08690891  0.03922989  0.01818087       0.019
   0.10863614  0.04296607  0.01818087       0.019
   0.13036337  0.04670225  0.01818087       0.019
  -0.13036337  0.00186809  0.01818087       0.019
  -0.10863614  0.00560427  0.01818087       0.019
  -0.08690891  0.00934045  0.01818087       0.019
  -0.06518168  0.01307663  0.01818087       0.019
  -0.04345446  0.01681281  0.01818087       0.019
  -0.02172723  0.02054899  0.01818087       0.019
   0.00000000  0.04857034  0.01818087       0.010
   0.02172723  0.05230652  0.01818087       0.019
   0.04345446  0.05604270  0.01818087       0.019
   0.06518168  0.05977888  0.01818087       0.019
   0.08690891  0.06351506  0.01818087       0.019
   0.10863614  0.06725124  0.01818087       0.019
   0.13036337  0.07098742  0.01818087       0.019
 
 k-points in reciprocal lattice and weights: pymatgen generated KPOINTS with grid den
   0.00000000  0.00000000  0.00000000       0.010
   0.07692308 -0.00000000  0.00000000       0.019
   0.15384615 -0.00000000  0.00000000       0.019
   0.23076923 -0.00000000  0.00000000       0.019
   0.30769231 -0.00000000  0.00000000       0.019
   0.38461538 -0.00000000  0.00000000       0.019
   0.46153846 -0.00000000  0.00000000       0.019
   0.00000000  0.25000000  0.00000000       0.019
   0.07692308  0.25000000  0.00000000       0.019
   0.15384615  0.25000000  0.00000000       0.019
   0.23076923  0.25000000  0.00000000       0.019
   0.30769231  0.25000000  0.00000000       0.019
   0.38461538  0.25000000  0.00000000       0.019
   0.46153846  0.25000000  0.00000000       0.019
  -0.46153846  0.25000000  0.00000000       0.019
  -0.38461538  0.25000000  0.00000000       0.019
  -0.30769231  0.25000000  0.00000000       0.019
  -0.23076923  0.25000000  0.00000000       0.019
  -0.15384615  0.25000000  0.00000000       0.019
  -0.07692308  0.25000000  0.00000000       0.019
   0.00000000  0.50000000  0.00000000       0.010
   0.07692308  0.50000000  0.00000000       0.019
   0.15384615  0.50000000  0.00000000       0.019
   0.23076923  0.50000000  0.00000000       0.019
   0.30769231  0.50000000  0.00000000       0.019
   0.38461538  0.50000000  0.00000000       0.019
   0.46153846  0.50000000  0.00000000       0.019
   0.00000000  0.00000000  0.50000000       0.010
   0.07692308 -0.00000000  0.50000000       0.019
   0.15384615 -0.00000000  0.50000000       0.019
   0.23076923 -0.00000000  0.50000000       0.019
   0.30769231 -0.00000000  0.50000000       0.019
   0.38461538 -0.00000000  0.50000000       0.019
   0.46153846 -0.00000000  0.50000000       0.019
   0.00000000  0.25000000  0.50000000       0.019
   0.07692308  0.25000000  0.50000000       0.019
   0.15384615  0.25000000  0.50000000       0.019
   0.23076923  0.25000000  0.50000000       0.019
   0.30769231  0.25000000  0.50000000       0.019
   0.38461538  0.25000000  0.50000000       0.019
   0.46153846  0.25000000  0.50000000       0.019
  -0.46153846  0.25000000  0.50000000       0.019
  -0.38461538  0.25000000  0.50000000       0.019
  -0.30769231  0.25000000  0.50000000       0.019
  -0.23076923  0.25000000  0.50000000       0.019
  -0.15384615  0.25000000  0.50000000       0.019
  -0.07692308  0.25000000  0.50000000       0.019
   0.00000000  0.50000000  0.50000000       0.010
   0.07692308  0.50000000  0.50000000       0.019
   0.15384615  0.50000000  0.50000000       0.019
   0.23076923  0.50000000  0.50000000       0.019
   0.30769231  0.50000000  0.50000000       0.019
   0.38461538  0.50000000  0.50000000       0.019
   0.46153846  0.50000000  0.50000000       0.019
 
 position of ions in fractional coordinates (direct lattice) 
   0.11402300  0.22804500  0.23316207
   0.41402300  0.02804500  0.51499159
   0.45808900  0.91617900  0.20939482
   0.75808900  0.71617900  0.49122434
   0.31085400  0.62170900  0.08414979
   0.31085400  0.62170900  0.36597930
   0.99923000  0.99846000  0.08631254
   0.99923000  0.99846000  0.36814206
   0.65492700  0.30985400  0.06041748
   0.65492700  0.30985400  0.34224700
   0.76973800  0.53947500  0.20725292
   0.06973800  0.33947500  0.48908244
   0.93971600  0.87943300  0.15783749
   0.23971600  0.67943300  0.43966701
   0.20515200  0.41030300  0.18578822
   0.50515200  0.21030300  0.46761774
   0.20184900  0.40369900  0.09969156
   0.20184900  0.40369900  0.38152107
   0.56380500  0.12761000  0.10779021
   0.56380500  0.12761000  0.38961973
   0.56710600  0.13421200  0.19387616
   0.86710600  0.93421200  0.47570568
   0.82923400  0.65846800  0.13571444
   0.12923400  0.45846800  0.41754396
 
 position of ions in cartesian coordinates  (Angst):
   0.00000177  2.34757459  6.41229012
   1.41616177  0.28870499 14.16300462
  -0.00000177  9.43146546  5.75865686
   1.41615823  7.37259586 13.50937136
  -0.00000177  6.40008880  2.31423934
  -0.00000177  6.40008880 10.06495384
   1.77020000 10.27849470  2.37371832
   1.77020000 10.27849470 10.12443282
   1.77020000  3.18974491  1.66156717
   1.77020000  3.18974491  9.41228167
   1.77020177  5.55354339  5.69975143
  -0.35403823  3.49467379 13.45046593
   1.77019823  9.05318934  4.34075665
  -0.35404177  6.99431974 12.09147115
   0.00000177  4.22380187  5.10944151
   1.41616177  2.16493227 12.86015601
  -0.00000177  4.15581799  2.74166024
  -0.00000177  4.15581799 10.49237474
   1.77020000  1.31366175  2.96438477
   1.77020000  1.31366175 10.71509927
   1.77020000  1.38162503  5.33187152
   1.41616000  9.61710343 13.08258602
   1.77020000  6.77849874  3.73234107
  -0.35404000  4.71962914 11.48305557
 


--------------------------------------------------------------------------------------------------------


 k-point  1 :   0.0000 0.0000 0.0000  plane waves:   11717
 k-point  2 :   0.0769-0.0000 0.0000  plane waves:   11762
 k-point  3 :   0.1538-0.0000 0.0000  plane waves:   11805
 k-point  4 :   0.2308-0.0000 0.0000  plane waves:   11824
 k-point  5 :   0.3077-0.0000 0.0000  plane waves:   11875
 k-point  6 :   0.3846-0.0000 0.0000  plane waves:   11864
 k-point  7 :   0.4615-0.0000 0.0000  plane waves:   11883
 k-point  8 :   0.0000 0.2500 0.0000  plane waves:   11683
 k-point  9 :   0.0769 0.2500 0.0000  plane waves:   11756
 k-point 10 :   0.1538 0.2500 0.0000  plane waves:   11807
 k-point 11 :   0.2308 0.2500 0.0000  plane waves:   11853
 k-point 12 :   0.3077 0.2500 0.0000  plane waves:   11866
 k-point 13 :   0.3846 0.2500 0.0000  plane waves:   11889
 k-point 14 :   0.4615 0.2500 0.0000  plane waves:   11885
 k-point 15 :  -0.4615 0.2500 0.0000  plane waves:   11886
 k-point 16 :  -0.3846 0.2500 0.0000  plane waves:   11867
 k-point 17 :  -0.3077 0.2500 0.0000  plane waves:   11849
 k-point 18 :  -0.2308 0.2500 0.0000  plane waves:   11827
 k-point 19 :  -0.1538 0.2500 0.0000  plane waves:   11801
 k-point 20 :  -0.0769 0.2500 0.0000  plane waves:   11757
 k-point 21 :   0.0000 0.5000 0.0000  plane waves:   11710
 k-point 22 :   0.0769 0.5000 0.0000  plane waves:   11762
 k-point 23 :   0.1538 0.5000 0.0000  plane waves:   11782
 k-point 24 :   0.2308 0.5000 0.0000  plane waves:   11841
 k-point 25 :   0.3077 0.5000 0.0000  plane waves:   11876
 k-point 26 :   0.3846 0.5000 0.0000  plane waves:   11889
 k-point 27 :   0.4615 0.5000 0.0000  plane waves:   11881
 k-point 28 :   0.0000 0.0000 0.5000  plane waves:   11698
 k-point 29 :   0.0769-0.0000 0.5000  plane waves:   11752
 k-point 30 :   0.1538-0.0000 0.5000  plane waves:   11800
 k-point 31 :   0.2308-0.0000 0.5000  plane waves:   11834
 k-point 32 :   0.3077-0.0000 0.5000  plane waves:   11850
 k-point 33 :   0.3846-0.0000 0.5000  plane waves:   11888
 k-point 34 :   0.4615-0.0000 0.5000  plane waves:   11896
 k-point 35 :   0.0000 0.2500 0.5000  plane waves:   11714
 k-point 36 :   0.0769 0.2500 0.5000  plane waves:   11754
 k-point 37 :   0.1538 0.2500 0.5000  plane waves:   11802
 k-point 38 :   0.2308 0.2500 0.5000  plane waves:   11840
 k-point 39 :   0.3077 0.2500 0.5000  plane waves:   11858
 k-point 40 :   0.3846 0.2500 0.5000  plane waves:   11896
 k-point 41 :   0.4615 0.2500 0.5000  plane waves:   11886
 k-point 42 :  -0.4615 0.2500 0.5000  plane waves:   11852
 k-point 43 :  -0.3846 0.2500 0.5000  plane waves:   11838
 k-point 44 :  -0.3077 0.2500 0.5000  plane waves:   11842
 k-point 45 :  -0.2308 0.2500 0.5000  plane waves:   11840
 k-point 46 :  -0.1538 0.2500 0.5000  plane waves:   11804
 k-point 47 :  -0.0769 0.2500 0.5000  plane waves:   11748
 k-point 48 :   0.0000 0.5000 0.5000  plane waves:   11724
 k-point 49 :   0.0769 0.5000 0.5000  plane waves:   11748
 k-point 50 :   0.1538 0.5000 0.5000  plane waves:   11814
 k-point 51 :   0.2308 0.5000 0.5000  plane waves:   11832
 k-point 52 :   0.3077 0.5000 0.5000  plane waves:   11868
 k-point 53 :   0.3846 0.5000 0.5000  plane waves:   11892
 k-point 54 :   0.4615 0.5000 0.5000  plane waves:   11878

 maximum and minimum number of plane-waves per node :      5964     5832

 maximum number of plane-waves:     11896
 maximum index in each direction: 
   IXMAX=    5   IYMAX=   14   IZMAX=   38
   IXMIN=   -5   IYMIN=  -15   IZMIN=  -39

 WARNING: aliasing errors must be expected set NGX to  22 to avoid them
 NGY is ok and might be reduce to  60
 NGZ is ok and might be reduce to 156
 aliasing errors are usually negligible using standard VASP settings
 and one can safely disregard these warnings

 real space projection operators:
  total allocation   :       3793.25 KBytes
  max/ min on nodes  :       1899.38       1893.88


 parallel 3D FFT for wavefunctions:
    minimum data exchange during FFTs selected (reduces bandwidth)
 parallel 3D FFT for charge:
    minimum data exchange during FFTs selected (reduces bandwidth)


 total amount of memory used by VASP on root node   146493. kBytes
========================================================================

   base      :      30000. kBytes
   nonlr-proj:       3452. kBytes
   fftplans  :       9347. kBytes
   grid      :      14649. kBytes
   one-center:         36. kBytes
   wavefun   :      89009. kBytes
 
     INWAV:  cpu time    0.00: real time    0.00
 Broyden mixing: mesh for mixing (old mesh)
   NGX =  9   NGY = 29   NGZ = 77
  (NGX  = 40   NGY  =120   NGZ  =320)
  gives a total of  20097 points

 initial charge density was supplied:
 charge density of overlapping atoms calculated
 number of electron     108.0000000 magnetization 
 keeping initial charge density in first step


--------------------------------------------------------------------------------------------------------


 Maximum index for non-local projection operator         1333
 Maximum index for augmentation-charges          822 (set IRDMAX)


--------------------------------------------------------------------------------------------------------


 First call to EWALD:  gamma=   0.177
 Maximum number of real-space cells 7x 3x 1
 Maximum number of reciprocal cells 1x 3x 7

 FEWALD executed in parallel
    FEWALD:  cpu time    0.00: real time    0.00


----------------------------------------- Iteration    1(   1)  ---------------------------------------


vdW kernel read from vdw_kernel.bindat
  0.0000  0.2424  0.5071  0.7962  1.1119  1.4567  1.8333  2.2446  2.6937  3.1842
  3.7199  4.3049  4.9438  5.6415  6.4036  7.2358  8.1446  9.1372 10.2212 11.4050
 12.6979 14.1099 15.6519 17.3360 19.1751 21.1837 23.3773 25.7729 28.3892 31.2465
 34.3669 37.7748 41.4965 45.5611 50.0000
 
    POTLOK:  cpu time   16.07: real time   16.10
    SETDIJ:  cpu time    0.01: real time    0.01
     EDDAV:  cpu time   59.28: real time   59.40
       DOS:  cpu time    0.01: real time    0.01
    --------------------------------------------
      LOOP:  cpu time   75.38: real time   75.53

 eigenvalue-minimisations  :  7352
 total energy-change (2. order) : 0.5305584E+03  (-0.2872714E+04)
 number of electron     108.0000000 magnetization 
 augmentation part      108.0000000 magnetization 

 Free energy of the ion-electron system (eV)
  ---------------------------------------------------
  alpha Z        PSCENC =        36.80884744
  Ewald energy   TEWEN  =     12003.89550821
  -Hartree energ DENC   =    -15006.75964504
  -exchange      EXHF   =         0.00000000
  -V(xc)+E(xc)   XCENC  =       -87.60845118
  PAW double counting   =      1056.43050070     -732.41190547
  entropy T*S    EENTRO =        -0.04223207
  eigenvalues    EBANDS =       -93.79547813
  atomic energy  EATOM  =      3354.04126044
  ---------------------------------------------------
  free energy    TOTEN  =       530.55840491 eV

  energy without entropy =      530.60063698  energy(sigma->0) =      530.57952095


--------------------------------------------------------------------------------------------------------




----------------------------------------- Iteration    1(   2)  ---------------------------------------


     EDDAV:  cpu time   73.60: real time   73.65
       DOS:  cpu time    0.01: real time    0.01
    --------------------------------------------
      LOOP:  cpu time   73.61: real time   73.67

 eigenvalue-minimisations  :  9780
 total energy-change (2. order) :-0.5670341E+03  (-0.5522924E+03)
 number of electron     108.0000000 magnetization 
 augmentation part      108.0000000 magnetization 

 Free energy of the ion-electron system (eV)
  ---------------------------------------------------
  alpha Z        PSCENC =        36.80884744
  Ewald energy   TEWEN  =     12003.89550821
  -Hartree energ DENC   =    -15006.75964504
  -exchange      EXHF   =         0.00000000
  -V(xc)+E(xc)   XCENC  =       -87.60845118
  PAW double counting   =      1056.43050070     -732.41190547
  entropy T*S    EENTRO =        -0.01834134
  eigenvalues    EBANDS =      -660.85342382
  atomic energy  EATOM  =      3354.04126044
  ---------------------------------------------------
  free energy    TOTEN  =       -36.47565005 eV

  energy without entropy =      -36.45730871  energy(sigma->0) =      -36.46647938


--------------------------------------------------------------------------------------------------------




----------------------------------------- Iteration    1(   3)  ---------------------------------------


     EDDAV:  cpu time   70.32: real time   70.36
       DOS:  cpu time    0.01: real time    0.01
    --------------------------------------------
      LOOP:  cpu time   70.33: real time   70.38

 eigenvalue-minimisations  :  9200
 total energy-change (2. order) :-0.5908302E+02  (-0.5831147E+02)
 number of electron     108.0000000 magnetization 
 augmentation part      108.0000000 magnetization 

 Free energy of the ion-electron system (eV)
  ---------------------------------------------------
  alpha Z        PSCENC =        36.80884744
  Ewald energy   TEWEN  =     12003.89550821
  -Hartree energ DENC   =    -15006.75964504
  -exchange      EXHF   =         0.00000000
  -V(xc)+E(xc)   XCENC  =       -87.60845118
  PAW double counting   =      1056.43050070     -732.41190547
  entropy T*S    EENTRO =        -0.02691275
  eigenvalues    EBANDS =      -719.92787635
  atomic energy  EATOM  =      3354.04126044
  ---------------------------------------------------
  free energy    TOTEN  =       -95.55867399 eV

  energy without entropy =      -95.53176124  energy(sigma->0) =      -95.54521761


--------------------------------------------------------------------------------------------------------




----------------------------------------- Iteration    1(   4)  ---------------------------------------


     EDDAV:  cpu time   85.44: real time   85.51
       DOS:  cpu time    0.01: real time    0.01
    --------------------------------------------
      LOOP:  cpu time   85.45: real time   85.53

 eigenvalue-minimisations  : 11568
 total energy-change (2. order) :-0.2900898E+01  (-0.2878282E+01)
 number of electron     108.0000000 magnetization 
 augmentation part      108.0000000 magnetization 

 Free energy of the ion-electron system (eV)
  ---------------------------------------------------
  alpha Z        PSCENC =        36.80884744
  Ewald energy   TEWEN  =     12003.89550821
  -Hartree energ DENC   =    -15006.75964504
  -exchange      EXHF   =         0.00000000
  -V(xc)+E(xc)   XCENC  =       -87.60845118
  PAW double counting   =      1056.43050070     -732.41190547
  entropy T*S    EENTRO =        -0.02693825
  eigenvalues    EBANDS =      -722.82874901
  atomic energy  EATOM  =      3354.04126044
  ---------------------------------------------------
  free energy    TOTEN  =       -98.45957216 eV

  energy without entropy =      -98.43263390  energy(sigma->0) =      -98.44610303


--------------------------------------------------------------------------------------------------------




----------------------------------------- Iteration    1(   5)  ---------------------------------------


     EDDAV:  cpu time   77.79: real time   77.88
       DOS:  cpu time    0.01: real time    0.01
    CHARGE:  cpu time    4.20: real time    4.20
    MIXING:  cpu time    0.01: real time    0.01
    --------------------------------------------
      LOOP:  cpu time   82.01: real time   82.10

 eigenvalue-minimisations  : 10384
 total energy-change (2. order) :-0.4682303E-01  (-0.4676248E-01)
 number of electron     107.9999994 magnetization 
 augmentation part       -9.7959319 magnetization 

 Broyden mixing:
  rms(total) = 0.13397E+01    rms(broyden)= 0.13387E+01
  rms(prec ) = 0.14475E+01
  weight for this iteration     100.00

 Free energy of the ion-electron system (eV)
  ---------------------------------------------------
  alpha Z        PSCENC =        36.80884744
  Ewald energy   TEWEN  =     12003.89550821
  -Hartree energ DENC   =    -15006.75964504
  -exchange      EXHF   =         0.00000000
  -V(xc)+E(xc)   XCENC  =       -87.60845118
  PAW double counting   =      1056.43050070     -732.41190547
  entropy T*S    EENTRO =        -0.02712854
  eigenvalues    EBANDS =      -722.87538175
  atomic energy  EATOM  =      3354.04126044
  ---------------------------------------------------
  free energy    TOTEN  =       -98.50639519 eV

  energy without entropy =      -98.47926664  energy(sigma->0) =      -98.49283092


--------------------------------------------------------------------------------------------------------




----------------------------------------- Iteration    1(   6)  ---------------------------------------


    POTLOK:  cpu time   14.54: real time   14.57
    SETDIJ:  cpu time    0.01: real time    0.01
     EDDAV:  cpu time   71.17: real time   71.21
       DOS:  cpu time    0.01: real time    0.01
    CHARGE:  cpu time    4.14: real time    4.15
    MIXING:  cpu time    0.01: real time    0.01
    --------------------------------------------
      LOOP:  cpu time   89.87: real time   89.95

 eigenvalue-minimisations  :  9036
 total energy-change (2. order) : 0.5453682E+01  (-0.1390826E+01)
 number of electron     107.9999994 magnetization 
 augmentation part       -9.5903262 magnetization 

 Broyden mixing:
  rms(total) = 0.63185E+00    rms(broyden)= 0.63181E+00
  rms(prec ) = 0.66708E+00
  weight for this iteration     100.00

 eigenvalues of (default mixing * dielectric matrix)
  average eigenvalue GAMMA=   1.5118
  1.5118

 Free energy of the ion-electron system (eV)
  ---------------------------------------------------
  alpha Z        PSCENC =        36.80884744
  Ewald energy   TEWEN  =     12003.89550821
  -Hartree energ DENC   =    -15059.95766433
  -exchange      EXHF   =         0.00000000
  -V(xc)+E(xc)   XCENC  =       -84.19396962
  PAW double counting   =      1134.31941715     -812.75220392
  entropy T*S    EENTRO =        -0.01828494
  eigenvalues    EBANDS =      -665.19562343
  atomic energy  EATOM  =      3354.04126044
  ---------------------------------------------------
  free energy    TOTEN  =       -93.05271300 eV

  energy without entropy =      -93.03442806  energy(sigma->0) =      -93.04357053


--------------------------------------------------------------------------------------------------------




----------------------------------------- Iteration    1(   7)  ---------------------------------------


    POTLOK:  cpu time   14.57: real time   14.58
    SETDIJ:  cpu time    0.01: real time    0.01
     EDDAV:  cpu time   67.77: real time   67.81
       DOS:  cpu time    0.01: real time    0.01
    CHARGE:  cpu time    4.18: real time    4.18
    MIXING:  cpu time    0.01: real time    0.01
    --------------------------------------------
      LOOP:  cpu time   86.55: real time   86.60

 eigenvalue-minimisations  :  8648
 total energy-change (2. order) :-0.3854297E+00  (-0.1191759E+01)
 number of electron     107.9999994 magnetization 
 augmentation part       -9.4653615 magnetization 

 Broyden mixing:
  rms(total) = 0.31089E+00    rms(broyden)= 0.31066E+00
  rms(prec ) = 0.33331E+00
  weight for this iteration     100.00

 eigenvalues of (default mixing * dielectric matrix)
  average eigenvalue GAMMA=   1.2642
  1.2642  1.2642

 Free energy of the ion-electron system (eV)
  ---------------------------------------------------
  alpha Z        PSCENC =        36.80884744
  Ewald energy   TEWEN  =     12003.89550821
  -Hartree energ DENC   =    -15081.85052189
  -exchange      EXHF   =         0.00000000
  -V(xc)+E(xc)   XCENC  =       -81.32255769
  PAW double counting   =      1186.32131293     -866.31203062
  entropy T*S    EENTRO =        -0.02349805
  eigenvalues    EBANDS =      -644.99646353
  atomic energy  EATOM  =      3354.04126044
  ---------------------------------------------------
  free energy    TOTEN  =       -93.43814274 eV

  energy without entropy =      -93.41464469  energy(sigma->0) =      -93.42639371


--------------------------------------------------------------------------------------------------------




----------------------------------------- Iteration    1(   8)  ---------------------------------------


    POTLOK:  cpu time   14.44: real time   14.45
    SETDIJ:  cpu time    0.01: real time    0.01
     EDDAV:  cpu time   88.08: real time   88.13
       DOS:  cpu time    0.01: real time    0.01
    CHARGE:  cpu time    4.13: real time    4.13
    MIXING:  cpu time    0.01: real time    0.01
    --------------------------------------------
      LOOP:  cpu time  106.68: real time  106.75

 eigenvalue-minimisations  :  8868
 total energy-change (2. order) : 0.1204268E+00  (-0.1372291E+00)
 number of electron     107.9999994 magnetization 
 augmentation part       -9.4659004 magnetization 

 Broyden mixing:
  rms(total) = 0.17890E+00    rms(broyden)= 0.17888E+00
  rms(prec ) = 0.18905E+00
  weight for this iteration     100.00

 eigenvalues of (default mixing * dielectric matrix)
  average eigenvalue GAMMA=   1.4347
  2.2023  1.0223  1.0796

 Free energy of the ion-electron system (eV)
  ---------------------------------------------------
  alpha Z        PSCENC =        36.80884744
  Ewald energy   TEWEN  =     12003.89550821
  -Hartree energ DENC   =    -15093.22211056
  -exchange      EXHF   =         0.00000000
  -V(xc)+E(xc)   XCENC  =       -80.52128751
  PAW double counting   =      1192.94319421     -873.10509109
  entropy T*S    EENTRO =        -0.01874678
  eigenvalues    EBANDS =      -634.13929027
  atomic energy  EATOM  =      3354.04126044
  ---------------------------------------------------
  free energy    TOTEN  =       -93.31771591 eV

  energy without entropy =      -93.29896912  energy(sigma->0) =      -93.30834252


--------------------------------------------------------------------------------------------------------




----------------------------------------- Iteration    1(   9)  ---------------------------------------


    POTLOK:  cpu time   14.59: real time   14.60
    SETDIJ:  cpu time    0.01: real time    0.01
     EDDAV:  cpu time   80.58: real time   80.63
       DOS:  cpu time    0.01: real time    0.01
    CHARGE:  cpu time    6.81: real time    6.81
    MIXING:  cpu time    0.01: real time    0.01
    --------------------------------------------
      LOOP:  cpu time  102.02: real time  102.09

 eigenvalue-minimisations  :  8936
 total energy-change (2. order) :-0.3450161E-01  (-0.5427348E-01)
 number of electron     107.9999994 magnetization 
 augmentation part       -9.4570752 magnetization 

 Broyden mixing:
  rms(total) = 0.68775E-01    rms(broyden)= 0.68733E-01
  rms(prec ) = 0.76736E-01
  weight for this iteration     100.00

 eigenvalues of (default mixing * dielectric matrix)
  average eigenvalue GAMMA=   1.3727
  2.5038  1.1140  1.1140  0.7592

 Free energy of the ion-electron system (eV)
  ---------------------------------------------------
  alpha Z        PSCENC =        36.80884744
  Ewald energy   TEWEN  =     12003.89550821
  -Hartree energ DENC   =    -15100.42746165
  -exchange      EXHF   =         0.00000000
  -V(xc)+E(xc)   XCENC  =       -79.51832544
  PAW double counting   =      1202.21990037     -882.66361786
  entropy T*S    EENTRO =        -0.02091477
  eigenvalues    EBANDS =      -627.68741426
  atomic energy  EATOM  =      3354.04126044
  ---------------------------------------------------
  free energy    TOTEN  =       -93.35221752 eV

  energy without entropy =      -93.33130274  energy(sigma->0) =      -93.34176013


--------------------------------------------------------------------------------------------------------




----------------------------------------- Iteration    1(  10)  ---------------------------------------


    POTLOK:  cpu time   15.07: real time   15.08
    SETDIJ:  cpu time    0.01: real time    0.01
     EDDAV:  cpu time   83.33: real time   83.38
       DOS:  cpu time    0.01: real time    0.01
    CHARGE:  cpu time    4.11: real time    4.12
    MIXING:  cpu time    0.01: real time    0.01
    --------------------------------------------
      LOOP:  cpu time  102.55: real time  102.62

 eigenvalue-minimisations  :  8896
 total energy-change (2. order) :-0.2090358E-02  (-0.1016326E-01)
 number of electron     107.9999994 magnetization 
 augmentation part       -9.4500754 magnetization 

 Broyden mixing:
  rms(total) = 0.26002E-01    rms(broyden)= 0.25995E-01
  rms(prec ) = 0.28122E-01
  weight for this iteration     100.00

 eigenvalues of (default mixing * dielectric matrix)
  average eigenvalue GAMMA=   1.3935
  2.5228  1.4543  1.1387  1.1387  0.7130

 Free energy of the ion-electron system (eV)
  ---------------------------------------------------
  alpha Z        PSCENC =        36.80884744
  Ewald energy   TEWEN  =     12003.89550821
  -Hartree energ DENC   =    -15106.41859875
  -exchange      EXHF   =         0.00000000
  -V(xc)+E(xc)   XCENC  =       -79.17631840
  PAW double counting   =      1204.87915345     -885.41983600
  entropy T*S    EENTRO =        -0.02028221
  eigenvalues    EBANDS =      -621.94404205
  atomic energy  EATOM  =      3354.04126044
  ---------------------------------------------------
  free energy    TOTEN  =       -93.35430787 eV

  energy without entropy =      -93.33402566  energy(sigma->0) =      -93.34416677


--------------------------------------------------------------------------------------------------------




----------------------------------------- Iteration    1(  11)  ---------------------------------------


    POTLOK:  cpu time   14.68: real time   14.69
    SETDIJ:  cpu time    0.01: real time    0.01
     EDDAV:  cpu time   69.51: real time   69.56
       DOS:  cpu time    0.01: real time    0.01
    CHARGE:  cpu time    4.12: real time    4.13
    MIXING:  cpu time    0.01: real time    0.01
    --------------------------------------------
      LOOP:  cpu time   88.35: real time   88.42

 eigenvalue-minimisations  :  8976
 total energy-change (2. order) : 0.1426772E-01  (-0.3181740E-02)
 number of electron     107.9999994 magnetization 
 augmentation part       -9.4523561 magnetization 

 Broyden mixing:
  rms(total) = 0.14112E-01    rms(broyden)= 0.14106E-01
  rms(prec ) = 0.15989E-01
  weight for this iteration     100.00

 eigenvalues of (default mixing * dielectric matrix)
  average eigenvalue GAMMA=   1.3982
  2.6372  1.8678  1.1035  1.1035  0.7197  0.9575

 Free energy of the ion-electron system (eV)
  ---------------------------------------------------
  alpha Z        PSCENC =        36.80884744
  Ewald energy   TEWEN  =     12003.89550821
  -Hartree energ DENC   =    -15107.59276282
  -exchange      EXHF   =         0.00000000
  -V(xc)+E(xc)   XCENC  =       -79.14811125
  PAW double counting   =      1202.05096852     -882.51983625
  entropy T*S    EENTRO =        -0.02069195
  eigenvalues    EBANDS =      -620.85522251
  atomic energy  EATOM  =      3354.04126044
  ---------------------------------------------------
  free energy    TOTEN  =       -93.34004015 eV

  energy without entropy =      -93.31934820  energy(sigma->0) =      -93.32969418


--------------------------------------------------------------------------------------------------------




----------------------------------------- Iteration    1(  12)  ---------------------------------------


    POTLOK:  cpu time   15.04: real time   15.05
    SETDIJ:  cpu time    0.01: real time    0.01
     EDDAV:  cpu time   69.61: real time   69.65
       DOS:  cpu time    0.01: real time    0.01
    CHARGE:  cpu time    4.16: real time    4.17
    MIXING:  cpu time    0.01: real time    0.01
    --------------------------------------------
      LOOP:  cpu time   88.84: real time   88.90

 eigenvalue-minimisations  :  9024
 total energy-change (2. order) : 0.9881777E-02  (-0.4808137E-03)
 number of electron     107.9999994 magnetization 
 augmentation part       -9.4547313 magnetization 

 Broyden mixing:
  rms(total) = 0.44798E-02    rms(broyden)= 0.44787E-02
  rms(prec ) = 0.60009E-02
  weight for this iteration     100.00

 eigenvalues of (default mixing * dielectric matrix)
  average eigenvalue GAMMA=   1.3866
  2.6697  2.0393  1.1048  1.1048  0.7267  1.0305  1.0305

 Free energy of the ion-electron system (eV)
  ---------------------------------------------------
  alpha Z        PSCENC =        36.80884744
  Ewald energy   TEWEN  =     12003.89550821
  -Hartree energ DENC   =    -15108.39723022
  -exchange      EXHF   =         0.00000000
  -V(xc)+E(xc)   XCENC  =       -79.12877914
  PAW double counting   =      1200.67131047     -881.10046825
  entropy T*S    EENTRO =        -0.02060876
  eigenvalues    EBANDS =      -620.09999858
  atomic energy  EATOM  =      3354.04126044
  ---------------------------------------------------
  free energy    TOTEN  =       -93.33015838 eV

  energy without entropy =      -93.30954961  energy(sigma->0) =      -93.31985399


--------------------------------------------------------------------------------------------------------




----------------------------------------- Iteration    1(  13)  ---------------------------------------


    POTLOK:  cpu time   14.97: real time   14.98
    SETDIJ:  cpu time    0.01: real time    0.01
     EDDAV:  cpu time   69.74: real time   69.79
       DOS:  cpu time    0.01: real time    0.01
    CHARGE:  cpu time    4.42: real time    4.42
    MIXING:  cpu time    0.01: real time    0.01
    --------------------------------------------
      LOOP:  cpu time   89.17: real time   89.22

 eigenvalue-minimisations  :  8920
 total energy-change (2. order) : 0.3894038E-02  (-0.1325647E-03)
 number of electron     107.9999994 magnetization 
 augmentation part       -9.4547534 magnetization 

 Broyden mixing:
  rms(total) = 0.29593E-02    rms(broyden)= 0.29576E-02
  rms(prec ) = 0.42050E-02
  weight for this iteration     100.00

 eigenvalues of (default mixing * dielectric matrix)
  average eigenvalue GAMMA=   1.4148
  2.7491  2.2477  1.5505  1.0649  1.0649  0.7262  0.9576  0.9576

 Free energy of the ion-electron system (eV)
  ---------------------------------------------------
  alpha Z        PSCENC =        36.80884744
  Ewald energy   TEWEN  =     12003.89550821
  -Hartree energ DENC   =    -15109.38810231
  -exchange      EXHF   =         0.00000000
  -V(xc)+E(xc)   XCENC  =       -79.12353041
  PAW double counting   =      1200.12846282     -880.54344585
  entropy T*S    EENTRO =        -0.02060859
  eigenvalues    EBANDS =      -619.12465611
  atomic energy  EATOM  =      3354.04126044
  ---------------------------------------------------
  free energy    TOTEN  =       -93.32626434 eV

  energy without entropy =      -93.30565575  energy(sigma->0) =      -93.31596005


--------------------------------------------------------------------------------------------------------




----------------------------------------- Iteration    1(  14)  ---------------------------------------


    POTLOK:  cpu time   14.95: real time   14.97
    SETDIJ:  cpu time    0.01: real time    0.01
     EDDAV:  cpu time   79.10: real time   79.14
       DOS:  cpu time    0.01: real time    0.01
    CHARGE:  cpu time    4.67: real time    4.67
    MIXING:  cpu time    0.01: real time    0.01
    --------------------------------------------
      LOOP:  cpu time   98.76: real time   98.82

 eigenvalue-minimisations  :  9480
 total energy-change (2. order) : 0.2486730E-02  (-0.1887320E-04)
 number of electron     107.9999994 magnetization 
 augmentation part       -9.4543181 magnetization 

 Broyden mixing:
  rms(total) = 0.14387E-02    rms(broyden)= 0.14385E-02
  rms(prec ) = 0.24855E-02
  weight for this iteration     100.00

 eigenvalues of (default mixing * dielectric matrix)
  average eigenvalue GAMMA=   1.4575
  2.8540  2.5638  1.7426  1.0780  1.0780  0.7273  1.1064  0.9838  0.9838

 Free energy of the ion-electron system (eV)
  ---------------------------------------------------
  alpha Z        PSCENC =        36.80884744
  Ewald energy   TEWEN  =     12003.89550821
  -Hartree energ DENC   =    -15110.42358091
  -exchange      EXHF   =         0.00000000
  -V(xc)+E(xc)   XCENC  =       -79.11664846
  PAW double counting   =      1199.82635114     -880.23454855
  entropy T*S    EENTRO =        -0.02063711
  eigenvalues    EBANDS =      -618.10032980
  atomic energy  EATOM  =      3354.04126044
  ---------------------------------------------------
  free energy    TOTEN  =       -93.32377761 eV

  energy without entropy =      -93.30314049  energy(sigma->0) =      -93.31345905


--------------------------------------------------------------------------------------------------------




----------------------------------------- Iteration    1(  15)  ---------------------------------------


    POTLOK:  cpu time   15.03: real time   15.05
    SETDIJ:  cpu time    0.01: real time    0.01
     EDDAV:  cpu time   72.99: real time   73.03
       DOS:  cpu time    0.01: real time    0.01
    CHARGE:  cpu time    4.14: real time    4.15
    MIXING:  cpu time    0.01: real time    0.01
    --------------------------------------------
      LOOP:  cpu time   92.20: real time   92.26

 eigenvalue-minimisations  :  9136
 total energy-change (2. order) : 0.8935071E-03  (-0.1031598E-04)
 number of electron     107.9999994 magnetization 
 augmentation part       -9.4539969 magnetization 

 Broyden mixing:
  rms(total) = 0.98923E-03    rms(broyden)= 0.98897E-03
  rms(prec ) = 0.16297E-02
  weight for this iteration     100.00

 eigenvalues of (default mixing * dielectric matrix)
  average eigenvalue GAMMA=   1.5370
  3.3684  2.5968  1.8095  1.8095  1.0819  1.0819  0.7279  1.0063  0.9439  0.9439

 Free energy of the ion-electron system (eV)
  ---------------------------------------------------
  alpha Z        PSCENC =        36.80884744
  Ewald energy   TEWEN  =     12003.89550821
  -Hartree energ DENC   =    -15111.37384318
  -exchange      EXHF   =         0.00000000
  -V(xc)+E(xc)   XCENC  =       -79.11205744
  PAW double counting   =      1199.68818687     -880.09346243
  entropy T*S    EENTRO =        -0.02064862
  eigenvalues    EBANDS =      -617.15667540
  atomic energy  EATOM  =      3354.04126044
  ---------------------------------------------------
  free energy    TOTEN  =       -93.32288410 eV

  energy without entropy =      -93.30223549  energy(sigma->0) =      -93.31255979


--------------------------------------------------------------------------------------------------------




----------------------------------------- Iteration    1(  16)  ---------------------------------------


    POTLOK:  cpu time   14.76: real time   14.76
    SETDIJ:  cpu time    0.01: real time    0.01
     EDDAV:  cpu time   63.76: real time   63.81
       DOS:  cpu time    0.01: real time    0.01
    CHARGE:  cpu time    4.13: real time    4.13
    MIXING:  cpu time    0.01: real time    0.01
    --------------------------------------------
      LOOP:  cpu time   82.68: real time   82.74

 eigenvalue-minimisations  :  8048
 total energy-change (2. order) :-0.1155880E-03  (-0.9495024E-05)
 number of electron     107.9999994 magnetization 
 augmentation part       -9.4540330 magnetization 

 Broyden mixing:
  rms(total) = 0.51293E-03    rms(broyden)= 0.51290E-03
  rms(prec ) = 0.85794E-03
  weight for this iteration     100.00

 eigenvalues of (default mixing * dielectric matrix)
  average eigenvalue GAMMA=   1.6149
  4.0546  2.7309  2.3073  1.6193  1.0789  1.0789  0.7272  1.2303  1.0565  0.9399
  0.9399

 Free energy of the ion-electron system (eV)
  ---------------------------------------------------
  alpha Z        PSCENC =        36.80884744
  Ewald energy   TEWEN  =     12003.89550821
  -Hartree energ DENC   =    -15112.25181393
  -exchange      EXHF   =         0.00000000
  -V(xc)+E(xc)   XCENC  =       -79.10705868
  PAW double counting   =      1199.65108236     -880.05536989
  entropy T*S    EENTRO =        -0.02064752
  eigenvalues    EBANDS =      -616.28480813
  atomic energy  EATOM  =      3354.04126044
  ---------------------------------------------------
  free energy    TOTEN  =       -93.32299969 eV

  energy without entropy =      -93.30235217  energy(sigma->0) =      -93.31267593


--------------------------------------------------------------------------------------------------------




----------------------------------------- Iteration    1(  17)  ---------------------------------------


    POTLOK:  cpu time   14.97: real time   15.00
    SETDIJ:  cpu time    0.01: real time    0.01
     EDDAV:  cpu time   66.44: real time   66.49
       DOS:  cpu time    0.01: real time    0.01
    CHARGE:  cpu time    4.12: real time    4.13
    MIXING:  cpu time    0.01: real time    0.01
    --------------------------------------------
      LOOP:  cpu time   85.56: real time   85.65

 eigenvalue-minimisations  :  8432
 total energy-change (2. order) :-0.6252793E-03  (-0.1361265E-04)
 number of electron     107.9999994 magnetization 
 augmentation part       -9.4539129 magnetization 

 Broyden mixing:
  rms(total) = 0.30308E-03    rms(broyden)= 0.30305E-03
  rms(prec ) = 0.50760E-03
  weight for this iteration     100.00

 eigenvalues of (default mixing * dielectric matrix)
  average eigenvalue GAMMA=   1.7584
  5.5777  2.8073  2.4001  1.7390  1.7390  1.0785  1.0785  0.7271  1.0187  1.0187
  0.9581  0.9581

 Free energy of the ion-electron system (eV)
  ---------------------------------------------------
  alpha Z        PSCENC =        36.80884744
  Ewald energy   TEWEN  =     12003.89550821
  -Hartree energ DENC   =    -15112.72197775
  -exchange      EXHF   =         0.00000000
  -V(xc)+E(xc)   XCENC  =       -79.10454761
  PAW double counting   =      1199.70960595     -880.11545528
  entropy T*S    EENTRO =        -0.02065806
  eigenvalues    EBANDS =      -615.81620831
  atomic energy  EATOM  =      3354.04126044
  ---------------------------------------------------
  free energy    TOTEN  =       -93.32362497 eV

  energy without entropy =      -93.30296691  energy(sigma->0) =      -93.31329594


--------------------------------------------------------------------------------------------------------




----------------------------------------- Iteration    1(  18)  ---------------------------------------


    POTLOK:  cpu time   14.90: real time   14.92
    SETDIJ:  cpu time    0.01: real time    0.01
     EDDAV:  cpu time   62.19: real time   62.24
       DOS:  cpu time    0.01: real time    0.01
    CHARGE:  cpu time    4.15: real time    4.15
    MIXING:  cpu time    0.01: real time    0.01
    --------------------------------------------
      LOOP:  cpu time   81.28: real time   81.35

 eigenvalue-minimisations  :  7712
 total energy-change (2. order) :-0.1929092E-03  (-0.9933247E-05)
 number of electron     107.9999994 magnetization 
 augmentation part       -9.4538951 magnetization 

 Broyden mixing:
  rms(total) = 0.16180E-03    rms(broyden)= 0.16179E-03
  rms(prec ) = 0.29291E-03
  weight for this iteration     100.00

 eigenvalues of (default mixing * dielectric matrix)
  average eigenvalue GAMMA=   1.7734
  6.0635  2.8779  2.5710  2.0331  1.0777  1.0777  1.4992  0.7269  0.9546  0.9546
  1.1323  1.1323  0.9535

 Free energy of the ion-electron system (eV)
  ---------------------------------------------------
  alpha Z        PSCENC =        36.80884744
  Ewald energy   TEWEN  =     12003.89550821
  -Hartree energ DENC   =    -15113.03144057
  -exchange      EXHF   =         0.00000000
  -V(xc)+E(xc)   XCENC  =       -79.10317891
  PAW double counting   =      1199.72634735     -880.13243263
  entropy T*S    EENTRO =        -0.02065329
  eigenvalues    EBANDS =      -615.50807591
  atomic energy  EATOM  =      3354.04126044
  ---------------------------------------------------
  free energy    TOTEN  =       -93.32381788 eV

  energy without entropy =      -93.30316459  energy(sigma->0) =      -93.31349123


--------------------------------------------------------------------------------------------------------




----------------------------------------- Iteration    1(  19)  ---------------------------------------


    POTLOK:  cpu time   14.96: real time   14.97
    SETDIJ:  cpu time    0.01: real time    0.01
     EDDAV:  cpu time   59.21: real time   59.24
       DOS:  cpu time    0.01: real time    0.01
    CHARGE:  cpu time    4.14: real time    4.14
    MIXING:  cpu time    0.01: real time    0.01
    --------------------------------------------
      LOOP:  cpu time   78.34: real time   78.39

 eigenvalue-minimisations  :  6992
 total energy-change (2. order) :-0.3554761E-04  (-0.2203054E-05)
 number of electron     107.9999994 magnetization 
 augmentation part       -9.4539109 magnetization 

 Broyden mixing:
  rms(total) = 0.13171E-03    rms(broyden)= 0.13170E-03
  rms(prec ) = 0.22341E-03
  weight for this iteration     100.00

 eigenvalues of (default mixing * dielectric matrix)
  average eigenvalue GAMMA=   1.8190
  6.5634  3.0086  2.6298  2.0033  1.8352  1.0779  1.0779  1.3610  1.3610  0.7269
  0.9695  0.9695  0.9410  0.9410

 Free energy of the ion-electron system (eV)
  ---------------------------------------------------
  alpha Z        PSCENC =        36.80884744
  Ewald energy   TEWEN  =     12003.89550821
  -Hartree energ DENC   =    -15113.12994908
  -exchange      EXHF   =         0.00000000
  -V(xc)+E(xc)   XCENC  =       -79.10283028
  PAW double counting   =      1199.72612968     -880.13210148
  entropy T*S    EENTRO =        -0.02065383
  eigenvalues    EBANDS =      -615.41006454
  atomic energy  EATOM  =      3354.04126044
  ---------------------------------------------------
  free energy    TOTEN  =       -93.32385343 eV

  energy without entropy =      -93.30319960  energy(sigma->0) =      -93.31352651


--------------------------------------------------------------------------------------------------------




----------------------------------------- Iteration    1(  20)  ---------------------------------------


    POTLOK:  cpu time   14.77: real time   14.79
    SETDIJ:  cpu time    0.01: real time    0.01
     EDDAV:  cpu time   66.71: real time   66.76
       DOS:  cpu time    0.01: real time    0.01
    CHARGE:  cpu time    5.95: real time    5.95
    MIXING:  cpu time    0.01: real time    0.02
    --------------------------------------------
      LOOP:  cpu time   87.47: real time   87.54

 eigenvalue-minimisations  :  6912
 total energy-change (2. order) :-0.3609703E-04  (-0.2016808E-05)
 number of electron     107.9999994 magnetization 
 augmentation part       -9.4538954 magnetization 

 Broyden mixing:
  rms(total) = 0.78072E-04    rms(broyden)= 0.78068E-04
  rms(prec ) = 0.13313E-03
  weight for this iteration     100.00

 eigenvalues of (default mixing * dielectric matrix)
  average eigenvalue GAMMA=   1.8480
  6.7654  3.3310  2.7447  2.4268  1.7125  1.7125  1.0766  1.0766  1.1568  1.1568
  0.7270  0.9615  0.9615  0.9549  0.9549

 Free energy of the ion-electron system (eV)
  ---------------------------------------------------
  alpha Z        PSCENC =        36.80884744
  Ewald energy   TEWEN  =     12003.89550821
  -Hartree energ DENC   =    -15113.21057934
  -exchange      EXHF   =         0.00000000
  -V(xc)+E(xc)   XCENC  =       -79.10270361
  PAW double counting   =      1199.72552345     -880.13148258
  entropy T*S    EENTRO =        -0.02065354
  eigenvalues    EBANDS =      -615.32961001
  atomic energy  EATOM  =      3354.04126044
  ---------------------------------------------------
  free energy    TOTEN  =       -93.32388952 eV

  energy without entropy =      -93.30323598  energy(sigma->0) =      -93.31356275


--------------------------------------------------------------------------------------------------------




----------------------------------------- Iteration    1(  21)  ---------------------------------------


    POTLOK:  cpu time   15.41: real time   15.43
    SETDIJ:  cpu time    0.01: real time    0.01
     EDDAV:  cpu time   80.18: real time   80.25
       DOS:  cpu time    0.01: real time    0.01
    CHARGE:  cpu time    7.09: real time    7.10
    MIXING:  cpu time    0.02: real time    0.02
    --------------------------------------------
      LOOP:  cpu time  102.73: real time  102.83

 eigenvalue-minimisations  :  7088
 total energy-change (2. order) : 0.2969786E-04  (-0.1783096E-05)
 number of electron     107.9999994 magnetization 
 augmentation part       -9.4538988 magnetization 

 Broyden mixing:
  rms(total) = 0.55318E-04    rms(broyden)= 0.55314E-04
  rms(prec ) = 0.80321E-04
  weight for this iteration     100.00

 eigenvalues of (default mixing * dielectric matrix)
  average eigenvalue GAMMA=   1.9502
  7.1320  4.5632  2.7717  2.5085  1.9683  1.7211  1.3892  1.3892  1.0773  1.0773
  0.7269  0.9655  0.9655  1.0541  0.9855  0.9080

 Free energy of the ion-electron system (eV)
  ---------------------------------------------------
  alpha Z        PSCENC =        36.80884744
  Ewald energy   TEWEN  =     12003.89550821
  -Hartree energ DENC   =    -15113.24262642
  -exchange      EXHF   =         0.00000000
  -V(xc)+E(xc)   XCENC  =       -79.10284129
  PAW double counting   =      1199.71867053     -880.12446321
  entropy T*S    EENTRO =        -0.02065528
  eigenvalues    EBANDS =      -615.29756026
  atomic energy  EATOM  =      3354.04126044
  ---------------------------------------------------
  free energy    TOTEN  =       -93.32385982 eV

  energy without entropy =      -93.30320455  energy(sigma->0) =      -93.31353219


--------------------------------------------------------------------------------------------------------




----------------------------------------- Iteration    1(  22)  ---------------------------------------


    POTLOK:  cpu time   15.50: real time   15.51
    SETDIJ:  cpu time    0.01: real time    0.01
     EDDAV:  cpu time   65.68: real time   65.74
       DOS:  cpu time    0.01: real time    0.01
    CHARGE:  cpu time    4.05: real time    4.06
    MIXING:  cpu time    0.01: real time    0.01
    --------------------------------------------
      LOOP:  cpu time   85.28: real time   85.34

 eigenvalue-minimisations  :  6748
 total energy-change (2. order) : 0.4589110E-04  (-0.1640300E-05)
 number of electron     107.9999994 magnetization 
 augmentation part       -9.4538987 magnetization 

 Broyden mixing:
  rms(total) = 0.30779E-04    rms(broyden)= 0.30776E-04
  rms(prec ) = 0.38149E-04
  weight for this iteration     100.00

 eigenvalues of (default mixing * dielectric matrix)
  average eigenvalue GAMMA=   2.0600
  7.6611  6.0099  2.9457  2.6724  2.2339  1.6707  1.0770  1.0770  1.3796  1.3796
  0.7269  1.2493  0.9590  0.9590  1.1565  0.9312  0.9312

 Free energy of the ion-electron system (eV)
  ---------------------------------------------------
  alpha Z        PSCENC =        36.80884744
  Ewald energy   TEWEN  =     12003.89550821
  -Hartree energ DENC   =    -15113.25702249
  -exchange      EXHF   =         0.00000000
  -V(xc)+E(xc)   XCENC  =       -79.10294544
  PAW double counting   =      1199.71893249     -880.12476251
  entropy T*S    EENTRO =        -0.02065575
  eigenvalues    EBANDS =      -615.28297634
  atomic energy  EATOM  =      3354.04126044
  ---------------------------------------------------
  free energy    TOTEN  =       -93.32381393 eV

  energy without entropy =      -93.30315819  energy(sigma->0) =      -93.31348606


--------------------------------------------------------------------------------------------------------




----------------------------------------- Iteration    1(  23)  ---------------------------------------


    POTLOK:  cpu time   14.67: real time   14.68
    SETDIJ:  cpu time    0.01: real time    0.01
     EDDAV:  cpu time   52.53: real time   52.56
       DOS:  cpu time    0.01: real time    0.01
    CHARGE:  cpu time    4.02: real time    4.02
    MIXING:  cpu time    0.01: real time    0.01
    --------------------------------------------
      LOOP:  cpu time   71.24: real time   71.30

 eigenvalue-minimisations  :  6320
 total energy-change (2. order) : 0.4455893E-04  (-0.6822533E-06)
 number of electron     107.9999994 magnetization 
 augmentation part       -9.4538981 magnetization 

 Broyden mixing:
[...]
     31      -4.0053      2.00000
     32      -3.9064      2.00000
     33      -3.8217      2.00000
     34      -3.6130      2.00000
     35      -3.3709      2.00000
     36      -3.3171      2.00000
     37      -3.1810      2.00000
     38      -3.1596      2.00000
     39      -2.8359      2.00000
     40      -2.7235      2.00000
     41      -2.6589      2.00000
     42      -2.6313      2.00000
     43      -2.5457      2.00000
     44      -2.1155      2.00000
     45      -2.0693      2.00000
     46      -1.9341      2.00000
     47      -1.8737      2.00000
     48      -1.7750      2.00000
     49      -1.4944      2.00000
     50      -1.4584      2.00000
     51      -1.2124      2.00000
     52      -1.0609      2.00000
     53      -0.4459      2.00000
     54      -0.0326      1.99656
     55       0.3988      0.00149
     56       1.2785      0.00000
     57       1.3995      0.00000
     58       1.4946      0.00000
     59       1.6704      0.00000
     60       2.0644      0.00000
     61       2.1094      0.00000
     62       2.3457      0.00000
     63       2.4866      0.00000
     64       2.6299      0.00000
     65       2.7794      0.00000
     66       2.9482      0.00000
     67       3.0669      0.00000
     68       3.2037      0.00000

 k-point    52 :       0.3077    0.5000    0.5000
  band No.  band energies     occupation 
      1     -13.4066      2.00000
      2     -12.6073      2.00000
      3     -12.2608      2.00000
      4     -12.0867      2.00000
      5     -11.7428      2.00000
      6     -11.4548      2.00000
      7     -11.1335      2.00000
      8     -11.1004      2.00000
      9     -10.9056      2.00000
     10     -10.6470      2.00000
     11     -10.4914      2.00000
     12     -10.1790      2.00000
     13      -9.0201      2.00000
     14      -8.4819      2.00000
     15      -7.8742      2.00000
     16      -7.6319      2.00000
     17      -7.1655      2.00000
     18      -7.0774      2.00000
     19      -7.0619      2.00000
     20      -6.4145      2.00000
     21      -6.3109      2.00000
     22      -6.2679      2.00000
     23      -6.0488      2.00000
     24      -6.0108      2.00000
     25      -5.4559      2.00000
     26      -5.2944      2.00000
     27      -4.9963      2.00000
     28      -4.6898      2.00000
     29      -4.5615      2.00000
     30      -4.4258      2.00000
     31      -4.3271      2.00000
     32      -4.1776      2.00000
     33      -4.0485      2.00000
     34      -3.8999      2.00000
     35      -3.5036      2.00000
     36      -3.3528      2.00000
     37      -3.1874      2.00000
     38      -3.0804      2.00000
     39      -2.9878      2.00000
     40      -2.8703      2.00000
     41      -2.6959      2.00000
     42      -2.5938      2.00000
     43      -2.5671      2.00000
     44      -2.3631      2.00000
     45      -2.0974      2.00000
     46      -2.0097      2.00000
     47      -1.9647      2.00000
     48      -1.8505      2.00000
     49      -1.8089      2.00000
     50      -1.6498      2.00000
     51      -1.3375      2.00000
     52      -1.2794      2.00000
     53      -0.8364      2.00000
     54      -0.1953      2.00000
     55       0.2393      0.35751
     56       1.1328      0.00000
     57       1.2093      0.00000
     58       1.3192      0.00000
     59       1.4439      0.00000
     60       1.8113      0.00000
     61       2.0481      0.00000
     62       2.1302      0.00000
     63       2.2545      0.00000
     64       2.3681      0.00000
     65       2.4544      0.00000
     66       2.6087      0.00000
     67       2.8672      0.00000
     68       3.0283      0.00000

 k-point    53 :       0.3846    0.5000    0.5000
  band No.  band energies     occupation 
      1     -13.1793      2.00000
      2     -12.1311      2.00000
      3     -11.7640      2.00000
      4     -11.6451      2.00000
      5     -11.3484      2.00000
      6     -11.1704      2.00000
      7     -10.8725      2.00000
      8     -10.8109      2.00000
      9     -10.7142      2.00000
     10     -10.5584      2.00000
     11     -10.4743      2.00000
     12      -9.9285      2.00000
     13      -9.0044      2.00000
     14      -8.7721      2.00000
     15      -8.3477      2.00000
     16      -7.8927      2.00000
     17      -7.7116      2.00000
     18      -7.4816      2.00000
     19      -7.4307      2.00000
     20      -6.9641      2.00000
     21      -6.8217      2.00000
     22      -6.7999      2.00000
     23      -6.7539      2.00000
     24      -6.1872      2.00000
     25      -5.3974      2.00000
     26      -5.2573      2.00000
     27      -4.9772      2.00000
     28      -4.7713      2.00000
     29      -4.6218      2.00000
     30      -4.4300      2.00000
     31      -4.2322      2.00000
     32      -4.1368      2.00000
     33      -4.0788      2.00000
     34      -3.7315      2.00000
     35      -3.6265      2.00000
     36      -3.5270      2.00000
     37      -3.2905      2.00000
     38      -3.2470      2.00000
     39      -3.2197      2.00000
     40      -2.9748      2.00000
     41      -2.7623      2.00000
     42      -2.6581      2.00000
     43      -2.5856      2.00000
     44      -2.4204      2.00000
     45      -2.3407      2.00000
     46      -2.2229      2.00000
     47      -2.1598      2.00000
     48      -1.9694      2.00000
     49      -1.7979      2.00000
     50      -1.6410      2.00000
     51      -1.5327      2.00000
     52      -1.3077      2.00000
     53      -1.0588      2.00000
     54      -0.2085      2.00000
     55       0.0736      1.84557
     56       0.9896      0.00000
     57       1.1488      0.00000
     58       1.2303      0.00000
     59       1.4309      0.00000
     60       1.6775      0.00000
     61       1.7441      0.00000
     62       1.9854      0.00000
     63       2.0539      0.00000
     64       2.1652      0.00000
     65       2.2508      0.00000
     66       2.4946      0.00000
     67       2.6080      0.00000
     68       2.7266      0.00000

 k-point    54 :       0.4615    0.5000    0.5000
  band No.  band energies     occupation 
      1     -13.0341      2.00000
      2     -11.5882      2.00000
      3     -11.2660      2.00000
      4     -11.2415      2.00000
      5     -11.0497      2.00000
      6     -10.9464      2.00000
      7     -10.9050      2.00000
      8     -10.8190      2.00000
      9     -10.7186      2.00000
     10     -10.6680      2.00000
     11     -10.5559      2.00000
     12      -9.7333      2.00000
     13      -8.8832      2.00000
     14      -8.7614      2.00000
     15      -8.5384      2.00000
     16      -8.2170      2.00000
     17      -8.1540      2.00000
     18      -7.6577      2.00000
     19      -7.6231      2.00000
     20      -7.3917      2.00000
     21      -7.3813      2.00000
     22      -7.2690      2.00000
     23      -7.2606      2.00000
     24      -5.9936      2.00000
     25      -5.4714      2.00000
     26      -5.0564      2.00000
     27      -5.0400      2.00000
     28      -4.5747      2.00000
     29      -4.3874      2.00000
     30      -4.2243      2.00000
     31      -4.1573      2.00000
     32      -4.0606      2.00000
     33      -4.0227      2.00000
     34      -3.8633      2.00000
     35      -3.6978      2.00000
     36      -3.6498      2.00000
     37      -3.5366      2.00000
     38      -3.3557      2.00000
     39      -3.2777      2.00000
     40      -3.1352      2.00000
     41      -2.9587      2.00000
     42      -2.8590      2.00000
     43      -2.7675      2.00000
     44      -2.4719      2.00000
     45      -2.3555      2.00000
     46      -2.2744      2.00000
     47      -2.1991      2.00000
     48      -1.9418      2.00000
     49      -1.8054      2.00000
     50      -1.6320      2.00000
     51      -1.5754      2.00000
     52      -1.2912      2.00000
     53      -1.1212      2.00000
     54      -0.1580      2.00000
     55      -0.0476      1.99830
     56       0.8909      0.00000
     57       1.0654      0.00000
     58       1.2583      0.00000
     59       1.4866      0.00000
     60       1.5369      0.00000
     61       1.6013      0.00000
     62       1.8088      0.00000
     63       1.9663      0.00000
     64       2.1527      0.00000
     65       2.2782      0.00000
     66       2.3769      0.00000
     67       2.5190      0.00000
     68       2.6016      0.00000


--------------------------------------------------------------------------------------------------------


 soft charge-density along one line, spin component           1
         0         1         2         3         4         5         6         7         8         9
 total charge-density along one line
 
 pseudopotential strength for first ion, spin component:           1
 29.804   0.008  -0.000  -0.022   0.000  -0.000  -0.001   0.000
  0.008   0.009  -0.000  -0.000   0.000   0.000   0.000  -0.000
 -0.000  -0.000   6.553  -0.001  -0.000  -0.003   0.000   0.000
 -0.022  -0.000  -0.001   6.548   0.000   0.000  -0.002  -0.000
  0.000   0.000  -0.000   0.000   6.553   0.000  -0.000  -0.003
 -0.000   0.000  -0.003   0.000   0.000   0.015  -0.000  -0.000
 -0.001   0.000   0.000  -0.002  -0.000  -0.000   0.015  -0.000
  0.000  -0.000   0.000  -0.000  -0.003  -0.000  -0.000   0.015
 total augmentation occupancy for first ion, spin component:           1
  1.813  -0.350   0.004   0.246  -0.001   0.004   0.119  -0.000
 -0.350   1.277   0.019   0.846  -0.003   0.003  -0.432  -0.000
  0.004   0.019   1.144   0.010   0.000  -0.500   0.014  -0.000
  0.246   0.846   0.010   1.277  -0.001   0.014  -0.414  -0.000
 -0.001  -0.003   0.000  -0.001   1.147  -0.000  -0.000  -0.524
  0.004   0.003  -0.500   0.014  -0.000   0.289  -0.015   0.000
  0.119  -0.432   0.014  -0.414  -0.000  -0.015   0.225   0.000
 -0.000  -0.000  -0.000  -0.000  -0.524   0.000   0.000   0.322


------------------------ aborting loop because EDIFF is reached ----------------------------------------


    CHARGE:  cpu time    3.95: real time    3.96
    FORLOC:  cpu time    0.05: real time    0.05
    FORNL :  cpu time   18.54: real time   18.56
    STRESS:  cpu time   56.53: real time   56.56
    FORCOR:  cpu time   14.67: real time   14.70
    FORHAR:  cpu time    0.14: real time    0.14
    MIXING:  cpu time    0.02: real time    0.02
    OFIELD:  cpu time    0.00: real time    0.00

  FORCE on cell =-STRESS in cart. coord.  units (eV):
  Direction    XX          YY          ZZ          XY          YZ          ZX
  --------------------------------------------------------------------------------------
  Alpha Z    36.80885    36.80885    36.80885
  Ewald   14357.31239 13968.08424-16321.50853   -17.31431    84.39754   -59.79116
  Hartree 14931.07223 14597.96340-14415.76823     2.21137    12.43351    -3.47429
  E(xc)    -360.50279  -360.13703  -358.93639     0.16907    -0.51014     0.04767
  Local  -30877.04238-30134.40722 29192.30660    -0.02223   -56.92840    32.32414
  n-local  1181.22360  1183.79829  1183.33900    -3.79623    12.63697    -6.13840
  augment  -206.37036  -205.18378  -203.74743    -0.97667     2.41687    -1.96815
  Kinetic   947.90108   946.14130   983.54729     1.91867    -2.26931     6.99213
  Fock        0.00000     0.00000     0.00000     0.00000     0.00000     0.00000
  -------------------------------------------------------------------------------------
  Total      10.40262    33.06806    96.04117   -17.81032    52.17705   -32.00807
  in kB      16.62826    52.85825   153.51880   -28.46925    83.40338   -51.16390
  external pressure =       74.34 kB  Pullay stress =        0.00 kB


 VOLUME and BASIS-vectors are now :
 -----------------------------------------------------------------------------
  energy-cutoff  :      300.00
  volume of cell :     1002.32
      direct lattice vectors                 reciprocal lattice vectors
     3.540400000  0.000000000  0.000000000     0.282453960  0.048570342  0.000000000
    -1.770200000 10.294348000  0.000000000     0.000000000  0.097140683  0.000000000
     0.000000000  0.000000000 27.501429000     0.000000000  0.000000000  0.036361747

  length of vectors
     3.540400000 10.445439617 27.501429000     0.286599577  0.097140683  0.036361747


 FORCES acting on ions
    electron-ion (+dipol)            ewald-force                    non-local-force                 convergence-correction
 -----------------------------------------------------------------------------------------------
   -.302E-01 0.116E+02 0.290E+02   0.585E-02 -.116E+02 -.247E+02   0.578E-01 -.100E+00 -.411E+01   -.378E-07 0.123E-05 -.106E-05
   0.165E+00 0.131E+02 -.565E+03   -.136E+00 -.130E+02 0.568E+03   -.344E-01 -.228E+00 -.370E+01   0.114E-06 -.166E-04 0.233E-04
   -.466E-02 0.631E+02 0.464E+02   0.646E-03 -.646E+02 -.421E+02   0.336E-02 0.154E+01 -.418E+01   0.232E-09 -.518E-05 -.506E-05
   -.358E+00 0.285E+02 -.516E+03   0.363E+00 -.297E+02 0.520E+03   0.517E-01 0.134E+01 -.460E+01   0.298E-06 0.132E-04 0.180E-04
   -.180E-03 -.575E+02 0.526E+03   0.962E-04 0.591E+02 -.531E+03   -.630E-03 -.154E+01 0.428E+01   0.448E-08 -.311E-06 -.174E-04
   -.870E+01 -.108E+03 -.310E+02   0.938E+01 0.111E+03 0.258E+02   -.635E+00 -.272E+01 0.268E+01   -.151E-06 0.821E-05 0.102E-05
   -.363E-02 0.540E+02 0.526E+03   0.160E-04 -.559E+02 -.530E+03   -.296E-03 0.193E+01 0.418E+01   -.110E-07 -.104E-05 -.110E-04
   -.719E+00 0.943E+02 -.841E+02   0.294E+00 -.971E+02 0.810E+02   0.142E-01 0.269E+01 0.474E+01   -.215E-06 0.252E-07 0.103E-04
   0.599E-03 0.190E+01 0.572E+03   -.884E-04 -.211E+01 -.577E+03   0.915E-03 0.204E+00 0.477E+01   -.736E-08 0.635E-05 -.286E-04
   0.291E+01 0.724E+01 -.345E+01   -.187E+01 -.673E+01 0.152E+01   -.126E+01 -.129E+01 0.523E+00   0.929E-06 -.186E-05 -.223E-06
   0.294E-02 -.657E+02 0.609E+02   -.507E-02 0.677E+02 -.567E+02   0.173E-02 -.194E+01 -.407E+01   0.108E-07 0.267E-05 -.173E-05
   0.303E+00 -.420E+02 -.551E+03   -.455E+00 0.449E+02 0.552E+03   -.162E+00 -.378E+01 -.591E+00   -.649E-06 -.431E-05 0.904E-05
   0.111E-02 0.306E+02 0.208E+03   -.961E-04 -.328E+02 -.208E+03   0.271E-02 0.213E+01 0.338E+00   0.107E-07 -.362E-05 -.333E-05
   0.638E+01 -.434E+02 -.264E+03   -.554E+01 0.406E+02 0.263E+03   -.101E+01 0.285E+01 0.248E+01   -.166E-06 0.100E-04 0.171E-04
   0.799E-03 -.121E+02 0.140E+03   0.132E-02 0.124E+02 -.143E+03   -.344E-02 -.270E+00 0.254E+01   -.159E-08 0.807E-06 -.510E-05
   0.279E+01 0.382E+01 -.342E+03   -.218E+01 -.455E+01 0.340E+03   -.324E+00 0.981E+00 0.246E+01   0.313E-06 -.832E-05 0.716E-05
   -.413E-03 -.516E+01 0.346E+03   0.892E-04 0.562E+01 -.344E+03   -.314E-03 -.468E+00 -.250E+01   -.395E-08 0.131E-07 -.135E-04
   -.250E+02 0.208E+02 -.589E+02   0.417E+02 -.457E+02 0.223E+02   0.168E+02 -.273E+02 -.571E+02   -.375E-06 -.248E-05 0.270E-06
   -.388E-02 0.101E+02 0.335E+03   -.106E-04 -.104E+02 -.332E+03   0.131E-02 0.238E+00 -.248E+01   -.536E-08 0.238E-05 -.748E-05
   -.268E+01 0.467E+02 -.141E+03   0.192E+01 -.463E+02 0.142E+03   0.537E+00 -.693E+00 -.214E+01   0.492E-07 -.968E-06 0.843E-05
   -.108E-02 0.127E+02 0.126E+03   -.204E-03 -.130E+02 -.129E+03   -.572E-02 0.346E+00 0.252E+01   0.220E-08 -.999E-07 -.498E-05
   0.245E+00 0.197E+02 -.307E+03   -.189E+00 -.206E+02 0.310E+03   0.178E+00 0.884E+00 -.308E+01   -.226E-07 -.826E-05 0.187E-04
   -.468E-03 -.319E+02 0.254E+03   -.175E-03 0.340E+02 -.254E+03   0.194E-02 -.213E+01 -.368E+00   -.697E-09 0.223E-05 -.665E-05
   0.306E+02 -.552E+02 -.301E+03   -.433E+02 0.784E+02 0.345E+03   -.201E+02 0.303E+02 0.507E+02   -.243E-05 0.355E-05 0.804E-05
 -----------------------------------------------------------------------------------------------
   0.590E+01 -.299E+01 0.667E+01   -.142E-13 0.711E-13 -.114E-12   -.590E+01 0.298E+01 -.666E+01   -.234E-05 -.241E-05 0.151E-04
 
 
 POSITION                                       TOTAL-FORCE (eV/Angst)
 -----------------------------------------------------------------------------------
      0.00000      2.34757      6.41229         0.033235     -0.007441      0.143274
      1.41616      0.28870     14.16300        -0.005603     -0.069485     -0.193439
     -0.00000      9.43147      5.75866        -0.000899     -0.010595      0.081042
      1.41616      7.37260     13.50937         0.056508      0.192461     -0.752420
     -0.00000      6.40009      2.31424        -0.000959     -0.007156      0.007662
     -0.00000      6.40009     10.06495         0.042196      0.502516     -2.497301
      1.77020     10.27849      2.37372        -0.004159     -0.001080     -0.005945
      1.77020     10.27849     10.12443        -0.411566     -0.130022      1.622566
      1.77020      3.18974      1.66157         0.001180     -0.001871      0.018666
      1.77020      3.18974      9.41228        -0.211726     -0.783449     -1.402471
      1.77020      5.55354      5.69975        -0.000645      0.007970      0.094664
     -0.35404      3.49467     13.45047        -0.314657     -0.858725      0.908005
      1.77020      9.05319      4.34076         0.003480      0.000408      0.008171
     -0.35404      6.99432     12.09147        -0.175332      0.081947      2.059260
      0.00000      4.22380      5.10944        -0.001570      0.024731      0.055889
      1.41616      2.16493     12.86016         0.289958      0.248855      1.000583
     -0.00000      4.15582      2.74166        -0.000882     -0.004634     -0.029236
     -0.00000      4.15582     10.49237        33.470738    -52.195306    -93.692794
      1.77020      1.31366      2.96438        -0.002832     -0.010809     -0.034298
      1.77020      1.31366     10.71510        -0.222940     -0.296842     -1.103008
      1.77020      1.38163      5.33187        -0.007246     -0.036934      0.027207
      1.41616      9.61710     13.08259         0.234381     -0.048248     -0.684640
      1.77020      6.77850      3.73234         0.001050      0.008604      0.000571
     -0.35404      4.71963     11.48306       -32.771710     53.395107     94.367993
 -----------------------------------------------------------------------------------
    total drift:                                0.005877     -0.000801      0.003560


--------------------------------------------------------------------------------------------------------



  FREE ENERGIE OF THE ION-ELECTRON SYSTEM (eV)
  ---------------------------------------------------
  free  energy   TOTEN  =       -93.32375352 eV

  energy  without entropy=      -93.30309821  energy(sigma->0) =      -93.31342586
 


--------------------------------------------------------------------------------------------------------


    POTLOK:  cpu time   14.64: real time   14.64


--------------------------------------------------------------------------------------------------------


     LOOP+:  cpu time 2395.11: real time 2397.12
    4ORBIT:  cpu time    0.00: real time    0.00

 total amount of memory used by VASP on root node   146493. kBytes
========================================================================

   base      :      30000. kBytes
   nonlr-proj:       3452. kBytes
   fftplans  :       9347. kBytes
   grid      :      14649. kBytes
   one-center:         36. kBytes
   wavefun   :      89009. kBytes
 
  
  
 General timing and accounting informations for this job:
 ========================================================
  
                  Total CPU time used (sec):     2411.049
                            User time (sec):     2374.782
                          System time (sec):       36.266
                         Elapsed time (sec):     2414.168
  
                   Maximum memory used (kb):      335284.
                   Average memory used (kb):           0.
  
                          Minor page faults:      8005301
                          Major page faults:           14
                 Voluntary context switches:         1493
