<?xml version="1.0" encoding="ISO-8859-1"?>
<modeling>
 <generator>
  <i name="program" type="string">vasp </i>
  <i name="version" type="string">5.4.1  </i>
  <i name="subversion" type="string">24Jun15 (build May 10 2016 14:40:36) complex                          parallel </i>
  <i name="platform" type="string">IFC91_ompi </i>
  <i name="date" type="string">2017 02 28 </i>
  <i name="time" type="string">15:59:29 </i>
 </generator>
 <incar>
  <i type="string" name="PREC">accurate</i>
  <i type="string" name="ALGO"> Fast</i>
  <i type="int" name="ISPIN">     2</i>
  <i type="int" name="IBRION">     2</i>
  <i name="EDIFF">      0.00010000</i>
  <i type="int" name="NSW">    50</i>
  <i type="int" name="ISIF">     3</i>
  <i name="ENCUT">    500.00000000</i>
  <v name="MAGMOM">      6.00000000</v>
  <i type="string" name="LREAL"> Auto</i>
  <i type="int" name="ISMEAR">     1</i>
  <i name="SIGMA">      0.10000000</i>
  <i type="logical" name="LCHARG"> T  </i>
  <i type="logical" name="LVTOT"> T  </i>
  <i type="logical" name="LVHAR"> T  </i>
  <i type="logical" name="LAECHG"> T  </i>
  <v type="int" name="KPOINT_BSE">    -1     0     0     0</v>
  <i type="string" name="GGA"> Bo</i>
  <i name="PARAM1">      0.18333333</i>
  <i name="PARAM2">      0.22000000</i>
  <i type="logical" name="LUSE_VDW"> T  </i>
  <i name="AGGAC">      0.00000000</i>
 </incar>
 <kpoints>
  <generation param="Gamma">
   <v type="int" name="divisions">      11       11       11 </v>
   <v name="usershift">      0.00000000       0.00000000       0.00000000 </v>
   <v name="genvec1">      0.09090909       0.00000000       0.00000000 </v>
   <v name="genvec2">      0.00000000       0.09090909       0.00000000 </v>
   <v name="genvec3">      0.00000000       0.00000000       0.09090909 </v>
   <v name="shift">      0.00000000       0.00000000       0.00000000 </v>
  </generation>
  <varray name="kpointlist" >
   <v>       0.00000000       0.00000000       0.00000000 </v>
   <v>       0.09090909      -0.00000000       0.00000000 </v>
   <v>       0.18181818      -0.00000000       0.00000000 </v>
   <v>       0.27272727      -0.00000000       0.00000000 </v>
   <v>       0.36363636      -0.00000000       0.00000000 </v>
   <v>       0.45454545      -0.00000000       0.00000000 </v>
   <v>       0.09090909       0.09090909       0.00000000 </v>
   <v>       0.18181818       0.09090909       0.00000000 </v>
   <v>       0.27272727       0.09090909       0.00000000 </v>
   <v>       0.36363636       0.09090909       0.00000000 </v>
   <v>       0.45454545       0.09090909       0.00000000 </v>
   <v>       0.18181818       0.18181818       0.00000000 </v>
   <v>       0.27272727       0.18181818       0.00000000 </v>
   <v>       0.36363636       0.18181818       0.00000000 </v>
   <v>       0.27272727       0.27272727       0.00000000 </v>
   <v>       0.36363636       0.27272727       0.00000000 </v>
   <v>       0.09090909       0.09090909       0.09090909 </v>
   <v>       0.18181818       0.09090909       0.09090909 </v>
   <v>       0.27272727       0.09090909       0.09090909 </v>
   <v>       0.36363636       0.09090909       0.09090909 </v>
   <v>      -0.09090909       0.09090909       0.09090909 </v>
   <v>       0.18181818       0.18181818       0.09090909 </v>
   <v>       0.27272727       0.18181818       0.09090909 </v>
   <v>       0.36363636       0.18181818       0.09090909 </v>
   <v>      -0.18181818       0.18181818       0.09090909 </v>
   <v>       0.27272727       0.27272727       0.09090909 </v>
   <v>      -0.27272727       0.27272727       0.09090909 </v>
   <v>      -0.18181818       0.27272727       0.09090909 </v>
   <v>      -0.36363636       0.36363636       0.09090909 </v>
   <v>      -0.27272727       0.36363636       0.09090909 </v>
   <v>      -0.45454545       0.45454545       0.09090909 </v>
   <v>      -0.36363636       0.45454545       0.09090909 </v>
   <v>      -0.27272727       0.45454545       0.09090909 </v>
   <v>      -0.45454545      -0.45454545       0.09090909 </v>
   <v>      -0.36363636      -0.45454545       0.09090909 </v>
   <v>      -0.36363636      -0.36363636       0.09090909 </v>
   <v>       0.18181818       0.18181818       0.18181818 </v>
   <v>       0.27272727       0.18181818       0.18181818 </v>
   <v>      -0.18181818       0.18181818       0.18181818 </v>
   <v>       0.27272727       0.27272727       0.18181818 </v>
   <v>      -0.27272727       0.27272727       0.18181818 </v>
   <v>      -0.36363636       0.36363636       0.18181818 </v>
   <v>      -0.27272727       0.36363636       0.18181818 </v>
   <v>      -0.45454545       0.45454545       0.18181818 </v>
   <v>      -0.36363636       0.45454545       0.18181818 </v>
   <v>      -0.45454545      -0.45454545       0.18181818 </v>
   <v>      -0.36363636      -0.45454545       0.18181818 </v>
   <v>      -0.27272727       0.27272727       0.27272727 </v>
   <v>      -0.36363636       0.36363636       0.27272727 </v>
   <v>      -0.45454545       0.45454545       0.27272727 </v>
   <v>      -0.36363636       0.45454545       0.27272727 </v>
   <v>      -0.45454545      -0.45454545       0.27272727 </v>
   <v>      -0.36363636       0.36363636       0.36363636 </v>
   <v>      -0.45454545       0.45454545       0.36363636 </v>
   <v>      -0.45454545      -0.45454545       0.36363636 </v>
   <v>      -0.45454545       0.45454545       0.45454545 </v>
  </varray>
  <varray name="weights" >
   <v>       0.00075131 </v>
   <v>       0.00901578 </v>
   <v>       0.00901578 </v>
   <v>       0.00901578 </v>
   <v>       0.00901578 </v>
   <v>       0.00901578 </v>
   <v>       0.01803156 </v>
   <v>       0.03606311 </v>
   <v>       0.03606311 </v>
   <v>       0.03606311 </v>
   <v>       0.01803156 </v>
   <v>       0.01803156 </v>
   <v>       0.03606311 </v>
   <v>       0.03606311 </v>
   <v>       0.01803156 </v>
   <v>       0.01803156 </v>
   <v>       0.00601052 </v>
   <v>       0.01803156 </v>
   <v>       0.01803156 </v>
   <v>       0.01803156 </v>
   <v>       0.00450789 </v>
   <v>       0.01803156 </v>
   <v>       0.03606311 </v>
   <v>       0.01803156 </v>
   <v>       0.01803156 </v>
   <v>       0.01803156 </v>
   <v>       0.01803156 </v>
   <v>       0.01803156 </v>
   <v>       0.01803156 </v>
   <v>       0.03606311 </v>
   <v>       0.01803156 </v>
   <v>       0.03606311 </v>
   <v>       0.01803156 </v>
   <v>       0.01803156 </v>
   <v>       0.03606311 </v>
   <v>       0.00601052 </v>
   <v>       0.00601052 </v>
   <v>       0.01803156 </v>
   <v>       0.00450789 </v>
   <v>       0.00601052 </v>
   <v>       0.01803156 </v>
   <v>       0.01803156 </v>
   <v>       0.01803156 </v>
   <v>       0.01803156 </v>
   <v>       0.03606311 </v>
   <v>       0.01803156 </v>
   <v>       0.01803156 </v>
   <v>       0.00450789 </v>
   <v>       0.01803156 </v>
   <v>       0.01803156 </v>
   <v>       0.01803156 </v>
   <v>       0.01803156 </v>
   <v>       0.00450789 </v>
   <v>       0.01803156 </v>
   <v>       0.00601052 </v>
   <v>       0.00450789 </v>
  </varray>
 </kpoints>
 <parameters>
  <separator name="general" >
   <i type="string" name="SYSTEM">unknown system</i>
   <i type="logical" name="LCOMPAT"> F  </i>
  </separator>
  <separator name="electronic" >
   <i type="string" name="PREC">accura</i>
   <i name="ENMAX">    500.00000000</i>
   <i name="ENAUG">    373.43800000</i>
   <i name="EDIFF">      0.00010000</i>
   <i type="int" name="IALGO">    68</i>
   <i type="int" name="IWAVPR">    11</i>
   <i type="int" name="NBANDS">    16</i>
   <i name="NELECT">     12.00000000</i>
   <i type="int" name="TURBO">     0</i>
   <i type="int" name="IRESTART">     0</i>
   <i type="int" name="NREBOOT">     0</i>
   <i type="int" name="NMIN">     0</i>
   <i name="EREF">      0.00000000</i>
   <separator name="electronic smearing" >
    <i type="int" name="ISMEAR">     1</i>
    <i name="SIGMA">      0.10000000</i>
    <i name="KSPACING">      0.50000000</i>
    <i type="logical" name="KGAMMA"> T  </i>
   </separator>
   <separator name="electronic projectors" >
    <i type="logical" name="LREAL"> T  </i>
    <v name="ROPT">     -0.00025000</v>
    <i type="int" name="LMAXPAW">  -100</i>
    <i type="int" name="LMAXMIX">     2</i>
    <i type="logical" name="NLSPLINE"> F  </i>
   </separator>
   <separator name="electronic startup" >
    <i type="int" name="ISTART">     1</i>
    <i type="int" name="ICHARG">     0</i>
    <i type="int" name="INIWAV">     1</i>
   </separator>
   <separator name="electronic spin" >
    <i type="int" name="ISPIN">     2</i>
    <i type="logical" name="LNONCOLLINEAR"> F  </i>
    <v name="MAGMOM">      6.00000000</v>
    <i name="NUPDOWN">     -1.00000000</i>
    <i type="logical" name="LSORBIT"> F  </i>
    <v name="SAXIS">      0.00000000      0.00000000      1.00000000</v>
    <i type="logical" name="LSPIRAL"> F  </i>
    <v name="QSPIRAL">      0.00000000      0.00000000      0.00000000</v>
    <i type="logical" name="LZEROZ"> F  </i>
   </separator>
   <separator name="electronic exchange-correlation" >
    <i type="logical" name="LASPH"> F  </i>
    <i type="logical" name="LMETAGGA"> F  </i>
   </separator>
   <separator name="electronic convergence" >
    <i type="int" name="NELM">    60</i>
    <i type="int" name="NELMDL">     0</i>
    <i type="int" name="NELMIN">     2</i>
    <i name="ENINI">    500.00000000</i>
    <separator name="electronic convergence detail" >
     <i type="logical" name="LDIAG"> T  </i>
     <i type="logical" name="LSUBROT"> F  </i>
     <i name="WEIMIN">      0.00100000</i>
     <i name="EBREAK">      0.00000156</i>
     <i name="DEPER">      0.30000000</i>
     <i type="int" name="NRMM">     4</i>
     <i name="TIME">      0.40000000</i>
    </separator>
   </separator>
   <separator name="electronic mixer" >
    <i name="AMIX">      0.40000000</i>
    <i name="BMIX">      1.00000000</i>
    <i name="AMIN">      0.10000000</i>
    <i name="AMIX_MAG">      1.60000000</i>
    <i name="BMIX_MAG">      1.00000000</i>
    <separator name="electronic mixer details" >
     <i type="int" name="IMIX">     4</i>
     <i type="logical" name="MIXFIRST"> F  </i>
     <i type="int" name="MAXMIX">   -45</i>
     <i name="WC">    100.00000000</i>
     <i type="int" name="INIMIX">     1</i>
     <i type="int" name="MIXPRE">     1</i>
     <i type="int" name="MREMOVE">     5</i>
    </separator>
   </separator>
   <separator name="electronic dipolcorrection" >
    <i type="logical" name="LDIPOL"> F  </i>
    <i type="logical" name="LMONO"> F  </i>
    <i type="int" name="IDIPOL">     0</i>
    <i name="EPSILON">      1.00000000</i>
    <v name="DIPOL">   -100.00000000   -100.00000000   -100.00000000</v>
    <i name="EFIELD">      0.00000000</i>
   </separator>
  </separator>
  <separator name="grids" >
   <i type="int" name="NGX">    20</i>
   <i type="int" name="NGY">    20</i>
   <i type="int" name="NGZ">    20</i>
   <i type="int" name="NGXF">    40</i>
   <i type="int" name="NGYF">    40</i>
   <i type="int" name="NGZF">    40</i>
   <i type="logical" name="ADDGRID"> F  </i>
  </separator>
  <separator name="ionic" >
   <i type="int" name="NSW">    50</i>
   <i type="int" name="IBRION">     2</i>
   <i type="int" name="ISIF">     3</i>
   <i name="PSTRESS">      0.00000000</i>
   <i name="EDIFFG">      0.00100000</i>
   <i type="int" name="NFREE">     1</i>
   <i name="POTIM">      0.50000000</i>
   <i name="SMASS">     -3.00000000</i>
   <i name="SCALEE">      1.00000000</i>
  </separator>
  <separator name="ionic md" >
   <i name="TEBEG">      0.00010000</i>
   <i name="TEEND">      0.00010000</i>
   <i type="int" name="NBLOCK">     1</i>
   <i type="int" name="KBLOCK">    50</i>
   <i type="int" name="NPACO">   256</i>
   <i name="APACO">     16.00000000</i>
  </separator>
  <separator name="symmetry" >
   <i type="int" name="ISYM">     2</i>
   <i name="SYMPREC">      0.00001000</i>
  </separator>
  <separator name="dos" >
   <i type="logical" name="LORBIT"> F  </i>
   <v name="RWIGS">     -1.00000000</v>
   <i type="int" name="NEDOS">   301</i>
   <i name="EMIN">     10.00000000</i>
   <i name="EMAX">    -10.00000000</i>
   <i name="EFERMI">      0.00000000</i>
  </separator>
  <separator name="writing" >
   <i type="int" name="NWRITE">     2</i>
   <i type="logical" name="LWAVE"> T  </i>
   <i type="logical" name="LCHARG"> T  </i>
   <i type="logical" name="LPARD"> F  </i>
   <i type="logical" name="LVTOT"> F  </i>
   <i type="logical" name="LVHAR"> T  </i>
   <i type="logical" name="LELF"> F  </i>
   <i type="logical" name="LOPTICS"> F  </i>
   <v name="STM">      0.00000000      0.00000000      0.00000000      0.00000000      0.00000000      0.00000000      0.00000000</v>
  </separator>
  <separator name="performance" >
   <i type="int" name="NPAR">     4</i>
   <i type="int" name="NSIM">     4</i>
   <i type="int" name="NBLK">    -1</i>
   <i type="logical" name="LPLANE"> T  </i>
   <i type="logical" name="LSCALAPACK"> T  </i>
   <i type="logical" name="LSCAAWARE"> F  </i>
   <i type="logical" name="LSCALU"> F  </i>
   <i type="logical" name="LASYNC"> F  </i>
   <i type="logical" name="LORBITALREAL"> F  </i>
  </separator>
  <separator name="miscellaneous" >
   <i type="int" name="IDIOT">     3</i>
   <i type="logical" name="LMUSIC"> F  </i>
   <v name="POMASS">    183.85000000</v>
   <v name="DARWINR">      0.00000000</v>
   <v name="DARWINV">      1.00000000</v>
   <i type="logical" name="LCORR"> T  </i>
  </separator>
  <i type="logical" name="GGA_COMPAT"> T  </i>
  <i type="logical" name="LBERRY"> F  </i>
  <i type="int" name="ICORELEVEL">     0</i>
  <i type="logical" name="LDAU"> F  </i>
  <i type="int" name="I_CONSTRAINED_M">     0</i>
  <separator name="electronic exchange-correlation" >
   <i type="string" name="GGA">BO</i>
   <i type="int" name="VOSKOWN">     0</i>
   <i type="logical" name="LHFCALC"> F  </i>
   <i type="string" name="PRECFOCK"></i>
   <i type="logical" name="LSYMGRAD"> F  </i>
   <i type="logical" name="LHFONE"> F  </i>
   <i type="logical" name="LRHFCALC"> F  </i>
   <i type="logical" name="LTHOMAS"> F  </i>
   <i type="logical" name="LMODELHF"> F  </i>
   <i name="ENCUT4O">     -1.00000000</i>
   <i type="int" name="EXXOEP">     0</i>
   <i type="int" name="FOURORBIT">     0</i>
   <i name="AEXX">      0.00000000</i>
   <i name="HFALPHA">      0.00000000</i>
   <i name="MCALPHA">      0.00000000</i>
   <i name="ALDAX">      1.00000000</i>
   <i name="AGGAX">      1.00000000</i>
   <i name="ALDAC">      1.00000000</i>
   <i name="AGGAC">      0.00000000</i>
   <i type="int" name="NKREDX">     1</i>
   <i type="int" name="NKREDY">     1</i>
   <i type="int" name="NKREDZ">     1</i>
   <i type="logical" name="SHIFTRED"> F  </i>
   <i type="logical" name="ODDONLY"> F  </i>
   <i type="logical" name="EVENONLY"> F  </i>
   <i type="int" name="LMAXFOCK">     0</i>
   <i type="int" name="NMAXFOCKAE">     0</i>
   <i type="logical" name="LFOCKAEDFT"> F  </i>
   <i name="HFSCREEN">      0.00000000</i>
   <i name="HFSCREENC">      0.00000000</i>
   <i type="int" name="NBANDSGWLOW">     0</i>
  </separator>
  <separator name="vdW DFT" >
   <i type="logical" name="LUSE_VDW"> T  </i>
   <i name="Zab_VDW">     -0.84910000</i>
   <i name="PARAM1">      0.18333333</i>
   <i name="PARAM2">      0.22000000</i>
   <i name="PARAM3">      0.00000000</i>
  </separator>
  <separator name="model GW" >
   <i type="int" name="MODEL_GW">     0</i>
   <i name="MODEL_EPS0">      9.71485439</i>
   <i name="MODEL_ALPHA">      1.00000000</i>
  </separator>
  <separator name="linear response parameters" >
   <i type="logical" name="LEPSILON"> F  </i>
   <i type="logical" name="LRPA"> F  </i>
   <i type="logical" name="LNABLA"> F  </i>
   <i type="logical" name="LVEL"> F  </i>
   <i type="int" name="KINTER">     0</i>
   <i name="CSHIFT">      0.10000000</i>
   <i name="OMEGAMAX">     -1.00000000</i>
   <i name="DEG_THRESHOLD">      0.00200000</i>
  </separator>
  <separator name="orbital magnetization" >
   <i type="logical" name="NUCIND"> F  </i>
   <v name="MAGPOS">      0.00000000      0.00000000      0.00000000</v>
   <i type="logical" name="LNICSALL"> T  </i>
   <i type="logical" name="ORBITALMAG"> F  </i>
   <i type="logical" name="LMAGBLOCH"> F  </i>
   <i type="logical" name="LCHIMAG"> F  </i>
   <i type="logical" name="LGAUGE"> T  </i>
   <i type="int" name="MAGATOM">     0</i>
   <v name="MAGDIPOL">      0.00000000      0.00000000      0.00000000</v>
   <v name="AVECCONST">      0.00000000      0.00000000      0.00000000</v>
  </separator>
  <separator name="response functions" >
   <i type="logical" name="LADDER"> F  </i>
   <i type="logical" name="LFXC"> F  </i>
   <i type="logical" name="LHARTREE"> T  </i>
   <i type="int" name="IBSE">     0</i>
   <v type="int" name="KPOINT">    -1     0     0     0</v>
   <i type="logical" name="LTCTE"> F  </i>
   <i type="logical" name="LTETE"> F  </i>
   <i type="logical" name="LTRIPLET"> F  </i>
   <i type="logical" name="LFXCEPS"> F  </i>
   <i type="logical" name="LFXHEG"> F  </i>
   <i type="int" name="NATURALO">     0</i>
   <i type="logical" name="L2ORDER"> F  </i>
   <i type="logical" name="LUSEW"> F  </i>
   <i name="ENCUTGW">     -2.00000000</i>
   <i name="ENCUTGWSOFT">     -2.00000000</i>
   <i name="ENCUTLF">     -1.00000000</i>
   <i type="int" name="LMAXMP2">    -1</i>
   <i name="SCISSOR">      0.00000000</i>
   <i type="int" name="NOMEGA">     0</i>
   <i type="int" name="NOMEGAR">     0</i>
   <i type="int" name="NBANDSGW">    -1</i>
   <i type="int" name="NBANDSO">    -1</i>
   <i type="int" name="NBANDSV">    -1</i>
   <i type="int" name="NELM">     1</i>
   <i type="int" name="NELMHF">     1</i>
   <i type="int" name="DIM">     3</i>
   <i type="int" name="ANTIRES">     0</i>
   <i name="OMEGAMAX">    -30.00000000</i>
   <i name="OMEGAMIN">    -30.00000000</i>
   <i name="OMEGATL">   -200.00000000</i>
   <i type="int" name="OMEGAGRID">     0</i>
   <i name="CSHIFT">     -0.10000000</i>
   <i type="logical" name="SELFENERGY"> F  </i>
   <i type="logical" name="LSPECTRAL"> F  </i>
   <i type="logical" name="LSPECTRALGW"> F  </i>
   <i type="logical" name="LSINGLES"> F  </i>
   <i type="logical" name="LFERMIGW"> F  </i>
   <i type="logical" name="ODDONLYGW"> F  </i>
   <i type="logical" name="EVENONLYGW"> F  </i>
   <i type="int" name="NKREDLFX">     1</i>
   <i type="int" name="NKREDLFY">     1</i>
   <i type="int" name="NKREDLFZ">     1</i>
   <i type="int" name="MAXMEM">  1800</i>
   <i type="int" name="TELESCOPE">     0</i>
   <i type="int" name="TAUPAR">     1</i>
   <i type="int" name="OMEGAPAR">    -1</i>
   <i name="LAMBDA">      1.00000000</i>
  </separator>
  <separator name="External order field" >
   <i name="OFIELD_KAPPA">      0.00000000</i>
   <v name="OFIELD_K">      0.00000000      0.00000000      0.00000000</v>
   <i name="OFIELD_Q6_NEAR">      0.00000000</i>
   <i name="OFIELD_Q6_FAR">      0.00000000</i>
   <i name="OFIELD_A">      0.00000000</i>
  </separator>
 </parameters>
 <atominfo>
  <atoms>       1 </atoms>
  <types>       1 </types>
  <array name="atoms" >
   <dimension dim="1">ion</dimension>
   <field type="string">element</field>
   <field type="int">atomtype</field>
   <set>
    <rc><c>W </c><c>   1</c></rc>
   </set>
  </array>
  <array name="atomtypes" >
   <dimension dim="1">type</dimension>
   <field type="int">atomspertype</field>
   <field type="string">element</field>
   <field>mass</field>
   <field>valence</field>
   <field type="string">pseudopotential</field>
   <set>
    <rc><c>   1</c><c>W </c><c>    183.85000000</c><c>     12.00000000</c><c> PAW_PBE W_pv 06Sep2000                 </c></rc>
   </set>
  </array>
 </atominfo>
 <structure name="initialpos" >
  <crystal>
   <varray name="basis" >
    <v>       2.60251200       0.00000000      -0.92012700 </v>
    <v>      -1.30125600       2.25384100      -0.92012700 </v>
    <v>       0.00000000       0.00000000       2.76038100 </v>
   </varray>
   <i name="volume">     16.19142398 </i>
   <varray name="rec_basis" >
    <v>       0.38424415       0.22184351       0.00000000 </v>
    <v>       0.00000000       0.44368702       0.00000000 </v>
    <v>       0.12808138       0.22184351       0.36226883 </v>
   </varray>
  </crystal>
  <varray name="positions" >
   <v>       0.00000000       0.00000000       0.00000000 </v>
  </varray>
 </structure>
 <calculation>
  <scstep>
   <time name="dav">    0.76    0.76</time>
   <time name="total">    1.40    1.43</time>
   <energy>
    <i name="alphaZ">    159.51001984 </i>
    <i name="ewald">  -1183.75039846 </i>
    <i name="hartreedc">   -129.92291464 </i>
    <i name="XCdc">     34.09979384 </i>
    <i name="pawpsdc">    867.83328620 </i>
    <i name="pawaedc">   -863.10753322 </i>
    <i name="eentropy">      0.00069232 </i>
    <i name="bandstr">   -160.50350003 </i>
    <i name="atom">   1264.67187305 </i>
    <i name="e_fr_energy">    -11.16868110 </i>
    <i name="e_wo_entrp">    -11.16937341 </i>
    <i name="e_0_energy">    -11.16891187 </i>
   </energy>
  </scstep>
  <scstep>
   <time name="diag">    0.10    0.10</time>
   <time name="diis">    0.22    0.22</time>
   <time name="orth">    0.02    0.02</time>
   <time name="total">    0.73    0.74</time>
   <energy>
    <i name="e_fr_energy">    -11.15966078 </i>
    <i name="e_wo_entrp">    -11.16030338 </i>
    <i name="e_0_energy">    -11.15987498 </i>
   </energy>
  </scstep>
  <scstep>
   <time name="diag">    0.10    0.10</time>
   <time name="diis">    0.22    0.22</time>
   <time name="orth">    0.02    0.02</time>
   <time name="total">    0.55    0.56</time>
   <energy>
    <i name="e_fr_energy">    -11.15388453 </i>
    <i name="e_wo_entrp">    -11.15448313 </i>
    <i name="e_0_energy">    -11.15408406 </i>
   </energy>
  </scstep>
  <scstep>
   <time name="diag">    0.10    0.10</time>
   <time name="diis">    0.15    0.15</time>
   <time name="orth">    0.02    0.02</time>
   <time name="total">    0.47    0.47</time>
   <energy>
    <i name="alphaZ">    159.51001984 </i>
    <i name="ewald">  -1183.75039846 </i>
    <i name="hartreedc">   -129.02556460 </i>
    <i name="XCdc">     34.05372483 </i>
    <i name="pawpsdc">    865.11975090 </i>
    <i name="pawaedc">   -860.37395478 </i>
    <i name="eentropy">      0.00059849 </i>
    <i name="bandstr">   -161.35985210 </i>
    <i name="atom">   1264.67187305 </i>
    <i name="e_fr_energy">    -11.15380283 </i>
    <i name="e_wo_entrp">    -11.15440133 </i>
    <i name="e_0_energy">    -11.15400233 </i>
   </energy>
  </scstep>
  <structure>
   <crystal>
    <varray name="basis" >
     <v>       2.60251200       0.00000000      -0.92012700 </v>
     <v>      -1.30125600       2.25384100      -0.92012700 </v>
     <v>       0.00000000       0.00000000       2.76038100 </v>
    </varray>
    <i name="volume">     16.19142398 </i>
    <varray name="rec_basis" >
     <v>       0.38424415       0.22184351       0.00000000 </v>
     <v>       0.00000000       0.44368702       0.00000000 </v>
     <v>       0.12808138       0.22184351       0.36226883 </v>
    </varray>
   </crystal>
   <varray name="positions" >
    <v>       0.00000000       0.00000000       0.00000000 </v>
   </varray>
  </structure>
  <varray name="forces" >
   <v>       0.00000000       0.00000000       0.00000000 </v>
  </varray>
  <varray name="stress" >
   <v>      11.75217071       0.00000000       0.00000000 </v>
   <v>      -0.00000000      11.75216544       0.00000000 </v>
   <v>      -0.00000000       0.00000000      11.75217220 </v>
  </varray>
  <energy>
   <i name="e_fr_energy">    -11.15380283 </i>
   <i name="e_wo_entrp">    -11.15400233 </i>
   <i name="e_0_energy">      0.00059849 </i>
  </energy>
  <time name="totalsc">    4.54    4.87</time>
 </calculation>
 <calculation>
  <scstep>
   <time name="dav">    0.86    0.86</time>
   <time name="total">    1.06    1.07</time>
   <energy>
    <i name="alphaZ">    157.69775547 </i>
    <i name="ewald">  -1179.24500366 </i>
    <i name="hartreedc">   -128.53733140 </i>
    <i name="XCdc">     33.89520896 </i>
    <i name="pawpsdc">    865.14073546 </i>
    <i name="pawaedc">   -860.38911644 </i>
    <i name="eentropy">      0.00092973 </i>
    <i name="bandstr">   -164.45614639 </i>
    <i name="atom">   1264.67187305 </i>
    <i name="e_fr_energy">    -11.22109521 </i>
    <i name="e_wo_entrp">    -11.22202494 </i>
    <i name="e_0_energy">    -11.22140512 </i>
   </energy>
  </scstep>
  <scstep>
   <time name="diag">    0.10    0.10</time>
   <time name="diis">    0.22    0.22</time>
   <time name="orth">    0.02    0.02</time>
   <time name="total">    0.56    0.59</time>
   <energy>
    <i name="e_fr_energy">    -11.21479228 </i>
    <i name="e_wo_entrp">    -11.21580004 </i>
    <i name="e_0_energy">    -11.21512820 </i>
   </energy>
  </scstep>
  <scstep>
   <time name="diag">    0.10    0.11</time>
   <time name="diis">    0.22    0.22</time>
   <time name="orth">    0.02    0.02</time>
   <time name="total">    0.55    0.58</time>
   <energy>
    <i name="e_fr_energy">    -11.21058996 </i>
    <i name="e_wo_entrp">    -11.21160880 </i>
    <i name="e_0_energy">    -11.21092957 </i>
   </energy>
  </scstep>
  <scstep>
   <time name="diag">    0.10    0.10</time>
   <time name="diis">    0.17    0.17</time>
   <time name="orth">    0.02    0.02</time>
   <time name="total">    0.50    0.51</time>
   <energy>
    <i name="e_fr_energy">    -11.20505880 </i>
    <i name="e_wo_entrp">    -11.20609024 </i>
    <i name="e_0_energy">    -11.20540262 </i>
   </energy>
  </scstep>
  <scstep>
   <time name="diag">    0.10    0.10</time>
   <time name="diis">    0.15    0.15</time>
   <time name="orth">    0.02    0.02</time>
   <time name="total">    0.49    0.49</time>
   <energy>
    <i name="e_fr_energy">    -11.20447008 </i>
    <i name="e_wo_entrp">    -11.20550163 </i>
    <i name="e_0_energy">    -11.20481393 </i>
   </energy>
  </scstep>
  <scstep>
   <time name="diag">    0.10    0.10</time>
   <time name="diis">    0.15    0.15</time>
   <time name="orth">    0.02    0.02</time>
   <time name="total">    0.46    0.47</time>
   <energy>
    <i name="alphaZ">    157.69775547 </i>
    <i name="ewald">  -1179.24500366 </i>
    <i name="hartreedc">   -130.39159496 </i>
    <i name="XCdc">     33.98985519 </i>
    <i name="pawpsdc">    862.01232180 </i>
    <i name="pawaedc">   -857.24094981 </i>
    <i name="eentropy">      0.00103184 </i>
    <i name="bandstr">   -162.69977093 </i>
    <i name="atom">   1264.67187305 </i>
    <i name="e_fr_energy">    -11.20448202 </i>
    <i name="e_wo_entrp">    -11.20551386 </i>
    <i name="e_0_energy">    -11.20482596 </i>
   </energy>
  </scstep>
  <structure>
   <crystal>
    <varray name="basis" >
     <v>       2.61742333       0.00000000      -0.92012700 </v>
     <v>      -1.30871167       2.26675459      -0.92012700 </v>
     <v>       0.00000000       0.00000000       2.76038100 </v>
    </varray>
    <i name="volume">     16.37749600 </i>
    <varray name="rec_basis" >
     <v>       0.38205513       0.22057968       0.00000000 </v>
     <v>       0.00000000       0.44115936       0.00000000 </v>
     <v>       0.12735171       0.22057968       0.36226883 </v>
    </varray>
   </crystal>
   <varray name="positions" >
    <v>       0.00000000       0.00000000       0.00000000 </v>
   </varray>
  </structure>
  <varray name="forces" >
   <v>      -0.00000000       0.00000000       0.00000000 </v>
  </varray>
  <varray name="stress" >
   <v>     -12.05516274       0.00000000       0.00000000 </v>
   <v>      -0.00000000     -12.05515727       0.00000000 </v>
   <v>       0.00000000       0.00000000     -11.91820015 </v>
  </varray>
  <energy>
   <i name="e_fr_energy">    -11.20448202 </i>
   <i name="e_wo_entrp">    -11.20482596 </i>
   <i name="e_0_energy">      0.00103184 </i>
  </energy>
  <time name="totalsc">    4.67    4.76</time>
 </calculation>
 <calculation>
  <scstep>
   <time name="dav">    0.86    0.87</time>
   <time name="total">    1.08    1.09</time>
   <energy>
    <i name="alphaZ">    158.61671389 </i>
    <i name="ewald">  -1181.53519856 </i>
    <i name="hartreedc">   -130.64113099 </i>
    <i name="XCdc">     34.07054269 </i>
    <i name="pawpsdc">    861.99528673 </i>
    <i name="pawaedc">   -857.22436714 </i>
    <i name="eentropy">      0.00092646 </i>
    <i name="bandstr">   -161.13265976 </i>
    <i name="atom">   1264.67187305 </i>
    <i name="e_fr_energy">    -11.17801363 </i>
    <i name="e_wo_entrp">    -11.17894009 </i>
    <i name="e_0_energy">    -11.17832245 </i>
   </energy>
  </scstep>
  <scstep>
   <time name="diag">    0.11    0.11</time>
   <time name="diis">    0.22    0.22</time>
   <time name="orth">    0.02    0.02</time>
   <time name="total">    0.55    0.56</time>
   <energy>
    <i name="e_fr_energy">    -11.17466294 </i>
    <i name="e_wo_entrp">    -11.17560954 </i>
    <i name="e_0_energy">    -11.17497847 </i>
   </energy>
  </scstep>
  <scstep>
   <time name="diag">    0.10    0.11</time>
   <time name="diis">    0.22    0.22</time>
   <time name="orth">    0.02    0.02</time>
   <time name="total">    0.55    0.55</time>
   <energy>
    <i name="e_fr_energy">    -11.17527779 </i>
    <i name="e_wo_entrp">    -11.17619859 </i>
    <i name="e_0_energy">    -11.17558472 </i>
   </energy>
  </scstep>
  <scstep>
   <time name="diag">    0.10    0.11</time>
   <time name="diis">    0.15    0.15</time>
   <time name="orth">    0.02    0.02</time>
   <time name="total">    0.49    0.49</time>
   <energy>
    <i name="e_fr_energy">    -11.17791121 </i>
    <i name="e_wo_entrp">    -11.17882798 </i>
    <i name="e_0_energy">    -11.17821680 </i>
   </energy>
  </scstep>
  <scstep>
   <time name="diag">    0.10    0.10</time>
   <time name="diis">    0.15    0.15</time>
   <time name="orth">    0.02    0.02</time>
   <time name="total">    0.48    0.48</time>
   <energy>
    <i name="e_fr_energy">    -11.17844006 </i>
    <i name="e_wo_entrp">    -11.17935557 </i>
    <i name="e_0_energy">    -11.17874523 </i>
   </energy>
  </scstep>
  <scstep>
   <time name="diag">    0.10    0.11</time>
   <time name="diis">    0.16    0.16</time>
   <time name="orth">    0.02    0.02</time>
   <time name="total">    0.46    0.47</time>
   <energy>
    <i name="alphaZ">    158.61671389 </i>
    <i name="ewald">  -1181.53519856 </i>
    <i name="hartreedc">   -129.69086636 </i>
    <i name="XCdc">     34.02179350 </i>
    <i name="pawpsdc">    863.54782892 </i>
    <i name="pawaedc">   -858.78729080 </i>
    <i name="eentropy">      0.00091525 </i>
    <i name="bandstr">   -162.02417799 </i>
    <i name="atom">   1264.67187305 </i>
    <i name="e_fr_energy">    -11.17840910 </i>
    <i name="e_wo_entrp">    -11.17932434 </i>
    <i name="e_0_energy">    -11.17871418 </i>
   </energy>
  </scstep>
  <structure>
   <crystal>
    <varray name="basis" >
     <v>       2.60983019       0.00000000      -0.92012700 </v>
     <v>      -1.30491510       2.26017874      -0.92012700 </v>
     <v>       0.00000000       0.00000000       2.76038100 </v>
    </varray>
    <i name="volume">     16.28261169 </i>
    <varray name="rec_basis" >
     <v>       0.38316669       0.22122144       0.00000000 </v>
     <v>       0.00000000       0.44244288       0.00000000 </v>
     <v>       0.12772223       0.22122144       0.36226883 </v>
    </varray>
   </crystal>
   <varray name="positions" >
    <v>       0.00000000       0.00000000       0.00000000 </v>
   </varray>
  </structure>
  <varray name="forces" >
   <v>      -0.00000000       0.00000000      -0.00000000 </v>
  </varray>
  <varray name="stress" >
   <v>       0.43529332      -0.00000000       0.00000000 </v>
   <v>      -0.00000000       0.43529312       0.00000000 </v>
   <v>       0.00000000       0.00000000       0.43285560 </v>
  </varray>
  <energy>
   <i name="e_fr_energy">    -11.17840910 </i>
   <i name="e_wo_entrp">    -11.17871418 </i>
   <i name="e_0_energy">      0.00091525 </i>
  </energy>
  <time name="totalsc">    4.68    5.08</time>
  <eigenvalues>
   <array>
    <dimension dim="1">band</dimension>
    <dimension dim="2">kpoint</dimension>
    <dimension dim="3">spin</dimension>
    <field>eigene</field>
    <field>occ</field>
    <set>
     <set comment="spin 1">
      <set comment="kpoint 1">
       <r>  -30.3240    1.0000 </r>
       <r>  -30.2960    1.0000 </r>
       <r>  -30.2960    1.0000 </r>
       <r>   -2.1993    1.0000 </r>
       <r>    5.8080    1.0000 </r>
       <r>    5.8869    1.0000 </r>
       <r>    5.8869    1.0000 </r>
       <r>    9.2841   -0.0000 </r>
       <r>    9.2841   -0.0000 </r>
       <r>   22.3479    0.0000 </r>
       <r>   22.3866    0.0000 </r>
       <r>   22.3866    0.0000 </r>
       <r>   34.0556    0.0000 </r>
       <r>   34.0556    0.0000 </r>
       <r>   37.0893    0.0000 </r>
       <r>   37.0895    0.0000 </r>
      </set>
      <set comment="kpoint 2">
       <r>  -30.4009    1.0000 </r>
       <r>  -30.3440    1.0000 </r>
       <r>  -30.3092    1.0000 </r>
       <r>   -1.8125    1.0000 </r>
       <r>    5.6073    1.0000 </r>
       <r>    5.8123    1.0000 </r>
       <r>    6.2626    1.0000 </r>
       <r>    8.9682   -0.0000 </r>
       <r>    9.2943   -0.0000 </r>
       <r>   22.6820    0.0000 </r>
       <r>   23.0238    0.0000 </r>
       <r>   23.2118    0.0000 </r>
       <r>   31.4802    0.0000 </r>
       <r>   32.6302    0.0000 </r>
       <r>   36.3271    0.0000 </r>
       <r>   36.5562    0.0000 </r>
      </set>
      <set comment="kpoint 3">
       <r>  -30.6750    1.0000 </r>
       <r>  -30.4263    1.0000 </r>
       <r>  -30.3150    1.0000 </r>
       <r>   -0.7783    1.0000 </r>
       <r>    5.0688    1.0000 </r>
       <r>    5.5462    1.0000 </r>
       <r>    7.3546   -0.0058 </r>
       <r>    8.6062   -0.0000 </r>
       <r>    9.3611   -0.0000 </r>
       <r>   23.0098    0.0000 </r>
       <r>   24.5076    0.0000 </r>
       <r>   24.8416    0.0000 </r>
       <r>   29.2344    0.0000 </r>
       <r>   30.3750    0.0000 </r>
       <r>   34.3664    0.0000 </r>
       <r>   36.4419    0.0000 </r>
      </set>
      <set comment="kpoint 4">
       <r>  -31.0192    1.0000 </r>
       <r>  -30.5373    1.0000 </r>
       <r>  -30.3177    1.0000 </r>
       <r>    0.4349    1.0000 </r>
       <r>    4.4440    1.0000 </r>
       <r>    5.3713    1.0000 </r>
       <r>    8.7602   -0.0000 </r>
       <r>    9.0445   -0.0000 </r>
       <r>    9.5420   -0.0000 </r>
       <r>   22.0035    0.0000 </r>
       <r>   23.0495    0.0000 </r>
       <r>   27.5220    0.0000 </r>
       <r>   29.7626    0.0000 </r>
       <r>   30.7790    0.0000 </r>
       <r>   31.0634    0.0000 </r>
       <r>   35.1251    0.0000 </r>
      </set>
      <set comment="kpoint 5">
       <r>  -31.3224    1.0000 </r>
       <r>  -30.6380    1.0000 </r>
       <r>  -30.3197    1.0000 </r>
       <r>    1.0392    1.0000 </r>
       <r>    3.9329    1.0000 </r>
       <r>    6.2022    1.0000 </r>
       <r>    9.1385   -0.0000 </r>
       <r>    9.8236   -0.0000 </r>
       <r>   11.0581    0.0000 </r>
       <r>   20.1922    0.0000 </r>
       <r>   20.3560    0.0000 </r>
       <r>   27.1172    0.0000 </r>
       <r>   30.6830    0.0000 </r>
       <r>   31.9514    0.0000 </r>
       <r>   32.4679    0.0000 </r>
       <r>   33.3168    0.0000 </r>
      </set>
      <set comment="kpoint 6">
       <r>  -31.4972    1.0000 </r>
       <r>  -30.6972    1.0000 </r>
       <r>  -30.3209    1.0000 </r>
       <r>    1.0688    1.0000 </r>
       <r>    3.6520    1.0000 </r>
       <r>    7.6756   -0.0000 </r>
       <r>    9.2207   -0.0000 </r>
       <r>   10.0624    0.0000 </r>
       <r>   12.7001    0.0000 </r>
       <r>   18.0835    0.0000 </r>
       <r>   19.2865    0.0000 </r>
       <r>   24.5811    0.0000 </r>
       <r>   30.4758    0.0000 </r>
       <r>   33.5016    0.0000 </r>
       <r>   34.1150    0.0000 </r>
       <r>   36.2495    0.0000 </r>
      </set>
      <set comment="kpoint 7">
       <r>  -30.5904    1.0000 </r>
       <r>  -30.3650    1.0000 </r>
       <r>  -30.3487    1.0000 </r>
       <r>   -1.0932    1.0000 </r>
       <r>    5.3177    1.0000 </r>
       <r>    5.5049    1.0000 </r>
       <r>    7.0608    1.0002 </r>
       <r>    8.5473   -0.0000 </r>
       <r>    9.4216   -0.0000 </r>
       <r>   23.2136    0.0000 </r>
       <r>   23.9923    0.0000 </r>
       <r>   24.3460    0.0000 </r>
       <r>   29.1421    0.0000 </r>
       <r>   32.5883    0.0000 </r>
       <r>   32.7415    0.0000 </r>
       <r>   37.3009    0.0000 </r>
      </set>
      <set comment="kpoint 8">
       <r>  -30.8839    1.0000 </r>
       <r>  -30.4746    1.0000 </r>
       <r>  -30.3555    1.0000 </r>
       <r>    0.1038    1.0000 </r>
       <r>    4.7670    1.0000 </r>
       <r>    5.1169    1.0000 </r>
       <r>    8.3612   -0.0000 </r>
       <r>    8.5610   -0.0000 </r>
       <r>    9.6525   -0.0000 </r>
       <r>   22.9828    0.0000 </r>
       <r>   24.0612    0.0000 </r>
       <r>   25.6984    0.0000 </r>
       <r>   28.9043    0.0000 </r>
       <r>   30.0095    0.0000 </r>
       <r>   33.1495    0.0000 </r>
       <r>   37.0922    0.0000 </r>
      </set>
      <set comment="kpoint 9">
       <r>  -31.1859    1.0000 </r>
       <r>  -30.6010    1.0000 </r>
       <r>  -30.3587    1.0000 </r>
       <r>    1.1208    1.0000 </r>
       <r>    4.2017    1.0000 </r>
       <r>    5.2772    1.0000 </r>
       <r>    8.7076   -0.0000 </r>
       <r>    9.8789    0.0000 </r>
       <r>   10.5052    0.0000 </r>
       <r>   20.9305    0.0000 </r>
       <r>   22.1251    0.0000 </r>
       <r>   27.1155    0.0000 </r>
       <r>   28.0721    0.0000 </r>
       <r>   31.8167    0.0000 </r>
       <r>   33.5747    0.0000 </r>
       <r>   34.7129    0.0000 </r>
      </set>
      <set comment="kpoint 10">
       <r>  -31.4077    1.0000 </r>
       <r>  -30.6973    1.0000 </r>
       <r>  -30.3609    1.0000 </r>
       <r>    1.3655    1.0000 </r>
       <r>    3.8233    1.0000 </r>
       <r>    6.4393    1.0000 </r>
       <r>    9.0891   -0.0000 </r>
       <r>   10.1436    0.0000 </r>
       <r>   12.4909    0.0000 </r>
       <r>   18.6177    0.0000 </r>
       <r>   20.2586    0.0000 </r>
       <r>   24.9008    0.0000 </r>
       <r>   30.4524    0.0000 </r>
       <r>   31.9192    0.0000 </r>
       <r>   33.9896    0.0000 </r>
       <r>   36.0141    0.0000 </r>
      </set>
      <set comment="kpoint 11">
       <r>  -31.4887    1.0000 </r>
       <r>  -30.7330    1.0000 </r>
       <r>  -30.3618    1.0000 </r>
       <r>    1.3361    1.0000 </r>
       <r>    3.6918    1.0000 </r>
       <r>    7.2921   -0.0289 </r>
       <r>    9.0482   -0.0000 </r>
       <r>   10.4254    0.0000 </r>
       <r>   13.4669    0.0000 </r>
       <r>   17.3910    0.0000 </r>
       <r>   19.6524    0.0000 </r>
       <r>   23.8120    0.0000 </r>
       <r>   30.2015    0.0000 </r>
       <r>   33.1012    0.0000 </r>
       <r>   34.4718    0.0000 </r>
       <r>   37.7364    0.0000 </r>
      </set>
      <set comment="kpoint 12">
       <r>  -31.1128    1.0000 </r>
       <r>  -30.5761    1.0000 </r>
       <r>  -30.4082    1.0000 </r>
       <r>    1.2733    1.0000 </r>
       <r>    4.4300    1.0000 </r>
       <r>    4.6747    1.0000 </r>
       <r>    8.3662   -0.0000 </r>
       <r>    9.9557    0.0000 </r>
       <r>   10.4600    0.0000 </r>
       <r>   21.4070    0.0000 </r>
       <r>   23.6672    0.0000 </r>
       <r>   25.9741    0.0000 </r>
       <r>   26.4712    0.0000 </r>
       <r>   31.6423    0.0000 </r>
       <r>   35.7488    0.0000 </r>
       <r>   36.7134    0.0000 </r>
      </set>
      <set comment="kpoint 13">
       <r>  -31.2918    1.0000 </r>
       <r>  -30.7232    1.0000 </r>
       <r>  -30.4278    1.0000 </r>
       <r>    2.0016    1.0000 </r>
       <r>    4.0434    1.0000 </r>
       <r>    5.0904    1.0000 </r>
       <r>    8.7422   -0.0000 </r>
       <r>   10.0940    0.0000 </r>
       <r>   12.6814    0.0000 </r>
       <r>   19.0296    0.0000 </r>
       <r>   22.0230    0.0000 </r>
       <r>   24.2439    0.0000 </r>
       <r>   28.1012    0.0000 </r>
       <r>   32.3296    0.0000 </r>
       <r>   35.2876    0.0000 </r>
       <r>   37.2160    0.0000 </r>
      </set>
      <set comment="kpoint 14">
       <r>  -31.3862    1.0000 </r>
       <r>  -30.8245    1.0000 </r>
       <r>  -30.4346    1.0000 </r>
       <r>    2.0577    1.0000 </r>
       <r>    3.8865    1.0000 </r>
       <r>    5.9586    1.0000 </r>
       <r>    9.0135   -0.0000 </r>
       <r>   10.3660    0.0000 </r>
       <r>   14.5687    0.0000 </r>
       <r>   16.8427    0.0000 </r>
       <r>   20.6360    0.0000 </r>
       <r>   23.4289    0.0000 </r>
       <r>   29.7145    0.0000 </r>
       <r>   31.3575    0.0000 </r>
       <r>   35.2326    0.0000 </r>
       <r>   37.4742    0.0000 </r>
      </set>
      <set comment="kpoint 15">
       <r>  -31.2994    1.0000 </r>
       <r>  -30.9068    1.0000 </r>
       <r>  -30.4643    1.0000 </r>
       <r>    2.6058    1.0000 </r>
       <r>    4.0494    1.0000 </r>
       <r>    5.1011    1.0000 </r>
       <r>    9.1255   -0.0000 </r>
       <r>   10.0721    0.0000 </r>
       <r>   15.0758    0.0000 </r>
       <r>   16.7807    0.0000 </r>
       <r>   20.8405    0.0000 </r>
       <r>   23.8161    0.0000 </r>
       <r>   28.5152    0.0000 </r>
       <r>   31.1443    0.0000 </r>
       <r>   36.6627    0.0000 </r>
       <r>   36.7093    0.0000 </r>
      </set>
      <set comment="kpoint 16">
       <r>  -31.2595    1.0000 </r>
       <r>  -31.0220    1.0000 </r>
       <r>  -30.4740    1.0000 </r>
       <r>    2.7270    1.0000 </r>
       <r>    4.1896    1.0000 </r>
       <r>    5.1045    1.0000 </r>
       <r>    9.4208   -0.0000 </r>
       <r>   10.1383    0.0000 </r>
       <r>   15.4083    0.0000 </r>
       <r>   16.8473    0.0000 </r>
       <r>   19.4771    0.0000 </r>
       <r>   24.2632    0.0000 </r>
       <r>   29.4812    0.0000 </r>
       <r>   29.5029    0.0000 </r>
       <r>   36.4390    0.0000 </r>
       <r>   38.0920    0.0000 </r>
      </set>
      <set comment="kpoint 17">
       <r>  -30.8442    1.0000 </r>
       <r>  -30.3988    1.0000 </r>
       <r>  -30.3730    1.0000 </r>
       <r>   -0.1337    1.0000 </r>
       <r>    4.8278    1.0000 </r>
       <r>    4.8670    1.0000 </r>
       <r>    8.5408   -0.0000 </r>
       <r>    9.0569   -0.0000 </r>
       <r>    9.0773   -0.0000 </r>
       <r>   23.8304    0.0000 </r>
       <r>   24.3178    0.0000 </r>
       <r>   24.3346    0.0000 </r>
       <r>   28.2110    0.0000 </r>
       <r>   31.6277    0.0000 </r>
       <r>   31.6828    0.0000 </r>
       <r>   37.1331    0.0000 </r>
      </set>
      <set comment="kpoint 18">
       <r>  -31.0996    1.0000 </r>
       <r>  -30.5139    1.0000 </r>
       <r>  -30.4016    1.0000 </r>
       <r>    1.1249    1.0000 </r>
       <r>    4.2518    1.0000 </r>
       <r>    4.5420    1.0000 </r>
       <r>    9.0543   -0.0000 </r>
       <r>    9.5280   -0.0000 </r>
       <r>   10.4998    0.0000 </r>
       <r>   22.7101    0.0000 </r>
       <r>   22.8303    0.0000 </r>
       <r>   25.2831    0.0000 </r>
       <r>   25.6099    0.0000 </r>
       <r>   33.3830    0.0000 </r>
       <r>   34.2069    0.0000 </r>
       <r>   36.5854    0.0000 </r>
      </set>
      <set comment="kpoint 19">
       <r>  -31.3010    1.0000 </r>
       <r>  -30.6614    1.0000 </r>
       <r>  -30.4119    1.0000 </r>
       <r>    1.8257    1.0000 </r>
       <r>    3.8323    1.0000 </r>
       <r>    5.2175    1.0000 </r>
       <r>    9.2946   -0.0000 </r>
       <r>    9.8888    0.0000 </r>
       <r>   12.6402    0.0000 </r>
       <r>   19.4317    0.0000 </r>
       <r>   21.0227    0.0000 </r>
       <r>   24.0652    0.0000 </r>
       <r>   28.2006    0.0000 </r>
       <r>   33.0664    0.0000 </r>
       <r>   35.0401    0.0000 </r>
       <r>   36.0878    0.0000 </r>
      </set>
      <set comment="kpoint 20">
       <r>  -31.4101    1.0000 </r>
       <r>  -30.7567    1.0000 </r>
       <r>  -30.4179    1.0000 </r>
       <r>    1.8367    1.0000 </r>
       <r>    3.6163    1.0000 </r>
       <r>    6.5867    1.0000 </r>
       <r>    9.4342   -0.0000 </r>
       <r>   10.1103    0.0000 </r>
       <r>   14.2680    0.0000 </r>
       <r>   16.9552    0.0000 </r>
       <r>   20.0118    0.0000 </r>
       <r>   23.0993    0.0000 </r>
       <r>   31.0770    0.0000 </r>
       <r>   31.3723    0.0000 </r>
       <r>   34.5563    0.0000 </r>
       <r>   36.2873    0.0000 </r>
      </set>
      <set comment="kpoint 21">
       <r>  -30.4479    1.0000 </r>
       <r>  -30.3787    1.0000 </r>
       <r>  -30.3618    1.0000 </r>
       <r>   -1.4318    1.0000 </r>
       <r>    5.7963    1.0000 </r>
       <r>    5.8447    1.0000 </r>
       <r>    6.2233    1.0000 </r>
       <r>    8.2379   -0.0000 </r>
       <r>    9.6616   -0.0000 </r>
       <r>   23.4576    0.0000 </r>
       <r>   23.6437    0.0000 </r>
       <r>   23.6621    0.0000 </r>
       <r>   28.3983    0.0000 </r>
       <r>   35.2299    0.0000 </r>
       <r>   35.9832    0.0000 </r>
       <r>   36.0429    0.0000 </r>
      </set>
      <set comment="kpoint 22">
       <r>  -31.2467    1.0000 </r>
       <r>  -30.6092    1.0000 </r>
       <r>  -30.4857    1.0000 </r>
       <r>    2.3052    1.0000 </r>
       <r>    4.0304    1.0000 </r>
       <r>    4.1786    1.0000 </r>
       <r>    9.3241   -0.0000 </r>
       <r>    9.8566   -0.0000 </r>
       <r>   12.7706    0.0000 </r>
       <r>   19.9505    0.0000 </r>
       <r>   22.3614    0.0000 </r>
       <r>   22.6279    0.0000 </r>
       <r>   26.7669    0.0000 </r>
       <r>   33.5882    0.0000 </r>
       <r>   36.9454    0.0000 </r>
       <r>   36.9658    0.0000 </r>
      </set>
      <set comment="kpoint 23">
       <r>  -31.3029    1.0000 </r>
       <r>  -30.7743    1.0000 </r>
       <r>  -30.5137    1.0000 </r>
       <r>    2.6599    1.0000 </r>
       <r>    3.8125    1.0000 </r>
       <r>    5.1025    1.0000 </r>
       <r>    9.5744   -0.0000 </r>
       <r>   10.0919    0.0000 </r>
       <r>   14.8932    0.0000 </r>
       <r>   16.9071    0.0000 </r>
       <r>   20.8846    0.0000 </r>
       <r>   22.1612    0.0000 </r>
       <r>   28.8972    0.0000 </r>
       <r>   32.5046    0.0000 </r>
       <r>   35.5808    0.0000 </r>
       <r>   36.5977    0.0000 </r>
      </set>
      <set comment="kpoint 24">
       <r>  -31.3052    1.0000 </r>
       <r>  -30.8573    1.0000 </r>
       <r>  -30.5212    1.0000 </r>
       <r>    2.6192    1.0000 </r>
       <r>    3.7413    1.0000 </r>
       <r>    5.8664    1.0000 </r>
       <r>    9.6702   -0.0000 </r>
       <r>   10.1917    0.0000 </r>
       <r>   15.4543    0.0000 </r>
       <r>   15.9967    0.0000 </r>
       <r>   20.2028    0.0000 </r>
       <r>   21.9926    0.0000 </r>
       <r>   30.6615    0.0000 </r>
       <r>   31.4912    0.0000 </r>
       <r>   35.4006    0.0000 </r>
       <r>   35.4839    0.0000 </r>
      </set>
      <set comment="kpoint 25">
       <r>  -30.6795    1.0000 </r>
       <r>  -30.4623    1.0000 </r>
       <r>  -30.3958    1.0000 </r>
       <r>   -0.4185    1.0000 </r>
       <r>    5.3945    1.0000 </r>
       <r>    5.6451    1.0000 </r>
       <r>    7.2242    0.0122 </r>
       <r>    7.5736   -0.0000 </r>
       <r>    9.9427    0.0000 </r>
       <r>   23.7692    0.0000 </r>
       <r>   24.6428    0.0000 </r>
       <r>   25.3695    0.0000 </r>
       <r>   26.8071    0.0000 </r>
       <r>   32.8359    0.0000 </r>
       <r>   33.9762    0.0000 </r>
       <r>   36.7802    0.0000 </r>
      </set>
      <set comment="kpoint 26">
       <r>  -31.1949    1.0000 </r>
       <r>  -30.9626    1.0000 </r>
       <r>  -30.5650    1.0000 </r>
       <r>    2.9838    1.0000 </r>
       <r>    4.3020    1.0000 </r>
       <r>    4.9861    1.0000 </r>
       <r>    9.8673   -0.0000 </r>
       <r>   10.1183    0.0000 </r>
       <r>   14.8578    0.0000 </r>
       <r>   17.1155    0.0000 </r>
       <r>   19.4540    0.0000 </r>
       <r>   22.2369    0.0000 </r>
       <r>   29.9610    0.0000 </r>
       <r>   31.4207    0.0000 </r>
       <r>   36.4231    0.0000 </r>
       <r>   36.5687    0.0000 </r>
      </set>
      <set comment="kpoint 27">
       <r>  -31.0087    1.0000 </r>
       <r>  -30.5738    1.0000 </r>
       <r>  -30.3970    1.0000 </r>
       <r>    0.7861    1.0000 </r>
       <r>    4.8039    1.0000 </r>
       <r>    5.2344    1.0000 </r>
       <r>    7.8251   -0.0000 </r>
       <r>    8.9148   -0.0000 </r>
       <r>   10.1276    0.0000 </r>
       <r>   21.7539    0.0000 </r>
       <r>   23.9835    0.0000 </r>
       <r>   27.6111    0.0000 </r>
       <r>   28.8131    0.0000 </r>
       <r>   30.9113    0.0000 </r>
       <r>   31.6329    0.0000 </r>
       <r>   36.5238    0.0000 </r>
      </set>
      <set comment="kpoint 28">
       <r>  -30.9026    1.0000 </r>
       <r>  -30.5505    1.0000 </r>
       <r>  -30.4655    1.0000 </r>
       <r>    0.7046    1.0000 </r>
       <r>    5.1032    1.0000 </r>
       <r>    5.3441    1.0000 </r>
       <r>    7.2028    0.0901 </r>
       <r>    8.3949   -0.0000 </r>
       <r>   10.2543    0.0000 </r>
       <r>   22.3895    0.0000 </r>
       <r>   24.8762    0.0000 </r>
       <r>   26.7135    0.0000 </r>
       <r>   28.3495    0.0000 </r>
       <r>   30.1915    0.0000 </r>
       <r>   33.5152    0.0000 </r>
       <r>   37.0417    0.0000 </r>
      </set>
      <set comment="kpoint 29">
       <r>  -31.3009    1.0000 </r>
       <r>  -30.6756    1.0000 </r>
       <r>  -30.3952    1.0000 </r>
       <r>    1.3995    1.0000 </r>
       <r>    4.3125    1.0000 </r>
       <r>    5.5788    1.0000 </r>
       <r>    8.4830   -0.0000 </r>
       <r>   10.3880    0.0000 </r>
       <r>   10.9445    0.0000 </r>
       <r>   19.7704    0.0000 </r>
       <r>   21.8756    0.0000 </r>
       <r>   26.4260    0.0000 </r>
       <r>   29.9113    0.0000 </r>
       <r>   31.5766    0.0000 </r>
       <r>   33.0484    0.0000 </r>
       <r>   35.5003    0.0000 </r>
      </set>
      <set comment="kpoint 30">
       <r>  -31.1645    1.0000 </r>
       <r>  -30.6812    1.0000 </r>
       <r>  -30.4750    1.0000 </r>
       <r>    1.7184    1.0000 </r>
       <r>    4.4896    1.0000 </r>
       <r>    5.1840    1.0000 </r>
       <r>    7.7107   -0.0000 </r>
       <r>    9.9496    0.0000 </r>
       <r>   10.7489    0.0000 </r>
       <r>   20.5378    0.0000 </r>
       <r>   23.9382    0.0000 </r>
       <r>   26.6141    0.0000 </r>
       <r>   27.9542    0.0000 </r>
       <r>   31.2895    0.0000 </r>
       <r>   33.9462    0.0000 </r>
       <r>   37.1608    0.0000 </r>
      </set>
      <set comment="kpoint 31">
       <r>  -31.4697    1.0000 </r>
       <r>  -30.7355    1.0000 </r>
       <r>  -30.3938    1.0000 </r>
       <r>    1.4130    1.0000 </r>
       <r>    4.0410    1.0000 </r>
       <r>    6.4704    1.0000 </r>
       <r>    8.5105   -0.0000 </r>
       <r>   11.2495    0.0000 </r>
       <r>   12.6126    0.0000 </r>
       <r>   17.9772    0.0000 </r>
       <r>   20.5416    0.0000 </r>
       <r>   24.0555    0.0000 </r>
       <r>   29.5647    0.0000 </r>
       <r>   34.0872    0.0000 </r>
       <r>   34.3614    0.0000 </r>
       <r>   37.2318    0.0000 </r>
      </set>
      <set comment="kpoint 32">
       <r>  -31.3625    1.0000 </r>
       <r>  -30.7835    1.0000 </r>
       <r>  -30.4738    1.0000 </r>
       <r>    1.9817    1.0000 </r>
       <r>    4.3611    1.0000 </r>
       <r>    5.3649    1.0000 </r>
       <r>    8.1859   -0.0000 </r>
       <r>   10.6776    0.0000 </r>
       <r>   12.7214    0.0000 </r>
       <r>   18.5784    0.0000 </r>
       <r>   22.0836    0.0000 </r>
       <r>   24.3781    0.0000 </r>
       <r>   28.8195    0.0000 </r>
       <r>   32.6888    0.0000 </r>
       <r>   34.8483    0.0000 </r>
       <r>   37.4973    0.0000 </r>
      </set>
      <set comment="kpoint 33">
       <r>  -31.2785    1.0000 </r>
       <r>  -30.8452    1.0000 </r>
       <r>  -30.5058    1.0000 </r>
       <r>    2.5452    1.0000 </r>
       <r>    3.9139    1.0000 </r>
       <r>    5.2787    1.0000 </r>
       <r>    8.1433   -0.0000 </r>
       <r>   10.0287    0.0000 </r>
       <r>   12.9442    0.0000 </r>
       <r>   18.9078    0.0000 </r>
       <r>   22.7567    0.0000 </r>
       <r>   25.0221    0.0000 </r>
       <r>   27.7295    0.0000 </r>
       <r>   32.1105    0.0000 </r>
       <r>   36.4482    0.0000 </r>
       <r>   36.4576    0.0000 </r>
      </set>
      <set comment="kpoint 34">
       <r>  -31.4354    1.0000 </r>
       <r>  -30.8214    1.0000 </r>
       <r>  -30.4727    1.0000 </r>
       <r>    1.9345    1.0000 </r>
       <r>    4.3311    1.0000 </r>
       <r>    5.6589    1.0000 </r>
       <r>    8.0982   -0.0000 </r>
       <r>   11.4663    0.0000 </r>
       <r>   13.9638    0.0000 </r>
       <r>   17.1351    0.0000 </r>
       <r>   21.3432    0.0000 </r>
       <r>   23.4462    0.0000 </r>
       <r>   28.9333    0.0000 </r>
       <r>   33.0143    0.0000 </r>
       <r>   35.3935    0.0000 </r>
       <r>   37.7727    0.0000 </r>
      </set>
      <set comment="kpoint 35">
       <r>  -31.3234    1.0000 </r>
       <r>  -30.9756    1.0000 </r>
       <r>  -30.5120    1.0000 </r>
       <r>    2.7814    1.0000 </r>
       <r>    4.0784    1.0000 </r>
       <r>    4.9038    1.0000 </r>
       <r>    8.6486   -0.0000 </r>
       <r>   10.4906    0.0000 </r>
       <r>   15.3034    0.0000 </r>
       <r>   16.8389    0.0000 </r>
       <r>   20.7694    0.0000 </r>
       <r>   25.0955    0.0000 </r>
       <r>   28.3258    0.0000 </r>
       <r>   30.8237    0.0000 </r>
       <r>   35.8507    0.0000 </r>
       <r>   38.2635    0.0000 </r>
      </set>
      <set comment="kpoint 36">
       <r>  -31.1813    1.0000 </r>
       <r>  -31.1813    1.0000 </r>
       <r>  -30.5199    1.0000 </r>
       <r>    3.4316    1.0000 </r>
       <r>    4.1026    1.0000 </r>
       <r>    4.1026    1.0000 </r>
       <r>    9.7883   -0.0000 </r>
       <r>    9.7883   -0.0000 </r>
       <r>   15.6360    0.0000 </r>
       <r>   18.2726    0.0000 </r>
       <r>   18.2726    0.0000 </r>
       <r>   27.3289    0.0000 </r>
       <r>   28.2333    0.0000 </r>
       <r>   28.2333    0.0000 </r>
       <r>   35.8985    0.0000 </r>
       <r>   38.9286    0.0000 </r>
      </set>
      <set comment="kpoint 37">
       <r>  -31.2678    1.0000 </r>
       <r>  -30.6681    1.0000 </r>
       <r>  -30.6391    1.0000 </r>
       <r>    3.6859    1.0000 </r>
       <r>    3.8285    1.0000 </r>
       <r>    3.8459    1.0000 </r>
       <r>    9.9121    0.0000 </r>
       <r>    9.9227    0.0000 </r>
       <r>   15.0624    0.0000 </r>
       <r>   17.1630    0.0000 </r>
       <r>   21.2165    0.0000 </r>
       <r>   21.2291    0.0000 </r>
       <r>   28.1688    0.0000 </r>
       <r>   33.6360    0.0000 </r>
       <r>   36.1925    0.0000 </r>
       <r>   36.1972    0.0000 </r>
      </set>
      <set comment="kpoint 38">
       <r>  -31.1913    1.0000 </r>
       <r>  -30.8457    1.0000 </r>
       <r>  -30.6777    1.0000 </r>
       <r>    3.5825    1.0000 </r>
       <r>    3.7744    1.0000 </r>
       <r>    4.9734    1.0000 </r>
       <r>   10.0186    0.0000 </r>
       <r>   10.1864    0.0000 </r>
       <r>   14.7277    0.0000 </r>
       <r>   17.0446    0.0000 </r>
       <r>   20.3925    0.0000 </r>
       <r>   20.5584    0.0000 </r>
       <r>   30.3534    0.0000 </r>
       <r>   33.5781    0.0000 </r>
       <r>   34.3999    0.0000 </r>
       <r>   35.8178    0.0000 </r>
      </set>
      <set comment="kpoint 39">
       <r>  -30.7538    1.0000 </r>
       <r>  -30.5620    1.0000 </r>
       <r>  -30.5405    1.0000 </r>
       <r>    0.5356    1.0000 </r>
       <r>    5.9943    1.0000 </r>
       <r>    6.0254    1.0000 </r>
       <r>    6.0806    1.0000 </r>
       <r>    7.2593   -0.0343 </r>
       <r>   10.3644    0.0000 </r>
       <r>   23.1539    0.0000 </r>
       <r>   25.5936    0.0000 </r>
       <r>   26.6765    0.0000 </r>
       <r>   26.6826    0.0000 </r>
       <r>   32.6997    0.0000 </r>
       <r>   32.7704    0.0000 </r>
       <r>   36.8010    0.0000 </r>
      </set>
      <set comment="kpoint 40">
       <r>  -30.9952    1.0000 </r>
       <r>  -30.9952    1.0000 </r>
       <r>  -30.7710    1.0000 </r>
       <r>    3.7029    1.0000 </r>
       <r>    4.5091    1.0000 </r>
       <r>    4.5091    1.0000 </r>
       <r>   10.2019    0.0000 </r>
       <r>   10.2019    0.0000 </r>
       <r>   13.8620    0.0000 </r>
       <r>   18.7800    0.0000 </r>
       <r>   18.7800    0.0000 </r>
       <r>   20.4981    0.0000 </r>
       <r>   32.2227    0.0000 </r>
       <r>   32.2227    0.0000 </r>
       <r>   35.3958    0.0000 </r>
       <r>   36.5838    0.0000 </r>
      </set>
      <set comment="kpoint 41">
       <r>  -30.9876    1.0000 </r>
       <r>  -30.6719    1.0000 </r>
       <r>  -30.5968    1.0000 </r>
       <r>    1.6690    1.0000 </r>
       <r>    4.8177    1.0000 </r>
       <r>    5.8003    1.0000 </r>
       <r>    6.8001    1.0000 </r>
       <r>    8.6486   -0.0000 </r>
       <r>   10.4813    0.0000 </r>
       <r>   21.6050    0.0000 </r>
       <r>   25.8583    0.0000 </r>
       <r>   27.1720    0.0000 </r>
       <r>   27.6554    0.0000 </r>
       <r>   31.8515    0.0000 </r>
       <r>   32.1805    0.0000 </r>
       <r>   36.8903    0.0000 </r>
      </set>
      <set comment="kpoint 42">
       <r>  -31.2435    1.0000 </r>
       <r>  -30.7756    1.0000 </r>
       <r>  -30.5927    1.0000 </r>
       <r>    2.2755    1.0000 </r>
       <r>    4.3787    1.0000 </r>
       <r>    5.4104    1.0000 </r>
       <r>    7.5182   -0.0000 </r>
       <r>   10.6633    0.0000 </r>
       <r>   11.0139    0.0000 </r>
       <r>   20.1965    0.0000 </r>
       <r>   24.0005    0.0000 </r>
       <r>   24.9601    0.0000 </r>
       <r>   28.1844    0.0000 </r>
       <r>   33.5526    0.0000 </r>
       <r>   34.0019    0.0000 </r>
       <r>   36.8883    0.0000 </r>
      </set>
      <set comment="kpoint 43">
       <r>  -31.1452    1.0000 </r>
       <r>  -30.7975    1.0000 </r>
       <r>  -30.6669    1.0000 </r>
       <r>    2.5511    1.0000 </r>
       <r>    3.9337    1.0000 </r>
       <r>    6.0232    1.0000 </r>
       <r>    7.2740   -0.0349 </r>
       <r>    9.7063   -0.0000 </r>
       <r>   11.0063    0.0000 </r>
       <r>   20.9532    0.0000 </r>
       <r>   24.6635    0.0000 </r>
       <r>   25.6795    0.0000 </r>
       <r>   27.4832    0.0000 </r>
       <r>   33.0215    0.0000 </r>
       <r>   34.9669    0.0000 </r>
       <r>   36.1676    0.0000 </r>
      </set>
      <set comment="kpoint 44">
       <r>  -31.3953    1.0000 </r>
       <r>  -30.8371    1.0000 </r>
       <r>  -30.5855    1.0000 </r>
       <r>    2.2043    1.0000 </r>
       <r>    4.7332    1.0000 </r>
       <r>    5.1766    1.0000 </r>
       <r>    7.3853   -0.0018 </r>
       <r>   12.3842    0.0000 </r>
       <r>   12.7922    0.0000 </r>
       <r>   17.8974    0.0000 </r>
       <r>   22.7211    0.0000 </r>
       <r>   23.1819    0.0000 </r>
       <r>   28.3886    0.0000 </r>
       <r>   35.1331    0.0000 </r>
       <r>   35.3521    0.0000 </r>
       <r>   35.9514    0.0000 </r>
      </set>
      <set comment="kpoint 45">
       <r>  -31.2888    1.0000 </r>
       <r>  -30.9170    1.0000 </r>
       <r>  -30.6666    1.0000 </r>
       <r>    2.7935    1.0000 </r>
       <r>    3.7267    1.0000 </r>
       <r>    5.6085    1.0000 </r>
       <r>    7.8841   -0.0000 </r>
       <r>   10.7106    0.0000 </r>
       <r>   13.1440    0.0000 </r>
       <r>   18.9369    0.0000 </r>
       <r>   22.2745    0.0000 </r>
       <r>   24.9825    0.0000 </r>
       <r>   27.9576    0.0000 </r>
       <r>   33.4628    0.0000 </r>
       <r>   34.9240    0.0000 </r>
       <r>   37.3784    0.0000 </r>
      </set>
      <set comment="kpoint 46">
       <r>  -31.3444    1.0000 </r>
       <r>  -30.9615    1.0000 </r>
       <r>  -30.6631    1.0000 </r>
       <r>    2.6444    1.0000 </r>
       <r>    4.0258    1.0000 </r>
       <r>    5.2585    1.0000 </r>
       <r>    7.9293   -0.0000 </r>
       <r>   11.6949    0.0000 </r>
       <r>   15.0825    0.0000 </r>
       <r>   16.7809    0.0000 </r>
       <r>   20.9364    0.0000 </r>
       <r>   25.1853    0.0000 </r>
       <r>   28.1622    0.0000 </r>
       <r>   32.5666    0.0000 </r>
       <r>   35.1668    0.0000 </r>
       <r>   37.4508    0.0000 </r>
      </set>
      <set comment="kpoint 47">
       <r>  -31.2569    1.0000 </r>
       <r>  -31.0948    1.0000 </r>
       <r>  -30.6739    1.0000 </r>
       <r>    3.2231    1.0000 </r>
       <r>    3.3804    1.0000 </r>
       <r>    4.9732    1.0000 </r>
       <r>    9.2854   -0.0000 </r>
       <r>   10.5401    0.0000 </r>
       <r>   15.7438    0.0000 </r>
       <r>   17.1826    0.0000 </r>
       <r>   19.6625    0.0000 </r>
       <r>   26.9254    0.0000 </r>
       <r>   27.9876    0.0000 </r>
       <r>   30.5158    0.0000 </r>
       <r>   35.0511    0.0000 </r>
       <r>   37.8364    0.0000 </r>
      </set>
      <set comment="kpoint 48">
       <r>  -31.0238    1.0000 </r>
       <r>  -30.8040    1.0000 </r>
       <r>  -30.7791    1.0000 </r>
       <r>    2.5386    1.0000 </r>
       <r>    3.9780    1.0000 </r>
       <r>    6.8976    1.0013 </r>
       <r>    6.9127    1.0025 </r>
       <r>    8.8247   -0.0000 </r>
       <r>   10.4803    0.0000 </r>
       <r>   22.0409    0.0000 </r>
       <r>   25.4925    0.0000 </r>
       <r>   25.5147    0.0000 </r>
       <r>   27.6016    0.0000 </r>
       <r>   33.9209    0.0000 </r>
       <r>   33.9659    0.0000 </r>
       <r>   35.7634    0.0000 </r>
      </set>
      <set comment="kpoint 49">
       <r>  -31.1722    1.0000 </r>
       <r>  -30.9066    1.0000 </r>
       <r>  -30.8359    1.0000 </r>
       <r>    2.8559    1.0000 </r>
       <r>    3.2500    1.0000 </r>
       <r>    7.0727    0.9678 </r>
       <r>    7.5191   -0.0000 </r>
       <r>   10.3836    0.0000 </r>
       <r>   11.2709    0.0000 </r>
       <r>   21.2463    0.0000 </r>
       <r>   23.0317    0.0000 </r>
       <r>   24.3772    0.0000 </r>
       <r>   28.2269    0.0000 </r>
       <r>   33.6129    0.0000 </r>
       <r>   35.7656    0.0000 </r>
       <r>   36.3356    0.0000 </r>
      </set>
      <set comment="kpoint 50">
       <r>  -31.2966    1.0000 </r>
       <r>  -30.9686    1.0000 </r>
       <r>  -30.8278    1.0000 </r>
       <r>    2.5308    1.0000 </r>
       <r>    3.2608    1.0000 </r>
       <r>    6.9618    1.0132 </r>
       <r>    7.5175   -0.0000 </r>
       <r>   12.0997    0.0000 </r>
       <r>   13.7114    0.0000 </r>
       <r>   17.9047    0.0000 </r>
       <r>   20.8830    0.0000 </r>
       <r>   25.5408    0.0000 </r>
       <r>   28.2810    0.0000 </r>
       <r>   31.9616    0.0000 </r>
       <r>   35.4859    0.0000 </r>
       <r>   36.6028    0.0000 </r>
      </set>
      <set comment="kpoint 51">
       <r>  -31.2233    1.0000 </r>
       <r>  -31.0278    1.0000 </r>
       <r>  -30.8870    1.0000 </r>
       <r>    2.6379    1.0000 </r>
       <r>    2.8197    1.0000 </r>
       <r>    7.0123    1.0341 </r>
       <r>    8.8790   -0.0000 </r>
       <r>   10.9018    0.0000 </r>
       <r>   13.3728    0.0000 </r>
       <r>   19.0607    0.0000 </r>
       <r>   20.4854    0.0000 </r>
       <r>   25.6061    0.0000 </r>
       <r>   28.6449    0.0000 </r>
       <r>   31.0598    0.0000 </r>
       <r>   35.2142    0.0000 </r>
       <r>   36.9170    0.0000 </r>
      </set>
      <set comment="kpoint 52">
       <r>  -31.2437    1.0000 </r>
       <r>  -31.0937    1.0000 </r>
       <r>  -30.8826    1.0000 </r>
       <r>    2.4541    1.0000 </r>
       <r>    2.7320    1.0000 </r>
       <r>    6.8581    1.0002 </r>
       <r>    9.4257   -0.0000 </r>
       <r>   11.5234    0.0000 </r>
       <r>   15.9968    0.0000 </r>
       <r>   16.4731    0.0000 </r>
       <r>   18.9038    0.0000 </r>
       <r>   27.0917    0.0000 </r>
       <r>   28.4654    0.0000 </r>
       <r>   29.6581    0.0000 </r>
       <r>   34.8975    0.0000 </r>
       <r>   36.7295    0.0000 </r>
      </set>
      <set comment="kpoint 53">
       <r>  -31.1519    1.0000 </r>
       <r>  -31.0282    1.0000 </r>
       <r>  -31.0022    1.0000 </r>
       <r>    2.4299    1.0000 </r>
       <r>    2.6040    1.0000 </r>
       <r>    8.7292   -0.0000 </r>
       <r>    8.7294   -0.0000 </r>
       <r>   10.5739    0.0000 </r>
       <r>   11.8650    0.0000 </r>
       <r>   20.7169    0.0000 </r>
       <r>   20.7370    0.0000 </r>
       <r>   24.2515    0.0000 </r>
       <r>   29.1669    0.0000 </r>
       <r>   30.7557    0.0000 </r>
       <r>   34.8567    0.0000 </r>
       <r>   37.4691    0.0000 </r>
      </set>
      <set comment="kpoint 54">
       <r>  -31.2052    1.0000 </r>
       <r>  -31.0923    1.0000 </r>
       <r>  -31.0373    1.0000 </r>
       <r>    2.0424    1.0000 </r>
       <r>    2.2288    1.0000 </r>
       <r>    9.2018   -0.0000 </r>
       <r>    9.3362   -0.0000 </r>
       <r>   11.8575    0.0000 </r>
       <r>   14.1116    0.0000 </r>
       <r>   17.6361    0.0000 </r>
       <r>   18.6690    0.0000 </r>
       <r>   25.4505    0.0000 </r>
       <r>   29.2130    0.0000 </r>
       <r>   29.5743    0.0000 </r>
       <r>   33.8175    0.0000 </r>
       <r>   37.3579    0.0000 </r>
      </set>
      <set comment="kpoint 55">
       <r>  -31.1657    1.0000 </r>
       <r>  -31.1657    1.0000 </r>
       <r>  -31.0740    1.0000 </r>
       <r>    1.9074    1.0000 </r>
       <r>    1.9074    1.0000 </r>
       <r>    9.2667   -0.0000 </r>
       <r>   11.3334    0.0000 </r>
       <r>   11.3334    0.0000 </r>
       <r>   16.3830    0.0000 </r>
       <r>   16.4036    0.0000 </r>
       <r>   16.4036    0.0000 </r>
       <r>   25.0934    0.0000 </r>
       <r>   29.4748    0.0000 </r>
       <r>   29.4748    0.0000 </r>
       <r>   33.2728    0.0000 </r>
       <r>   37.3771    0.0000 </r>
      </set>
      <set comment="kpoint 56">
       <r>  -31.1909    1.0000 </r>
       <r>  -31.1466    1.0000 </r>
       <r>  -31.1362    1.0000 </r>
       <r>    1.6231    1.0000 </r>
       <r>    1.6779    1.0000 </r>
       <r>   11.2602    0.0000 </r>
       <r>   11.2769    0.0000 </r>
       <r>   11.8411    0.0000 </r>
       <r>   14.8164    0.0000 </r>
       <r>   16.4955    0.0000 </r>
       <r>   16.5025    0.0000 </r>
       <r>   23.4911    0.0000 </r>
       <r>   29.8231    0.0000 </r>
       <r>   30.0661    0.0000 </r>
       <r>   32.6434    0.0000 </r>
       <r>   37.4947    0.0000 </r>
      </set>
     </set>
     <set comment="spin 2">
      <set comment="kpoint 1">
       <r>  -30.3240    1.0000 </r>
       <r>  -30.2961    1.0000 </r>
       <r>  -30.2961    1.0000 </r>
       <r>   -2.1993    1.0000 </r>
       <r>    5.8079    1.0000 </r>
       <r>    5.8869    1.0000 </r>
       <r>    5.8869    1.0000 </r>
       <r>    9.2841   -0.0000 </r>
       <r>    9.2841   -0.0000 </r>
       <r>   22.3479    0.0000 </r>
       <r>   22.3866    0.0000 </r>
       <r>   22.3866    0.0000 </r>
       <r>   34.0556    0.0000 </r>
       <r>   34.0556    0.0000 </r>
       <r>   37.0893    0.0000 </r>
       <r>   37.0894    0.0000 </r>
      </set>
      <set comment="kpoint 2">
       <r>  -30.4009    1.0000 </r>
       <r>  -30.3440    1.0000 </r>
       <r>  -30.3092    1.0000 </r>
       <r>   -1.8125    1.0000 </r>
       <r>    5.6073    1.0000 </r>
       <r>    5.8123    1.0000 </r>
       <r>    6.2626    1.0000 </r>
       <r>    8.9682   -0.0000 </r>
       <r>    9.2943   -0.0000 </r>
       <r>   22.6820    0.0000 </r>
       <r>   23.0238    0.0000 </r>
       <r>   23.2118    0.0000 </r>
       <r>   31.4802    0.0000 </r>
       <r>   32.6302    0.0000 </r>
       <r>   36.3271    0.0000 </r>
       <r>   36.5562    0.0000 </r>
      </set>
      <set comment="kpoint 3">
       <r>  -30.6750    1.0000 </r>
       <r>  -30.4263    1.0000 </r>
       <r>  -30.3151    1.0000 </r>
       <r>   -0.7783    1.0000 </r>
       <r>    5.0688    1.0000 </r>
       <r>    5.5462    1.0000 </r>
       <r>    7.3546   -0.0058 </r>
       <r>    8.6062   -0.0000 </r>
       <r>    9.3611   -0.0000 </r>
       <r>   23.0098    0.0000 </r>
       <r>   24.5076    0.0000 </r>
       <r>   24.8416    0.0000 </r>
       <r>   29.2344    0.0000 </r>
       <r>   30.3750    0.0000 </r>
       <r>   34.3664    0.0000 </r>
       <r>   36.4419    0.0000 </r>
      </set>
      <set comment="kpoint 4">
       <r>  -31.0193    1.0000 </r>
       <r>  -30.5373    1.0000 </r>
       <r>  -30.3177    1.0000 </r>
       <r>    0.4349    1.0000 </r>
       <r>    4.4440    1.0000 </r>
       <r>    5.3713    1.0000 </r>
       <r>    8.7601   -0.0000 </r>
       <r>    9.0445   -0.0000 </r>
       <r>    9.5420   -0.0000 </r>
       <r>   22.0035    0.0000 </r>
       <r>   23.0495    0.0000 </r>
       <r>   27.5220    0.0000 </r>
       <r>   29.7626    0.0000 </r>
       <r>   30.7790    0.0000 </r>
       <r>   31.0634    0.0000 </r>
       <r>   35.1251    0.0000 </r>
      </set>
      <set comment="kpoint 5">
       <r>  -31.3225    1.0000 </r>
       <r>  -30.6380    1.0000 </r>
       <r>  -30.3197    1.0000 </r>
       <r>    1.0392    1.0000 </r>
       <r>    3.9329    1.0000 </r>
       <r>    6.2022    1.0000 </r>
       <r>    9.1385   -0.0000 </r>
       <r>    9.8236   -0.0000 </r>
       <r>   11.0581    0.0000 </r>
       <r>   20.1922    0.0000 </r>
       <r>   20.3560    0.0000 </r>
       <r>   27.1172    0.0000 </r>
       <r>   30.6830    0.0000 </r>
       <r>   31.9514    0.0000 </r>
       <r>   32.4679    0.0000 </r>
       <r>   33.3168    0.0000 </r>
      </set>
      <set comment="kpoint 6">
       <r>  -31.4972    1.0000 </r>
       <r>  -30.6972    1.0000 </r>
       <r>  -30.3209    1.0000 </r>
       <r>    1.0688    1.0000 </r>
       <r>    3.6520    1.0000 </r>
       <r>    7.6756   -0.0000 </r>
       <r>    9.2207   -0.0000 </r>
       <r>   10.0623    0.0000 </r>
       <r>   12.7001    0.0000 </r>
       <r>   18.0835    0.0000 </r>
       <r>   19.2865    0.0000 </r>
       <r>   24.5811    0.0000 </r>
       <r>   30.4758    0.0000 </r>
       <r>   33.5015    0.0000 </r>
       <r>   34.1151    0.0000 </r>
       <r>   36.2495    0.0000 </r>
      </set>
      <set comment="kpoint 7">
       <r>  -30.5904    1.0000 </r>
       <r>  -30.3650    1.0000 </r>
       <r>  -30.3487    1.0000 </r>
       <r>   -1.0932    1.0000 </r>
       <r>    5.3177    1.0000 </r>
       <r>    5.5049    1.0000 </r>
       <r>    7.0608    1.0002 </r>
       <r>    8.5473   -0.0000 </r>
       <r>    9.4216   -0.0000 </r>
       <r>   23.2136    0.0000 </r>
       <r>   23.9923    0.0000 </r>
       <r>   24.3460    0.0000 </r>
       <r>   29.1422    0.0000 </r>
       <r>   32.5883    0.0000 </r>
       <r>   32.7415    0.0000 </r>
       <r>   37.3009    0.0000 </r>
      </set>
      <set comment="kpoint 8">
       <r>  -30.8839    1.0000 </r>
       <r>  -30.4746    1.0000 </r>
       <r>  -30.3555    1.0000 </r>
       <r>    0.1038    1.0000 </r>
       <r>    4.7670    1.0000 </r>
       <r>    5.1169    1.0000 </r>
       <r>    8.3612   -0.0000 </r>
       <r>    8.5610   -0.0000 </r>
       <r>    9.6525   -0.0000 </r>
       <r>   22.9828    0.0000 </r>
       <r>   24.0612    0.0000 </r>
       <r>   25.6984    0.0000 </r>
       <r>   28.9043    0.0000 </r>
       <r>   30.0095    0.0000 </r>
       <r>   33.1495    0.0000 </r>
       <r>   37.0923    0.0000 </r>
      </set>
      <set comment="kpoint 9">
       <r>  -31.1859    1.0000 </r>
       <r>  -30.6011    1.0000 </r>
       <r>  -30.3587    1.0000 </r>
       <r>    1.1208    1.0000 </r>
       <r>    4.2017    1.0000 </r>
       <r>    5.2772    1.0000 </r>
       <r>    8.7076   -0.0000 </r>
       <r>    9.8789    0.0000 </r>
       <r>   10.5052    0.0000 </r>
       <r>   20.9305    0.0000 </r>
       <r>   22.1251    0.0000 </r>
       <r>   27.1155    0.0000 </r>
       <r>   28.0721    0.0000 </r>
       <r>   31.8167    0.0000 </r>
       <r>   33.5747    0.0000 </r>
       <r>   34.7129    0.0000 </r>
      </set>
      <set comment="kpoint 10">
       <r>  -31.4077    1.0000 </r>
       <r>  -30.6973    1.0000 </r>
       <r>  -30.3610    1.0000 </r>
       <r>    1.3655    1.0000 </r>
       <r>    3.8233    1.0000 </r>
       <r>    6.4393    1.0000 </r>
       <r>    9.0891   -0.0000 </r>
       <r>   10.1436    0.0000 </r>
       <r>   12.4909    0.0000 </r>
       <r>   18.6177    0.0000 </r>
       <r>   20.2586    0.0000 </r>
       <r>   24.9008    0.0000 </r>
       <r>   30.4524    0.0000 </r>
       <r>   31.9192    0.0000 </r>
       <r>   33.9896    0.0000 </r>
       <r>   36.0141    0.0000 </r>
      </set>
      <set comment="kpoint 11">
       <r>  -31.4887    1.0000 </r>
       <r>  -30.7330    1.0000 </r>
       <r>  -30.3618    1.0000 </r>
       <r>    1.3361    1.0000 </r>
       <r>    3.6917    1.0000 </r>
       <r>    7.2921   -0.0289 </r>
       <r>    9.0482   -0.0000 </r>
       <r>   10.4254    0.0000 </r>
       <r>   13.4669    0.0000 </r>
       <r>   17.3910    0.0000 </r>
       <r>   19.6524    0.0000 </r>
       <r>   23.8120    0.0000 </r>
       <r>   30.2015    0.0000 </r>
       <r>   33.1012    0.0000 </r>
       <r>   34.4718    0.0000 </r>
       <r>   37.7364    0.0000 </r>
      </set>
      <set comment="kpoint 12">
       <r>  -31.1128    1.0000 </r>
       <r>  -30.5762    1.0000 </r>
       <r>  -30.4082    1.0000 </r>
       <r>    1.2733    1.0000 </r>
       <r>    4.4300    1.0000 </r>
       <r>    4.6747    1.0000 </r>
       <r>    8.3662   -0.0000 </r>
       <r>    9.9557    0.0000 </r>
       <r>   10.4600    0.0000 </r>
       <r>   21.4070    0.0000 </r>
       <r>   23.6672    0.0000 </r>
       <r>   25.9741    0.0000 </r>
       <r>   26.4712    0.0000 </r>
       <r>   31.6423    0.0000 </r>
       <r>   35.7488    0.0000 </r>
       <r>   36.7134    0.0000 </r>
      </set>
      <set comment="kpoint 13">
       <r>  -31.2918    1.0000 </r>
       <r>  -30.7232    1.0000 </r>
       <r>  -30.4278    1.0000 </r>
       <r>    2.0016    1.0000 </r>
       <r>    4.0434    1.0000 </r>
       <r>    5.0904    1.0000 </r>
       <r>    8.7422   -0.0000 </r>
       <r>   10.0940    0.0000 </r>
       <r>   12.6814    0.0000 </r>
       <r>   19.0296    0.0000 </r>
       <r>   22.0230    0.0000 </r>
       <r>   24.2439    0.0000 </r>
       <r>   28.1012    0.0000 </r>
       <r>   32.3296    0.0000 </r>
       <r>   35.2876    0.0000 </r>
       <r>   37.2160    0.0000 </r>
      </set>
      <set comment="kpoint 14">
       <r>  -31.3862    1.0000 </r>
       <r>  -30.8245    1.0000 </r>
       <r>  -30.4346    1.0000 </r>
       <r>    2.0577    1.0000 </r>
       <r>    3.8865    1.0000 </r>
       <r>    5.9586    1.0000 </r>
       <r>    9.0135   -0.0000 </r>
       <r>   10.3660    0.0000 </r>
       <r>   14.5687    0.0000 </r>
       <r>   16.8427    0.0000 </r>
       <r>   20.6360    0.0000 </r>
       <r>   23.4289    0.0000 </r>
       <r>   29.7145    0.0000 </r>
       <r>   31.3575    0.0000 </r>
       <r>   35.2326    0.0000 </r>
       <r>   37.4742    0.0000 </r>
      </set>
      <set comment="kpoint 15">
       <r>  -31.2994    1.0000 </r>
       <r>  -30.9068    1.0000 </r>
       <r>  -30.4643    1.0000 </r>
       <r>    2.6058    1.0000 </r>
       <r>    4.0494    1.0000 </r>
       <r>    5.1011    1.0000 </r>
       <r>    9.1255   -0.0000 </r>
       <r>   10.0721    0.0000 </r>
       <r>   15.0758    0.0000 </r>
       <r>   16.7807    0.0000 </r>
       <r>   20.8405    0.0000 </r>
       <r>   23.8161    0.0000 </r>
       <r>   28.5152    0.0000 </r>
       <r>   31.1443    0.0000 </r>
       <r>   36.6627    0.0000 </r>
       <r>   36.7093    0.0000 </r>
      </set>
      <set comment="kpoint 16">
       <r>  -31.2595    1.0000 </r>
       <r>  -31.0221    1.0000 </r>
       <r>  -30.4741    1.0000 </r>
       <r>    2.7270    1.0000 </r>
       <r>    4.1896    1.0000 </r>
       <r>    5.1045    1.0000 </r>
       <r>    9.4208   -0.0000 </r>
       <r>   10.1383    0.0000 </r>
       <r>   15.4083    0.0000 </r>
       <r>   16.8473    0.0000 </r>
       <r>   19.4771    0.0000 </r>
       <r>   24.2632    0.0000 </r>
       <r>   29.4812    0.0000 </r>
       <r>   29.5029    0.0000 </r>
       <r>   36.4391    0.0000 </r>
       <r>   38.0920    0.0000 </r>
      </set>
      <set comment="kpoint 17">
       <r>  -30.8442    1.0000 </r>
       <r>  -30.3988    1.0000 </r>
       <r>  -30.3730    1.0000 </r>
       <r>   -0.1337    1.0000 </r>
       <r>    4.8278    1.0000 </r>
       <r>    4.8670    1.0000 </r>
       <r>    8.5408   -0.0000 </r>
       <r>    9.0569   -0.0000 </r>
       <r>    9.0773   -0.0000 </r>
       <r>   23.8304    0.0000 </r>
       <r>   24.3178    0.0000 </r>
       <r>   24.3346    0.0000 </r>
       <r>   28.2110    0.0000 </r>
       <r>   31.6277    0.0000 </r>
       <r>   31.6828    0.0000 </r>
       <r>   37.1331    0.0000 </r>
      </set>
      <set comment="kpoint 18">
       <r>  -31.0996    1.0000 </r>
       <r>  -30.5139    1.0000 </r>
       <r>  -30.4016    1.0000 </r>
       <r>    1.1249    1.0000 </r>
       <r>    4.2518    1.0000 </r>
       <r>    4.5420    1.0000 </r>
       <r>    9.0543   -0.0000 </r>
       <r>    9.5280   -0.0000 </r>
       <r>   10.4998    0.0000 </r>
       <r>   22.7101    0.0000 </r>
       <r>   22.8303    0.0000 </r>
       <r>   25.2831    0.0000 </r>
       <r>   25.6099    0.0000 </r>
       <r>   33.3830    0.0000 </r>
       <r>   34.2069    0.0000 </r>
       <r>   36.5854    0.0000 </r>
      </set>
      <set comment="kpoint 19">
       <r>  -31.3011    1.0000 </r>
       <r>  -30.6614    1.0000 </r>
       <r>  -30.4120    1.0000 </r>
       <r>    1.8258    1.0000 </r>
       <r>    3.8323    1.0000 </r>
       <r>    5.2175    1.0000 </r>
       <r>    9.2946   -0.0000 </r>
       <r>    9.8888    0.0000 </r>
       <r>   12.6402    0.0000 </r>
       <r>   19.4317    0.0000 </r>
       <r>   21.0227    0.0000 </r>
       <r>   24.0652    0.0000 </r>
       <r>   28.2006    0.0000 </r>
       <r>   33.0664    0.0000 </r>
       <r>   35.0401    0.0000 </r>
       <r>   36.0878    0.0000 </r>
      </set>
      <set comment="kpoint 20">
       <r>  -31.4101    1.0000 </r>
       <r>  -30.7568    1.0000 </r>
       <r>  -30.4179    1.0000 </r>
       <r>    1.8367    1.0000 </r>
       <r>    3.6163    1.0000 </r>
       <r>    6.5867    1.0000 </r>
       <r>    9.4342   -0.0000 </r>
       <r>   10.1103    0.0000 </r>
       <r>   14.2680    0.0000 </r>
       <r>   16.9552    0.0000 </r>
       <r>   20.0118    0.0000 </r>
       <r>   23.0993    0.0000 </r>
       <r>   31.0770    0.0000 </r>
       <r>   31.3723    0.0000 </r>
       <r>   34.5563    0.0000 </r>
       <r>   36.2873    0.0000 </r>
      </set>
      <set comment="kpoint 21">
       <r>  -30.4479    1.0000 </r>
       <r>  -30.3787    1.0000 </r>
       <r>  -30.3618    1.0000 </r>
       <r>   -1.4318    1.0000 </r>
       <r>    5.7963    1.0000 </r>
       <r>    5.8447    1.0000 </r>
       <r>    6.2233    1.0000 </r>
       <r>    8.2379   -0.0000 </r>
[...]
       <r>    19.4676     0.1564     9.6966 </r>
       <r>    19.7258     0.2279     9.7555 </r>
       <r>    19.9840     0.1374     9.7910 </r>
       <r>    20.2423     0.2611     9.8584 </r>
       <r>    20.5005     0.3279     9.9431 </r>
       <r>    20.7587     0.4882    10.0691 </r>
       <r>    21.0170     0.6896    10.2472 </r>
       <r>    21.2752     0.1280    10.2803 </r>
       <r>    21.5334     0.1682    10.3237 </r>
       <r>    21.7916     0.1197    10.3546 </r>
       <r>    22.0499     0.3185    10.4369 </r>
       <r>    22.3081     0.6364    10.6012 </r>
       <r>    22.5663     0.1690    10.6449 </r>
       <r>    22.8245     0.3430    10.7334 </r>
       <r>    23.0828     0.3577    10.8258 </r>
       <r>    23.3410     0.2599    10.8929 </r>
       <r>    23.5992     0.2538    10.9585 </r>
       <r>    23.8575     0.2904    11.0335 </r>
       <r>    24.1157     0.6369    11.1979 </r>
       <r>    24.3739     0.4495    11.3140 </r>
       <r>    24.6321     0.2438    11.3769 </r>
       <r>    24.8904     0.2254    11.4352 </r>
       <r>    25.1486     0.5583    11.5793 </r>
       <r>    25.4068     0.2049    11.6322 </r>
       <r>    25.6651     0.3845    11.7315 </r>
       <r>    25.9233     0.2361    11.7925 </r>
       <r>    26.1815     0.0649    11.8092 </r>
       <r>    26.4397     0.0575    11.8241 </r>
       <r>    26.6980     0.2709    11.8941 </r>
       <r>    26.9562     0.2433    11.9569 </r>
       <r>    27.2144     0.3293    12.0419 </r>
       <r>    27.4727     0.0599    12.0574 </r>
       <r>    27.7309     0.2682    12.1266 </r>
       <r>    27.9891     0.2755    12.1978 </r>
       <r>    28.2473     0.7173    12.3830 </r>
       <r>    28.5056     0.4987    12.5118 </r>
       <r>    28.7638     0.1342    12.5464 </r>
       <r>    29.0220     0.5512    12.6888 </r>
       <r>    29.2802     0.1768    12.7344 </r>
       <r>    29.5385     0.1991    12.7858 </r>
       <r>    29.7967     0.3729    12.8821 </r>
       <r>    30.0549     0.2867    12.9561 </r>
       <r>    30.3132     0.1875    13.0046 </r>
       <r>    30.5714     0.3311    13.0900 </r>
       <r>    30.8296     0.2348    13.1507 </r>
       <r>    31.0878     0.2584    13.2174 </r>
       <r>    31.3461     0.3226    13.3007 </r>
       <r>    31.6043     0.4173    13.4085 </r>
       <r>    31.8625     0.3327    13.4944 </r>
       <r>    32.1208     0.3301    13.5796 </r>
       <r>    32.3790     0.2545    13.6453 </r>
       <r>    32.6372     0.3732    13.7417 </r>
       <r>    32.8954     0.3202    13.8244 </r>
       <r>    33.1537     0.4320    13.9359 </r>
       <r>    33.4119     0.1853    13.9838 </r>
       <r>    33.6701     0.6923    14.1626 </r>
       <r>    33.9283     0.1593    14.2037 </r>
       <r>    34.1866     0.5044    14.3340 </r>
       <r>    34.4448     0.2253    14.3921 </r>
       <r>    34.7030     0.1886    14.4408 </r>
       <r>    34.9613     0.4527    14.5577 </r>
       <r>    35.2195     0.4796    14.6816 </r>
       <r>    35.4777     0.5850    14.8326 </r>
       <r>    35.7359     0.3159    14.9142 </r>
       <r>    35.9942     0.4615    15.0334 </r>
       <r>    36.2524     0.3390    15.1209 </r>
       <r>    36.5106     0.5164    15.2543 </r>
       <r>    36.7689     0.7404    15.4455 </r>
       <r>    37.0271     0.4597    15.5642 </r>
       <r>    37.2853     0.5736    15.7123 </r>
       <r>    37.5435     0.6466    15.8793 </r>
       <r>    37.8018     0.1582    15.9201 </r>
       <r>    38.0600     0.0929    15.9441 </r>
       <r>    38.3182     0.1787    15.9902 </r>
       <r>    38.5765     0.0145    15.9940 </r>
       <r>    38.8347    -0.0004    15.9939 </r>
       <r>    39.0929     0.0242    16.0001 </r>
       <r>    39.3511    -0.0005    16.0000 </r>
       <r>    39.6094    -0.0000    16.0000 </r>
       <r>    39.8676     0.0000    16.0000 </r>
       <r>    40.1258     0.0000    16.0000 </r>
       <r>    40.3840     0.0000    16.0000 </r>
       <r>    40.6423     0.0000    16.0000 </r>
       <r>    40.9005     0.0000    16.0000 </r>
       <r>    41.1587     0.0000    16.0000 </r>
       <r>    41.4170     0.0000    16.0000 </r>
       <r>    41.6752     0.0000    16.0000 </r>
       <r>    41.9334     0.0000    16.0000 </r>
       <r>    42.1916     0.0000    16.0000 </r>
       <r>    42.4499     0.0000    16.0000 </r>
      </set>
      <set comment="spin 2">
       <r>   -35.0185     0.0000     0.0000 </r>
       <r>   -34.7603     0.0000     0.0000 </r>
       <r>   -34.5021     0.0000     0.0000 </r>
       <r>   -34.2438     0.0000     0.0000 </r>
       <r>   -33.9856     0.0000     0.0000 </r>
       <r>   -33.7274     0.0000     0.0000 </r>
       <r>   -33.4691     0.0000     0.0000 </r>
       <r>   -33.2109     0.0000     0.0000 </r>
       <r>   -32.9527     0.0000     0.0000 </r>
       <r>   -32.6945     0.0000     0.0000 </r>
       <r>   -32.4362    -0.0000    -0.0000 </r>
       <r>   -32.1780    -0.0000    -0.0000 </r>
       <r>   -31.9198    -0.0000    -0.0000 </r>
       <r>   -31.6615    -0.0032    -0.0008 </r>
       <r>   -31.4033     0.4163     0.1067 </r>
       <r>   -31.1451     2.5679     0.7698 </r>
       <r>   -30.8869     1.7880     1.2315 </r>
       <r>   -30.6286     2.7484     1.9412 </r>
       <r>   -30.3704     3.3720     2.8119 </r>
       <r>   -30.1122     0.7307     3.0006 </r>
       <r>   -29.8539    -0.0024     3.0000 </r>
       <r>   -29.5957    -0.0000     3.0000 </r>
       <r>   -29.3375     0.0000     3.0000 </r>
       <r>   -29.0793     0.0000     3.0000 </r>
       <r>   -28.8210     0.0000     3.0000 </r>
       <r>   -28.5628     0.0000     3.0000 </r>
       <r>   -28.3046     0.0000     3.0000 </r>
       <r>   -28.0464     0.0000     3.0000 </r>
       <r>   -27.7881     0.0000     3.0000 </r>
       <r>   -27.5299     0.0000     3.0000 </r>
       <r>   -27.2717     0.0000     3.0000 </r>
       <r>   -27.0134     0.0000     3.0000 </r>
       <r>   -26.7552     0.0000     3.0000 </r>
       <r>   -26.4970     0.0000     3.0000 </r>
       <r>   -26.2388     0.0000     3.0000 </r>
       <r>   -25.9805     0.0000     3.0000 </r>
       <r>   -25.7223     0.0000     3.0000 </r>
       <r>   -25.4641     0.0000     3.0000 </r>
       <r>   -25.2058     0.0000     3.0000 </r>
       <r>   -24.9476     0.0000     3.0000 </r>
       <r>   -24.6894     0.0000     3.0000 </r>
       <r>   -24.4312     0.0000     3.0000 </r>
       <r>   -24.1729     0.0000     3.0000 </r>
       <r>   -23.9147     0.0000     3.0000 </r>
       <r>   -23.6565     0.0000     3.0000 </r>
       <r>   -23.3983     0.0000     3.0000 </r>
       <r>   -23.1400     0.0000     3.0000 </r>
       <r>   -22.8818     0.0000     3.0000 </r>
       <r>   -22.6236     0.0000     3.0000 </r>
       <r>   -22.3653     0.0000     3.0000 </r>
       <r>   -22.1071     0.0000     3.0000 </r>
       <r>   -21.8489     0.0000     3.0000 </r>
       <r>   -21.5907     0.0000     3.0000 </r>
       <r>   -21.3324     0.0000     3.0000 </r>
       <r>   -21.0742     0.0000     3.0000 </r>
       <r>   -20.8160     0.0000     3.0000 </r>
       <r>   -20.5577     0.0000     3.0000 </r>
       <r>   -20.2995     0.0000     3.0000 </r>
       <r>   -20.0413     0.0000     3.0000 </r>
       <r>   -19.7831     0.0000     3.0000 </r>
       <r>   -19.5248     0.0000     3.0000 </r>
       <r>   -19.2666     0.0000     3.0000 </r>
       <r>   -19.0084     0.0000     3.0000 </r>
       <r>   -18.7501     0.0000     3.0000 </r>
       <r>   -18.4919     0.0000     3.0000 </r>
       <r>   -18.2337     0.0000     3.0000 </r>
       <r>   -17.9755     0.0000     3.0000 </r>
       <r>   -17.7172     0.0000     3.0000 </r>
       <r>   -17.4590     0.0000     3.0000 </r>
       <r>   -17.2008     0.0000     3.0000 </r>
       <r>   -16.9426     0.0000     3.0000 </r>
       <r>   -16.6843     0.0000     3.0000 </r>
       <r>   -16.4261     0.0000     3.0000 </r>
       <r>   -16.1679     0.0000     3.0000 </r>
       <r>   -15.9096     0.0000     3.0000 </r>
       <r>   -15.6514     0.0000     3.0000 </r>
       <r>   -15.3932     0.0000     3.0000 </r>
       <r>   -15.1350     0.0000     3.0000 </r>
       <r>   -14.8767     0.0000     3.0000 </r>
       <r>   -14.6185     0.0000     3.0000 </r>
       <r>   -14.3603     0.0000     3.0000 </r>
       <r>   -14.1020     0.0000     3.0000 </r>
       <r>   -13.8438     0.0000     3.0000 </r>
       <r>   -13.5856     0.0000     3.0000 </r>
       <r>   -13.3274     0.0000     3.0000 </r>
       <r>   -13.0691     0.0000     3.0000 </r>
       <r>   -12.8109     0.0000     3.0000 </r>
       <r>   -12.5527     0.0000     3.0000 </r>
       <r>   -12.2944     0.0000     3.0000 </r>
       <r>   -12.0362     0.0000     3.0000 </r>
       <r>   -11.7780     0.0000     3.0000 </r>
       <r>   -11.5198     0.0000     3.0000 </r>
       <r>   -11.2615     0.0000     3.0000 </r>
       <r>   -11.0033     0.0000     3.0000 </r>
       <r>   -10.7451     0.0000     3.0000 </r>
       <r>   -10.4869     0.0000     3.0000 </r>
       <r>   -10.2286     0.0000     3.0000 </r>
       <r>    -9.9704     0.0000     3.0000 </r>
       <r>    -9.7122     0.0000     3.0000 </r>
       <r>    -9.4539     0.0000     3.0000 </r>
       <r>    -9.1957     0.0000     3.0000 </r>
       <r>    -8.9375     0.0000     3.0000 </r>
       <r>    -8.6793     0.0000     3.0000 </r>
       <r>    -8.4210     0.0000     3.0000 </r>
       <r>    -8.1628     0.0000     3.0000 </r>
       <r>    -7.9046     0.0000     3.0000 </r>
       <r>    -7.6463     0.0000     3.0000 </r>
       <r>    -7.3881     0.0000     3.0000 </r>
       <r>    -7.1299     0.0000     3.0000 </r>
       <r>    -6.8717     0.0000     3.0000 </r>
       <r>    -6.6134     0.0000     3.0000 </r>
       <r>    -6.3552     0.0000     3.0000 </r>
       <r>    -6.0970     0.0000     3.0000 </r>
       <r>    -5.8388     0.0000     3.0000 </r>
       <r>    -5.5805     0.0000     3.0000 </r>
       <r>    -5.3223     0.0000     3.0000 </r>
       <r>    -5.0641     0.0000     3.0000 </r>
       <r>    -4.8058     0.0000     3.0000 </r>
       <r>    -4.5476     0.0000     3.0000 </r>
       <r>    -4.2894     0.0000     3.0000 </r>
       <r>    -4.0312     0.0000     3.0000 </r>
       <r>    -3.7729     0.0000     3.0000 </r>
       <r>    -3.5147     0.0000     3.0000 </r>
       <r>    -3.2565    -0.0000     3.0000 </r>
       <r>    -2.9982    -0.0000     3.0000 </r>
       <r>    -2.7400    -0.0000     3.0000 </r>
       <r>    -2.4818    -0.0000     3.0000 </r>
       <r>    -2.2236     0.0009     3.0002 </r>
       <r>    -1.9653     0.0011     3.0005 </r>
       <r>    -1.7071     0.0369     3.0100 </r>
       <r>    -1.4489     0.0052     3.0114 </r>
       <r>    -1.1906     0.0097     3.0139 </r>
       <r>    -0.9324     0.0720     3.0325 </r>
       <r>    -0.6742     0.0352     3.0416 </r>
       <r>    -0.4160     0.0355     3.0507 </r>
       <r>    -0.1577     0.0404     3.0612 </r>
       <r>     0.1005     0.0823     3.0824 </r>
       <r>     0.3587     0.0742     3.1016 </r>
       <r>     0.6169     0.0503     3.1146 </r>
       <r>     0.8752     0.1417     3.1512 </r>
       <r>     1.1334     0.1891     3.2000 </r>
       <r>     1.3916     0.3772     3.2974 </r>
       <r>     1.6499     0.1771     3.3431 </r>
       <r>     1.9081     0.3760     3.4402 </r>
       <r>     2.1663     0.5939     3.5936 </r>
       <r>     2.4245     0.2741     3.6643 </r>
       <r>     2.6828     0.6715     3.8377 </r>
       <r>     2.9410     0.6394     4.0028 </r>
       <r>     3.1992     0.0816     4.0239 </r>
       <r>     3.4575     0.2566     4.0902 </r>
       <r>     3.7157     0.3362     4.1770 </r>
       <r>     3.9739     0.9701     4.4275 </r>
       <r>     4.2321     0.8589     4.6493 </r>
       <r>     4.4904     0.7163     4.8343 </r>
       <r>     4.7486     0.3281     4.9190 </r>
       <r>     5.0068     0.5861     5.0703 </r>
       <r>     5.2650     1.1819     5.3755 </r>
       <r>     5.5233     0.6953     5.5551 </r>
       <r>     5.7815     0.4666     5.6756 </r>
       <r>     6.0397     0.3838     5.7747 </r>
       <r>     6.2980     0.1236     5.8066 </r>
       <r>     6.5562     0.2452     5.8699 </r>
       <r>     6.8144     0.0991     5.8955 </r>
       <r>     7.0726     0.3315     5.9811 </r>
       <r>     7.3309     0.3663     6.0757 </r>
       <r>     7.5891     0.3464     6.1651 </r>
       <r>     7.8473     0.2957     6.2415 </r>
       <r>     8.1056     0.2523     6.3066 </r>
       <r>     8.3638     0.3608     6.3998 </r>
       <r>     8.6220     0.5982     6.5543 </r>
       <r>     8.8802     0.5943     6.7078 </r>
       <r>     9.1385     0.6697     6.8807 </r>
       <r>     9.3967     0.6047     7.0368 </r>
       <r>     9.6549     0.5769     7.1858 </r>
       <r>     9.9132     0.6139     7.3443 </r>
       <r>    10.1714     1.2511     7.6674 </r>
       <r>    10.4296     0.6167     7.8267 </r>
       <r>    10.6878     0.8079     8.0353 </r>
       <r>    10.9461     0.4004     8.1387 </r>
       <r>    11.2043     0.2284     8.1977 </r>
       <r>    11.4625     0.2443     8.2607 </r>
       <r>    11.7207     0.1457     8.2984 </r>
       <r>    11.9790     0.1289     8.3316 </r>
       <r>    12.2372     0.0688     8.3494 </r>
       <r>    12.4954     0.1402     8.3856 </r>
       <r>    12.7537     0.5236     8.5208 </r>
       <r>    13.0119     0.2011     8.5728 </r>
       <r>    13.2701     0.1498     8.6114 </r>
       <r>    13.5283     0.1330     8.6458 </r>
       <r>    13.7866     0.0720     8.6643 </r>
       <r>    14.0448     0.0985     8.6898 </r>
       <r>    14.3030     0.1216     8.7212 </r>
       <r>    14.5613     0.0746     8.7404 </r>
       <r>    14.8195     0.1779     8.7864 </r>
       <r>    15.0777     0.2833     8.8595 </r>
       <r>    15.3359     0.1846     8.9072 </r>
       <r>    15.5942     0.1785     8.9533 </r>
       <r>    15.8524     0.0859     8.9755 </r>
       <r>    16.1106     0.1463     9.0132 </r>
       <r>    16.3688     0.0114     9.0162 </r>
       <r>    16.6271     0.1563     9.0566 </r>
       <r>    16.8853     0.4813     9.1808 </r>
       <r>    17.1435     0.4039     9.2851 </r>
       <r>    17.4018     0.1593     9.3263 </r>
       <r>    17.6600     0.0767     9.3461 </r>
       <r>    17.9182     0.1164     9.3761 </r>
       <r>    18.1764     0.1497     9.4148 </r>
       <r>    18.4347     0.0411     9.4254 </r>
       <r>    18.6929     0.3335     9.5115 </r>
       <r>    18.9511     0.2722     9.5818 </r>
       <r>    19.2094     0.2883     9.6563 </r>
       <r>    19.4676     0.1564     9.6966 </r>
       <r>    19.7258     0.2279     9.7555 </r>
       <r>    19.9840     0.1374     9.7910 </r>
       <r>    20.2423     0.2611     9.8584 </r>
       <r>    20.5005     0.3279     9.9431 </r>
       <r>    20.7587     0.4882    10.0691 </r>
       <r>    21.0170     0.6896    10.2472 </r>
       <r>    21.2752     0.1280    10.2803 </r>
       <r>    21.5334     0.1682    10.3237 </r>
       <r>    21.7916     0.1197    10.3546 </r>
       <r>    22.0499     0.3185    10.4369 </r>
       <r>    22.3081     0.6364    10.6012 </r>
       <r>    22.5663     0.1690    10.6449 </r>
       <r>    22.8245     0.3430    10.7334 </r>
       <r>    23.0828     0.3577    10.8258 </r>
       <r>    23.3410     0.2599    10.8929 </r>
       <r>    23.5992     0.2538    10.9585 </r>
       <r>    23.8575     0.2904    11.0335 </r>
       <r>    24.1157     0.6369    11.1979 </r>
       <r>    24.3739     0.4495    11.3140 </r>
       <r>    24.6321     0.2438    11.3769 </r>
       <r>    24.8904     0.2254    11.4351 </r>
       <r>    25.1486     0.5583    11.5793 </r>
       <r>    25.4068     0.2049    11.6322 </r>
       <r>    25.6651     0.3845    11.7315 </r>
       <r>    25.9233     0.2361    11.7925 </r>
       <r>    26.1815     0.0649    11.8092 </r>
       <r>    26.4397     0.0575    11.8241 </r>
       <r>    26.6980     0.2709    11.8941 </r>
       <r>    26.9562     0.2433    11.9569 </r>
       <r>    27.2144     0.3293    12.0419 </r>
       <r>    27.4727     0.0599    12.0574 </r>
       <r>    27.7309     0.2682    12.1266 </r>
       <r>    27.9891     0.2755    12.1978 </r>
       <r>    28.2473     0.7173    12.3830 </r>
       <r>    28.5056     0.4987    12.5118 </r>
       <r>    28.7638     0.1342    12.5464 </r>
       <r>    29.0220     0.5512    12.6888 </r>
       <r>    29.2802     0.1768    12.7344 </r>
       <r>    29.5385     0.1991    12.7858 </r>
       <r>    29.7967     0.3729    12.8821 </r>
       <r>    30.0549     0.2867    12.9561 </r>
       <r>    30.3132     0.1875    13.0046 </r>
       <r>    30.5714     0.3311    13.0900 </r>
       <r>    30.8296     0.2348    13.1507 </r>
       <r>    31.0878     0.2584    13.2174 </r>
       <r>    31.3461     0.3226    13.3007 </r>
       <r>    31.6043     0.4173    13.4085 </r>
       <r>    31.8625     0.3327    13.4944 </r>
       <r>    32.1208     0.3301    13.5796 </r>
       <r>    32.3790     0.2545    13.6453 </r>
       <r>    32.6372     0.3732    13.7417 </r>
       <r>    32.8954     0.3202    13.8244 </r>
       <r>    33.1537     0.4320    13.9359 </r>
       <r>    33.4119     0.1853    13.9838 </r>
       <r>    33.6701     0.6923    14.1626 </r>
       <r>    33.9283     0.1592    14.2037 </r>
       <r>    34.1866     0.5044    14.3340 </r>
       <r>    34.4448     0.2253    14.3921 </r>
       <r>    34.7030     0.1886    14.4408 </r>
       <r>    34.9613     0.4527    14.5577 </r>
       <r>    35.2195     0.4796    14.6816 </r>
       <r>    35.4777     0.5850    14.8326 </r>
       <r>    35.7359     0.3159    14.9142 </r>
       <r>    35.9942     0.4615    15.0334 </r>
       <r>    36.2524     0.3390    15.1209 </r>
       <r>    36.5106     0.5164    15.2543 </r>
       <r>    36.7689     0.7404    15.4455 </r>
       <r>    37.0271     0.4333    15.5574 </r>
       <r>    37.2853     0.5302    15.6943 </r>
       <r>    37.5435     0.6445    15.8607 </r>
       <r>    37.8018     0.1602    15.9021 </r>
       <r>    38.0600     0.0928    15.9260 </r>
       <r>    38.3182     0.2270    15.9846 </r>
       <r>    38.5765     0.0362    15.9940 </r>
       <r>    38.8347    -0.0004    15.9939 </r>
       <r>    39.0929     0.0242    16.0001 </r>
       <r>    39.3511    -0.0005    16.0000 </r>
       <r>    39.6094    -0.0000    16.0000 </r>
       <r>    39.8676     0.0000    16.0000 </r>
       <r>    40.1258     0.0000    16.0000 </r>
       <r>    40.3840     0.0000    16.0000 </r>
       <r>    40.6423     0.0000    16.0000 </r>
       <r>    40.9005     0.0000    16.0000 </r>
       <r>    41.1587     0.0000    16.0000 </r>
       <r>    41.4170     0.0000    16.0000 </r>
       <r>    41.6752     0.0000    16.0000 </r>
       <r>    41.9334     0.0000    16.0000 </r>
       <r>    42.1916     0.0000    16.0000 </r>
       <r>    42.4499     0.0000    16.0000 </r>
      </set>
     </set>
    </array>
   </total>
  </dos>
 </calculation>
 <structure name="finalpos" >
  <crystal>
   <varray name="basis" >
    <v>       2.60983019       0.00000000      -0.92012700 </v>
    <v>      -1.30491510       2.26017874      -0.92012700 </v>
    <v>       0.00000000       0.00000000       2.76038100 </v>
   </varray>
   <i name="volume">     16.28261169 </i>
   <varray name="rec_basis" >
    <v>       0.38316669       0.22122144       0.00000000 </v>
    <v>       0.00000000       0.44244288       0.00000000 </v>
    <v>       0.12772223       0.22122144       0.36226883 </v>
   </varray>
  </crystal>
  <varray name="positions" >
   <v>       0.00000000       0.00000000       0.00000000 </v>
  </varray>
 </structure>
</modeling>
