  24  24   0   0
  0.4176334E+02  0.3540400E-09  0.1044544E-08  0.2750143E-08  0.5000000E-15
  1.000000000000000E-004
  CAR 
 unknown system                          
      4.24826910    -15.49078349  301     -0.01962671      1.00000000
    -15.491  0.0000E+00  0.0000E+00
    -15.425  0.0000E+00  0.0000E+00
    -15.359  0.0000E+00  0.0000E+00
    -15.293  0.0000E+00  0.0000E+00
    -15.228  0.0000E+00  0.0000E+00
    -15.162  0.0000E+00  0.0000E+00
    -15.096  0.0000E+00  0.0000E+00
    -15.030  0.1804E-13  0.1187E-14
    -14.964  0.1687E-10  0.1111E-11
    -14.899  0.6757E-08  0.4457E-09
    -14.833  0.1171E-05  0.7752E-07
    -14.767  0.8891E-04  0.5928E-05
    -14.701  0.3009E-02  0.2039E-03
    -14.635  0.4663E-01  0.3272E-02
    -14.570  0.3430E+00  0.2584E-01
    -14.504  0.1242E+01  0.1075E+00
    -14.438  0.2279E+01  0.2575E+00
    -14.372  0.2286E+01  0.4079E+00
    -14.306  0.1859E+01  0.5302E+00
    -14.241  0.1840E+01  0.6513E+00
    -14.175  0.1307E+01  0.7373E+00
    -14.109  0.6367E+00  0.7792E+00
    -14.043  0.9202E+00  0.8398E+00
    -13.977  0.1622E+01  0.9465E+00
    -13.912  0.1370E+01  0.1037E+01
    -13.846  0.5244E+00  0.1071E+01
    -13.780  0.1684E+00  0.1082E+01
    -13.714  0.5059E+00  0.1115E+01
    -13.648  0.1402E+01  0.1208E+01
    -13.583  0.1961E+01  0.1337E+01
    -13.517  0.1891E+01  0.1461E+01
    -13.451  0.1984E+01  0.1592E+01
    -13.385  0.2099E+01  0.1730E+01
    -13.319  0.2325E+01  0.1883E+01
    -13.254  0.3059E+01  0.2084E+01
    -13.188  0.3377E+01  0.2306E+01
    -13.122  0.2553E+01  0.2474E+01
    -13.056  0.1874E+01  0.2598E+01
    -12.991  0.2581E+01  0.2767E+01
    -12.925  0.4291E+01  0.3050E+01
    -12.859  0.5455E+01  0.3409E+01
    -12.793  0.5152E+01  0.3748E+01
    -12.727  0.4195E+01  0.4024E+01
    -12.662  0.3786E+01  0.4273E+01
    -12.596  0.4631E+01  0.4577E+01
    -12.530  0.5558E+01  0.4943E+01
    -12.464  0.5807E+01  0.5325E+01
    -12.398  0.6230E+01  0.5735E+01
    -12.333  0.6820E+01  0.6184E+01
    -12.267  0.6393E+01  0.6605E+01
    -12.201  0.5095E+01  0.6940E+01
    -12.135  0.4184E+01  0.7215E+01
    -12.069  0.4650E+01  0.7521E+01
    -12.004  0.6566E+01  0.7953E+01
    -11.938  0.7715E+01  0.8461E+01
    -11.872  0.7078E+01  0.8926E+01
    -11.806  0.5974E+01  0.9319E+01
    -11.740  0.5953E+01  0.9711E+01
    -11.675  0.7843E+01  0.1023E+02
    -11.609  0.1003E+02  0.1089E+02
    -11.543  0.1051E+02  0.1158E+02
    -11.477  0.9734E+01  0.1222E+02
    -11.411  0.8581E+01  0.1278E+02
    -11.346  0.8156E+01  0.1332E+02
    -11.280  0.9871E+01  0.1397E+02
    -11.214  0.1098E+02  0.1469E+02
    -11.148  0.9087E+01  0.1529E+02
    -11.082  0.7959E+01  0.1581E+02
    -11.017  0.9705E+01  0.1645E+02
    -10.951  0.1094E+02  0.1717E+02
    -10.885  0.1012E+02  0.1784E+02
    -10.819  0.1015E+02  0.1851E+02
    -10.753  0.1045E+02  0.1919E+02
    -10.688  0.8886E+01  0.1978E+02
    -10.622  0.7777E+01  0.2029E+02
    -10.556  0.7655E+01  0.2079E+02
    -10.490  0.7191E+01  0.2127E+02
    -10.424  0.6416E+01  0.2169E+02
    -10.359  0.5181E+01  0.2203E+02
    -10.293  0.4131E+01  0.2230E+02
    -10.227  0.4030E+01  0.2257E+02
    -10.161  0.4715E+01  0.2288E+02
    -10.095  0.5501E+01  0.2324E+02
    -10.030  0.5592E+01  0.2361E+02
     -9.964  0.4002E+01  0.2387E+02
     -9.898  0.1615E+01  0.2398E+02
     -9.832  0.3256E+00  0.2400E+02
     -9.766  0.3101E-01  0.2400E+02
     -9.701  0.1352E-02  0.2400E+02
     -9.635  0.2640E-04  0.2400E+02
     -9.569  0.3383E-06  0.2400E+02
     -9.503  0.1044E-04  0.2400E+02
     -9.437  0.4378E-03  0.2400E+02
     -9.372  0.8334E-02  0.2400E+02
     -9.306  0.7341E-01  0.2401E+02
     -9.240  0.3069E+00  0.2403E+02
     -9.174  0.6461E+00  0.2407E+02
     -9.108  0.8494E+00  0.2412E+02
     -9.043  0.1231E+01  0.2421E+02
     -8.977  0.2420E+01  0.2436E+02
     -8.911  0.3869E+01  0.2462E+02
     -8.845  0.4491E+01  0.2491E+02
     -8.780  0.5161E+01  0.2525E+02
     -8.714  0.6316E+01  0.2567E+02
     -8.648  0.7300E+01  0.2615E+02
     -8.582  0.7766E+01  0.2666E+02
     -8.516  0.7204E+01  0.2713E+02
     -8.451  0.6542E+01  0.2757E+02
     -8.385  0.5963E+01  0.2796E+02
     -8.319  0.4183E+01  0.2823E+02
     -8.253  0.2436E+01  0.2839E+02
     -8.187  0.2408E+01  0.2855E+02
     -8.122  0.3542E+01  0.2878E+02
     -8.056  0.4208E+01  0.2906E+02
     -7.990  0.4011E+01  0.2933E+02
     -7.924  0.3690E+01  0.2957E+02
     -7.858  0.4115E+01  0.2984E+02
     -7.793  0.6029E+01  0.3024E+02
     -7.727  0.7286E+01  0.3071E+02
     -7.661  0.6573E+01  0.3115E+02
     -7.595  0.6289E+01  0.3156E+02
     -7.529  0.6935E+01  0.3202E+02
     -7.464  0.7167E+01  0.3249E+02
     -7.398  0.7765E+01  0.3300E+02
     -7.332  0.9057E+01  0.3360E+02
     -7.266  0.9403E+01  0.3421E+02
     -7.200  0.8248E+01  0.3476E+02
     -7.135  0.6835E+01  0.3521E+02
     -7.069  0.5771E+01  0.3559E+02
     -7.003  0.5439E+01  0.3594E+02
     -6.937  0.5794E+01  0.3633E+02
     -6.871  0.7047E+01  0.3679E+02
     -6.806  0.9324E+01  0.3740E+02
     -6.740  0.1200E+02  0.3819E+02
     -6.674  0.1467E+02  0.3916E+02
     -6.608  0.1491E+02  0.4014E+02
     -6.542  0.1269E+02  0.4097E+02
     -6.477  0.1030E+02  0.4165E+02
     -6.411  0.7276E+01  0.4213E+02
     -6.345  0.4661E+01  0.4244E+02
     -6.279  0.4041E+01  0.4270E+02
     -6.213  0.4401E+01  0.4299E+02
     -6.148  0.4303E+01  0.4328E+02
     -6.082  0.3230E+01  0.4349E+02
     -6.016  0.2364E+01  0.4364E+02
     -5.950  0.2793E+01  0.4383E+02
     -5.884  0.3874E+01  0.4408E+02
     -5.819  0.5395E+01  0.4444E+02
     -5.753  0.7059E+01  0.4490E+02
     -5.687  0.6984E+01  0.4536E+02
     -5.621  0.5284E+01  0.4571E+02
     -5.555  0.3648E+01  0.4595E+02
     -5.490  0.2378E+01  0.4611E+02
     -5.424  0.2148E+01  0.4625E+02
     -5.358  0.3641E+01  0.4649E+02
     -5.292  0.5470E+01  0.4685E+02
     -5.226  0.6804E+01  0.4729E+02
     -5.161  0.7525E+01  0.4779E+02
     -5.095  0.7137E+01  0.4826E+02
     -5.029  0.6729E+01  0.4870E+02
     -4.963  0.7029E+01  0.4916E+02
     -4.897  0.7930E+01  0.4969E+02
     -4.832  0.9492E+01  0.5031E+02
     -4.766  0.1077E+02  0.5102E+02
     -4.700  0.1085E+02  0.5173E+02
     -4.634  0.1040E+02  0.5242E+02
     -4.569  0.1077E+02  0.5313E+02
     -4.503  0.1246E+02  0.5395E+02
     -4.437  0.1400E+02  0.5487E+02
     -4.371  0.1405E+02  0.5579E+02
     -4.305  0.1380E+02  0.5670E+02
     -4.240  0.1365E+02  0.5760E+02
     -4.174  0.1261E+02  0.5843E+02
     -4.108  0.1279E+02  0.5927E+02
     -4.042  0.1482E+02  0.6024E+02
     -3.976  0.1517E+02  0.6124E+02
     -3.911  0.1296E+02  0.6209E+02
     -3.845  0.1114E+02  0.6283E+02
     -3.779  0.1076E+02  0.6354E+02
     -3.713  0.1080E+02  0.6425E+02
     -3.647  0.1111E+02  0.6498E+02
     -3.582  0.1255E+02  0.6580E+02
     -3.516  0.1435E+02  0.6675E+02
     -3.450  0.1445E+02  0.6770E+02
     -3.384  0.1396E+02  0.6862E+02
     -3.318  0.1436E+02  0.6956E+02
     -3.253  0.1481E+02  0.7054E+02
     -3.187  0.1507E+02  0.7153E+02
     -3.121  0.1595E+02  0.7258E+02
     -3.055  0.1752E+02  0.7373E+02
     -2.989  0.1837E+02  0.7494E+02
     -2.924  0.1659E+02  0.7603E+02
     -2.858  0.1302E+02  0.7689E+02
     -2.792  0.1133E+02  0.7763E+02
     -2.726  0.1320E+02  0.7850E+02
     -2.660  0.1626E+02  0.7957E+02
     -2.595  0.1742E+02  0.8072E+02
     -2.529  0.1745E+02  0.8186E+02
     -2.463  0.1758E+02  0.8302E+02
     -2.397  0.1790E+02  0.8420E+02
     -2.331  0.1744E+02  0.8535E+02
     -2.266  0.1560E+02  0.8637E+02
     -2.200  0.1458E+02  0.8733E+02
     -2.134  0.1484E+02  0.8831E+02
     -2.068  0.1459E+02  0.8927E+02
     -2.002  0.1407E+02  0.9019E+02
     -1.937  0.1504E+02  0.9118E+02
     -1.871  0.1661E+02  0.9228E+02
     -1.805  0.1648E+02  0.9336E+02
     -1.739  0.1490E+02  0.9434E+02
     -1.673  0.1262E+02  0.9517E+02
     -1.608  0.1032E+02  0.9585E+02
     -1.542  0.9988E+01  0.9651E+02
     -1.476  0.1171E+02  0.9728E+02
     -1.410  0.1296E+02  0.9813E+02
     -1.344  0.1219E+02  0.9893E+02
     -1.279  0.1052E+02  0.9963E+02
     -1.213  0.9520E+01  0.1003E+03
     -1.147  0.9804E+01  0.1009E+03
     -1.081  0.1012E+02  0.1016E+03
     -1.015  0.9099E+01  0.1022E+03
     -0.950  0.7356E+01  0.1026E+03
     -0.884  0.5580E+01  0.1030E+03
     -0.818  0.5262E+01  0.1034E+03
     -0.752  0.7523E+01  0.1039E+03
     -0.686  0.1009E+02  0.1045E+03
     -0.621  0.9080E+01  0.1051E+03
     -0.555  0.4827E+01  0.1054E+03
     -0.489  0.1640E+01  0.1055E+03
     -0.423  0.1019E+01  0.1056E+03
     -0.358  0.2142E+01  0.1057E+03
     -0.292  0.4688E+01  0.1061E+03
     -0.226  0.7698E+01  0.1066E+03
     -0.160  0.9091E+01  0.1072E+03
     -0.094  0.7539E+01  0.1077E+03
     -0.029  0.4720E+01  0.1080E+03
      0.037  0.3404E+01  0.1082E+03
      0.103  0.3749E+01  0.1084E+03
      0.169  0.4175E+01  0.1087E+03
      0.235  0.4407E+01  0.1090E+03
      0.300  0.4747E+01  0.1093E+03
      0.366  0.4490E+01  0.1096E+03
      0.432  0.4182E+01  0.1099E+03
      0.498  0.4280E+01  0.1102E+03
      0.564  0.4219E+01  0.1104E+03
      0.629  0.4034E+01  0.1107E+03
      0.695  0.3758E+01  0.1110E+03
      0.761  0.3502E+01  0.1112E+03
      0.827  0.3594E+01  0.1114E+03
      0.893  0.4205E+01  0.1117E+03
      0.958  0.4844E+01  0.1120E+03
      1.024  0.5160E+01  0.1124E+03
      1.090  0.5229E+01  0.1127E+03
      1.156  0.5124E+01  0.1130E+03
      1.222  0.5703E+01  0.1134E+03
      1.287  0.7341E+01  0.1139E+03
      1.353  0.8866E+01  0.1145E+03
      1.419  0.8910E+01  0.1151E+03
      1.485  0.8131E+01  0.1156E+03
      1.551  0.8640E+01  0.1162E+03
      1.616  0.1031E+02  0.1169E+03
      1.682  0.1196E+02  0.1176E+03
      1.748  0.1347E+02  0.1185E+03
      1.814  0.1389E+02  0.1194E+03
      1.880  0.1290E+02  0.1203E+03
      1.945  0.1120E+02  0.1210E+03
      2.011  0.1085E+02  0.1217E+03
      2.077  0.1242E+02  0.1226E+03
      2.143  0.1436E+02  0.1235E+03
      2.209  0.1612E+02  0.1246E+03
      2.274  0.1739E+02  0.1257E+03
      2.340  0.1676E+02  0.1268E+03
      2.406  0.1482E+02  0.1278E+03
      2.472  0.1371E+02  0.1287E+03
      2.538  0.1324E+02  0.1296E+03
      2.603  0.1308E+02  0.1304E+03
      2.669  0.1338E+02  0.1313E+03
      2.735  0.1306E+02  0.1322E+03
      2.801  0.1167E+02  0.1329E+03
      2.867  0.1040E+02  0.1336E+03
      2.932  0.9711E+01  0.1342E+03
      2.998  0.8810E+01  0.1348E+03
      3.064  0.7142E+01  0.1353E+03
      3.130  0.4991E+01  0.1356E+03
      3.196  0.3000E+01  0.1358E+03
      3.261  0.1658E+01  0.1359E+03
      3.327  0.7824E+00  0.1360E+03
      3.393  0.2296E+00  0.1360E+03
      3.459  0.3374E-01  0.1360E+03
      3.525  0.2291E-02  0.1360E+03
      3.590  0.6965E-04  0.1360E+03
      3.656  0.9338E-06  0.1360E+03
      3.722  0.5463E-08  0.1360E+03
      3.788  0.1385E-10  0.1360E+03
      3.853  0.1512E-13  0.1360E+03
      3.919  0.0000E+00  0.1360E+03
      3.985  0.0000E+00  0.1360E+03
      4.051  0.0000E+00  0.1360E+03
      4.117  0.0000E+00  0.1360E+03
      4.182  0.0000E+00  0.1360E+03
      4.248  0.0000E+00  0.1360E+03
