   24   24    1    1
  0.4176334E+02  0.3540400E-09  0.1044544E-08  0.2750143E-08  0.5000000E-15
  1.000000000000000E-004
  CAR 
 unknown system                          
    108     54     68
 
  0.0000000E+00  0.0000000E+00  0.0000000E+00  0.9615385E-02
    1      -14.490783
    2      -13.542491
    3      -12.804884
    4      -12.774174
    5      -12.507553
    6      -12.402119
    7      -12.089632
    8      -11.927892
    9      -11.445787
   10      -11.430784
   11      -10.994318
   12      -10.392813
   13       -8.429136
   14       -8.036382
   15       -7.828270
   16       -7.772820
   17       -6.923874
   18       -6.759637
   19       -6.495408
   20       -6.281378
   21       -5.843700
   22       -5.771000
   23       -4.985051
   24       -4.730881
   25       -4.133896
   26       -4.004379
   27       -3.786146
   28       -3.686704
   29       -3.342608
   30       -3.200888
   31       -3.056564
   32       -2.923833
   33       -2.848480
   34       -2.656964
   35       -2.533852
   36       -2.456041
   37       -2.401266
   38       -2.350785
   39       -2.311785
   40       -2.072862
   41       -1.871161
   42       -1.837272
   43       -1.733832
   44       -1.640203
   45       -1.598010
   46       -1.493651
   47       -1.433327
   48       -1.418041
   49       -1.308937
   50       -1.137400
   51       -1.098132
   52       -0.819553
   53       -0.283348
   54        0.082870
   55        0.163017
   56        0.922380
   57        1.115860
   58        1.253169
   59        1.321207
   60        1.691811
   61        1.829736
   62        1.981251
   63        2.086849
   64        2.160998
   65        2.370283
   66        2.443954
   67        2.607810
   68        2.764344
 
  0.7692308E-01 -0.1387779E-16  0.0000000E+00  0.1923077E-01
    1      -14.434111
    2      -13.481138
    3      -12.752743
    4      -12.719564
    5      -12.451879
    6      -12.347145
    7      -12.027720
    8      -11.876287
    9      -11.396407
   10      -11.381769
   11      -10.945891
   12      -10.353936
   13       -8.428504
   14       -8.072544
   15       -7.793889
   16       -7.733556
   17       -6.886471
   18       -6.726232
   19       -6.489568
   20       -6.309311
   21       -5.811879
   22       -5.743859
   23       -4.978624
   24       -4.736012
   25       -4.457073
   26       -4.068256
   27       -3.790543
   28       -3.707205
   29       -3.525587
   30       -3.320436
   31       -3.291187
   32       -3.238054
   33       -3.014382
   34       -2.942610
   35       -2.743745
   36       -2.700456
   37       -2.538424
   38       -2.476186
   39       -2.376823
   40       -2.212214
   41       -2.197173
   42       -2.060046
   43       -1.969357
   44       -1.902715
   45       -1.839963
   46       -1.741504
   47       -1.518827
   48       -1.376678
   49       -1.223054
   50       -1.113674
   51       -1.053266
   52       -0.753741
   53       -0.276963
   54       -0.170496
   55        0.506481
   56        1.123700
   57        1.463934
   58        1.588751
   59        1.761878
   60        1.976848
   61        2.115629
   62        2.195387
   63        2.252054
   64        2.305578
   65        2.528275
   66        2.608935
   67        2.767072
   68        2.910511
 
  0.1538462E+00 -0.2775558E-16  0.0000000E+00  0.1923077E-01
    1      -14.266142
    2      -13.298146
    3      -12.597023
    4      -12.558060
    5      -12.286812
    6      -12.184396
    7      -11.846512
    8      -11.727102
    9      -11.253318
   10      -11.239591
   11      -10.806924
   12      -10.246918
   13       -8.431179
   14       -8.168621
   15       -7.752492
   16       -7.660707
   17       -6.795936
   18       -6.650952
   19       -6.501978
   20       -6.446073
   21       -5.754060
   22       -5.699232
   23       -5.160926
   24       -5.012351
   25       -4.861576
   26       -4.223342
   27       -4.097480
   28       -4.045142
   29       -3.975089
   30       -3.822869
   31       -3.704237
   32       -3.577028
   33       -3.546545
   34       -3.333885
   35       -3.203858
   36       -3.036819
   37       -2.983610
   38       -2.959758
   39       -2.789957
   40       -2.593306
   41       -2.491291
   42       -2.380771
   43       -2.325519
   44       -2.152196
   45       -1.948363
   46       -1.769324
   47       -1.663090
   48       -1.443594
   49       -1.236620
   50       -1.133576
   51       -1.047201
   52       -0.827141
   53       -0.688398
   54       -0.198079
   55        0.991984
   56        1.307471
   57        1.729080
   58        1.918636
   59        2.024981
   60        2.241096
   61        2.416843
   62        2.476448
   63        2.600673
   64        2.658436
   65        2.765721
   66        2.923471
   67        3.018807
   68        3.079057
 
  0.2307692E+00 -0.4163336E-16  0.0000000E+00  0.1923077E-01
    1      -13.994067
    2      -12.997095
    3      -12.340799
    4      -12.298290
    5      -12.019321
    6      -11.921614
    7      -11.564029
    8      -11.499878
    9      -11.034891
   10      -11.022628
   11      -10.603505
   12      -10.107442
   13       -8.465789
   14       -8.359651
   15       -7.825190
   16       -7.669401
   17       -6.879201
   18       -6.713187
   19       -6.634048
   20       -6.541752
   21       -5.931653
   22       -5.740800
   23       -5.575644
   24       -5.342082
   25       -5.268133
   26       -4.813772
   27       -4.610598
   28       -4.516497
   29       -4.404030
   30       -4.253420
   31       -4.195831
   32       -4.080548
   33       -3.802006
   34       -3.730000
   35       -3.506347
   36       -3.463618
   37       -3.186977
   38       -3.119668
   39       -2.981649
   40       -2.833244
   41       -2.687803
   42       -2.522583
   43       -2.412512
   44       -2.347124
   45       -1.918172
   46       -1.858322
   47       -1.830040
   48       -1.729991
   49       -1.463171
   50       -1.253782
   51       -1.110787
   52       -1.002348
   53       -0.685395
   54       -0.196287
   55        0.668185
   56        1.058774
   57        1.468997
   58        1.845627
   59        1.937486
   60        2.052537
   61        2.221187
   62        2.333845
   63        2.378988
   64        2.484371
   65        2.675300
   66        2.882151
   67        2.899583
   68        3.038133
 
  0.3076923E+00 -0.5551115E-16  0.0000000E+00  0.1923077E-01
    1      -13.634666
    2      -12.585296
    3      -11.992636
    4      -11.963773
    5      -11.665849
    6      -11.578080
    7      -11.277786
    8      -11.189859
    9      -10.784542
   10      -10.776189
   11      -10.416924
   12      -10.011836
   13       -8.656411
   14       -8.562948
   15       -8.085934
   16       -7.816636
   17       -7.342891
   18       -6.996406
   19       -6.903890
   20       -6.631592
   21       -6.312805
   22       -6.181180
   23       -6.163456
   24       -5.962111
   25       -5.371121
   26       -5.212650
   27       -4.812252
   28       -4.729186
   29       -4.691457
   30       -4.477401
   31       -4.359390
   32       -4.308639
   33       -4.220779
   34       -3.857036
   35       -3.541173
   36       -3.398829
   37       -3.268118
   38       -3.171892
   39       -3.088402
   40       -3.041735
   41       -2.854770
   42       -2.650342
   43       -2.514913
   44       -2.370719
   45       -2.194986
   46       -2.059372
   47       -1.890215
   48       -1.866611
   49       -1.713751
   50       -1.424773
   51       -1.309259
   52       -1.083446
   53       -0.661031
   54       -0.199490
   55        0.269662
   56        0.753519
   57        0.991837
   58        1.560225
   59        1.604156
   60        1.774532
   61        1.908965
   62        2.015089
   63        2.180993
   64        2.300459
   65        2.391955
   66        2.550480
   67        2.716348
   68        2.830752
 
  0.3846154E+00 -0.8326673E-16  0.0000000E+00  0.1923077E-01
    1      -13.228968
    2      -12.076979
    3      -11.642837
    4      -11.573226
    5      -11.267417
    6      -11.219501
    7      -11.083525
    8      -10.851459
    9      -10.627294
   10      -10.564078
   11      -10.455673
   12      -10.037541
   13       -8.832489
   14       -8.634500
   15       -8.378218
   16       -7.971172
   17       -7.731095
   18       -7.460716
   19       -7.415769
   20       -7.088275
   21       -6.885985
   22       -6.763987
   23       -6.662382
   24       -6.552715
   25       -5.308424
   26       -5.214576
   27       -4.815504
   28       -4.622707
   29       -4.528844
   30       -4.398270
   31       -4.278498
   32       -4.234187
   33       -4.083698
   34       -4.070842
   35       -3.662369
   36       -3.594308
   37       -3.428830
   38       -3.272987
   39       -3.197739
   40       -3.169748
   41       -2.895607
   42       -2.777293
   43       -2.616917
   44       -2.434728
   45       -2.285205
   46       -2.244213
   47       -2.076453
   48       -2.016187
   49       -1.845395
   50       -1.614460
   51       -1.417633
   52       -1.205666
   53       -0.676219
   54       -0.275424
   55        0.087731
   56        0.470213
   57        0.583245
   58        1.315644
   59        1.408889
   60        1.665521
   61        1.718480
   62        1.774395
   63        2.054720
   64        2.216713
   65        2.245017
   66        2.308025
   67        2.379850
   68        2.632278
 
  0.4615385E+00 -0.8326673E-16  0.0000000E+00  0.1923077E-01
    1      -12.895859
    2      -11.585633
    3      -11.503099
    4      -11.151914
    5      -10.984422
    6      -10.946245
    7      -10.849789
    8      -10.809266
    9      -10.733530
   10      -10.630741
   11      -10.494405
   12      -10.159206
   13       -8.691184
   14       -8.582103
   15       -8.440134
   16       -8.121367
   17       -8.078112
   18       -7.786228
   19       -7.576224
   20       -7.557985
   21       -7.336615
   22       -7.284814
   23       -7.183944
   24       -6.792051
   25       -5.129367
   26       -4.920749
   27       -4.759590
   28       -4.517907
   29       -4.466170
   30       -4.255789
   31       -4.122385
   32       -4.053971
   33       -3.943422
   34       -3.914143
   35       -3.836412
   36       -3.753852
   37       -3.572623
   38       -3.505040
   39       -3.347672
   40       -3.259492
   41       -3.066899
   42       -2.998540
   43       -2.694781
   44       -2.599593
   45       -2.359528
   46       -2.207133
   47       -2.174202
   48       -2.082888
   49       -1.749019
   50       -1.694542
   51       -1.526388
   52       -1.275706
   53       -0.663790
   54       -0.426019
   55        0.069207
   56        0.290984
   57        0.347834
   58        1.242695
   59        1.380937
   60        1.548192
   61        1.625661
   62        1.683113
   63        1.848743
   64        2.035692
   65        2.126496
   66        2.281948
   67        2.385237
   68        2.508612
 
  0.0000000E+00  0.2500000E+00  0.0000000E+00  0.1923077E-01
    1      -14.486350
    2      -13.486971
    3      -12.978391
    4      -12.815497
    5      -12.510543
    6      -12.416307
    7      -11.899553
    8      -11.850529
    9      -11.478152
   10      -11.400485
   11      -11.002346
   12      -10.338196
   13       -8.903430
   14       -8.518559
   15       -7.410396
   16       -7.241228
   17       -6.756530
   18       -6.670915
   19       -6.592872
   20       -6.481674
   21       -5.802050
   22       -5.727852
   23       -4.740536
   24       -4.596118
   25       -4.293217
   26       -4.032275
   27       -4.010684
   28       -3.766911
   29       -3.506076
   30       -3.368155
   31       -3.129203
   32       -3.013489
   33       -2.713145
   34       -2.690111
   35       -2.533826
   36       -2.403931
   37       -2.374367
   38       -2.318473
   39       -2.238476
   40       -2.152532
   41       -1.980823
   42       -1.890140
   43       -1.829516
   44       -1.626099
   45       -1.581506
   46       -1.496598
   47       -1.429650
   48       -1.365304
   49       -1.208172
   50       -1.105280
   51       -0.985889
   52       -0.805828
   53       -0.209131
   54        0.110266
   55        0.151748
   56        0.910958
   57        1.196752
   58        1.363807
   59        1.477202
   60        1.716328
   61        1.796529
   62        1.858962
   63        2.215995
   64        2.263291
   65        2.435456
   66        2.515761
   67        2.641009
   68        2.736739
 
  0.7692308E-01  0.2500000E+00  0.0000000E+00  0.1923077E-01
    1      -14.428836
    2      -13.410052
    3      -12.959284
    4      -12.769026
    5      -12.454184
    6      -12.362442
    7      -11.828782
    8      -11.764273
    9      -11.436644
   10      -11.337816
   11      -10.957826
   12      -10.289762
   13       -8.947979
   14       -8.577166
   15       -7.357768
   16       -7.160485
   17       -6.697170
   18       -6.676187
   19       -6.528353
   20       -6.521516
   21       -5.764062
   22       -5.684504
   23       -4.751854
   24       -4.641859
   25       -4.523797
   26       -4.252836
   27       -4.074538
   28       -3.739532
   29       -3.614090
   30       -3.481531
   31       -3.386157
   32       -3.089004
   33       -3.021689
   34       -2.962247
   35       -2.712533
   36       -2.672862
   37       -2.603795
   38       -2.494393
   39       -2.361652
   40       -2.290639
   41       -2.168047
   42       -2.124721
   43       -2.015762
   44       -1.925139
   45       -1.838534
   46       -1.752766
   47       -1.511464
   48       -1.363900
   49       -1.128220
   50       -1.018681
   51       -0.936101
   52       -0.759990
   53       -0.261109
   54       -0.114407
   55        0.554002
   56        1.071794
   57        1.572598
   58        1.715073
   59        1.778611
   60        1.940244
   61        2.107677
   62        2.195126
   63        2.280175
   64        2.500869
   65        2.519947
   66        2.652268
   67        2.846096
   68        2.984948
 
  0.1538462E+00  0.2500000E+00  0.0000000E+00  0.1923077E-01
    1      -14.260440
    2      -13.213413
    3      -12.822789
    4      -12.612126
    5      -12.288095
    6      -12.199656
    7      -11.675310
    8      -11.571729
    9      -11.296995
   10      -11.182623
   11      -10.816348
   12      -10.182197
   13       -8.931508
   14       -8.642734
   15       -7.318076
   16       -7.107311
   17       -6.669099
   18       -6.651677
   19       -6.571363
   20       -6.486737
   21       -5.770651
   22       -5.648901
   23       -5.215943
   24       -4.854489
   25       -4.796574
   26       -4.389286
   27       -4.354934
   28       -4.264208
   29       -3.983560
   30       -3.883043
   31       -3.650242
   32       -3.538423
   33       -3.465436
   34       -3.366702
   35       -3.130519
   36       -2.983245
   37       -2.958652
   38       -2.813047
   39       -2.775987
   40       -2.626495
   41       -2.562084
   42       -2.390765
   43       -2.356332
   44       -2.309489
   45       -1.961130
   46       -1.887315
   47       -1.560159
   48       -1.481210
   49       -1.210666
   50       -1.138531
   51       -0.968927
   52       -0.769673
   53       -0.612850
   54       -0.148336
   55        0.866527
   56        1.274442
   57        1.614403
   58        1.733674
   59        2.079879
   60        2.123202
   61        2.305276
   62        2.382153
   63        2.711631
   64        2.750379
   65        2.855693
   66        2.964703
   67        3.039361
   68        3.105943
 
  0.2307692E+00  0.2500000E+00  0.0000000E+00  0.1923077E-01
    1      -13.988497
    2      -12.901919
    3      -12.571438
    4      -12.352444
    5      -12.020018
    6      -11.936465
    7      -11.455401
    8      -11.297801
    9      -11.074908
   10      -10.955483
   11      -10.598784
   12      -10.061937
   13       -8.867855
   14       -8.773343
   15       -7.399239
   16       -7.269963
   17       -6.851876
   18       -6.697243
   19       -6.653348
   20       -6.527668
   21       -6.100754
   22       -5.824842
   23       -5.614522
   24       -5.212668
   25       -5.105575
   26       -5.030701
   27       -4.665694
   28       -4.577750
   29       -4.495854
   30       -4.420314
   31       -4.053623
   32       -3.985864
   33       -3.839055
   34       -3.732354
   35       -3.378336
   36       -3.227421
   37       -3.162863
   38       -3.095176
   39       -2.945693
   40       -2.699490
   41       -2.640808
   42       -2.538736
   43       -2.484932
   44       -2.402171
   45       -1.996640
   46       -1.975821
   47       -1.878251
   48       -1.771987
   49       -1.423408
   50       -1.379592
   51       -1.076316
   52       -0.909245
   53       -0.664680
   54       -0.178533
   55        0.459412
   56        0.871390
   57        1.246105
   58        1.458157
   59        1.590162
   60        1.858826
   61        2.178532
   62        2.296260
   63        2.577506
   64        2.690056
   65        2.829250
   66        2.975777
   67        3.064211
   68        3.248269
 
  0.3076923E+00  0.2500000E+00  0.0000000E+00  0.1923077E-01
    1      -13.629869
    2      -12.485127
    3      -12.212416
    4      -12.011541
    5      -11.667835
    6      -11.593595
    7      -11.222908
    8      -10.986192
    9      -10.810682
   10      -10.703121
   11      -10.392923
   12      -10.014492
   13       -8.972842
   14       -8.761399
   15       -7.713914
   16       -7.679237
   17       -7.187348
   18       -7.114489
   19       -6.961482
   20       -6.694801
   21       -6.503706
   22       -6.229917
   23       -6.191802
   24       -5.917684
   25       -5.384341
   26       -5.202796
   27       -4.938006
   28       -4.708461
   29       -4.601214
   30       -4.463926
   31       -4.397288
   32       -4.300208
   33       -4.015725
   34       -3.933714
   35       -3.347196
   36       -3.299441
   37       -3.135085
   38       -3.001965
   39       -2.988919
   40       -2.929294
   41       -2.870632
   42       -2.647779
   43       -2.514151
   44       -2.420223
   45       -2.292764
   46       -2.255839
   47       -1.957930
   48       -1.884663
   49       -1.747199
   50       -1.507270
   51       -1.318562
   52       -1.157836
   53       -0.720758
   54       -0.220365
   55        0.194839
   56        0.492839
   57        0.767322
   58        1.217821
   59        1.274879
   60        1.392797
   61        1.878602
   62        2.165517
   63        2.283890
   64        2.450582
   65        2.582177
   66        2.661356
   67        2.872254
   68        2.964336
 
  0.3846154E+00  0.2500000E+00  0.0000000E+00  0.1923077E-01
    1      -13.225764
    2      -11.981687
    3      -11.762427
    4      -11.669164
    5      -11.280434
    6      -11.230165
    7      -11.051286
    8      -10.729987
    9      -10.598647
   10      -10.511483
   11      -10.468773
   12      -10.063815
   13       -8.962624
   14       -8.636991
   15       -8.113711
   16       -7.968980
   17       -7.782301
   18       -7.567521
   19       -7.357877
   20       -7.209183
   21       -7.025562
   22       -6.695638
   23       -6.663914
   24       -6.612343
   25       -5.347985
   26       -5.193384
   27       -4.791995
   28       -4.781793
   29       -4.518497
   30       -4.442853
   31       -4.281863
   32       -4.115443
   33       -3.931755
   34       -3.862617
   35       -3.575880
   36       -3.357637
   37       -3.285980
   38       -3.263835
   39       -3.133632
   40       -3.113329
   41       -2.955626
   42       -2.844407
   43       -2.700291
   44       -2.522555
   45       -2.316850
   46       -2.269374
   47       -2.097520
   48       -2.057166
   49       -1.858799
   50       -1.691922
   51       -1.478648
   52       -1.348606
   53       -0.738381
   54       -0.291156
   55        0.130966
   56        0.309029
   57        0.446608
   58        1.008431
   59        1.191279
   60        1.354712
   61        1.698855
   62        1.823533
   63        2.032119
   64        2.146842
   65        2.280482
   66        2.606269
   67        2.627395
   68        2.740075
 
  0.4615385E+00  0.2500000E+00  0.0000000E+00  0.1923077E-01
    1      -12.894774
    2      -11.586254
    3      -11.432170
    4      -11.267901
    5      -11.000257
    6      -10.958181
    7      -10.870285
    8      -10.810322
    9      -10.705056
   10      -10.576698
   11      -10.480124
   12      -10.155835
   13       -8.581131
   14       -8.556442
   15       -8.401145
   16       -8.329854
   17       -7.995284
   18       -7.827097
   19       -7.568730
   20       -7.515358
   21       -7.452148
   22       -7.312998
   23       -7.144477
   24       -6.826734
   25       -5.106329
   26       -5.023426
   27       -4.703821
   28       -4.473294
   29       -4.338195
   30       -4.219449
   31       -4.162456
   32       -4.101481
   33       -3.999102
   34       -3.931577
   35       -3.825094
   36       -3.667682
   37       -3.522359
   38       -3.480382
   39       -3.271088
   40       -3.258672
   41       -3.023534
   42       -2.981045
   43       -2.654573
   44       -2.609494
   45       -2.534788
   46       -2.197127
   47       -2.143539
   48       -2.106733
   49       -1.775830
   50       -1.703009
   51       -1.563665
   52       -1.422592
   53       -0.664548
   54       -0.357006
   55        0.005923
   56        0.285884
   57        0.413694
   58        0.934555
   59        1.410395
   60        1.507885
   61        1.560706
   62        1.725733
   63        1.812998
   64        2.089066
   65        2.133128
   66        2.405624
   67        2.454654
   68        2.495052
 
 -0.4615385E+00  0.2500000E+00  0.0000000E+00  0.1923077E-01
    1      -12.896380
    2      -11.586620
    3      -11.536562
    4      -11.076268
    5      -10.975129
    6      -10.934436
    7      -10.813245
    8      -10.808137
    9      -10.758249
   10      -10.697779
   11      -10.504059
   12      -10.161702
   13       -8.759645
   14       -8.592996
   15       -8.434270
   16       -8.143320
   17       -7.945388
   18       -7.775377
   19       -7.603738
   20       -7.540265
   21       -7.316407
   22       -7.282440
   23       -7.220608
   24       -6.810471
   25       -4.980768
   26       -4.788506
   27       -4.739402
   28       -4.582272
   29       -4.560873
   30       -4.364260
   31       -4.194794
   32       -4.006337
   33       -4.000615
   34       -3.894698
   35       -3.857798
   36       -3.691278
   37       -3.631010
   38       -3.559502
   39       -3.439788
   40       -3.355321
   41       -3.073814
   42       -2.807988
   43       -2.687077
   44       -2.591335
   45       -2.385009
   46       -2.171452
   47       -2.142214
   48       -2.103069
   49       -1.750026
   50       -1.685850
   51       -1.500502
   52       -1.299024
   53       -0.660129
   54       -0.302992
   55       -0.052921
   56        0.262108
   57        0.682610
   58        1.027196
   59        1.353308
   60        1.642033
   61        1.718630
   62        1.775621
   63        1.872928
   64        2.056505
   65        2.210426
   66        2.295166
   67        2.355151
   68        2.510506
 
 -0.3846154E+00  0.2500000E+00  0.0000000E+00  0.1923077E-01
    1      -13.230087
    2      -12.103577
    3      -11.636105
    4      -11.489171
    5      -11.262313
    6      -11.210215
    7      -11.092291
    8      -10.930000
    9      -10.630830
   10      -10.580221
   11      -10.451056
   12      -10.034933
   13       -8.744851
   14       -8.663835
   15       -8.491636
   16       -7.926252
   17       -7.732414
   18       -7.440957
   19       -7.330907
   20       -7.134833
   21       -6.848907
   22       -6.814160
   23       -6.665357
   24       -6.522747
   25       -5.266292
   26       -5.061643
   27       -4.880407
   28       -4.811108
   29       -4.408217
   30       -4.398796
   31       -4.282273
   32       -4.254550
   33       -4.090034
   34       -4.040748
   35       -3.728566
   36       -3.634322
   37       -3.504091
   38       -3.407362
   39       -3.263878
   40       -3.186719
   41       -2.908550
   42       -2.739052
   43       -2.601790
   44       -2.455538
   45       -2.244590
   46       -2.231264
   47       -2.058136
   48       -1.941122
   49       -1.824053
   50       -1.596417
   51       -1.397327
   52       -1.141316
   53       -0.651020
   54       -0.192352
   55        0.004849
   56        0.400965
   57        0.936958
   58        1.344608
   59        1.379231
   60        1.708062
   61        1.817696
   62        1.879185
   63        1.971691
   64        2.126857
   65        2.249975
   66        2.292233
   67        2.439452
   68        2.604315
 
 -0.3076923E+00  0.2500000E+00  0.0000000E+00  0.1923077E-01
    1      -13.635295
    2      -12.597617
    3      -11.958942
    4      -11.950519
    5      -11.664935
    6      -11.575542
    7      -11.286963
    8      -11.231159
    9      -10.788657
   10      -10.772141
   11      -10.423103
   12      -10.012069
   13       -8.584886
   14       -8.555717
   15       -8.188405
   16       -7.746697
   17       -7.345265
   18       -7.001245
   19       -6.876243
   20       -6.703983
   21       -6.319115
   22       -6.167025
   23       -6.139519
   24       -5.970320
   25       -5.351293
   26       -5.151042
   27       -4.894269
   28       -4.740502
   29       -4.641149
   30       -4.489703
   31       -4.324941
   32       -4.301080
   33       -4.240215
   34       -3.859448
   35       -3.580080
   36       -3.459333
   37       -3.305871
   38       -3.199205
   39       -3.089429
   40       -3.054983
   41       -2.828509
   42       -2.669115
   43       -2.502307
   44       -2.378737
   45       -2.160063
   46       -2.023801
   47       -1.872772
   48       -1.864433
   49       -1.706979
   50       -1.411067
   51       -1.310371
   52       -1.088440
   53       -0.677327
   54       -0.164392
   55        0.282788
   56        0.733597
   57        1.100365
   58        1.621490
   59        1.724219
   60        1.857932
   61        1.928906
   62        2.000722
   63        2.203977
   64        2.282619
   65        2.344467
   66        2.421028
   67        2.694992
   68        2.749319
 
 -0.2307692E+00  0.2500000E+00  0.0000000E+00  0.1923077E-01
    1      -13.993585
    2      -12.992847
    3      -12.355402
    4      -12.303468
    5      -12.020230
    6      -11.924741
    7      -11.548054
    8      -11.488337
    9      -11.033461
   10      -11.023446
   11      -10.602036
   12      -10.100773
   13       -8.552125
   14       -8.400670
   15       -7.784131
   16       -7.552328
   17       -6.852425
   18       -6.714444
   19       -6.637857
   20       -6.557527
   21       -6.052142
   22       -5.742674
   23       -5.512210
   24       -5.337222
   25       -5.259779
   26       -4.834885
   27       -4.604485
   28       -4.520900
   29       -4.395985
   30       -4.258742
   31       -4.192576
   32       -4.112038
   33       -3.804987
   34       -3.684376
   35       -3.532330
   36       -3.449102
   37       -3.233068
   38       -3.085744
   39       -2.973707
   40       -2.757892
   41       -2.697407
   42       -2.523424
   43       -2.419048
   44       -2.368487
   45       -1.913659
   46       -1.855014
   47       -1.828928
   48       -1.743567
   49       -1.458325
   50       -1.280061
   51       -1.103617
   52       -1.005204
   53       -0.698685
   54       -0.167455
   55        0.606543
   56        1.130208
   57        1.324098
   58        1.802008
   59        1.990174
   60        2.111013
   61        2.214477
   62        2.247499
   63        2.361128
   64        2.619282
   65        2.685838
   66        2.881190
   67        2.939277
   68        2.992307
 
 -0.1538462E+00  0.2500000E+00  0.0000000E+00  0.1923077E-01
    1      -14.264280
    2      -13.276606
    3      -12.670460
    4      -12.576099
    5      -12.289003
    6      -12.192295
    7      -11.762906
    8      -11.693862
    9      -11.262310
   10      -11.233268
   11      -10.804606
   12      -10.223759
   13       -8.657832
   14       -8.381001
   15       -7.544977
   16       -7.399713
   17       -6.740200
   18       -6.618799
   19       -6.554824
   20       -6.484672
   21       -5.828689
   22       -5.688540
   23       -5.122315
   24       -4.959081
   25       -4.837568
   26       -4.292854
   27       -4.177488
   28       -4.127404
   29       -3.952965
   30       -3.840093
   31       -3.707043
   32       -3.574036
   33       -3.520207
   34       -3.374786
   35       -3.192101
   36       -3.040682
   37       -2.952527
   38       -2.899661
   39       -2.778059
   40       -2.565746
   41       -2.501508
   42       -2.431494
   43       -2.300059
   44       -2.179171
   45       -1.941052
   46       -1.780816
   47       -1.617573
   48       -1.497047
   49       -1.249528
   50       -1.169629
   51       -0.986344
   52       -0.801638
   53       -0.678655
   54       -0.150455
   55        0.851481
   56        1.344068
   57        1.709260
   58        1.786354
   59        2.003502
   60        2.186152
   61        2.441801
   62        2.572294
   63        2.669166
   64        2.751508
   65        2.793811
   66        2.899358
   67        2.982465
   68        3.108653
 
 -0.7692308E-01  0.2500000E+00  0.0000000E+00  0.1923077E-01
    1      -14.430881
    2      -13.442331
    3      -12.880839
    4      -12.750091
    5      -12.454833