 running on    8 total cores
 distrk:  each k-point on    8 cores,    1 groups
 distr:  one band on    2 cores,    4 groups
 using from now: INCAR     
 vasp.5.3.5 31Mar14 (build Oct 29 2014 16:16:03) complex                        
  
 POSCAR found type information on POSCAR  P  Si
 POSCAR found :  2 types and      24 ions
 scaLAPACK will be used

 ----------------------------------------------------------------------------- 
|                                                                             |
|  ADVICE TO THIS USER RUNNING 'VASP/VAMP'   (HEAR YOUR MASTER'S VOICE ...):  |
|                                                                             |
|      You have switched on vdW-DFT.                                          |
|      This routine was written and supplied by Jiri Klimes.                  |
|      We recommed that you carefully read and cite the following             |
|      publication                                                            |
|      J. Klimes, D.R. Bowler, A. Michelides                                  |
|        J. Phys.: Cond Matt. 22 022201 (2010)                                |
|      J. Klimes, D.R. Bowler, A. Michelides                                  |
|        Phys. Rev. B. 83, 195131 (2011)                                      |
|      and references therein.                                                |
|                                                                             |
 ----------------------------------------------------------------------------- 


 ----------------------------------------------------------------------------- 
|                                                                             |
|  ADVICE TO THIS USER RUNNING 'VASP/VAMP'   (HEAR YOUR MASTER'S VOICE ...):  |
|                                                                             |
|      You enforced a specific xc-type in the INCAR file,                     |
|      a different type was found on the POTCAR file                          |
|          I HOPE YOU KNOW, WHAT YOU ARE  DOING                               |
|                                                                             |
 ----------------------------------------------------------------------------- 

 LDA part: xc-table for Pade appr. of Perdew


 VERY BAD NEWS! internal error in subroutine IBZKPT:
 Reciprocal lattice and k-lattice belong to different class of lattices. Often results are still useful...      96


 VERY BAD NEWS! internal error in subroutine IBZKPT:
 Reciprocal lattice and k-lattice belong to different class of lattices. Often results are still useful...      96


 VERY BAD NEWS! internal error in subroutine IBZKPT:
 Reciprocal lattice and k-lattice belong to different class of lattices. Often results are still useful...      96


 VERY BAD NEWS! internal error in subroutine IBZKPT:
 Reciprocal lattice and k-lattice belong to different class of lattices. Often results are still useful...      96


 VERY BAD NEWS! internal error in subroutine IBZKPT:
 Reciprocal lattice and k-lattice belong to different class of lattices. Often results are still useful...      96


 VERY BAD NEWS! internal error in subroutine IBZKPT:
 Reciprocal lattice and k-lattice belong to different class of lattices. Often results are still useful...      96


 VERY BAD NEWS! internal error in subroutine IBZKPT:
 Reciprocal lattice and k-lattice belong to different class of lattices. Often results are still useful...      96


 VERY BAD NEWS! internal error in subroutine IBZKPT:
 Reciprocal lattice and k-lattice belong to different class of lattices. Often results are still useful...      96
 POSCAR, INCAR and KPOINTS ok, starting setup
 WARNING: small aliasing (wrap around) errors must be expected
 FFT: planning ...
 WAVECAR not read
 entering main loop
       N       E                     dE             d eps       ncg     rms          rms(c)
Total vdW correction in eV:     15.9067936
DAV:   1     0.484646575912E+03    0.48465E+03   -0.28611E+04  7360   0.790E+02
DAV:   2    -0.704448319226E+02   -0.55509E+03   -0.54035E+03  9784   0.188E+02
DAV:   3    -0.125630548275E+03   -0.55186E+02   -0.54421E+02  8816   0.615E+01
DAV:   4    -0.128119244675E+03   -0.24887E+01   -0.24745E+01 10920   0.139E+01
DAV:   5    -0.128179245199E+03   -0.60001E-01   -0.59936E-01 10096   0.213E+00    0.998E+00
Total vdW correction in eV:     16.3546458
DAV:   6    -0.126340669586E+03    0.18386E+01   -0.34946E+00  8768   0.470E+00    0.560E+00
Total vdW correction in eV:     16.9094562
DAV:   7    -0.126066171185E+03    0.27450E+00   -0.27829E+00  8768   0.436E+00    0.152E+00
Total vdW correction in eV:     17.0289054
DAV:   8    -0.126053015591E+03    0.13156E-01   -0.38378E-01  9056   0.193E+00    0.678E-01
Total vdW correction in eV:     17.0858754
DAV:   9    -0.126032256012E+03    0.20760E-01   -0.76302E-02  8984   0.830E-01    0.233E-01
Total vdW correction in eV:     17.1123270
DAV:  10    -0.126020533550E+03    0.11722E-01   -0.11106E-02  9128   0.330E-01    0.968E-02
Total vdW correction in eV:     17.1205526
DAV:  11    -0.126014305403E+03    0.62281E-02   -0.23916E-03  9096   0.157E-01    0.443E-02
Total vdW correction in eV:     17.1259993
DAV:  12    -0.126010905802E+03    0.33996E-02   -0.56431E-04  8832   0.760E-02    0.209E-02
Total vdW correction in eV:     17.1303214
DAV:  13    -0.126009306910E+03    0.15989E-02   -0.14542E-04  9616   0.332E-02    0.121E-02
Total vdW correction in eV:     17.1341548
DAV:  14    -0.126008537667E+03    0.76924E-03   -0.61186E-05  8736   0.211E-02    0.712E-03
Total vdW correction in eV:     17.1363965
DAV:  15    -0.126008566740E+03   -0.29073E-04   -0.39167E-05  8216   0.151E-02    0.485E-03
Total vdW correction in eV:     17.1375285
DAV:  16    -0.126009215605E+03   -0.64886E-03   -0.20638E-04  8240   0.254E-02    0.237E-03
Total vdW correction in eV:     17.1375186
DAV:  17    -0.126009310963E+03   -0.95358E-04   -0.49274E-05  7624   0.122E-02    0.155E-03
Total vdW correction in eV:     17.1372202
DAV:  18    -0.126009348094E+03   -0.37131E-04   -0.26067E-05  6520   0.115E-02    0.105E-03
Total vdW correction in eV:     17.1370736
DAV:  19    -0.126009374448E+03   -0.26354E-04   -0.49141E-06  6192   0.643E-03    0.700E-04
Total vdW correction in eV:     17.1369428
DAV:  20    -0.126009338974E+03    0.35474E-04   -0.26627E-05  6920   0.948E-03    0.478E-04
Total vdW correction in eV:     17.1368601
DAV:  21    -0.126009309895E+03    0.29078E-04   -0.16520E-05  6256   0.106E-02    0.256E-04
Total vdW correction in eV:     17.1368462
DAV:  22    -0.126009249461E+03    0.60434E-04   -0.10329E-05  6712   0.792E-03    0.135E-04
Total vdW correction in eV:     17.1368427
DAV:  23    -0.126009248543E+03    0.91782E-06   -0.80991E-06  6120   0.790E-03
Total vdW correction in eV:     17.1368405
Total vdW correction in eV:     17.1368412
   1 F= -.12600925E+03 E0= -.12600041E+03  d E =-.176708E-01
