 vasp.5.3.5 31Mar14 (build Oct 29 2014 16:16:03) complex                        
  
 executed on          Linux-UFHPC date 2016.02.09  17:25:17
 running on    8 total cores
 distrk:  each k-point on    8 cores,    1 groups
 distr:  one band on NCORES_PER_BAND=   2 cores,    4 groups


--------------------------------------------------------------------------------------------------------


 INCAR:
 POTCAR:    PAW_PBE P 17Jan2003                   
 POTCAR:   PAW_PBE Si 05Jan2001                   

 ----------------------------------------------------------------------------- 
|                                                                             |
|  ADVICE TO THIS USER RUNNING 'VASP/VAMP'   (HEAR YOUR MASTER'S VOICE ...):  |
|                                                                             |
|      You have switched on vdW-DFT.                                          |
|      This routine was written and supplied by Jiri Klimes.                  |
|      We recommed that you carefully read and cite the following             |
|      publication                                                            |
|      J. Klimes, D.R. Bowler, A. Michelides                                  |
|        J. Phys.: Cond Matt. 22 022201 (2010)                                |
|      J. Klimes, D.R. Bowler, A. Michelides                                  |
|        Phys. Rev. B. 83, 195131 (2011)                                      |
|      and references therein.                                                |
|                                                                             |
 ----------------------------------------------------------------------------- 

 POTCAR:    PAW_PBE P 17Jan2003                   
   VRHFIN =P : s2p3                                                             
   LEXCH  = PE                                                                  
   EATOM  =   176.0430 eV,   12.9388 Ry                                         
                                                                                
   TITEL  = PAW_PBE P 17Jan2003                                                 
   LULTRA =        F    use ultrasoft PP ?                                      
   IUNSCR =        1    unscreen: 0-lin 1-nonlin 2-no                           
   RPACOR =    1.500    partial core radius                                     
   POMASS =   30.974; ZVAL   =    5.000    mass and valenz                      
   RCORE  =    1.900    outmost cutoff radius                                   
   RWIGS  =    2.330; RWIGS  =    1.233    wigner-seitz radius (au A)           
   ENMAX  =  270.000; ENMIN  =  191.280 eV                                      
   ICORE  =        2    local potential                                         
   LCOR   =        T    correct aug charges                                     
   LPAW   =        T    paw PP                                                  
   EAUG   =  342.924                                                            
   DEXC   =    -.002                                                            
   RMAX   =    2.887    core radius for proj-oper                               
   RAUG   =    1.300    factor for augmentation sphere                          
   RDEP   =    1.931    radius for radial grids                                 
   QCUT   =   -4.330; QGAM   =    8.659    optimization parameters              
                                                                                
   Description                                                                  
     l     E      TYP  RCUT    TYP  RCUT                                        
     0   .000     23  1.900                                                     
     0   .000     23  1.900                                                     
     1   .000     23  1.900                                                     
     1   .000     23  1.900                                                     
     2   .000     23  1.900                                                     
  local pseudopotential read in
  partial core-charges read in
  atomic valenz-charges read in
  non local Contribution for L=           0  read in
    real space projection operators read in
  non local Contribution for L=           0  read in
    real space projection operators read in
  non local Contribution for L=           1  read in
    real space projection operators read in
  non local Contribution for L=           1  read in
    real space projection operators read in
    PAW grid and wavefunctions read in
 
   number of l-projection  operators is LMAX  =           4
   number of lm-projection operators is LMMAX =           8
 
 POTCAR:   PAW_PBE Si 05Jan2001                   
   VRHFIN =Si: s2p2                                                             
   LEXCH  = PE                                                                  
   EATOM  =   103.0669 eV,    7.5752 Ry                                         
                                                                                
   TITEL  = PAW_PBE Si 05Jan2001                                                
   LULTRA =        F    use ultrasoft PP ?                                      
   IUNSCR =        1    unscreen: 0-lin 1-nonlin 2-no                           
   RPACOR =    1.500    partial core radius                                     
   POMASS =   28.085; ZVAL   =    4.000    mass and valenz                      
   RCORE  =    1.900    outmost cutoff radius                                   
   RWIGS  =    2.480; RWIGS  =    1.312    wigner-seitz radius (au A)           
   ENMAX  =  245.345; ENMIN  =  184.009 eV                                      
   ICORE  =        2    local potential                                         
   LCOR   =        T    correct aug charges                                     
   LPAW   =        T    paw PP                                                  
   EAUG   =  322.069                                                            
   DEXC   =    -.007                                                            
   RMAX   =    2.944    core radius for proj-oper                               
   RAUG   =    1.300    factor for augmentation sphere                          
   RDEP   =    1.993    radius for radial grids                                 
   QCUT   =   -4.246; QGAM   =    8.493    optimization parameters              
                                                                                
   Description                                                                  
     l     E      TYP  RCUT    TYP  RCUT                                        
     0   .000     23  1.900                                                     
     0   .000     23  1.900                                                     
     1   .000     23  1.900                                                     
     1   .000     23  1.900                                                     
     2   .000      7  1.900                                                     
  local pseudopotential read in
  partial core-charges read in
  atomic valenz-charges read in
  non local Contribution for L=           0  read in
    real space projection operators read in
  non local Contribution for L=           0  read in
    real space projection operators read in
  non local Contribution for L=           1  read in
    real space projection operators read in
  non local Contribution for L=           1  read in
    real space projection operators read in
    PAW grid and wavefunctions read in
 
   number of l-projection  operators is LMAX  =           4
   number of lm-projection operators is LMMAX =           8
 
 Optimization of the real space projectors (new method)

 maximal supplied QI-value         = 19.84
 optimisation between [QCUT,QGAM] = [  8.73, 17.66] = [ 21.34, 87.33] Ry 
 Optimized for a Real-space Cutoff    1.50 Angstroem

   l    n(q)    QCUT    max X(q) W(low)/X(q) W(high)/X(q)  e(spline) 
   0      8     8.731     6.651    0.16E-04    0.15E-04    0.77E-08
   0      8     8.731    90.285    0.16E-03    0.90E-04    0.16E-06
   1      7     8.731     4.328    0.47E-04    0.36E-04    0.45E-07
   1      7     8.731    54.583    0.13E-03    0.39E-03    0.20E-06
 Optimization of the real space projectors (new method)

 maximal supplied QI-value         = 19.84
 optimisation between [QCUT,QGAM] = [  8.73, 17.66] = [ 21.34, 87.33] Ry 
 Optimized for a Real-space Cutoff    1.46 Angstroem

   l    n(q)    QCUT    max X(q) W(low)/X(q) W(high)/X(q)  e(spline) 
   0      8     8.731     8.708    0.16E-04    0.11E-04    0.68E-08
   0      8     8.731   106.241    0.24E-03    0.77E-04    0.13E-06
   1      7     8.731     5.901    0.34E-04    0.38E-04    0.36E-07
   1      7     8.731    73.241    0.12E-03    0.39E-03    0.15E-06

 ----------------------------------------------------------------------------- 
|                                                                             |
|  ADVICE TO THIS USER RUNNING 'VASP/VAMP'   (HEAR YOUR MASTER'S VOICE ...):  |
|                                                                             |
|      You enforced a specific xc-type in the INCAR file,                     |
|      a different type was found on the POTCAR file                          |
|          I HOPE YOU KNOW, WHAT YOU ARE  DOING                               |
|                                                                             |
 ----------------------------------------------------------------------------- 

  PAW_PBE P 17Jan2003                   :
 energy of atom  1       EATOM= -176.0430
 kinetic energy error for atom=    0.0040 (will be added to EATOM!!)
 PAW_PBE Si 05Jan2001                   :
 energy of atom  2       EATOM= -103.0669
 kinetic energy error for atom=    0.0021 (will be added to EATOM!!)
 
 
 POSCAR: Si12                                    
  positions in direct lattice
  No initial velocities read in
 exchange correlation table for  LEXCH =       42
   RHO(1)=    0.500       N(1)  =     2000
   RHO(2)=  100.500       N(2)  =     4000
 


--------------------------------------------------------------------------------------------------------


 ion  position               nearest neighbor table
   1  0.114  0.228  0.233-  15 2.28  21 2.29  21 2.29
   2  0.214  0.328  0.515-  16 2.28  22 2.29  22 2.29
   3  0.458  0.916  0.209-  21 2.28  13 2.30  13 2.30
   4  0.558  0.016  0.491-  22 2.28  14 2.30  14 2.30  20 3.03
   5  0.311  0.622  0.084-  17 2.28  23 2.30  23 2.30
   6  0.311  0.622  0.366-  18 2.28  24 2.56  24 2.79  16 3.03
   7  0.999  0.998  0.086-  19 2.29  19 2.29  13 2.32
   8  0.999  0.998  0.368-  14 1.98  20 2.29  20 2.29  24 2.83
   9  0.655  0.310  0.060-  19 2.28  17 2.29  17 2.29
  10  0.655  0.310  0.342-  20 2.28  18 2.29  18 2.29
  11  0.770  0.539  0.207-  15 2.29  15 2.29  23 2.32
  12  0.870  0.639  0.489-  16 2.29  16 2.29  24 2.32
  13  0.940  0.879  0.158-   3 2.30   3 2.30   7 2.32  23 2.35
  14  0.040  0.979  0.440-   8 1.98   4 2.30   4 2.30  24 2.35  20 2.60  20 2.83
  15  0.205  0.410  0.186-   1 2.28  11 2.29  11 2.29  17 2.37
  16  0.305  0.510  0.468-   2 2.28  12 2.29  12 2.29  18 2.62   6 3.03
  17  0.202  0.404  0.100-   5 2.28   9 2.29   9 2.29  15 2.37
  18  0.202  0.404  0.382-   6 2.28  10 2.29  10 2.29  16 2.62
  19  0.564  0.128  0.108-   9 2.28   7 2.29   7 2.29  21 2.37
  20  0.564  0.128  0.390-  10 2.28   8 2.29   8 2.29  14 2.60  22 2.62  14 2.83   4 3.03
  21  0.567  0.134  0.194-   3 2.28   1 2.29   1 2.29  19 2.37
  22  0.667  0.234  0.476-   4 2.28   2 2.29   2 2.29  20 2.62
  23  0.829  0.658  0.136-   5 2.30   5 2.30  11 2.32  13 2.35
  24  0.929  0.758  0.418-  12 2.32  14 2.35   6 2.56   6 2.79   8 2.83
 
  LATTYP: Found a base centered orthorhombic cell.
 ALAT       =     3.5404000000
 B/A-ratio  =     5.8153587165
 C/A-ratio  =     7.7678875268
  
  Lattice vectors:
  
 A1 = (   1.7702000000,  10.2943480000,   0.0000000000)
 A2 = (   1.7702000000, -10.2943480000,   0.0000000000)
 A3 = (   0.0000000000,   0.0000000000, -27.5014290000)


Analysis of symmetry for initial positions (statically):
=====================================================================
 Subroutine PRICEL returns:
 Original cell was already a primitive cell.
 

 Routine SETGRP: Setting up the symmetry group for a 
 base centered orthorhombic supercell.


 Subroutine GETGRP returns: Found  1 space group operations
 (whereof  1 operations were pure point group operations)
 out of a pool of  8 trial point group operations.


The static configuration has the point symmetry C_1 .


Analysis of symmetry for dynamics (positions and initial velocities):
=====================================================================
 Subroutine PRICEL returns:
 Original cell was already a primitive cell.
 

 Routine SETGRP: Setting up the symmetry group for a 
 base centered orthorhombic supercell.


 Subroutine GETGRP returns: Found  1 space group operations
 (whereof  1 operations were pure point group operations)
 out of a pool of  8 trial point group operations.


The dynamic configuration has the point symmetry C_1 .
 
 
 KPOINTS: pymatgen generated KPOINTS with grid den

Automatic generation of k-mesh.
Space group operators:
 irot       det(A)        alpha          n_x          n_y          n_z        tau_x        tau_y        tau_z
    1     1.000000     0.000000     1.000000     0.000000     0.000000     0.000000     0.000000     0.000000
 
 Subroutine IBZKPT returns following result:
 ===========================================
 
 Found     54 irreducible k-points:
 
 Following reciprocal coordinates:
            Coordinates               Weight
  0.000000  0.000000  0.000000      1.000000
  0.076923 -0.000000  0.000000      2.000000
  0.153846 -0.000000  0.000000      2.000000
  0.230769 -0.000000  0.000000      2.000000
  0.307692 -0.000000  0.000000      2.000000
  0.384615 -0.000000  0.000000      2.000000
  0.461538 -0.000000  0.000000      2.000000
  0.000000  0.250000  0.000000      2.000000
  0.076923  0.250000  0.000000      2.000000
  0.153846  0.250000  0.000000      2.000000
  0.230769  0.250000  0.000000      2.000000
  0.307692  0.250000  0.000000      2.000000
  0.384615  0.250000  0.000000      2.000000
  0.461538  0.250000  0.000000      2.000000
 -0.461538  0.250000  0.000000      2.000000
 -0.384615  0.250000  0.000000      2.000000
 -0.307692  0.250000  0.000000      2.000000
 -0.230769  0.250000  0.000000      2.000000
 -0.153846  0.250000  0.000000      2.000000
 -0.076923  0.250000  0.000000      2.000000
  0.000000  0.500000  0.000000      1.000000
  0.076923  0.500000  0.000000      2.000000
  0.153846  0.500000  0.000000      2.000000
  0.230769  0.500000  0.000000      2.000000
  0.307692  0.500000  0.000000      2.000000
  0.384615  0.500000  0.000000      2.000000
  0.461538  0.500000  0.000000      2.000000
  0.000000  0.000000  0.500000      1.000000
  0.076923 -0.000000  0.500000      2.000000
  0.153846 -0.000000  0.500000      2.000000
  0.230769 -0.000000  0.500000      2.000000
  0.307692 -0.000000  0.500000      2.000000
  0.384615 -0.000000  0.500000      2.000000
  0.461538 -0.000000  0.500000      2.000000
  0.000000  0.250000  0.500000      2.000000
  0.076923  0.250000  0.500000      2.000000
  0.153846  0.250000  0.500000      2.000000
  0.230769  0.250000  0.500000      2.000000
  0.307692  0.250000  0.500000      2.000000
  0.384615  0.250000  0.500000      2.000000
  0.461538  0.250000  0.500000      2.000000
 -0.461538  0.250000  0.500000      2.000000
 -0.384615  0.250000  0.500000      2.000000
 -0.307692  0.250000  0.500000      2.000000
 -0.230769  0.250000  0.500000      2.000000
 -0.153846  0.250000  0.500000      2.000000
 -0.076923  0.250000  0.500000      2.000000
  0.000000  0.500000  0.500000      1.000000
  0.076923  0.500000  0.500000      2.000000
  0.153846  0.500000  0.500000      2.000000
  0.230769  0.500000  0.500000      2.000000
  0.307692  0.500000  0.500000      2.000000
  0.384615  0.500000  0.500000      2.000000
  0.461538  0.500000  0.500000      2.000000
 
 Following cartesian coordinates:
            Coordinates               Weight
  0.000000  0.000000  0.000000      1.000000
  0.021727  0.003736  0.000000      2.000000
  0.043454  0.007472  0.000000      2.000000
  0.065182  0.011209  0.000000      2.000000
  0.086909  0.014945  0.000000      2.000000
  0.108636  0.018681  0.000000      2.000000
  0.130363  0.022417  0.000000      2.000000
  0.000000  0.024285  0.000000      2.000000
  0.021727  0.028021  0.000000      2.000000
  0.043454  0.031758  0.000000      2.000000
  0.065182  0.035494  0.000000      2.000000
  0.086909  0.039230  0.000000      2.000000
  0.108636  0.042966  0.000000      2.000000
  0.130363  0.046702  0.000000      2.000000
 -0.130363  0.001868  0.000000      2.000000
 -0.108636  0.005604  0.000000      2.000000
 -0.086909  0.009340  0.000000      2.000000
 -0.065182  0.013077  0.000000      2.000000
 -0.043454  0.016813  0.000000      2.000000
 -0.021727  0.020549  0.000000      2.000000
  0.000000  0.048570  0.000000      1.000000
  0.021727  0.052307  0.000000      2.000000
  0.043454  0.056043  0.000000      2.000000
  0.065182  0.059779  0.000000      2.000000
  0.086909  0.063515  0.000000      2.000000
  0.108636  0.067251  0.000000      2.000000
  0.130363  0.070987  0.000000      2.000000
  0.000000  0.000000  0.018181      1.000000
  0.021727  0.003736  0.018181      2.000000
  0.043454  0.007472  0.018181      2.000000
  0.065182  0.011209  0.018181      2.000000
  0.086909  0.014945  0.018181      2.000000
  0.108636  0.018681  0.018181      2.000000
  0.130363  0.022417  0.018181      2.000000
  0.000000  0.024285  0.018181      2.000000
  0.021727  0.028021  0.018181      2.000000
  0.043454  0.031758  0.018181      2.000000
  0.065182  0.035494  0.018181      2.000000
  0.086909  0.039230  0.018181      2.000000
  0.108636  0.042966  0.018181      2.000000
  0.130363  0.046702  0.018181      2.000000
 -0.130363  0.001868  0.018181      2.000000
 -0.108636  0.005604  0.018181      2.000000
 -0.086909  0.009340  0.018181      2.000000
 -0.065182  0.013077  0.018181      2.000000
 -0.043454  0.016813  0.018181      2.000000
 -0.021727  0.020549  0.018181      2.000000
  0.000000  0.048570  0.018181      1.000000
  0.021727  0.052307  0.018181      2.000000
  0.043454  0.056043  0.018181      2.000000
  0.065182  0.059779  0.018181      2.000000
  0.086909  0.063515  0.018181      2.000000
  0.108636  0.067251  0.018181      2.000000
  0.130363  0.070987  0.018181      2.000000
 


--------------------------------------------------------------------------------------------------------




 Dimension of arrays:
   k-points           NKPTS =     54   k-points in BZ     NKDIM =     54   number of bands    NBANDS=     68
   number of dos      NEDOS =    301   number of ions     NIONS =     24
   non local maximal  LDIM  =      4   non local SUM 2l+1 LMDIM =      8
   total plane-waves  NPLWV = 192000
   max r-space proj   IRMAX =   2772   max aug-charges    IRDMAX=   6603
   dimension x,y,z NGX =    20 NGY =   60 NGZ =  160
   dimension x,y,z NGXF=    40 NGYF=  120 NGZF=  320
   support grid    NGXF=    40 NGYF=  120 NGZF=  320
   ions per type =              12  12
 NGX,Y,Z   is equivalent  to a cutoff of   9.39,  9.55,  9.67 a.u.
 NGXF,Y,Z  is equivalent  to a cutoff of  18.78, 19.10, 19.34 a.u.


 I would recommend the setting:
   dimension x,y,z NGX =    20 NGY =   59 NGZ =  155
 SYSTEM =  unknown system                          
 POSCAR =  Si12                                    

 Startparameter for this run:
   NWRITE =      2    write-flag & timer
   PREC   = accura    normal or accurate (medium, high low for compatibility)
   ISTART =      0    job   : 0-new  1-cont  2-samecut
   ICHARG =      2    charge: 1-file 2-atom 10-const
   ISPIN  =      1    spin polarized calculation?
   LNONCOLLINEAR =      F non collinear calculations
   LSORBIT =      F    spin-orbit coupling
   INIWAV =      1    electr: 0-lowe 1-rand  2-diag
   LASPH  =      F    aspherical Exc in radial PAW
   METAGGA=      F    non-selfconsistent MetaGGA calc.

 Electronic Relaxation 1
   ENCUT  =  300.0 eV  22.05 Ry    4.70 a.u.   5.00 14.75 38.84*2*pi/ulx,y,z
   ENINI  =  300.0     initial cutoff
   ENAUG  =  342.9 eV  augmentation charge cutoff
   NELM   =     60;   NELMIN=  2; NELMDL= -5     # of ELM steps 
   EDIFF  = 0.1E-05   stopping-criterion for ELM
   LREAL  =      T    real-space projection
   NLSPLINE    = F    spline interpolate recip. space projectors
   LCOMPAT=      F    compatible to vasp.4.4
   GGA_COMPAT  = T    GGA compatible to vasp.4.4-vasp.4.6
   LMAXPAW     = -100 max onsite density
   LMAXMIX     =    2 max onsite mixed and CHGCAR
   VOSKOWN=      0    Vosko Wilk Nusair interpolation
   ROPT   =   -0.00025  -0.00025
 Ionic relaxation
   EDIFFG = 0.1E-04   stopping-criterion for IOM
   NSW    =      0    number of steps for IOM
   NBLOCK =      1;   KBLOCK =      1    inner block; outer block 
   IBRION =     -1    ionic relax: 0-MD 1-quasi-New 2-CG
   NFREE  =      1    steps in history (QN), initial steepest desc. (CG)
   ISIF   =      3    stress and relaxation
   IWAVPR =     10    prediction:  0-non 1-charg 2-wave 3-comb
   ISYM   =      2    0-nonsym 1-usesym 2-fastsym
   LCORR  =      T    Harris-Foulkes like correction to forces

   POTIM  = 0.5000    time-step for ionic-motion
   TEIN   =    0.0    initial temperature
   TEBEG  =    0.0;   TEEND  =   0.0 temperature during run
   SMASS  =  -3.00    Nose mass-parameter (am)
   estimated Nose-frequenzy (Omega)   =  0.10E-29 period in steps =****** mass=  -0.286E-27a.u.
   SCALEE = 1.0000    scale energy and forces
   NPACO  =    256;   APACO  = 16.0  distance and # of slots for P.C.
   PSTRESS=    0.0 pullay stress

  Mass of Ions in am
   POMASS =  30.97 28.09
  Ionic Valenz
   ZVAL   =   5.00  4.00
  Atomic Wigner-Seitz radii
   RWIGS  =  -1.00 -1.00
  virtual crystal weights 
   VCA    =   1.00  1.00
   NELECT =     108.0000    total number of electrons
   NUPDOWN=      -1.0000    fix difference up-down

 DOS related values:
   EMIN   =  10.00;   EMAX   =-10.00  energy-range for DOS
   EFERMI =   0.00
   ISMEAR =     0;   SIGMA  =   0.10  broadening in eV -4-tet -1-fermi 0-gaus

 Electronic relaxation 2 (details)
   IALGO  =     38    algorithm
   LDIAG  =      T    sub-space diagonalisation (order eigenvalues)
   LSUBROT=      F    optimize rotation matrix (better conditioning)
   TURBO    =      0    0=normal 1=particle mesh
   IRESTART =      0    0=no restart 2=restart with 2 vectors
   NREBOOT  =      0    no. of reboots
   NMIN     =      0    reboot dimension
   EREF     =   0.00    reference energy to select bands
   IMIX   =      4    mixing-type and parameters
     AMIX     =   0.40;   BMIX     =  1.00
     AMIX_MAG =   1.60;   BMIX_MAG =  1.00
     AMIN     =   0.10
     WC   =   100.;   INIMIX=   1;  MIXPRE=   1;  MAXMIX= -45

 Intra band minimization:
   WEIMIN = 0.0000     energy-eigenvalue tresh-hold
   EBREAK =  0.37E-08  absolut break condition
   DEPER  =   0.30     relativ break condition  

   TIME   =   0.40     timestep for ELM

  volume/ion in A,a.u.               =      41.76       281.83
  Fermi-wavevector in a.u.,A,eV,Ry     =   0.779018  1.472130  8.256946  0.606868
  Thomas-Fermi vector in A             =   1.882034
 
 Write flags
   LWAVE  =      F    write WAVECAR
   LCHARG =      F    write CHGCAR
   LVTOT  =      F    write LOCPOT, total local potential
   LVHAR  =      F    write LOCPOT, Hartree potential only
   LELF   =      F    write electronic localiz. function (ELF)
   LORBIT =      0    0 simple, 1 ext, 2 COOP (PROOUT)


 Dipole corrections
   LMONO  =      F    monopole corrections only (constant potential shift)
   LDIPOL =      F    correct potential (dipole corrections)
   IDIPOL =      0    1-x, 2-y, 3-z, 4-all directions 
   EPSILON=  1.0000000 bulk dielectric constant

 Exchange correlation treatment:
   GGA     =    BO    GGA type
   LEXCH   =    42    internal setting for exchange type
   VOSKOWN=      0    Vosko Wilk Nusair interpolation
   LHFCALC =     F    Hartree Fock is set to
   LHFONE  =     F    Hartree Fock one center treatment
   AEXX    =    0.0000 exact exchange contribution

 vdW DFT:
   LUSE_VDW   =     T    switch on vdW DFT
   Zab_VDW    =-.8491    correlation parameter
   PARAM1     =0.1833
   PARAM2     =0.2200
   PARAM3     =0.0000

 Linear response parameters
   LEPSILON=     F    determine dielectric tensor
   LRPA    =     F    only Hartree local field effects (RPA)
   LNABLA  =     F    use nabla operator in PAW spheres
   LVEL    =     F    velocity operator in full k-point grid
   LINTERFAST=   F  fast interpolation
   KINTER  =     0    interpolate to denser k-point grid
   CSHIFT  =0.1000    complex shift for real part using Kramers Kronig
   OMEGAMAX=  -1.0    maximum frequency
   DEG_THRESHOLD= 0.2000000E-02 threshold for treating states as degnerate
   RTIME   =    0.100 relaxation time in fs

 Orbital magnetization related:
   ORBITALMAG=     F  switch on orbital magnetization
   LCHIMAG   =     F  perturbation theory with respect to B field
   DQ        =  0.001000  dq finite difference perturbation B field



--------------------------------------------------------------------------------------------------------


 Static calculation
 charge density and potential will be updated during run
 non-spin polarized calculation
 Variant of blocked Davidson
 Davidson routine will perform the subspace rotation
 perform sub-space diagonalisation
    after iterative eigenvector-optimisation
 modified Broyden-mixing scheme, WC =      100.0
 initial mixing is a Kerker type mixing with AMIX =  0.4000 and BMIX =      1.0000
 Hartree-type preconditioning will be used
 using additional bands           14
 real space projection scheme for non local part
 use partial core corrections
 calculate Harris-corrections to forces 
   (improved forces if not selfconsistent)
 use gradient corrections 
 use of overlap-Matrix (Vanderbilt PP)
 Gauss-broadening in eV      SIGMA  =   0.10


--------------------------------------------------------------------------------------------------------


  energy-cutoff  :      300.00
  volume of cell :     1002.32
      direct lattice vectors                 reciprocal lattice vectors
     3.540400000  0.000000000  0.000000000     0.282453960  0.048570342  0.000000000
    -1.770200000 10.294348000  0.000000000     0.000000000  0.097140683  0.000000000
     0.000000000  0.000000000 27.501429000     0.000000000  0.000000000  0.036361747

  length of vectors
     3.540400000 10.445439617 27.501429000     0.286599577  0.097140683  0.036361747


 
 k-points in units of 2pi/SCALE and weight: pymatgen generated KPOINTS with grid den
   0.00000000  0.00000000  0.00000000       0.010
   0.02172723  0.00373618  0.00000000       0.019
   0.04345446  0.00747236  0.00000000       0.019
   0.06518168  0.01120854  0.00000000       0.019
   0.08690891  0.01494472  0.00000000       0.019
   0.10863614  0.01868090  0.00000000       0.019
   0.13036337  0.02241708  0.00000000       0.019
   0.00000000  0.02428517  0.00000000       0.019
   0.02172723  0.02802135  0.00000000       0.019
   0.04345446  0.03175753  0.00000000       0.019
   0.06518168  0.03549371  0.00000000       0.019
   0.08690891  0.03922989  0.00000000       0.019
   0.10863614  0.04296607  0.00000000       0.019
   0.13036337  0.04670225  0.00000000       0.019
  -0.13036337  0.00186809  0.00000000       0.019
  -0.10863614  0.00560427  0.00000000       0.019
  -0.08690891  0.00934045  0.00000000       0.019
  -0.06518168  0.01307663  0.00000000       0.019
  -0.04345446  0.01681281  0.00000000       0.019
  -0.02172723  0.02054899  0.00000000       0.019
   0.00000000  0.04857034  0.00000000       0.010
   0.02172723  0.05230652  0.00000000       0.019
   0.04345446  0.05604270  0.00000000       0.019
   0.06518168  0.05977888  0.00000000       0.019
   0.08690891  0.06351506  0.00000000       0.019
   0.10863614  0.06725124  0.00000000       0.019
   0.13036337  0.07098742  0.00000000       0.019
   0.00000000  0.00000000  0.01818087       0.010
   0.02172723  0.00373618  0.01818087       0.019
   0.04345446  0.00747236  0.01818087       0.019
   0.06518168  0.01120854  0.01818087       0.019
   0.08690891  0.01494472  0.01818087       0.019
   0.10863614  0.01868090  0.01818087       0.019
   0.13036337  0.02241708  0.01818087       0.019
   0.00000000  0.02428517  0.01818087       0.019
   0.02172723  0.02802135  0.01818087       0.019
   0.04345446  0.03175753  0.01818087       0.019
   0.06518168  0.03549371  0.01818087       0.019
   0.08690891  0.03922989  0.01818087       0.019
   0.10863614  0.04296607  0.01818087       0.019
   0.13036337  0.04670225  0.01818087       0.019
  -0.13036337  0.00186809  0.01818087       0.019
  -0.10863614  0.00560427  0.01818087       0.019
  -0.08690891  0.00934045  0.01818087       0.019
  -0.06518168  0.01307663  0.01818087       0.019
  -0.04345446  0.01681281  0.01818087       0.019
  -0.02172723  0.02054899  0.01818087       0.019
   0.00000000  0.04857034  0.01818087       0.010
   0.02172723  0.05230652  0.01818087       0.019
   0.04345446  0.05604270  0.01818087       0.019
   0.06518168  0.05977888  0.01818087       0.019
   0.08690891  0.06351506  0.01818087       0.019
   0.10863614  0.06725124  0.01818087       0.019
   0.13036337  0.07098742  0.01818087       0.019
 
 k-points in reciprocal lattice and weights: pymatgen generated KPOINTS with grid den
   0.00000000  0.00000000  0.00000000       0.010
   0.07692308 -0.00000000  0.00000000       0.019
   0.15384615 -0.00000000  0.00000000       0.019
   0.23076923 -0.00000000  0.00000000       0.019
   0.30769231 -0.00000000  0.00000000       0.019
   0.38461538 -0.00000000  0.00000000       0.019
   0.46153846 -0.00000000  0.00000000       0.019
   0.00000000  0.25000000  0.00000000       0.019
   0.07692308  0.25000000  0.00000000       0.019
   0.15384615  0.25000000  0.00000000       0.019
   0.23076923  0.25000000  0.00000000       0.019
   0.30769231  0.25000000  0.00000000       0.019
   0.38461538  0.25000000  0.00000000       0.019
   0.46153846  0.25000000  0.00000000       0.019
  -0.46153846  0.25000000  0.00000000       0.019
  -0.38461538  0.25000000  0.00000000       0.019
  -0.30769231  0.25000000  0.00000000       0.019
  -0.23076923  0.25000000  0.00000000       0.019
  -0.15384615  0.25000000  0.00000000       0.019
  -0.07692308  0.25000000  0.00000000       0.019
   0.00000000  0.50000000  0.00000000       0.010
   0.07692308  0.50000000  0.00000000       0.019
   0.15384615  0.50000000  0.00000000       0.019
   0.23076923  0.50000000  0.00000000       0.019
   0.30769231  0.50000000  0.00000000       0.019
   0.38461538  0.50000000  0.00000000       0.019
   0.46153846  0.50000000  0.00000000       0.019
   0.00000000  0.00000000  0.50000000       0.010
   0.07692308 -0.00000000  0.50000000       0.019
   0.15384615 -0.00000000  0.50000000       0.019
   0.23076923 -0.00000000  0.50000000       0.019
   0.30769231 -0.00000000  0.50000000       0.019
   0.38461538 -0.00000000  0.50000000       0.019
   0.46153846 -0.00000000  0.50000000       0.019
   0.00000000  0.25000000  0.50000000       0.019
   0.07692308  0.25000000  0.50000000       0.019
   0.15384615  0.25000000  0.50000000       0.019
   0.23076923  0.25000000  0.50000000       0.019
   0.30769231  0.25000000  0.50000000       0.019
   0.38461538  0.25000000  0.50000000       0.019
   0.46153846  0.25000000  0.50000000       0.019
  -0.46153846  0.25000000  0.50000000       0.019
  -0.38461538  0.25000000  0.50000000       0.019
  -0.30769231  0.25000000  0.50000000       0.019
  -0.23076923  0.25000000  0.50000000       0.019
  -0.15384615  0.25000000  0.50000000       0.019
  -0.07692308  0.25000000  0.50000000       0.019
   0.00000000  0.50000000  0.50000000       0.010
   0.07692308  0.50000000  0.50000000       0.019
   0.15384615  0.50000000  0.50000000       0.019
   0.23076923  0.50000000  0.50000000       0.019
   0.30769231  0.50000000  0.50000000       0.019
   0.38461538  0.50000000  0.50000000       0.019
   0.46153846  0.50000000  0.50000000       0.019
 
 position of ions in fractional coordinates (direct lattice) 
   0.11402300  0.22804500  0.23316207
   0.21402300  0.32804500  0.51499159
   0.45808900  0.91617900  0.20939482
   0.55808900  0.01617900  0.49122434
   0.31085400  0.62170900  0.08414979
   0.31085400  0.62170900  0.36597930
   0.99923000  0.99846000  0.08631254
   0.99923000  0.99846000  0.36814206
   0.65492700  0.30985400  0.06041748
   0.65492700  0.30985400  0.34224700
   0.76973800  0.53947500  0.20725292
   0.86973800  0.63947500  0.48908244
   0.93971600  0.87943300  0.15783749
   0.03971600  0.97943300  0.43966701
   0.20515200  0.41030300  0.18578822
   0.30515200  0.51030300  0.46761774
   0.20184900  0.40369900  0.09969156
   0.20184900  0.40369900  0.38152107
   0.56380500  0.12761000  0.10779021
   0.56380500  0.12761000  0.38961973
   0.56710600  0.13421200  0.19387616
   0.66710600  0.23421200  0.47570568
   0.82923400  0.65846800  0.13571444
   0.92923400  0.75846800  0.41754396
 
 position of ions in cartesian coordinates  (Angst):
   0.00000177  2.34757459  6.41229012
   0.17702177  3.37700939 14.16300462
  -0.00000177  9.43146546  5.75865686
   1.94721823  0.16655226 13.50937136
  -0.00000177  6.40008880  2.31423934
  -0.00000177  6.40008880 10.06495384
   1.77020000 10.27849470  2.37371832
   1.77020000 10.27849470 10.12443282
   1.77020000  3.18974491  1.66156717
   1.77020000  3.18974491  9.41228167
   1.77020177  5.55354339  5.69975143
   1.94722177  6.58297819 13.45046593
   1.77019823  9.05318934  4.34075665
  -1.59318177 10.08262414 12.09147115
   0.00000177  4.22380187  5.10944151
   0.17702177  5.25323667 12.86015601
  -0.00000177  4.15581799  2.74166024
  -0.00000177  4.15581799 10.49237474
   1.77020000  1.31366175  2.96438477
   1.77020000  1.31366175 10.71509927
   1.77020000  1.38162503  5.33187152
   1.94722000  2.41105983 13.08258602
   1.77020000  6.77849874  3.73234107
   1.94722000  7.80793354 11.48305557
 


--------------------------------------------------------------------------------------------------------


 k-point  1 :   0.0000 0.0000 0.0000  plane waves:   11717
 k-point  2 :   0.0769-0.0000 0.0000  plane waves:   11762
 k-point  3 :   0.1538-0.0000 0.0000  plane waves:   11805
 k-point  4 :   0.2308-0.0000 0.0000  plane waves:   11824
 k-point  5 :   0.3077-0.0000 0.0000  plane waves:   11875
 k-point  6 :   0.3846-0.0000 0.0000  plane waves:   11864
 k-point  7 :   0.4615-0.0000 0.0000  plane waves:   11883
 k-point  8 :   0.0000 0.2500 0.0000  plane waves:   11683
 k-point  9 :   0.0769 0.2500 0.0000  plane waves:   11756
 k-point 10 :   0.1538 0.2500 0.0000  plane waves:   11807
 k-point 11 :   0.2308 0.2500 0.0000  plane waves:   11853
 k-point 12 :   0.3077 0.2500 0.0000  plane waves:   11866
 k-point 13 :   0.3846 0.2500 0.0000  plane waves:   11889
 k-point 14 :   0.4615 0.2500 0.0000  plane waves:   11885
 k-point 15 :  -0.4615 0.2500 0.0000  plane waves:   11886
 k-point 16 :  -0.3846 0.2500 0.0000  plane waves:   11867
 k-point 17 :  -0.3077 0.2500 0.0000  plane waves:   11849
 k-point 18 :  -0.2308 0.2500 0.0000  plane waves:   11827
 k-point 19 :  -0.1538 0.2500 0.0000  plane waves:   11801
 k-point 20 :  -0.0769 0.2500 0.0000  plane waves:   11757
 k-point 21 :   0.0000 0.5000 0.0000  plane waves:   11710
 k-point 22 :   0.0769 0.5000 0.0000  plane waves:   11762
 k-point 23 :   0.1538 0.5000 0.0000  plane waves:   11782
 k-point 24 :   0.2308 0.5000 0.0000  plane waves:   11841
 k-point 25 :   0.3077 0.5000 0.0000  plane waves:   11876
 k-point 26 :   0.3846 0.5000 0.0000  plane waves:   11889
 k-point 27 :   0.4615 0.5000 0.0000  plane waves:   11881
 k-point 28 :   0.0000 0.0000 0.5000  plane waves:   11698
 k-point 29 :   0.0769-0.0000 0.5000  plane waves:   11752
 k-point 30 :   0.1538-0.0000 0.5000  plane waves:   11800
 k-point 31 :   0.2308-0.0000 0.5000  plane waves:   11834
 k-point 32 :   0.3077-0.0000 0.5000  plane waves:   11850
 k-point 33 :   0.3846-0.0000 0.5000  plane waves:   11888
 k-point 34 :   0.4615-0.0000 0.5000  plane waves:   11896
 k-point 35 :   0.0000 0.2500 0.5000  plane waves:   11714
 k-point 36 :   0.0769 0.2500 0.5000  plane waves:   11754
 k-point 37 :   0.1538 0.2500 0.5000  plane waves:   11802
 k-point 38 :   0.2308 0.2500 0.5000  plane waves:   11840
 k-point 39 :   0.3077 0.2500 0.5000  plane waves:   11858
 k-point 40 :   0.3846 0.2500 0.5000  plane waves:   11896
 k-point 41 :   0.4615 0.2500 0.5000  plane waves:   11886
 k-point 42 :  -0.4615 0.2500 0.5000  plane waves:   11852
 k-point 43 :  -0.3846 0.2500 0.5000  plane waves:   11838
 k-point 44 :  -0.3077 0.2500 0.5000  plane waves:   11842
 k-point 45 :  -0.2308 0.2500 0.5000  plane waves:   11840
 k-point 46 :  -0.1538 0.2500 0.5000  plane waves:   11804
 k-point 47 :  -0.0769 0.2500 0.5000  plane waves:   11748
 k-point 48 :   0.0000 0.5000 0.5000  plane waves:   11724
 k-point 49 :   0.0769 0.5000 0.5000  plane waves:   11748
 k-point 50 :   0.1538 0.5000 0.5000  plane waves:   11814
 k-point 51 :   0.2308 0.5000 0.5000  plane waves:   11832
 k-point 52 :   0.3077 0.5000 0.5000  plane waves:   11868
 k-point 53 :   0.3846 0.5000 0.5000  plane waves:   11892
 k-point 54 :   0.4615 0.5000 0.5000  plane waves:   11878

 maximum and minimum number of plane-waves per node :      5964     5832

 maximum number of plane-waves:     11896
 maximum index in each direction: 
   IXMAX=    5   IYMAX=   14   IZMAX=   38
   IXMIN=   -5   IYMIN=  -15   IZMIN=  -39

 WARNING: aliasing errors must be expected set NGX to  22 to avoid them
 NGY is ok and might be reduce to  60
 NGZ is ok and might be reduce to 156
 aliasing errors are usually negligible using standard VASP settings
 and one can safely disregard these warnings

 real space projection operators:
  total allocation   :       3793.25 KBytes
  max/ min on nodes  :       1899.38       1893.88


 parallel 3D FFT for wavefunctions:
    minimum data exchange during FFTs selected (reduces bandwidth)
 parallel 3D FFT for charge:
    minimum data exchange during FFTs selected (reduces bandwidth)


 total amount of memory used by VASP on root node   146493. kBytes
========================================================================

   base      :      30000. kBytes
   nonlr-proj:       3452. kBytes
   fftplans  :       9347. kBytes
   grid      :      14649. kBytes
   one-center:         36. kBytes
   wavefun   :      89009. kBytes
 
     INWAV:  cpu time    0.00: real time    0.00
 Broyden mixing: mesh for mixing (old mesh)
   NGX =  9   NGY = 29   NGZ = 77
  (NGX  = 40   NGY  =120   NGZ  =320)
  gives a total of  20097 points

 initial charge density was supplied:
 charge density of overlapping atoms calculated
 number of electron     108.0000000 magnetization 
 keeping initial charge density in first step


--------------------------------------------------------------------------------------------------------


 Maximum index for non-local projection operator         1333
 Maximum index for augmentation-charges          822 (set IRDMAX)


--------------------------------------------------------------------------------------------------------


 First call to EWALD:  gamma=   0.177
 Maximum number of real-space cells 7x 3x 1
 Maximum number of reciprocal cells 1x 3x 7

 FEWALD executed in parallel
    FEWALD:  cpu time    0.00: real time    0.00


----------------------------------------- Iteration    1(   1)  ---------------------------------------


vdW kernel read from vdw_kernel.bindat
  0.0000  0.2424  0.5071  0.7962  1.1119  1.4567  1.8333  2.2446  2.6937  3.1842
  3.7199  4.3049  4.9438  5.6415  6.4036  7.2358  8.1446  9.1372 10.2212 11.4050
 12.6979 14.1099 15.6519 17.3360 19.1751 21.1837 23.3773 25.7729 28.3892 31.2465
 34.3669 37.7748 41.4965 45.5611 50.0000
 
    POTLOK:  cpu time   19.80: real time   19.97
    SETDIJ:  cpu time    0.01: real time    0.01
     EDDAV:  cpu time  116.28: real time  116.32
       DOS:  cpu time    0.01: real time    0.01
    --------------------------------------------
      LOOP:  cpu time  136.10: real time  136.32

 eigenvalue-minimisations  :  7360
 total energy-change (2. order) : 0.4846466E+03  (-0.2861116E+04)
 number of electron     108.0000000 magnetization 
 augmentation part      108.0000000 magnetization 

 Free energy of the ion-electron system (eV)
  ---------------------------------------------------
  alpha Z        PSCENC =        36.80884744
  Ewald energy   TEWEN  =     11893.57012394
  -Hartree energ DENC   =    -14950.86472163
  -exchange      EXHF   =         0.00000000
  -V(xc)+E(xc)   XCENC  =       -88.23316200
  PAW double counting   =      1056.43050070     -732.41190547
  entropy T*S    EENTRO =        -0.03940246
  eigenvalues    EBANDS =       -84.65496505
  atomic energy  EATOM  =      3354.04126044
  ---------------------------------------------------
  free energy    TOTEN  =       484.64657591 eV

  energy without entropy =      484.68597837  energy(sigma->0) =      484.66627714


--------------------------------------------------------------------------------------------------------




----------------------------------------- Iteration    1(   2)  ---------------------------------------


     EDDAV:  cpu time  143.88: real time  143.92
       DOS:  cpu time    0.01: real time    0.01
    --------------------------------------------
      LOOP:  cpu time  143.89: real time  143.93

 eigenvalue-minimisations  :  9784
 total energy-change (2. order) :-0.5550914E+03  (-0.5403462E+03)
 number of electron     108.0000000 magnetization 
 augmentation part      108.0000000 magnetization 

 Free energy of the ion-electron system (eV)
  ---------------------------------------------------
  alpha Z        PSCENC =        36.80884744
  Ewald energy   TEWEN  =     11893.57012394
  -Hartree energ DENC   =    -14950.86472163
  -exchange      EXHF   =         0.00000000
  -V(xc)+E(xc)   XCENC  =       -88.23316200
  PAW double counting   =      1056.43050070     -732.41190547
  entropy T*S    EENTRO =        -0.01757196
  eigenvalues    EBANDS =      -639.76820338
  atomic energy  EATOM  =      3354.04126044
  ---------------------------------------------------
  free energy    TOTEN  =       -70.44483192 eV

  energy without entropy =      -70.42725996  energy(sigma->0) =      -70.43604594


--------------------------------------------------------------------------------------------------------




----------------------------------------- Iteration    1(   3)  ---------------------------------------


     EDDAV:  cpu time  132.90: real time  132.94
       DOS:  cpu time    0.01: real time    0.01
    --------------------------------------------
      LOOP:  cpu time  132.92: real time  132.95

 eigenvalue-minimisations  :  8816
 total energy-change (2. order) :-0.5518572E+02  (-0.5442123E+02)
 number of electron     108.0000000 magnetization 
 augmentation part      108.0000000 magnetization 

 Free energy of the ion-electron system (eV)
  ---------------------------------------------------
  alpha Z        PSCENC =        36.80884744
  Ewald energy   TEWEN  =     11893.57012394
  -Hartree energ DENC   =    -14950.86472163
  -exchange      EXHF   =         0.00000000
  -V(xc)+E(xc)   XCENC  =       -88.23316200
  PAW double counting   =      1056.43050070     -732.41190547
  entropy T*S    EENTRO =        -0.01145009
  eigenvalues    EBANDS =      -694.96004161
  atomic energy  EATOM  =      3354.04126044
  ---------------------------------------------------
  free energy    TOTEN  =      -125.63054828 eV

  energy without entropy =     -125.61909818  energy(sigma->0) =     -125.62482323


--------------------------------------------------------------------------------------------------------




----------------------------------------- Iteration    1(   4)  ---------------------------------------


     EDDAV:  cpu time  159.98: real time  160.03
       DOS:  cpu time    0.01: real time    0.01
    --------------------------------------------
      LOOP:  cpu time  160.00: real time  160.04

 eigenvalue-minimisations  : 10920
 total energy-change (2. order) :-0.2488696E+01  (-0.2474516E+01)
 number of electron     108.0000000 magnetization 
 augmentation part      108.0000000 magnetization 

 Free energy of the ion-electron system (eV)
  ---------------------------------------------------
  alpha Z        PSCENC =        36.80884744
  Ewald energy   TEWEN  =     11893.57012394
  -Hartree energ DENC   =    -14950.86472163
  -exchange      EXHF   =         0.00000000
  -V(xc)+E(xc)   XCENC  =       -88.23316200
  PAW double counting   =      1056.43050070     -732.41190547
  entropy T*S    EENTRO =        -0.01225520
  eigenvalues    EBANDS =      -697.44793290
  atomic energy  EATOM  =      3354.04126044
  ---------------------------------------------------
  free energy    TOTEN  =      -128.11924467 eV

  energy without entropy =     -128.10698948  energy(sigma->0) =     -128.11311708


--------------------------------------------------------------------------------------------------------




----------------------------------------- Iteration    1(   5)  ---------------------------------------


     EDDAV:  cpu time  150.04: real time  150.09
       DOS:  cpu time    0.01: real time    0.01
    CHARGE:  cpu time    5.56: real time    5.56
    MIXING:  cpu time    0.02: real time    0.02
    --------------------------------------------
      LOOP:  cpu time  155.63: real time  155.68

 eigenvalue-minimisations  : 10096
 total energy-change (2. order) :-0.6000052E-01  (-0.5993634E-01)
 number of electron     107.9999995 magnetization 
 augmentation part       -9.5308001 magnetization 

 Broyden mixing:
  rms(total) = 0.99773E+00    rms(broyden)= 0.99752E+00
  rms(prec ) = 0.10552E+01
  weight for this iteration     100.00

 Free energy of the ion-electron system (eV)
  ---------------------------------------------------
  alpha Z        PSCENC =        36.80884744
  Ewald energy   TEWEN  =     11893.57012394
  -Hartree energ DENC   =    -14950.86472163
  -exchange      EXHF   =         0.00000000
  -V(xc)+E(xc)   XCENC  =       -88.23316200
  PAW double counting   =      1056.43050070     -732.41190547
  entropy T*S    EENTRO =        -0.01228799
  eigenvalues    EBANDS =      -697.50790064
  atomic energy  EATOM  =      3354.04126044
  ---------------------------------------------------
  free energy    TOTEN  =      -128.17924520 eV

  energy without entropy =     -128.16695721  energy(sigma->0) =     -128.17310121


--------------------------------------------------------------------------------------------------------




----------------------------------------- Iteration    1(   6)  ---------------------------------------


    POTLOK:  cpu time   20.54: real time   20.54
    SETDIJ:  cpu time    0.01: real time    0.01
     EDDAV:  cpu time  131.61: real time  131.65
       DOS:  cpu time    0.01: real time    0.01
    CHARGE:  cpu time    5.81: real time    5.81
    MIXING:  cpu time    0.02: real time    0.02
    --------------------------------------------
      LOOP:  cpu time  158.01: real time  158.06

 eigenvalue-minimisations  :  8768
 total energy-change (2. order) : 0.1838576E+01  (-0.3494648E+00)
 number of electron     107.9999995 magnetization 
 augmentation part       -9.3957781 magnetization 

 Broyden mixing:
  rms(total) = 0.56037E+00    rms(broyden)= 0.56035E+00
  rms(prec ) = 0.58834E+00
  weight for this iteration     100.00

 eigenvalues of (default mixing * dielectric matrix)
  average eigenvalue GAMMA=   2.0284
  2.0284

 Free energy of the ion-electron system (eV)
  ---------------------------------------------------
  alpha Z        PSCENC =        36.80884744
  Ewald energy   TEWEN  =     11893.57012394
  -Hartree energ DENC   =    -14982.48593532
  -exchange      EXHF   =         0.00000000
  -V(xc)+E(xc)   XCENC  =       -85.11959490
  PAW double counting   =      1114.62976311     -792.15550296
  entropy T*S    EENTRO =        -0.01496682
  eigenvalues    EBANDS =      -665.61466452
  atomic energy  EATOM  =      3354.04126044
  ---------------------------------------------------
  free energy    TOTEN  =      -126.34066959 eV

  energy without entropy =     -126.32570277  energy(sigma->0) =     -126.33318618


--------------------------------------------------------------------------------------------------------




----------------------------------------- Iteration    1(   7)  ---------------------------------------


    POTLOK:  cpu time   20.83: real time   20.84
    SETDIJ:  cpu time    0.01: real time    0.01
     EDDAV:  cpu time  129.50: real time  129.53
       DOS:  cpu time    0.01: real time    0.01
    CHARGE:  cpu time    5.49: real time    5.49
    MIXING:  cpu time    0.03: real time    0.03
    --------------------------------------------
      LOOP:  cpu time  155.88: real time  155.92

 eigenvalue-minimisations  :  8768
 total energy-change (2. order) : 0.2744984E+00  (-0.2782888E+00)
 number of electron     107.9999995 magnetization 
 augmentation part       -9.2615420 magnetization 

 Broyden mixing:
  rms(total) = 0.15153E+00    rms(broyden)= 0.15150E+00
  rms(prec ) = 0.16074E+00
  weight for this iteration     100.00

 eigenvalues of (default mixing * dielectric matrix)
  average eigenvalue GAMMA=   1.7678
  1.2437  2.2918

 Free energy of the ion-electron system (eV)
  ---------------------------------------------------
  alpha Z        PSCENC =        36.80884744
  Ewald energy   TEWEN  =     11893.57012394
  -Hartree energ DENC   =    -15019.92016501
  -exchange      EXHF   =         0.00000000
  -V(xc)+E(xc)   XCENC  =       -81.57567937
  PAW double counting   =      1163.49714445     -842.38262335
  entropy T*S    EENTRO =        -0.01912445
  eigenvalues    EBANDS =      -630.08595527
  atomic energy  EATOM  =      3354.04126044
  ---------------------------------------------------
  free energy    TOTEN  =      -126.06617118 eV

  energy without entropy =     -126.04704673  energy(sigma->0) =     -126.05660896


--------------------------------------------------------------------------------------------------------




----------------------------------------- Iteration    1(   8)  ---------------------------------------


    POTLOK:  cpu time   16.90: real time   16.90
    SETDIJ:  cpu time    0.01: real time    0.01
     EDDAV:  cpu time  135.73: real time  135.76
       DOS:  cpu time    0.01: real time    0.01
    CHARGE:  cpu time    5.70: real time    5.70
    MIXING:  cpu time    0.02: real time    0.02
    --------------------------------------------
      LOOP:  cpu time  158.37: real time  158.41

 eigenvalue-minimisations  :  9056
 total energy-change (2. order) : 0.1315559E-01  (-0.3837803E-01)
 number of electron     107.9999995 magnetization 
 augmentation part       -9.2776022 magnetization 

 Broyden mixing:
  rms(total) = 0.67758E-01    rms(broyden)= 0.67752E-01
  rms(prec ) = 0.72785E-01
  weight for this iteration     100.00

 eigenvalues of (default mixing * dielectric matrix)
  average eigenvalue GAMMA=   1.6554
  2.5161  0.8378  1.6121

 Free energy of the ion-electron system (eV)
  ---------------------------------------------------
  alpha Z        PSCENC =        36.80884744
  Ewald energy   TEWEN  =     11893.57012394
  -Hartree energ DENC   =    -15026.24159101
  -exchange      EXHF   =         0.00000000
  -V(xc)+E(xc)   XCENC  =       -80.98507353
  PAW double counting   =      1161.30184304     -840.14756895
  entropy T*S    EENTRO =        -0.01976857
  eigenvalues    EBANDS =      -624.38108839
  atomic energy  EATOM  =      3354.04126044
  ---------------------------------------------------
  free energy    TOTEN  =      -126.05301559 eV

  energy without entropy =     -126.03324702  energy(sigma->0) =     -126.04313131


--------------------------------------------------------------------------------------------------------




----------------------------------------- Iteration    1(   9)  ---------------------------------------


    POTLOK:  cpu time   16.85: real time   16.85
    SETDIJ:  cpu time    0.01: real time    0.01
     EDDAV:  cpu time  133.95: real time  133.99
       DOS:  cpu time    0.01: real time    0.01
    CHARGE:  cpu time    5.74: real time    5.74
    MIXING:  cpu time    0.02: real time    0.02
    --------------------------------------------
      LOOP:  cpu time  156.60: real time  156.64

 eigenvalue-minimisations  :  8984
 total energy-change (2. order) : 0.2075958E-01  (-0.7630163E-02)
 number of electron     107.9999995 magnetization 
 augmentation part       -9.2841444 magnetization 

 Broyden mixing:
  rms(total) = 0.23341E-01    rms(broyden)= 0.23338E-01
  rms(prec ) = 0.25149E-01
  weight for this iteration     100.00

 eigenvalues of (default mixing * dielectric matrix)
  average eigenvalue GAMMA=   1.5812
  2.6339  1.5006  1.4060  0.7843

 Free energy of the ion-electron system (eV)
  ---------------------------------------------------
  alpha Z        PSCENC =        36.80884744
  Ewald energy   TEWEN  =     11893.57012394
  -Hartree energ DENC   =    -15027.67780258
  -exchange      EXHF   =         0.00000000
  -V(xc)+E(xc)   XCENC  =       -80.74943647
  PAW double counting   =      1157.90622144     -836.66494650
  entropy T*S    EENTRO =        -0.01785250
  eigenvalues    EBANDS =      -623.24867122
  atomic energy  EATOM  =      3354.04126044
  ---------------------------------------------------
  free energy    TOTEN  =      -126.03225601 eV

  energy without entropy =     -126.01440351  energy(sigma->0) =     -126.02332976


--------------------------------------------------------------------------------------------------------




----------------------------------------- Iteration    1(  10)  ---------------------------------------


    POTLOK:  cpu time   16.29: real time   16.30
    SETDIJ:  cpu time    0.01: real time    0.01
     EDDAV:  cpu time  135.60: real time  135.63
       DOS:  cpu time    0.01: real time    0.01
    CHARGE:  cpu time    5.72: real time    5.72
    MIXING:  cpu time    0.02: real time    0.02
    --------------------------------------------
      LOOP:  cpu time  157.66: real time  157.70

 eigenvalue-minimisations  :  9128
 total energy-change (2. order) : 0.1172246E-01  (-0.1110610E-02)
 number of electron     107.9999995 magnetization 
 augmentation part       -9.2853682 magnetization 

 Broyden mixing:
  rms(total) = 0.96795E-02    rms(broyden)= 0.96776E-02
  rms(prec ) = 0.11420E-01
  weight for this iteration     100.00

 eigenvalues of (default mixing * dielectric matrix)
  average eigenvalue GAMMA=   1.5371
  2.6393  1.8000  1.4710  0.8878  0.8878

 Free energy of the ion-electron system (eV)
  ---------------------------------------------------
  alpha Z        PSCENC =        36.80884744
  Ewald energy   TEWEN  =     11893.57012394
  -Hartree energ DENC   =    -15029.30642564
  -exchange      EXHF   =         0.00000000
  -V(xc)+E(xc)   XCENC  =       -80.65583804
  PAW double counting   =      1156.90353578     -835.62743421
  entropy T*S    EENTRO =        -0.01782352
  eigenvalues    EBANDS =      -621.73677974
  atomic energy  EATOM  =      3354.04126044
  ---------------------------------------------------
  free energy    TOTEN  =      -126.02053355 eV

  energy without entropy =     -126.00271003  energy(sigma->0) =     -126.01162179


--------------------------------------------------------------------------------------------------------




----------------------------------------- Iteration    1(  11)  ---------------------------------------


    POTLOK:  cpu time   16.23: real time   16.23
    SETDIJ:  cpu time    0.01: real time    0.01
     EDDAV:  cpu time  136.54: real time  136.58
       DOS:  cpu time    0.01: real time    0.01
    CHARGE:  cpu time    5.55: real time    5.55
    MIXING:  cpu time    0.02: real time    0.02
    --------------------------------------------
      LOOP:  cpu time  158.37: real time  158.41

 eigenvalue-minimisations  :  9096
 total energy-change (2. order) : 0.6228147E-02  (-0.2391574E-03)
 number of electron     107.9999995 magnetization 
 augmentation part       -9.2845477 magnetization 

 Broyden mixing:
  rms(total) = 0.44268E-02    rms(broyden)= 0.44262E-02
  rms(prec ) = 0.57020E-02
  weight for this iteration     100.00

 eigenvalues of (default mixing * dielectric matrix)
  average eigenvalue GAMMA=   1.5389
  2.6747  2.1158  1.3198  1.3198  0.9015  0.9015

 Free energy of the ion-electron system (eV)
  ---------------------------------------------------
  alpha Z        PSCENC =        36.80884744
  Ewald energy   TEWEN  =     11893.57012394
  -Hartree energ DENC   =    -15030.70969520
  -exchange      EXHF   =         0.00000000
  -V(xc)+E(xc)   XCENC  =       -80.64543992
  PAW double counting   =      1156.00788064     -834.70610658
  entropy T*S    EENTRO =        -0.01782518
  eigenvalues    EBANDS =      -620.36335097
  atomic energy  EATOM  =      3354.04126044
  ---------------------------------------------------
  free energy    TOTEN  =      -126.01430540 eV

  energy without entropy =     -125.99648022  energy(sigma->0) =     -126.00539281


--------------------------------------------------------------------------------------------------------




----------------------------------------- Iteration    1(  12)  ---------------------------------------


    POTLOK:  cpu time   16.27: real time   16.27
    SETDIJ:  cpu time    0.01: real time    0.01
     EDDAV:  cpu time  130.99: real time  131.03
       DOS:  cpu time    0.01: real time    0.01
    CHARGE:  cpu time    5.68: real time    5.68
    MIXING:  cpu time    0.02: real time    0.02
    --------------------------------------------
      LOOP:  cpu time  153.00: real time  153.04

 eigenvalue-minimisations  :  8832
 total energy-change (2. order) : 0.3399601E-02  (-0.5643136E-04)
 number of electron     107.9999995 magnetization 
 augmentation part       -9.2842188 magnetization 

 Broyden mixing:
  rms(total) = 0.20890E-02    rms(broyden)= 0.20888E-02
  rms(prec ) = 0.32495E-02
  weight for this iteration     100.00

 eigenvalues of (default mixing * dielectric matrix)
  average eigenvalue GAMMA=   1.5376
  2.7298  2.2455  1.4104  1.4104  1.0680  0.9495  0.9495

 Free energy of the ion-electron system (eV)
  ---------------------------------------------------
  alpha Z        PSCENC =        36.80884744
  Ewald energy   TEWEN  =     11893.57012394
  -Hartree energ DENC   =    -15031.53077693
  -exchange      EXHF   =         0.00000000
  -V(xc)+E(xc)   XCENC  =       -80.63982342
  PAW double counting   =      1155.44174505     -834.12525785
  entropy T*S    EENTRO =        -0.01772672
  eigenvalues    EBANDS =      -619.55929776
  atomic energy  EATOM  =      3354.04126044
  ---------------------------------------------------
  free energy    TOTEN  =      -126.01090580 eV

  energy without entropy =     -125.99317908  energy(sigma->0) =     -126.00204244


--------------------------------------------------------------------------------------------------------




----------------------------------------- Iteration    1(  13)  ---------------------------------------


    POTLOK:  cpu time   16.65: real time   16.65
    SETDIJ:  cpu time    0.01: real time    0.02
     EDDAV:  cpu time  144.87: real time  144.91
       DOS:  cpu time    0.01: real time    0.01
    CHARGE:  cpu time    5.60: real time    5.60
    MIXING:  cpu time    0.02: real time    0.02
    --------------------------------------------
      LOOP:  cpu time  167.17: real time  167.21

 eigenvalue-minimisations  :  9616
 total energy-change (2. order) : 0.1598892E-02  (-0.1454203E-04)
 number of electron     107.9999995 magnetization 
 augmentation part       -9.2839865 magnetization 

 Broyden mixing:
  rms(total) = 0.12145E-02    rms(broyden)= 0.12144E-02
  rms(prec ) = 0.21256E-02
  weight for this iteration     100.00

 eigenvalues of (default mixing * dielectric matrix)
  average eigenvalue GAMMA=   1.5731
  2.8626  2.4884  1.8384  1.3734  1.3734  0.8530  0.8979  0.8979

 Free energy of the ion-electron system (eV)
  ---------------------------------------------------
  alpha Z        PSCENC =        36.80884744
  Ewald energy   TEWEN  =     11893.57012394
  -Hartree energ DENC   =    -15032.36344978
  -exchange      EXHF   =         0.00000000
  -V(xc)+E(xc)   XCENC  =       -80.63367517
  PAW double counting   =      1155.19842357     -833.87593428
  entropy T*S    EENTRO =        -0.01770941
  eigenvalues    EBANDS =      -618.73719367
  atomic energy  EATOM  =      3354.04126044
  ---------------------------------------------------
  free energy    TOTEN  =      -126.00930691 eV

  energy without entropy =     -125.99159750  energy(sigma->0) =     -126.00045221


--------------------------------------------------------------------------------------------------------




----------------------------------------- Iteration    1(  14)  ---------------------------------------


    POTLOK:  cpu time   16.31: real time   16.32
    SETDIJ:  cpu time    0.01: real time    0.01
     EDDAV:  cpu time  131.56: real time  131.61
       DOS:  cpu time    0.01: real time    0.01
    CHARGE:  cpu time    5.89: real time    5.89
    MIXING:  cpu time    0.02: real time    0.02
    --------------------------------------------
      LOOP:  cpu time  153.82: real time  153.88

 eigenvalue-minimisations  :  8736
 total energy-change (2. order) : 0.7692425E-03  (-0.6118598E-05)
 number of electron     107.9999995 magnetization 
 augmentation part       -9.2838659 magnetization 

 Broyden mixing:
  rms(total) = 0.71158E-03    rms(broyden)= 0.71153E-03
  rms(prec ) = 0.13257E-02
  weight for this iteration     100.00

 eigenvalues of (default mixing * dielectric matrix)
  average eigenvalue GAMMA=   1.6056
  3.1513  2.6084  1.6693  1.6693  1.2624  1.2624  0.9043  0.9615  0.9615

 Free energy of the ion-electron system (eV)
  ---------------------------------------------------
  alpha Z        PSCENC =        36.80884744
  Ewald energy   TEWEN  =     11893.57012394
  -Hartree energ DENC   =    -15033.21171710
  -exchange      EXHF   =         0.00000000
  -V(xc)+E(xc)   XCENC  =       -80.62815866
  PAW double counting   =      1155.08854103     -833.76333916
  entropy T*S    EENTRO =        -0.01768342
  eigenvalues    EBANDS =      -617.89641217
  atomic energy  EATOM  =      3354.04126044
  ---------------------------------------------------
  free energy    TOTEN  =      -126.00853767 eV

  energy without entropy =     -125.99085424  energy(sigma->0) =     -125.99969596


--------------------------------------------------------------------------------------------------------




----------------------------------------- Iteration    1(  15)  ---------------------------------------


    POTLOK:  cpu time   16.38: real time   16.39
    SETDIJ:  cpu time    0.01: real time    0.01
     EDDAV:  cpu time  127.65: real time  127.69
       DOS:  cpu time    0.01: real time    0.01
    CHARGE:  cpu time    5.86: real time    5.86
    MIXING:  cpu time    0.02: real time    0.02
    --------------------------------------------
      LOOP:  cpu time  149.94: real time  149.98

 eigenvalue-minimisations  :  8216
 total energy-change (2. order) :-0.2907293E-04  (-0.3916685E-05)
 number of electron     107.9999995 magnetization 
 augmentation part       -9.2837660 magnetization 

 Broyden mixing:
  rms(total) = 0.48481E-03    rms(broyden)= 0.48479E-03
  rms(prec ) = 0.84930E-03
  weight for this iteration     100.00

 eigenvalues of (default mixing * dielectric matrix)
  average eigenvalue GAMMA=   1.7620
  4.2997  2.7466  2.3664  1.7098  1.3171  1.3171  1.0770  0.8928  0.9470  0.9470

 Free energy of the ion-electron system (eV)
  ---------------------------------------------------
  alpha Z        PSCENC =        36.80884744
  Ewald energy   TEWEN  =     11893.57012394
  -Hartree energ DENC   =    -15033.82345432
  -exchange      EXHF   =         0.00000000
  -V(xc)+E(xc)   XCENC  =       -80.62456262
  PAW double counting   =      1155.05214044     -833.72612371
  entropy T*S    EENTRO =        -0.01767810
  eigenvalues    EBANDS =      -617.28912025
  atomic energy  EATOM  =      3354.04126044
  ---------------------------------------------------
  free energy    TOTEN  =      -126.00856674 eV

  energy without entropy =     -125.99088864  energy(sigma->0) =     -125.99972769


--------------------------------------------------------------------------------------------------------




----------------------------------------- Iteration    1(  16)  ---------------------------------------


    POTLOK:  cpu time   16.36: real time   16.36
    SETDIJ:  cpu time    0.01: real time    0.01
     EDDAV:  cpu time  127.41: real time  127.45
       DOS:  cpu time    0.01: real time    0.01
    CHARGE:  cpu time    5.78: real time    5.78
    MIXING:  cpu time    0.02: real time    0.02
    --------------------------------------------
      LOOP:  cpu time  149.60: real time  149.64

 eigenvalue-minimisations  :  8240
 total energy-change (2. order) :-0.6488646E-03  (-0.2063770E-04)
 number of electron     107.9999995 magnetization 
 augmentation part       -9.2836910 magnetization 

 Broyden mixing:
  rms(total) = 0.23701E-03    rms(broyden)= 0.23699E-03
  rms(prec ) = 0.40886E-03
  weight for this iteration     100.00

 eigenvalues of (default mixing * dielectric matrix)
  average eigenvalue GAMMA=   1.8298
  5.2915  2.7929  2.4730  1.6351  1.6351  1.2953  1.2953  0.9113  0.9113  0.9433
  0.9433

 Free energy of the ion-electron system (eV)
  ---------------------------------------------------
  alpha Z        PSCENC =        36.80884744
  Ewald energy   TEWEN  =     11893.57012394
  -Hartree energ DENC   =    -15034.43808203
  -exchange      EXHF   =         0.00000000
  -V(xc)+E(xc)   XCENC  =       -80.62165904
  PAW double counting   =      1155.09374116     -833.76883592
  entropy T*S    EENTRO =        -0.01767319
  eigenvalues    EBANDS =      -616.67693840
  atomic energy  EATOM  =      3354.04126044
  ---------------------------------------------------
  free energy    TOTEN  =      -126.00921560 eV

  energy without entropy =     -125.99154241  energy(sigma->0) =     -126.00037901


--------------------------------------------------------------------------------------------------------




----------------------------------------- Iteration    1(  17)  ---------------------------------------


    POTLOK:  cpu time   16.32: real time   16.32
    SETDIJ:  cpu time    0.01: real time    0.01
     EDDAV:  cpu time  120.19: real time  120.22
       DOS:  cpu time    0.01: real time    0.01
    CHARGE:  cpu time    6.04: real time    6.05
    MIXING:  cpu time    0.03: real time    0.03
    --------------------------------------------
      LOOP:  cpu time  142.61: real time  142.64

 eigenvalue-minimisations  :  7624
 total energy-change (2. order) :-0.9535844E-04  (-0.4927434E-05)
 number of electron     107.9999995 magnetization 
 augmentation part       -9.2836699 magnetization 

 Broyden mixing:
  rms(total) = 0.15504E-03    rms(broyden)= 0.15503E-03
  rms(prec ) = 0.27619E-03
  weight for this iteration     100.00

 eigenvalues of (default mixing * dielectric matrix)
  average eigenvalue GAMMA=   1.9154
  6.0297  2.8956  2.6764  2.0409  1.7431  1.3780  1.3780  0.8813  0.9409  0.9409
  1.0399  1.0399

 Free energy of the ion-electron system (eV)
  ---------------------------------------------------
  alpha Z        PSCENC =        36.80884744
  Ewald energy   TEWEN  =     11893.57012394
  -Hartree energ DENC   =    -15034.63468087
  -exchange      EXHF   =         0.00000000
  -V(xc)+E(xc)   XCENC  =       -80.62085511
  PAW double counting   =      1155.09943066     -833.77458048
  entropy T*S    EENTRO =        -0.01767101
  eigenvalues    EBANDS =      -616.48118597
  atomic energy  EATOM  =      3354.04126044
  ---------------------------------------------------
  free energy    TOTEN  =      -126.00931096 eV

  energy without entropy =     -125.99163995  energy(sigma->0) =     -126.00047546


--------------------------------------------------------------------------------------------------------




----------------------------------------- Iteration    1(  18)  ---------------------------------------


    POTLOK:  cpu time   16.40: real time   16.40
    SETDIJ:  cpu time    0.01: real time    0.01
     EDDAV:  cpu time  109.08: real time  109.16
       DOS:  cpu time    0.01: real time    0.01
    CHARGE:  cpu time    5.75: real time    5.75
    MIXING:  cpu time    0.02: real time    0.02
    --------------------------------------------
      LOOP:  cpu time  131.28: real time  131.37

 eigenvalue-minimisations  :  6520
 total energy-change (2. order) :-0.3713087E-04  (-0.2606678E-05)
 number of electron     107.9999995 magnetization 
 augmentation part       -9.2836649 magnetization 

 Broyden mixing:
  rms(total) = 0.10471E-03    rms(broyden)= 0.10470E-03
  rms(prec ) = 0.17234E-03
  weight for this iteration     100.00

 eigenvalues of (default mixing * dielectric matrix)
  average eigenvalue GAMMA=   1.9017
  6.4113  3.0362  2.6322  2.1633  1.4850  1.4850  1.3894  1.3894  0.8855  0.9699
  0.9699  0.9527  0.9527

 Free energy of the ion-electron system (eV)
  ---------------------------------------------------
  alpha Z        PSCENC =        36.80884744
  Ewald energy   TEWEN  =     11893.57012394
  -Hartree energ DENC   =    -15034.78833623
  -exchange      EXHF   =         0.00000000
  -V(xc)+E(xc)   XCENC  =       -80.62039081
  PAW double counting   =      1155.10049216     -833.77556903
  entropy T*S    EENTRO =        -0.01767173
  eigenvalues    EBANDS =      -616.32810429
  atomic energy  EATOM  =      3354.04126044
  ---------------------------------------------------
  free energy    TOTEN  =      -126.00934809 eV

  energy without entropy =     -125.99167636  energy(sigma->0) =     -126.00051223


--------------------------------------------------------------------------------------------------------




----------------------------------------- Iteration    1(  19)  ---------------------------------------


    POTLOK:  cpu time   16.18: real time   16.19
    SETDIJ:  cpu time    0.01: real time    0.01
     EDDAV:  cpu time  104.70: real time  104.80
       DOS:  cpu time    0.01: real time    0.01
    CHARGE:  cpu time    6.14: real time    6.15
    MIXING:  cpu time    0.03: real time    0.03
    --------------------------------------------
      LOOP:  cpu time  127.08: real time  127.20

 eigenvalue-minimisations  :  6192
 total energy-change (2. order) :-0.2635368E-04  (-0.4914096E-06)
 number of electron     107.9999995 magnetization 
 augmentation part       -9.2836673 magnetization 

 Broyden mixing:
  rms(total) = 0.70005E-04    rms(broyden)= 0.70001E-04
  rms(prec ) = 0.12471E-03
  weight for this iteration     100.00

 eigenvalues of (default mixing * dielectric matrix)
  average eigenvalue GAMMA=   1.9567
  6.8939  3.4025  2.7808  2.2999  1.6914  1.4834  1.4834  1.2915  1.2915  1.0060
  1.0060  0.8736  0.9449  0.9449

 Free energy of the ion-electron system (eV)
  ---------------------------------------------------
  alpha Z        PSCENC =        36.80884744
  Ewald energy   TEWEN  =     11893.57012394
  -Hartree energ DENC   =    -15034.80771664
  -exchange      EXHF   =         0.00000000
  -V(xc)+E(xc)   XCENC  =       -80.62058674
  PAW double counting   =      1155.09840609     -833.77344509
  entropy T*S    EENTRO =        -0.01767046
  eigenvalues    EBANDS =      -616.30859343
  atomic energy  EATOM  =      3354.04126044
  ---------------------------------------------------
  free energy    TOTEN  =      -126.00937445 eV

  energy without entropy =     -125.99170399  energy(sigma->0) =     -126.00053922


--------------------------------------------------------------------------------------------------------




----------------------------------------- Iteration    1(  20)  ---------------------------------------


    POTLOK:  cpu time   16.41: real time   16.43
    SETDIJ:  cpu time    0.01: real time    0.01
     EDDAV:  cpu time  112.02: real time  112.10
       DOS:  cpu time    0.01: real time    0.01
    CHARGE:  cpu time    5.78: real time    5.78
    MIXING:  cpu time    0.03: real time    0.03
    --------------------------------------------
      LOOP:  cpu time  134.26: real time  134.36

 eigenvalue-minimisations  :  6920
 total energy-change (2. order) : 0.3547369E-04  (-0.2662669E-05)
 number of electron     107.9999995 magnetization 
 augmentation part       -9.2836652 magnetization 

 Broyden mixing:
  rms(total) = 0.47793E-04    rms(broyden)= 0.47791E-04
  rms(prec ) = 0.71786E-04
  weight for this iteration     100.00

 eigenvalues of (default mixing * dielectric matrix)
  average eigenvalue GAMMA=   2.0200
  7.0506  4.3853  2.8037  2.5878  1.9132  1.4609  1.4609  1.5059  1.2653  1.1522
  0.9791  0.9791  0.9414  0.9414  0.8737

 Free energy of the ion-electron system (eV)
  ---------------------------------------------------
  alpha Z        PSCENC =        36.80884744
  Ewald energy   TEWEN  =     11893.57012394
  -Hartree energ DENC   =    -15034.86502632
  -exchange      EXHF   =         0.00000000
  -V(xc)+E(xc)   XCENC  =       -80.62041706
  PAW double counting   =      1155.09613842     -833.77111312
  entropy T*S    EENTRO =        -0.01767069
  eigenvalues    EBANDS =      -616.25148202
  atomic energy  EATOM  =      3354.04126044
  ---------------------------------------------------
  free energy    TOTEN  =      -126.00933897 eV

  energy without entropy =     -125.99166828  energy(sigma->0) =     -126.00050363


--------------------------------------------------------------------------------------------------------




----------------------------------------- Iteration    1(  21)  ---------------------------------------


    POTLOK:  cpu time   16.42: real time   16.43
    SETDIJ:  cpu time    0.01: real time    0.01
     EDDAV:  cpu time  105.14: real time  105.22
       DOS:  cpu time    0.01: real time    0.01
    CHARGE:  cpu time    6.11: real time    6.11
    MIXING:  cpu time    0.03: real time    0.03
    --------------------------------------------
      LOOP:  cpu time  127.73: real time  127.82

 eigenvalue-minimisations  :  6256
 total energy-change (2. order) : 0.2907843E-04  (-0.1652047E-05)
 number of electron     107.9999995 magnetization 
 augmentation part       -9.2836683 magnetization 

 Broyden mixing:
  rms(total) = 0.25628E-04    rms(broyden)= 0.25626E-04
  rms(prec ) = 0.35177E-04
  weight for this iteration     100.00

 eigenvalues of (default mixing * dielectric matrix)
  average eigenvalue GAMMA=   2.1727
  8.0122  5.7821  3.0020  2.6188  2.1586  1.8845  1.4198  1.4198  1.3509  1.3509
  1.0088  1.0088  0.9403  0.9403  0.8763  0.9890

 Free energy of the ion-electron system (eV)
  ---------------------------------------------------
  alpha Z        PSCENC =        36.80884744
  Ewald energy   TEWEN  =     11893.57012394
  -Hartree energ DENC   =    -15034.86159889
  -exchange      EXHF   =         0.00000000
  -V(xc)+E(xc)   XCENC  =       -80.62059508
  PAW double counting   =      1155.09448905     -833.76943291
  entropy T*S    EENTRO =        -0.01767116
  eigenvalues    EBANDS =      -616.25473273
  atomic energy  EATOM  =      3354.04126044
  ---------------------------------------------------
  free energy    TOTEN  =      -126.00930990 eV

  energy without entropy =     -125.99163873  energy(sigma->0) =     -126.00047431


--------------------------------------------------------------------------------------------------------




----------------------------------------- Iteration    1(  22)  ---------------------------------------


    POTLOK:  cpu time   16.42: real time   16.44
    SETDIJ:  cpu time    0.01: real time    0.01
     EDDAV:  cpu time  108.92: real time  109.01
       DOS:  cpu time    0.01: real time    0.01
    CHARGE:  cpu time    5.68: real time    5.69
    MIXING:  cpu time    0.02: real time    0.02
    --------------------------------------------
      LOOP:  cpu time  131.07: real time  131.19

 eigenvalue-minimisations  :  6712
 total energy-change (2. order) : 0.6043437E-04  (-0.1032921E-05)
 number of electron     107.9999995 magnetization 
 augmentation part       -9.2836659 magnetization 

 Broyden mixing:
  rms(total) = 0.13475E-04    rms(broyden)= 0.13473E-04
  rms(prec ) = 0.16439E-04
  weight for this iteration     100.00

 eigenvalues of (default mixing * dielectric matrix)
  average eigenvalue GAMMA=   2.1953
  8.2053  6.4275  3.0507  2.6418  2.3830  1.7645  1.7645  1.4130  1.4130  1.2904
  1.1484  1.0235  1.0235  0.9590  0.9590  0.8735  0.9787

 Free energy of the ion-electron system (eV)
  ---------------------------------------------------
  alpha Z        PSCENC =        36.80884744
  Ewald energy   TEWEN  =     11893.57012394
  -Hartree energ DENC   =    -15034.87460278
  -exchange      EXHF   =         0.00000000
  -V(xc)+E(xc)   XCENC  =       -80.62058770
  PAW double counting   =      1155.09331542     -833.76824977
  entropy T*S    EENTRO =        -0.01767030
  eigenvalues    EBANDS =      -616.24168615
  atomic energy  EATOM  =      3354.04126044
  ---------------------------------------------------
  free energy    TOTEN  =      -126.00924946 eV

  energy without entropy =     -125.99157916  energy(sigma->0) =     -126.00041431


--------------------------------------------------------------------------------------------------------




----------------------------------------- Iteration    1(  23)  ---------------------------------------


    POTLOK:  cpu time   16.30: real time   16.31
    SETDIJ:  cpu time    0.01: real time    0.01
     EDDAV:  cpu time  102.79: real time  102.84
       DOS:  cpu time    0.01: real time    0.01
    --------------------------------------------
      LOOP:  cpu time  119.12: real time  119.18

 eigenvalue-minimisations  :  6120
 total energy-change (2. order) : 0.9178184E-06  (-0.8099057E-06)
 number of electron     107.9999995 magnetization 
 augmentation part       -9.2836659 magnetization 

 Free energy of the ion-electron system (eV)
  ---------------------------------------------------
  alpha Z        PSCENC =        36.80884744
  Ewald energy   TEWEN  =     11893.57012394
  -Hartree energ DENC   =    -15034.86888136
  -exchange      EXHF   =         0.00000000
  -V(xc)+E(xc)   XCENC  =       -80.62063056
  PAW double counting   =      1155.09411520     -833.76907172
  entropy T*S    EENTRO =        -0.01767079
  eigenvalues    EBANDS =      -616.24734114
  atomic energy  EATOM  =      3354.04126044
  ---------------------------------------------------
  free energy    TOTEN  =      -126.00924854 eV

  energy without entropy =     -125.99157775  energy(sigma->0) =     -126.00041315


--------------------------------------------------------------------------------------------------------




 average (electrostatic) potential at core
  the test charge radii are     0.9587  0.9892
  (the norm of the test charge is              1.0000)
       1 -88.7849       2 -88.7009       3 -88.7586       4 -88.8589       5 -88.7387
       6 -88.7237       7 -88.6631       8 -89.1964       9 -88.7576      10 -88.7107
[...]
     31      -4.0436      2.00000
     32      -3.9981      2.00000
     33      -3.8461      2.00000
     34      -3.7247      2.00000
     35      -3.3670      2.00000
     36      -3.2486      2.00000
     37      -3.1748      2.00000
     38      -3.0663      2.00000
     39      -2.9026      2.00000
     40      -2.6874      2.00000
     41      -2.6100      2.00000
     42      -2.5489      2.00000
     43      -2.4745      2.00000
     44      -2.4144      2.00000
     45      -2.0198      2.00000
     46      -1.9925      2.00000
     47      -1.8829      2.00000
     48      -1.7693      2.00000
     49      -1.4410      2.00000
     50      -1.3815      2.00000
     51      -1.0736      2.00000
     52      -0.8914      2.00000
     53      -0.6788      2.00000
     54      -0.1554      1.94508
     55       0.3894      0.00000
     56       0.9081      0.00000
     57       1.2014      0.00000
     58       1.4341      0.00000
     59       1.5772      0.00000
     60       1.8724      0.00000
     61       2.1835      0.00000
     62       2.2889      0.00000
     63       2.5794      0.00000
     64       2.7023      0.00000
     65       2.9007      0.00000
     66       3.0032      0.00000
     67       3.1087      0.00000
     68       3.2267      0.00000

 k-point    52 :       0.3077    0.5000    0.5000
  band No.  band energies     occupation 
      1     -13.6305      2.00000
      2     -12.5110      2.00000
      3     -12.1680      2.00000
      4     -12.0062      2.00000
      5     -11.6687      2.00000
      6     -11.5934      2.00000
      7     -11.2235      2.00000
      8     -11.0194      2.00000
      9     -10.8086      2.00000
     10     -10.7140      2.00000
     11     -10.3960      2.00000
     12     -10.0140      2.00000
     13      -8.9249      2.00000
     14      -8.7706      2.00000
     15      -7.7773      2.00000
     16      -7.6326      2.00000
     17      -7.1433      2.00000
     18      -7.0678      2.00000
     19      -6.9669      2.00000
     20      -6.8295      2.00000
     21      -6.4911      2.00000
     22      -6.2001      2.00000
     23      -6.1741      2.00000
     24      -5.9250      2.00000
     25      -5.3620      2.00000
     26      -5.2011      2.00000
     27      -4.8996      2.00000
     28      -4.6772      2.00000
     29      -4.5659      2.00000
     30      -4.5097      2.00000
     31      -4.4218      2.00000
     32      -4.3177      2.00000
     33      -4.0853      2.00000
     34      -3.9714      2.00000
     35      -3.3088      2.00000
     36      -3.2621      2.00000
     37      -3.1450      2.00000
     38      -3.0638      2.00000
     39      -2.9968      2.00000
     40      -2.9570      2.00000
     41      -2.8920      2.00000
     42      -2.6408      2.00000
     43      -2.5306      2.00000
     44      -2.4134      2.00000
     45      -2.2643      2.00000
     46      -2.2193      2.00000
     47      -1.9498      2.00000
     48      -1.8783      2.00000
     49      -1.7429      2.00000
     50      -1.4988      2.00000
     51      -1.3161      2.00000
     52      -1.1890      2.00000
     53      -0.7170      2.00000
     54      -0.1851      1.98073
     55       0.2567      0.00009
     56       0.4749      0.00000
     57       0.8302      0.00000
     58       1.2847      0.00000
     59       1.3222      0.00000
     60       1.4401      0.00000
     61       1.8727      0.00000
     62       2.1590      0.00000
     63       2.2751      0.00000
     64       2.4477      0.00000
     65       2.5417      0.00000
     66       2.6614      0.00000
     67       2.8066      0.00000
     68       2.9682      0.00000

 k-point    53 :       0.3846    0.5000    0.5000
  band No.  band energies     occupation 
      1     -13.2269      2.00000
      2     -12.0349      2.00000
      3     -11.6722      2.00000
      4     -11.6615      2.00000
      5     -11.2773      2.00000
      6     -11.2275      2.00000
      7     -11.0543      2.00000
      8     -10.7760      2.00000
      9     -10.6173      2.00000
     10     -10.5275      2.00000
     11     -10.4621      2.00000
     12     -10.0615      2.00000
     13      -8.9090      2.00000
     14      -8.6644      2.00000
     15      -8.2520      2.00000
     16      -7.9393      2.00000
     17      -7.6188      2.00000
     18      -7.5230      2.00000
     19      -7.3857      2.00000
     20      -7.2807      2.00000
     21      -7.0112      2.00000
     22      -6.7226      2.00000
     23      -6.6604      2.00000
     24      -6.5656      2.00000
     25      -5.3042      2.00000
     26      -5.1902      2.00000
     27      -4.7567      2.00000
     28      -4.6774      2.00000
     29      -4.5237      2.00000
     30      -4.4180      2.00000
     31      -4.3086      2.00000
     32      -4.1412      2.00000
     33      -4.0639      2.00000
     34      -4.0376      2.00000
     35      -3.5474      2.00000
     36      -3.5134      2.00000
     37      -3.4075      2.00000
     38      -3.1952      2.00000
     39      -3.1450      2.00000
     40      -3.1324      2.00000
     41      -2.9064      2.00000
     42      -2.8425      2.00000
     43      -2.6396      2.00000
     44      -2.4626      2.00000
     45      -2.3074      2.00000
     46      -2.2520      2.00000
     47      -2.1019      2.00000
     48      -2.0436      2.00000
     49      -1.8588      2.00000
     50      -1.6580      2.00000
     51      -1.4551      2.00000
     52      -1.3493      2.00000
     53      -0.7201      2.00000
     54      -0.2198      1.99535
     55       0.0860      0.13524
     56       0.3011      0.00001
     57       0.6535      0.00000
     58       1.0938      0.00000
     59       1.2607      0.00000
     60       1.5294      0.00000
     61       1.7173      0.00000
     62       1.8375      0.00000
     63       2.0848      0.00000
     64       2.1295      0.00000
     65       2.2772      0.00000
     66       2.3355      0.00000
     67       2.5027      0.00000
     68       2.7093      0.00000

 k-point    54 :       0.4615    0.5000    0.5000
  band No.  band energies     occupation 
      1     -12.8953      2.00000
      2     -11.5871      2.00000
      3     -11.4917      2.00000
      4     -11.1738      2.00000
      5     -10.9911      2.00000
      6     -10.9488      2.00000
      7     -10.8552      2.00000
      8     -10.8075      2.00000
      9     -10.7268      2.00000
     10     -10.6174      2.00000
     11     -10.4890      2.00000
     12     -10.1583      2.00000
     13      -8.6683      2.00000
     14      -8.5909      2.00000
     15      -8.4412      2.00000
     16      -8.1215      2.00000
     17      -8.0392      2.00000
     18      -7.7914      2.00000
     19      -7.5617      2.00000
     20      -7.5283      2.00000
     21      -7.4662      2.00000
     22      -7.2892      2.00000
     23      -7.1743      2.00000
     24      -6.8208      2.00000
     25      -5.0452      2.00000
     26      -4.9492      2.00000
     27      -4.6760      2.00000
     28      -4.4930      2.00000
     29      -4.4328      2.00000
     30      -4.2598      2.00000
     31      -4.1648      2.00000
     32      -4.0662      2.00000
     33      -3.9870      2.00000
     34      -3.9376      2.00000
     35      -3.7952      2.00000
     36      -3.7658      2.00000
     37      -3.5548      2.00000
     38      -3.5311      2.00000
     39      -3.3233      2.00000
     40      -3.2628      2.00000
     41      -3.0992      2.00000
     42      -3.0200      2.00000
     43      -2.6967      2.00000
     44      -2.5699      2.00000
     45      -2.3766      2.00000
     46      -2.1917      2.00000
     47      -2.1444      2.00000
     48      -2.0881      2.00000
     49      -1.7658      2.00000
     50      -1.7140      2.00000
     51      -1.5335      2.00000
     52      -1.3543      2.00000
     53      -0.6826      2.00000
     54      -0.2825      1.99980
     55      -0.0993      1.74026
     56       0.2104      0.00114
     57       0.6314      0.00000
     58       1.0704      0.00000
     59       1.3443      0.00000
     60       1.5677      0.00000
     61       1.6286      0.00000
     62       1.7319      0.00000
     63       1.8608      0.00000
     64       1.9868      0.00000
     65       2.0571      0.00000
     66       2.2898      0.00000
     67       2.3662      0.00000
     68       2.4888      0.00000


--------------------------------------------------------------------------------------------------------


 soft charge-density along one line, spin component           1
         0         1         2         3         4         5         6         7         8         9
 total charge-density along one line
 
 pseudopotential strength for first ion, spin component:           1
 29.777   0.008  -0.000  -0.023   0.000  -0.000  -0.001   0.000
  0.008   0.009  -0.000  -0.000  -0.000   0.000   0.000   0.000
 -0.000  -0.000   6.548  -0.001   0.000  -0.003   0.000  -0.000
 -0.023  -0.000  -0.001   6.543   0.000   0.000  -0.002  -0.000
  0.000  -0.000   0.000   0.000   6.549  -0.000  -0.000  -0.003
 -0.000   0.000  -0.003   0.000  -0.000   0.015  -0.000   0.000
 -0.001   0.000   0.000  -0.002  -0.000  -0.000   0.015  -0.000
  0.000   0.000  -0.000  -0.000  -0.003   0.000  -0.000   0.015
 total augmentation occupancy for first ion, spin component:           1
  1.814  -0.358   0.008   0.255  -0.000   0.006   0.112  -0.000
 -0.358   1.291   0.030   0.856  -0.000   0.002  -0.432   0.000
  0.008   0.030   1.143   0.011  -0.000  -0.504   0.016   0.000
  0.255   0.856   0.011   1.293  -0.000   0.016  -0.421  -0.000
 -0.000  -0.000  -0.000  -0.000   1.144   0.000  -0.000  -0.527
  0.006   0.002  -0.504   0.016   0.000   0.292  -0.016  -0.000
  0.112  -0.432   0.016  -0.421  -0.000  -0.016   0.228   0.000
 -0.000   0.000   0.000  -0.000  -0.527  -0.000   0.000   0.326


------------------------ aborting loop because EDIFF is reached ----------------------------------------


    CHARGE:  cpu time    5.88: real time    5.88
    FORLOC:  cpu time    0.13: real time    0.14
    FORNL :  cpu time   28.24: real time   28.25
    STRESS:  cpu time   83.97: real time   83.99
    FORCOR:  cpu time   16.24: real time   16.24
    FORHAR:  cpu time    0.36: real time    0.36
    MIXING:  cpu time    0.03: real time    0.03
    OFIELD:  cpu time    0.00: real time    0.00

  FORCE on cell =-STRESS in cart. coord.  units (eV):
  Direction    XX          YY          ZZ          XY          YZ          ZX
  --------------------------------------------------------------------------------------
  Alpha Z    36.80885    36.80885    36.80885
  Ewald   14336.40812 13969.35700-16412.20232    -3.18791   -16.99125     4.20537
  Hartree 14867.56890 14591.50068-14424.20031    -1.09538    -6.78813     0.70012
  E(xc)    -356.51065  -356.13094  -354.78699     0.04978     0.09561     0.06605
  Local  -30744.51019-30116.90478 29248.32158     4.77353    22.47420    -3.58876
  n-local  1143.76074  1148.00538  1143.48158    -0.82107     0.93338    -0.35752
  augment  -199.75019  -201.86286  -204.37507     0.04318     0.76076     0.15604
  Kinetic   912.76330   930.23309   978.06933     0.50294   -18.10911    -0.28646
  Fock        0.00000     0.00000     0.00000     0.00000     0.00000     0.00000
  -------------------------------------------------------------------------------------
  Total      -3.46112     1.00642    11.11664     0.26506   -17.62453     0.89485
  in kB      -5.53249     1.60873    17.76960     0.42370   -28.17226     1.43038
  external pressure =        4.62 kB  Pullay stress =        0.00 kB


 VOLUME and BASIS-vectors are now :
 -----------------------------------------------------------------------------
  energy-cutoff  :      300.00
  volume of cell :     1002.32
      direct lattice vectors                 reciprocal lattice vectors
     3.540400000  0.000000000  0.000000000     0.282453960  0.048570342  0.000000000
    -1.770200000 10.294348000  0.000000000     0.000000000  0.097140683  0.000000000
     0.000000000  0.000000000 27.501429000     0.000000000  0.000000000  0.036361747

  length of vectors
     3.540400000 10.445439617 27.501429000     0.286599577  0.097140683  0.036361747


 FORCES acting on ions
    electron-ion (+dipol)            ewald-force                    non-local-force                 convergence-correction
 -----------------------------------------------------------------------------------------------
   -.577E-02 0.594E+01 0.272E+02   -.936E-03 -.582E+01 -.226E+02   0.702E-02 -.187E+00 -.464E+01   0.152E-06 0.215E-05 -.919E-04
   -.249E-01 -.884E+01 -.571E+03   0.418E-01 0.920E+01 0.575E+03   0.988E-01 -.946E+00 -.343E+01   -.127E-05 0.854E-05 -.102E-03
   -.249E-02 0.631E+02 0.504E+02   0.248E-02 -.646E+02 -.463E+02   0.459E-03 0.148E+01 -.409E+01   -.110E-06 0.271E-04 -.625E-04
   -.279E+00 0.589E+02 -.544E+03   0.187E+00 -.607E+02 0.549E+03   0.241E+00 0.102E+01 -.395E+01   0.376E-05 0.691E-04 -.403E-04
   -.570E-04 -.570E+02 0.526E+03   0.910E-04 0.586E+02 -.531E+03   -.957E-04 -.154E+01 0.429E+01   0.322E-06 -.377E-04 0.454E-04
   -.199E+01 -.479E+02 -.687E+02   0.293E+01 0.509E+02 0.607E+02   -.824E+00 -.553E+00 0.739E+01   -.114E-05 -.250E-04 0.461E-04
   -.638E-03 0.538E+02 0.526E+03   0.111E-04 -.557E+02 -.530E+03   0.117E-03 0.191E+01 0.418E+01   0.248E-08 0.495E-04 0.487E-04
   0.419E+01 0.659E+02 -.250E+02   -.409E+01 -.690E+02 0.255E+02   -.633E+00 0.468E+01 -.584E+01   0.135E-05 -.131E-04 -.564E-05
   0.411E-05 0.170E+01 0.572E+03   -.856E-04 -.190E+01 -.577E+03   0.138E-02 0.198E+00 0.478E+01   0.251E-09 -.249E-04 0.635E-04
   0.203E+00 -.204E+02 -.282E+02   -.134E-01 0.201E+02 0.235E+02   -.244E+00 0.119E+01 0.404E+01   -.139E-05 0.400E-04 0.224E-04
   0.105E-02 -.628E+02 0.580E+02   -.103E-02 0.648E+02 -.538E+02   0.848E-03 -.197E+01 -.411E+01   0.132E-06 -.266E-04 -.778E-04
   0.230E+00 -.481E+02 -.515E+03   -.345E+00 0.504E+02 0.518E+03   0.619E-01 -.297E+01 -.311E+01   -.450E-06 -.959E-04 -.883E-04
   -.624E-03 0.309E+02 0.209E+03   -.192E-03 -.331E+02 -.210E+03   0.361E-02 0.216E+01 0.397E+00   0.705E-07 0.116E-04 -.449E-04
   -.184E+01 0.400E+02 -.299E+03   0.149E+01 -.425E+02 0.297E+03   0.503E+00 0.172E+00 0.781E+01   -.526E-06 0.258E-04 -.779E-05
   -.833E-03 -.122E+02 0.138E+03   0.101E-03 0.125E+02 -.140E+03   -.171E-02 -.328E+00 0.257E+01   -.130E-07 -.181E-04 -.598E-04
   -.129E+01 -.174E+02 -.318E+03   0.117E+01 0.171E+02 0.319E+03   0.401E-01 -.298E+00 -.136E+01   -.112E-05 -.439E-04 -.629E-04
   0.233E-03 -.520E+01 0.346E+03   0.736E-04 0.566E+01 -.343E+03   -.432E-03 -.472E+00 -.253E+01   0.101E-06 -.236E-04 0.214E-04
   0.442E+00 -.205E+02 -.138E+03   -.461E+00 0.213E+02 0.138E+03   -.611E-02 0.152E+00 0.477E+00   0.109E-05 0.269E-04 0.570E-04
   -.460E-05 0.955E+01 0.335E+03   0.410E-06 -.977E+01 -.333E+03   -.247E-02 0.215E+00 -.254E+01   -.130E-07 0.651E-05 0.664E-05
   -.972E+00 0.321E+01 -.136E+03   0.110E+01 0.596E+00 0.136E+03   0.147E+00 -.978E+00 -.151E+00   -.474E-06 0.354E-04 0.323E-04
   -.506E-03 0.102E+02 0.127E+03   0.393E-03 -.106E+02 -.129E+03   0.399E-03 0.346E+00 0.250E+01   -.140E-06 0.896E-05 -.697E-04
   -.588E+00 -.897E+01 -.340E+03   0.528E+00 0.882E+01 0.339E+03   0.162E-01 -.368E+00 -.265E+00   0.638E-06 0.371E-04 -.403E-04
   -.313E-03 -.310E+02 0.254E+03   -.138E-03 0.331E+02 -.254E+03   0.227E-02 -.206E+01 -.397E+00   -.492E-07 0.303E-05 -.573E-05
   0.263E+01 0.137E+01 -.184E+03   -.254E+01 0.557E+00 0.188E+03   -.112E+00 -.497E+01 -.389E+01   0.280E-05 -.463E-04 -.327E-04
 -----------------------------------------------------------------------------------------------
   0.705E+00 0.412E+01 0.188E+01   -.133E-13 0.611E-13 -.568E-13   -.700E+00 -.412E+01 -.188E+01   0.371E-05 -.331E-05 -.449E-03
 
 
 POSITION                                       TOTAL-FORCE (eV/Angst)
 -----------------------------------------------------------------------------------
      0.00000      2.34757      6.41229         0.000087     -0.062988      0.019195
      0.17702      3.37701     14.16300         0.115502     -0.594619      0.360156
     -0.00000      9.43147      5.75866         0.000216     -0.008908      0.079077
      1.94722      0.16655     13.50937         0.148892     -0.797400      0.779138
     -0.00000      6.40009      2.31424        -0.000293     -0.002705      0.004038
     -0.00000      6.40009     10.06495         0.119544      2.516203     -0.620104
      1.77020     10.27849      2.37372        -0.000742     -0.008494      0.004655
      1.77020     10.27849     10.12443        -0.528423      1.558255     -5.321829
      1.77020      3.18974      1.66157         0.001064     -0.002145      0.006558
      1.77020      3.18974      9.41228        -0.054766      0.811329     -0.665797
      1.77020      5.55354      5.69975         0.000634      0.011460      0.095836
      1.94722      6.58298     13.45047        -0.052803     -0.715131      0.070171
      1.77020      9.05319      4.34076         0.002561     -0.008988      0.008862
     -1.59318     10.08262     12.09147         0.151602     -2.407983      5.626848
      0.00000      4.22380      5.10944        -0.002677      0.040337      0.068741
      0.17702      5.25324     12.86016        -0.077868     -0.540327     -0.434011
     -0.00000      4.15582      2.74166        -0.000357     -0.009326     -0.021172
     -0.00000      4.15582     10.49237        -0.025980      0.979248      0.992806
      1.77020      1.31366      2.96438        -0.002704     -0.002798     -0.008855
      1.77020      1.31366     10.71510         0.278681      2.828258     -0.462969
      1.77020      1.38163      5.33187         0.000054     -0.013711     -0.027250
      1.94722      2.41106     13.08259        -0.044336     -0.513123     -0.551717
      1.77020      6.77850      3.73234         0.001588     -0.011026      0.003713
      1.94722      7.80793     11.48306        -0.029478     -3.045419     -0.006092
 -----------------------------------------------------------------------------------
    total drift:                                0.005555      0.000610      0.002838


--------------------------------------------------------------------------------------------------------



  FREE ENERGIE OF THE ION-ELECTRON SYSTEM (eV)
  ---------------------------------------------------
  free  energy   TOTEN  =      -126.00924854 eV

  energy  without entropy=     -125.99157775  energy(sigma->0) =     -126.00041315
 


--------------------------------------------------------------------------------------------------------


    POTLOK:  cpu time   16.39: real time   16.39


--------------------------------------------------------------------------------------------------------


     LOOP+:  cpu time 3511.43: real time 3512.94
    4ORBIT:  cpu time    0.00: real time    0.00

 total amount of memory used by VASP on root node   146493. kBytes
========================================================================

   base      :      30000. kBytes
   nonlr-proj:       3452. kBytes
   fftplans  :       9347. kBytes
   grid      :      14649. kBytes
   one-center:         36. kBytes
   wavefun   :      89009. kBytes
 
  
  
 General timing and accounting informations for this job:
 ========================================================
  
                  Total CPU time used (sec):     3545.343
                            User time (sec):     3498.897
                          System time (sec):       46.446
                         Elapsed time (sec):     3547.976
  
                   Maximum memory used (kb):      335116.
                   Average memory used (kb):           0.
  
                          Minor page faults:      7013831
                          Major page faults:           16
                 Voluntary context switches:         1745
