<?xml version="1.0" encoding="ISO-8859-1"?>
<modeling>
 <generator>
  <i name="program" type="string">vasp </i>
  <i name="version" type="string">5.4.1  </i>
  <i name="subversion" type="string">24Jun15 (build May 10 2016 14:18:23) complex                          parallel </i>
  <i name="platform" type="string">IFC91_ompi </i>
  <i name="date" type="string">2016 12 09 </i>
  <i name="time" type="string">14:59:17 </i>
 </generator>
 <incar>
  <i type="string" name="PREC">accurate</i>
  <i type="string" name="ALGO"> Fast</i>
  <i type="int" name="ISPIN">     2</i>
  <i type="int" name="IBRION">     2</i>
  <i name="EDIFF">      0.00010000</i>
  <i type="int" name="NSW">     0</i>
  <i type="int" name="ISIF">     3</i>
  <i name="ENCUT">    500.00000000</i>
  <v name="MAGMOM">      6.00000000      0.50000000      0.50000000      6.00000000      0.50000000      0.50000000</v>
  <i type="string" name="LREAL"> Auto</i>
  <i type="int" name="ISMEAR">     1</i>
  <i name="SIGMA">      0.10000000</i>
  <i type="logical" name="LWAVE"> F  </i>
  <i type="logical" name="LCHARG"> F  </i>
  <i type="logical" name="LVTOT"> T  </i>
  <i type="logical" name="LVHAR"> T  </i>
  <i type="logical" name="LAECHG"> F  </i>
  <v type="int" name="KPOINT_BSE">    -1     0     0     0</v>
  <i type="string" name="GGA"> Bo</i>
  <i name="PARAM1">      0.18333333</i>
  <i name="PARAM2">      0.22000000</i>
  <i type="logical" name="LUSE_VDW"> T  </i>
  <i name="AGGAC">      0.00000000</i>
 </incar>
 <kpoints>
  <generation param="Gamma">
   <v type="int" name="divisions">      13       13        1 </v>
   <v name="usershift">      0.00000000       0.00000000       0.00000000 </v>
   <v name="genvec1">      0.07692308       0.00000000       0.00000000 </v>
   <v name="genvec2">      0.00000000       0.07692308       0.00000000 </v>
   <v name="genvec3">      0.00000000       0.00000000       1.00000000 </v>
   <v name="shift">      0.00000000       0.00000000       0.00000000 </v>
  </generation>
  <varray name="kpointlist" >
   <v>       0.00000000       0.00000000       0.00000000 </v>
   <v>       0.07692308      -0.00000000       0.00000000 </v>
   <v>       0.15384615       0.00000000       0.00000000 </v>
   <v>       0.23076923       0.00000000       0.00000000 </v>
   <v>       0.30769231      -0.00000000       0.00000000 </v>
   <v>       0.38461538       0.00000000       0.00000000 </v>
   <v>       0.46153846       0.00000000       0.00000000 </v>
   <v>       0.00000000       0.07692308       0.00000000 </v>
   <v>       0.07692308       0.07692308       0.00000000 </v>
   <v>       0.15384615       0.07692308       0.00000000 </v>
   <v>       0.23076923       0.07692308       0.00000000 </v>
   <v>       0.30769231       0.07692308       0.00000000 </v>
   <v>       0.38461538       0.07692308       0.00000000 </v>
   <v>       0.46153846       0.07692308       0.00000000 </v>
   <v>      -0.46153846       0.07692308       0.00000000 </v>
   <v>      -0.38461538       0.07692308       0.00000000 </v>
   <v>      -0.30769231       0.07692308       0.00000000 </v>
   <v>      -0.23076923       0.07692308       0.00000000 </v>
   <v>      -0.15384615       0.07692308       0.00000000 </v>
   <v>      -0.07692308       0.07692308       0.00000000 </v>
   <v>       0.00000000       0.15384615       0.00000000 </v>
   <v>       0.07692308       0.15384615       0.00000000 </v>
   <v>       0.15384615       0.15384615       0.00000000 </v>
   <v>       0.23076923       0.15384615       0.00000000 </v>
   <v>       0.30769231       0.15384615       0.00000000 </v>
   <v>       0.38461538       0.15384615       0.00000000 </v>
   <v>       0.46153846       0.15384615       0.00000000 </v>
   <v>      -0.46153846       0.15384615       0.00000000 </v>
   <v>      -0.38461538       0.15384615       0.00000000 </v>
   <v>      -0.30769231       0.15384615       0.00000000 </v>
   <v>      -0.23076923       0.15384615       0.00000000 </v>
   <v>      -0.15384615       0.15384615       0.00000000 </v>
   <v>      -0.07692308       0.15384615       0.00000000 </v>
   <v>       0.00000000       0.23076923       0.00000000 </v>
   <v>       0.07692308       0.23076923       0.00000000 </v>
   <v>       0.15384615       0.23076923       0.00000000 </v>
   <v>       0.23076923       0.23076923       0.00000000 </v>
   <v>       0.30769231       0.23076923       0.00000000 </v>
   <v>       0.38461538       0.23076923       0.00000000 </v>
   <v>       0.46153846       0.23076923       0.00000000 </v>
   <v>      -0.46153846       0.23076923       0.00000000 </v>
   <v>      -0.38461538       0.23076923       0.00000000 </v>
   <v>      -0.30769231       0.23076923       0.00000000 </v>
   <v>      -0.23076923       0.23076923       0.00000000 </v>
   <v>      -0.15384615       0.23076923       0.00000000 </v>
   <v>      -0.07692308       0.23076923       0.00000000 </v>
   <v>       0.00000000       0.30769231       0.00000000 </v>
   <v>       0.07692308       0.30769231       0.00000000 </v>
   <v>       0.15384615       0.30769231       0.00000000 </v>
   <v>       0.23076923       0.30769231       0.00000000 </v>
   <v>       0.30769231       0.30769231       0.00000000 </v>
   <v>       0.38461538       0.30769231       0.00000000 </v>
   <v>       0.46153846       0.30769231       0.00000000 </v>
   <v>      -0.46153846       0.30769231       0.00000000 </v>
   <v>      -0.38461538       0.30769231       0.00000000 </v>
   <v>      -0.30769231       0.30769231       0.00000000 </v>
   <v>      -0.23076923       0.30769231       0.00000000 </v>
   <v>      -0.15384615       0.30769231       0.00000000 </v>
   <v>      -0.07692308       0.30769231       0.00000000 </v>
   <v>       0.00000000       0.38461538       0.00000000 </v>
   <v>       0.07692308       0.38461538       0.00000000 </v>
   <v>       0.15384615       0.38461538       0.00000000 </v>
   <v>       0.23076923       0.38461538       0.00000000 </v>
   <v>       0.30769231       0.38461538       0.00000000 </v>
   <v>       0.38461538       0.38461538       0.00000000 </v>
   <v>       0.46153846       0.38461538       0.00000000 </v>
   <v>      -0.46153846       0.38461538       0.00000000 </v>
   <v>      -0.38461538       0.38461538       0.00000000 </v>
   <v>      -0.30769231       0.38461538       0.00000000 </v>
   <v>      -0.23076923       0.38461538       0.00000000 </v>
   <v>      -0.15384615       0.38461538       0.00000000 </v>
   <v>      -0.07692308       0.38461538       0.00000000 </v>
   <v>       0.00000000       0.46153846       0.00000000 </v>
   <v>       0.07692308       0.46153846       0.00000000 </v>
   <v>       0.15384615       0.46153846       0.00000000 </v>
   <v>       0.23076923       0.46153846       0.00000000 </v>
   <v>       0.30769231       0.46153846       0.00000000 </v>
   <v>       0.38461538       0.46153846       0.00000000 </v>
   <v>       0.46153846       0.46153846       0.00000000 </v>
   <v>      -0.46153846       0.46153846       0.00000000 </v>
   <v>      -0.38461538       0.46153846       0.00000000 </v>
   <v>      -0.30769231       0.46153846       0.00000000 </v>
   <v>      -0.23076923       0.46153846       0.00000000 </v>
   <v>      -0.15384615       0.46153846       0.00000000 </v>
   <v>      -0.07692308       0.46153846       0.00000000 </v>
  </varray>
  <varray name="weights" >
   <v>       0.00591716 </v>
   <v>       0.01183432 </v>
   <v>       0.01183432 </v>
   <v>       0.01183432 </v>
   <v>       0.01183432 </v>
   <v>       0.01183432 </v>
   <v>       0.01183432 </v>
   <v>       0.01183432 </v>
   <v>       0.01183432 </v>
   <v>       0.01183432 </v>
   <v>       0.01183432 </v>
   <v>       0.01183432 </v>
   <v>       0.01183432 </v>
   <v>       0.01183432 </v>
   <v>       0.01183432 </v>
   <v>       0.01183432 </v>
   <v>       0.01183432 </v>
   <v>       0.01183432 </v>
   <v>       0.01183432 </v>
   <v>       0.01183432 </v>
   <v>       0.01183432 </v>
   <v>       0.01183432 </v>
   <v>       0.01183432 </v>
   <v>       0.01183432 </v>
   <v>       0.01183432 </v>
   <v>       0.01183432 </v>
   <v>       0.01183432 </v>
   <v>       0.01183432 </v>
   <v>       0.01183432 </v>
   <v>       0.01183432 </v>
   <v>       0.01183432 </v>
   <v>       0.01183432 </v>
   <v>       0.01183432 </v>
   <v>       0.01183432 </v>
   <v>       0.01183432 </v>
   <v>       0.01183432 </v>
   <v>       0.01183432 </v>
   <v>       0.01183432 </v>
   <v>       0.01183432 </v>
   <v>       0.01183432 </v>
   <v>       0.01183432 </v>
   <v>       0.01183432 </v>
   <v>       0.01183432 </v>
   <v>       0.01183432 </v>
   <v>       0.01183432 </v>
   <v>       0.01183432 </v>
   <v>       0.01183432 </v>
   <v>       0.01183432 </v>
   <v>       0.01183432 </v>
   <v>       0.01183432 </v>
   <v>       0.01183432 </v>
   <v>       0.01183432 </v>
   <v>       0.01183432 </v>
   <v>       0.01183432 </v>
   <v>       0.01183432 </v>
   <v>       0.01183432 </v>
   <v>       0.01183432 </v>
   <v>       0.01183432 </v>
   <v>       0.01183432 </v>
   <v>       0.01183432 </v>
   <v>       0.01183432 </v>
   <v>       0.01183432 </v>
   <v>       0.01183432 </v>
   <v>       0.01183432 </v>
   <v>       0.01183432 </v>
   <v>       0.01183432 </v>
   <v>       0.01183432 </v>
   <v>       0.01183432 </v>
   <v>       0.01183432 </v>
   <v>       0.01183432 </v>
   <v>       0.01183432 </v>
   <v>       0.01183432 </v>
   <v>       0.01183432 </v>
   <v>       0.01183432 </v>
   <v>       0.01183432 </v>
   <v>       0.01183432 </v>
   <v>       0.01183432 </v>
   <v>       0.01183432 </v>
   <v>       0.01183432 </v>
   <v>       0.01183432 </v>
   <v>       0.01183432 </v>
   <v>       0.01183432 </v>
   <v>       0.01183432 </v>
   <v>       0.01183432 </v>
   <v>       0.01183432 </v>
  </varray>
 </kpoints>
 <parameters>
  <separator name="general" >
   <i type="string" name="SYSTEM">unknown system</i>
   <i type="logical" name="LCOMPAT"> F  </i>
  </separator>
  <separator name="electronic" >
   <i type="string" name="PREC">accura</i>
   <i name="ENMAX">    500.00000000</i>
   <i name="ENAUG">    392.42700000</i>
   <i name="EDIFF">      0.00010000</i>
   <i type="int" name="IALGO">    68</i>
   <i type="int" name="IWAVPR">    10</i>
   <i type="int" name="NBANDS">    36</i>
   <i name="NELECT">     48.00000000</i>
   <i type="int" name="TURBO">     0</i>
   <i type="int" name="IRESTART">     0</i>
   <i type="int" name="NREBOOT">     0</i>
   <i type="int" name="NMIN">     0</i>
   <i name="EREF">      0.00000000</i>
   <separator name="electronic smearing" >
    <i type="int" name="ISMEAR">     1</i>
    <i name="SIGMA">      0.10000000</i>
    <i name="KSPACING">      0.50000000</i>
    <i type="logical" name="KGAMMA"> T  </i>
   </separator>
   <separator name="electronic projectors" >
    <i type="logical" name="LREAL"> T  </i>
    <v name="ROPT">     -0.00025000     -0.00025000     -0.00025000     -0.00025000</v>
    <i type="int" name="LMAXPAW">  -100</i>
    <i type="int" name="LMAXMIX">     2</i>
    <i type="logical" name="NLSPLINE"> F  </i>
   </separator>
   <separator name="electronic startup" >
    <i type="int" name="ISTART">     0</i>
    <i type="int" name="ICHARG">     2</i>
    <i type="int" name="INIWAV">     1</i>
   </separator>
   <separator name="electronic spin" >
    <i type="int" name="ISPIN">     2</i>
    <i type="logical" name="LNONCOLLINEAR"> F  </i>
    <v name="MAGMOM">      6.00000000      0.50000000      0.50000000      6.00000000      0.50000000      0.50000000</v>
    <i name="NUPDOWN">     -1.00000000</i>
    <i type="logical" name="LSORBIT"> F  </i>
    <v name="SAXIS">      0.00000000      0.00000000      1.00000000</v>
    <i type="logical" name="LSPIRAL"> F  </i>
    <v name="QSPIRAL">      0.00000000      0.00000000      0.00000000</v>
    <i type="logical" name="LZEROZ"> F  </i>
   </separator>
   <separator name="electronic exchange-correlation" >
    <i type="logical" name="LASPH"> F  </i>
    <i type="logical" name="LMETAGGA"> F  </i>
   </separator>
   <separator name="electronic convergence" >
    <i type="int" name="NELM">    60</i>
    <i type="int" name="NELMDL">     0</i>
    <i type="int" name="NELMIN">     2</i>
    <i name="ENINI">    500.00000000</i>
    <separator name="electronic convergence detail" >
     <i type="logical" name="LDIAG"> T  </i>
     <i type="logical" name="LSUBROT"> F  </i>
     <i name="WEIMIN">      0.00000000</i>
     <i name="EBREAK">      0.00000069</i>
     <i name="DEPER">      0.30000000</i>
     <i type="int" name="NRMM">     4</i>
     <i name="TIME">      0.40000000</i>
    </separator>
   </separator>
   <separator name="electronic mixer" >
    <i name="AMIX">      0.40000000</i>
    <i name="BMIX">      1.00000000</i>
    <i name="AMIN">      0.10000000</i>
    <i name="AMIX_MAG">      1.60000000</i>
    <i name="BMIX_MAG">      1.00000000</i>
    <separator name="electronic mixer details" >
     <i type="int" name="IMIX">     4</i>
     <i type="logical" name="MIXFIRST"> F  </i>
     <i type="int" name="MAXMIX">   -45</i>
     <i name="WC">    100.00000000</i>
     <i type="int" name="INIMIX">     1</i>
     <i type="int" name="MIXPRE">     1</i>
     <i type="int" name="MREMOVE">     5</i>
    </separator>
   </separator>
   <separator name="electronic dipolcorrection" >
    <i type="logical" name="LDIPOL"> F  </i>
    <i type="logical" name="LMONO"> F  </i>
    <i type="int" name="IDIPOL">     0</i>
    <i name="EPSILON">      1.00000000</i>
    <v name="DIPOL">   -100.00000000   -100.00000000   -100.00000000</v>
    <i name="EFIELD">      0.00000000</i>
   </separator>
  </separator>
  <separator name="grids" >
   <i type="int" name="NGX">    24</i>
   <i type="int" name="NGY">    24</i>
   <i type="int" name="NGZ">   180</i>
   <i type="int" name="NGXF">    48</i>
   <i type="int" name="NGYF">    48</i>
   <i type="int" name="NGZF">   360</i>
   <i type="logical" name="ADDGRID"> F  </i>
  </separator>
  <separator name="ionic" >
   <i type="int" name="NSW">     0</i>
   <i type="int" name="IBRION">    -1</i>
   <i type="int" name="ISIF">     3</i>
   <i name="PSTRESS">      0.00000000</i>
   <i name="EDIFFG">      0.00100000</i>
   <i type="int" name="NFREE">     1</i>
   <i name="POTIM">      0.50000000</i>
   <i name="SMASS">     -3.00000000</i>
   <i name="SCALEE">      1.00000000</i>
  </separator>
  <separator name="ionic md" >
   <i name="TEBEG">      0.00010000</i>
   <i name="TEEND">      0.00010000</i>
   <i type="int" name="NBLOCK">     1</i>
   <i type="int" name="KBLOCK">     1</i>
   <i type="int" name="NPACO">   256</i>
   <i name="APACO">     16.00000000</i>
  </separator>
  <separator name="symmetry" >
   <i type="int" name="ISYM">     2</i>
   <i name="SYMPREC">      0.00001000</i>
  </separator>
  <separator name="dos" >
   <i type="logical" name="LORBIT"> F  </i>
   <v name="RWIGS">     -1.00000000     -1.00000000     -1.00000000     -1.00000000</v>
   <i type="int" name="NEDOS">   301</i>
   <i name="EMIN">     10.00000000</i>
   <i name="EMAX">    -10.00000000</i>
   <i name="EFERMI">      0.00000000</i>
  </separator>
  <separator name="writing" >
   <i type="int" name="NWRITE">     2</i>
   <i type="logical" name="LWAVE"> F  </i>
   <i type="logical" name="LCHARG"> F  </i>
   <i type="logical" name="LPARD"> F  </i>
   <i type="logical" name="LVTOT"> F  </i>
   <i type="logical" name="LVHAR"> T  </i>
   <i type="logical" name="LELF"> F  </i>
   <i type="logical" name="LOPTICS"> F  </i>
   <v name="STM">      0.00000000      0.00000000      0.00000000      0.00000000      0.00000000      0.00000000      0.00000000</v>
  </separator>
  <separator name="performance" >
   <i type="int" name="NPAR">     4</i>
   <i type="int" name="NSIM">     4</i>
   <i type="int" name="NBLK">    -1</i>
   <i type="logical" name="LPLANE"> T  </i>
   <i type="logical" name="LSCALAPACK"> T  </i>
   <i type="logical" name="LSCAAWARE"> F  </i>
   <i type="logical" name="LSCALU"> F  </i>
   <i type="logical" name="LASYNC"> F  </i>
   <i type="logical" name="LORBITALREAL"> F  </i>
  </separator>
  <separator name="miscellaneous" >
   <i type="int" name="IDIOT">     3</i>
   <i type="logical" name="LMUSIC"> F  </i>
   <v name="POMASS">     95.94000000     32.06600000     95.94000000     32.06600000</v>
   <v name="DARWINR">      0.00000000      0.00000000      0.00000000      0.00000000</v>
   <v name="DARWINV">      1.00000000      1.00000000      1.00000000      1.00000000</v>
   <i type="logical" name="LCORR"> T  </i>
  </separator>
  <i type="logical" name="GGA_COMPAT"> T  </i>
  <i type="logical" name="LBERRY"> F  </i>
  <i type="int" name="ICORELEVEL">     0</i>
  <i type="logical" name="LDAU"> F  </i>
  <i type="int" name="I_CONSTRAINED_M">     0</i>
  <separator name="electronic exchange-correlation" >
   <i type="string" name="GGA">BO</i>
   <i type="int" name="VOSKOWN">     0</i>
   <i type="logical" name="LHFCALC"> F  </i>
   <i type="string" name="PRECFOCK"></i>
   <i type="logical" name="LSYMGRAD"> F  </i>
   <i type="logical" name="LHFONE"> F  </i>
   <i type="logical" name="LRHFCALC"> F  </i>
   <i type="logical" name="LTHOMAS"> F  </i>
   <i type="logical" name="LMODELHF"> F  </i>
   <i name="ENCUT4O">     -1.00000000</i>
   <i type="int" name="EXXOEP">     0</i>
   <i type="int" name="FOURORBIT">     0</i>
   <i name="AEXX">      0.00000000</i>
   <i name="HFALPHA">      0.00000000</i>
   <i name="MCALPHA">      0.00000000</i>
   <i name="ALDAX">      1.00000000</i>
   <i name="AGGAX">      1.00000000</i>
   <i name="ALDAC">      1.00000000</i>
   <i name="AGGAC">      0.00000000</i>
   <i type="int" name="NKREDX">     1</i>
   <i type="int" name="NKREDY">     1</i>
   <i type="int" name="NKREDZ">     1</i>
   <i type="logical" name="SHIFTRED"> F  </i>
   <i type="logical" name="ODDONLY"> F  </i>
   <i type="logical" name="EVENONLY"> F  </i>
   <i type="int" name="LMAXFOCK">     0</i>
   <i type="int" name="NMAXFOCKAE">     0</i>
   <i type="logical" name="LFOCKAEDFT"> F  </i>
   <i name="HFSCREEN">      0.00000000</i>
   <i name="HFSCREENC">      0.00000000</i>
   <i type="int" name="NBANDSGWLOW">     0</i>
  </separator>
  <separator name="vdW DFT" >
   <i type="logical" name="LUSE_VDW"> T  </i>
   <i name="Zab_VDW">     -0.84910000</i>
   <i name="PARAM1">      0.18333333</i>
   <i name="PARAM2">      0.22000000</i>
   <i name="PARAM3">      0.00000000</i>
  </separator>
  <separator name="model GW" >
   <i type="int" name="MODEL_GW">     0</i>
   <i name="MODEL_EPS0">     20.39722663</i>
   <i name="MODEL_ALPHA">      1.00000000</i>
  </separator>
  <separator name="linear response parameters" >
   <i type="logical" name="LEPSILON"> F  </i>
   <i type="logical" name="LRPA"> F  </i>
   <i type="logical" name="LNABLA"> F  </i>
   <i type="logical" name="LVEL"> F  </i>
   <i type="int" name="KINTER">     0</i>
   <i name="CSHIFT">      0.10000000</i>
   <i name="OMEGAMAX">     -1.00000000</i>
   <i name="DEG_THRESHOLD">      0.00200000</i>
  </separator>
  <separator name="orbital magnetization" >
   <i type="logical" name="NUCIND"> F  </i>
   <v name="MAGPOS">      0.00000000      0.00000000      0.00000000</v>
   <i type="logical" name="LNICSALL"> T  </i>
   <i type="logical" name="ORBITALMAG"> F  </i>
   <i type="logical" name="LMAGBLOCH"> F  </i>
   <i type="logical" name="LCHIMAG"> F  </i>
   <i type="logical" name="LGAUGE"> T  </i>
   <i type="int" name="MAGATOM">     0</i>
   <v name="MAGDIPOL">      0.00000000      0.00000000      0.00000000</v>
   <v name="AVECCONST">      0.00000000      0.00000000      0.00000000</v>
  </separator>
  <separator name="response functions" >
   <i type="logical" name="LADDER"> F  </i>
   <i type="logical" name="LFXC"> F  </i>
   <i type="logical" name="LHARTREE"> T  </i>
   <i type="int" name="IBSE">     0</i>
   <v type="int" name="KPOINT">    -1     0     0     0</v>
   <i type="logical" name="LTCTE"> F  </i>
   <i type="logical" name="LTETE"> F  </i>
   <i type="logical" name="LTRIPLET"> F  </i>
   <i type="logical" name="LFXCEPS"> F  </i>
   <i type="logical" name="LFXHEG"> F  </i>
   <i type="int" name="NATURALO">     0</i>
   <i type="logical" name="L2ORDER"> F  </i>
   <i type="logical" name="LUSEW"> F  </i>
   <i name="ENCUTGW">     -2.00000000</i>
   <i name="ENCUTGWSOFT">     -2.00000000</i>
   <i name="ENCUTLF">     -1.00000000</i>
   <i type="int" name="LMAXMP2">    -1</i>
   <i name="SCISSOR">      0.00000000</i>
   <i type="int" name="NOMEGA">     0</i>
   <i type="int" name="NOMEGAR">     0</i>
   <i type="int" name="NBANDSGW">    -1</i>
   <i type="int" name="NBANDSO">    -1</i>
   <i type="int" name="NBANDSV">    -1</i>
   <i type="int" name="NELM">     1</i>
   <i type="int" name="NELMHF">     1</i>
   <i type="int" name="DIM">     3</i>
   <i type="int" name="ANTIRES">     0</i>
   <i name="OMEGAMAX">    -30.00000000</i>
   <i name="OMEGAMIN">    -30.00000000</i>
   <i name="OMEGATL">   -200.00000000</i>
   <i type="int" name="OMEGAGRID">     0</i>
   <i name="CSHIFT">     -0.10000000</i>
   <i type="logical" name="SELFENERGY"> F  </i>
   <i type="logical" name="LSPECTRAL"> F  </i>
   <i type="logical" name="LSPECTRALGW"> F  </i>
   <i type="logical" name="LSINGLES"> F  </i>
   <i type="logical" name="LFERMIGW"> F  </i>
   <i type="logical" name="ODDONLYGW"> F  </i>
   <i type="logical" name="EVENONLYGW"> F  </i>
   <i type="int" name="NKREDLFX">     1</i>
   <i type="int" name="NKREDLFY">     1</i>
   <i type="int" name="NKREDLFZ">     1</i>
   <i type="int" name="MAXMEM">  1800</i>
   <i type="int" name="TELESCOPE">     0</i>
   <i type="int" name="TAUPAR">     1</i>
   <i type="int" name="OMEGAPAR">    -1</i>
   <i name="LAMBDA">      1.00000000</i>
  </separator>
  <separator name="External order field" >
   <i name="OFIELD_KAPPA">      0.00000000</i>
   <v name="OFIELD_K">      0.00000000      0.00000000      0.00000000</v>
   <i name="OFIELD_Q6_NEAR">      0.00000000</i>
   <i name="OFIELD_Q6_FAR">      0.00000000</i>
   <i name="OFIELD_A">      0.00000000</i>
  </separator>
 </parameters>
 <atominfo>
  <atoms>       6 </atoms>
  <types>       4 </types>
  <array name="atoms" >
   <dimension dim="1">ion</dimension>
   <field type="string">element</field>
   <field type="int">atomtype</field>
   <set>
    <rc><c>Mo</c><c>   1</c></rc>
    <rc><c>S </c><c>   2</c></rc>
    <rc><c>S </c><c>   2</c></rc>
    <rc><c>Mo</c><c>   3</c></rc>
    <rc><c>S </c><c>   4</c></rc>
    <rc><c>S </c><c>   4</c></rc>
   </set>
  </array>
  <array name="atomtypes" >
   <dimension dim="1">type</dimension>
   <field type="int">atomspertype</field>
   <field type="string">element</field>
   <field>mass</field>
   <field>valence</field>
   <field type="string">pseudopotential</field>
   <set>
    <rc><c>   1</c><c>Mo</c><c>     95.94000000</c><c>     12.00000000</c><c> PAW_PBE Mo_pv 08Apr2002                </c></rc>
    <rc><c>   2</c><c>S </c><c>     32.06600000</c><c>      6.00000000</c><c>  PAW_PBE S 17Jan2003                   </c></rc>
    <rc><c>   1</c><c>Mo</c><c>     95.94000000</c><c>     12.00000000</c><c> PAW_PBE Mo_pv 08Apr2002                </c></rc>
    <rc><c>   2</c><c>S </c><c>     32.06600000</c><c>      6.00000000</c><c>  PAW_PBE S 17Jan2003                   </c></rc>
   </set>
  </array>
 </atominfo>
 <structure name="initialpos" >
  <crystal>
   <varray name="basis" >
    <v>       3.19031700       0.00000000       0.00000000 </v>
    <v>      -1.59515800       2.76289700       0.00000000 </v>
    <v>       0.00000000       0.00000000      23.14049200 </v>
   </varray>
   <i name="volume">    203.97226633 </i>
   <varray name="rec_basis" >
    <v>       0.31344848       0.18096941       0.00000000 </v>
    <v>       0.00000000       0.36193894       0.00000000 </v>
    <v>       0.00000000       0.00000000       0.04321429 </v>
   </varray>
  </crystal>
  <varray name="positions" >
   <v>       0.66666700       0.33333300       0.06785900 </v>
   <v>       0.33333300       0.66666700       0.00000000 </v>
   <v>       0.33333300       0.66666700       0.13571500 </v>
   <v>       0.09523843       0.33333300       0.35482300 </v>
   <v>       0.76190443       0.66666700       0.28696500 </v>
   <v>       0.76190443       0.66666700       0.42267900 </v>
  </varray>
 </structure>
 <calculation>
  <scstep>
   <time name="dav">   59.34   59.41</time>
   <time name="total">   69.60   69.76</time>
   <energy>
    <i name="alphaZ">    104.15310261 </i>
    <i name="ewald">   7699.01324800 </i>
    <i name="hartreedc"> -11109.06844020 </i>
    <i name="XCdc">    128.46334708 </i>
    <i name="pawpsdc">   2252.92270536 </i>
    <i name="pawaedc">  -2205.68654582 </i>
    <i name="eentropy">     -0.00051281 </i>
    <i name="bandstr">   -159.30952584 </i>
    <i name="atom">   3688.31848598 </i>
    <i name="e_fr_energy">    398.80586437 </i>
    <i name="e_wo_entrp">    398.80637717 </i>
    <i name="e_0_energy">    398.80603530 </i>
   </energy>
  </scstep>
  <scstep>
   <time name="dav">   66.35   66.41</time>
   <time name="total">   66.36   66.41</time>
   <energy>
    <i name="e_fr_energy">     -1.75478216 </i>
    <i name="e_wo_entrp">     -1.75486463 </i>
    <i name="e_0_energy">     -1.75480965 </i>
   </energy>
  </scstep>
  <scstep>
   <time name="dav">   68.45   68.50</time>
   <time name="total">   68.46   68.51</time>
   <energy>
    <i name="e_fr_energy">    -32.97120380 </i>
    <i name="e_wo_entrp">    -32.97246556 </i>
    <i name="e_0_energy">    -32.97162439 </i>
   </energy>
  </scstep>
  <scstep>
   <time name="dav">   64.99   65.04</time>
   <time name="total">   65.00   65.06</time>
   <energy>
    <i name="e_fr_energy">    -33.84759129 </i>
    <i name="e_wo_entrp">    -33.84890897 </i>
    <i name="e_0_energy">    -33.84803052 </i>
   </energy>
  </scstep>
  <scstep>
   <time name="dav">   67.73   67.78</time>
   <time name="total">   72.60   72.73</time>
   <energy>
    <i name="e_fr_energy">    -33.87462815 </i>
    <i name="e_wo_entrp">    -33.87596110 </i>
    <i name="e_0_energy">    -33.87507247 </i>
   </energy>
  </scstep>
  <scstep>
   <time name="diag">   12.06   12.07</time>
   <time name="diis">   46.05   46.08</time>
   <time name="orth">    0.40    0.41</time>
   <time name="total">   73.38   73.44</time>
   <energy>
    <i name="e_fr_energy">    -30.21681446 </i>
    <i name="e_wo_entrp">    -30.21612351 </i>
    <i name="e_0_energy">    -30.21658414 </i>
   </energy>
  </scstep>
  <scstep>
   <time name="diag">   11.70   11.71</time>
   <time name="diis">   45.55   45.60</time>
   <time name="orth">    0.40    0.40</time>
   <time name="total">   72.42   72.48</time>
   <energy>
    <i name="e_fr_energy">    -32.87893551 </i>
    <i name="e_wo_entrp">    -32.87911148 </i>
    <i name="e_0_energy">    -32.87899417 </i>
   </energy>
  </scstep>
  <scstep>
   <time name="diag">   12.00   12.01</time>
   <time name="diis">   47.98   48.02</time>
   <time name="orth">    0.41    0.41</time>
   <time name="total">   75.10   75.16</time>
   <energy>
    <i name="e_fr_energy">    -34.29803414 </i>
    <i name="e_wo_entrp">    -34.29819984 </i>
    <i name="e_0_energy">    -34.29808937 </i>
   </energy>
  </scstep>
  <scstep>
   <time name="diag">   12.02   12.03</time>
   <time name="diis">   44.08   44.11</time>
   <time name="orth">    0.41    0.41</time>
   <time name="total">   71.31   71.36</time>
   <energy>
    <i name="e_fr_energy">    -37.07926707 </i>
    <i name="e_wo_entrp">    -37.07943473 </i>
    <i name="e_0_energy">    -37.07932296 </i>
   </energy>
  </scstep>
  <scstep>
   <time name="diag">   12.07   12.08</time>
   <time name="diis">   41.63   41.66</time>
   <time name="orth">    0.40    0.40</time>
   <time name="total">   69.13   69.18</time>
   <energy>
    <i name="e_fr_energy">    -39.10795512 </i>
    <i name="e_wo_entrp">    -39.10812232 </i>
    <i name="e_0_energy">    -39.10801085 </i>
   </energy>
  </scstep>
  <scstep>
   <time name="diag">   11.94   11.94</time>
   <time name="diis">   44.66   44.70</time>
   <time name="orth">    0.41    0.41</time>
   <time name="total">   71.94   72.00</time>
   <energy>
    <i name="e_fr_energy">    -39.39159043 </i>
    <i name="e_wo_entrp">    -39.39192395 </i>
    <i name="e_0_energy">    -39.39170160 </i>
   </energy>
  </scstep>
  <scstep>
   <time name="diag">   11.78   11.79</time>
   <time name="diis">   44.40   44.43</time>
   <time name="orth">    0.41    0.41</time>
   <time name="total">   71.49   71.55</time>
   <energy>
    <i name="e_fr_energy">    -39.40832162 </i>
    <i name="e_wo_entrp">    -39.40865375 </i>
    <i name="e_0_energy">    -39.40843233 </i>
   </energy>
  </scstep>
  <scstep>
   <time name="diag">   11.78   11.79</time>
   <time name="diis">   49.11   49.14</time>
   <time name="orth">    0.41    0.41</time>
   <time name="total">   76.26   76.32</time>
   <energy>
    <i name="e_fr_energy">    -39.41967349 </i>
    <i name="e_wo_entrp">    -39.42000722 </i>
    <i name="e_0_energy">    -39.41978473 </i>
   </energy>
  </scstep>
  <scstep>
   <time name="diag">   11.78   11.79</time>
   <time name="diis">   47.92   47.96</time>
   <time name="orth">    0.40    0.40</time>
   <time name="total">   75.03   75.09</time>
   <energy>
    <i name="e_fr_energy">    -39.42332847 </i>
    <i name="e_wo_entrp">    -39.42366275 </i>
    <i name="e_0_energy">    -39.42343990 </i>
   </energy>
  </scstep>
  <scstep>
   <time name="diag">   11.79   11.79</time>
   <time name="diis">   38.22   38.25</time>
   <time name="orth">    0.39    0.39</time>
   <time name="total">   65.44   65.50</time>
   <energy>
    <i name="e_fr_energy">    -39.42314114 </i>
    <i name="e_wo_entrp">    -39.42347540 </i>
    <i name="e_0_energy">    -39.42325256 </i>
   </energy>
  </scstep>
  <scstep>
   <time name="diag">   11.71   11.72</time>
   <time name="diis">   30.03   30.05</time>
   <time name="orth">    0.39    0.39</time>
   <time name="total">   51.86   51.90</time>
   <energy>
    <i name="alphaZ">    104.15310261 </i>
    <i name="ewald">   7699.01324800 </i>
    <i name="hartreedc"> -11093.45747646 </i>
    <i name="XCdc">    122.66463015 </i>
    <i name="pawpsdc">   2398.82667184 </i>
    <i name="pawaedc">  -2360.99999817 </i>
    <i name="eentropy">      0.00033431 </i>
    <i name="bandstr">   -597.94220803 </i>
    <i name="atom">   3688.31848598 </i>
    <i name="e_fr_energy">    -39.42320979 </i>
    <i name="e_wo_entrp">    -39.42354410 </i>
    <i name="e_0_energy">    -39.42332122 </i>
   </energy>
  </scstep>
  <structure>
   <crystal>
    <varray name="basis" >
     <v>       3.19031700       0.00000000       0.00000000 </v>
     <v>      -1.59515800       2.76289700       0.00000000 </v>
     <v>       0.00000000       0.00000000      23.14049200 </v>
    </varray>
    <i name="volume">    203.97226633 </i>
    <varray name="rec_basis" >
     <v>       0.31344848       0.18096941       0.00000000 </v>
     <v>       0.00000000       0.36193894       0.00000000 </v>
     <v>       0.00000000       0.00000000       0.04321429 </v>
    </varray>
   </crystal>
   <varray name="positions" >
    <v>       0.66666700       0.33333300       0.06785900 </v>
    <v>       0.33333300       0.66666700       0.00000000 </v>
    <v>       0.33333300       0.66666700       0.13571500 </v>
    <v>       0.09523843       0.33333300       0.35482300 </v>
    <v>       0.76190443       0.66666700       0.28696500 </v>
    <v>       0.76190443       0.66666700       0.42267900 </v>
   </varray>
  </structure>
  <varray name="forces" >
   <v>      -0.00354489       0.00087096      -0.00151290 </v>
   <v>      -0.00067892      -0.00127908      -0.05903785 </v>
   <v>      -0.01556158       0.00053423       0.11912673 </v>
   <v>       0.00058087       0.00051133       0.00214701 </v>
   <v>       0.01791361       0.00032860      -0.12481677 </v>
   <v>       0.00129091      -0.00096603       0.06409378 </v>
  </varray>
  <varray name="stress" >
   <v>       3.73370368       0.00247372       0.53640152 </v>
   <v>       0.00247380       3.05412676      -0.00038086 </v>
   <v>       0.53640146      -0.00038086      -0.35877046 </v>
  </varray>
  <energy>
   <i name="e_fr_energy">    -39.42320979 </i>
   <i name="e_wo_entrp">    -39.42332122 </i>
   <i name="e_0_energy">      0.00033431 </i>
  </energy>
  <time name="totalsc"> 1218.20 1219.43</time>
  <eigenvalues>
   <array>
    <dimension dim="1">band</dimension>
    <dimension dim="2">kpoint</dimension>
    <dimension dim="3">spin</dimension>
    <field>eigene</field>
    <field>occ</field>
    <set>
     <set comment="spin 1">
      <set comment="kpoint 1">
       <r>  -34.9746    1.0000 </r>
       <r>  -34.9741    1.0000 </r>
       <r>  -34.7841    1.0000 </r>
       <r>  -34.7840    1.0000 </r>
       <r>  -34.7835    1.0000 </r>
       <r>  -34.7835    1.0000 </r>
       <r>  -13.9590    1.0000 </r>
       <r>  -13.9040    1.0000 </r>
       <r>  -12.6929    1.0000 </r>
       <r>  -12.6005    1.0000 </r>
       <r>   -5.6698    1.0000 </r>
       <r>   -5.3832    1.0000 </r>
       <r>   -2.6068    1.0000 </r>
       <r>   -2.6055    1.0000 </r>
       <r>   -2.6033    1.0000 </r>
       <r>   -2.6019    1.0000 </r>
       <r>   -2.1594    1.0000 </r>
       <r>   -1.5153    1.0000 </r>
       <r>   -1.5126    1.0000 </r>
       <r>   -1.5087    1.0000 </r>
       <r>   -1.5061    1.0000 </r>
       <r>   -1.4602    1.0000 </r>
       <r>   -0.2060    1.0000 </r>
       <r>    0.2281    0.7953 </r>
       <r>    2.7018   -0.0000 </r>
       <r>    2.7136   -0.0000 </r>
       <r>    2.7276   -0.0000 </r>
       <r>    2.7361   -0.0000 </r>
       <r>    2.8828   -0.0000 </r>
       <r>    2.8945   -0.0000 </r>
       <r>    2.9127   -0.0000 </r>
       <r>    2.9278   -0.0000 </r>
       <r>    5.3751    0.0000 </r>
       <r>    5.6998    0.0000 </r>
       <r>    6.2557    0.0000 </r>
       <r>    6.5879    0.0000 </r>
      </set>
      <set comment="kpoint 2">
       <r>  -34.9705    1.0000 </r>
       <r>  -34.9700    1.0000 </r>
       <r>  -34.8053    1.0000 </r>
       <r>  -34.8048    1.0000 </r>
       <r>  -34.7888    1.0000 </r>
       <r>  -34.7884    1.0000 </r>
       <r>  -13.8723    1.0000 </r>
       <r>  -13.8175    1.0000 </r>
       <r>  -12.6561    1.0000 </r>
       <r>  -12.5662    1.0000 </r>
       <r>   -5.5704    1.0000 </r>
       <r>   -5.2846    1.0000 </r>
       <r>   -2.7935    1.0000 </r>
       <r>   -2.7890    1.0000 </r>
       <r>   -2.5143    1.0000 </r>
       <r>   -2.5131    1.0000 </r>
       <r>   -2.4459    1.0000 </r>
       <r>   -2.0576    1.0000 </r>
       <r>   -1.6488    1.0000 </r>
       <r>   -1.6474    1.0000 </r>
       <r>   -1.3387    1.0000 </r>
       <r>   -1.0608    1.0000 </r>
       <r>   -0.2264    1.0000 </r>
       <r>    0.1491    1.0349 </r>
       <r>    2.6106   -0.0000 </r>
       <r>    2.6170   -0.0000 </r>
       <r>    2.6638   -0.0000 </r>
       <r>    2.7088   -0.0000 </r>
       <r>    2.8084   -0.0000 </r>
       <r>    2.8137   -0.0000 </r>
       <r>    2.8674   -0.0000 </r>
       <r>    2.8705   -0.0000 </r>
       <r>    5.5073    0.0000 </r>
       <r>    5.8455    0.0000 </r>
       <r>    6.5734    0.0000 </r>
       <r>    6.9610    0.0000 </r>
      </set>
      <set comment="kpoint 3">
       <r>  -34.9592    1.0000 </r>
       <r>  -34.9587    1.0000 </r>
       <r>  -34.8638    1.0000 </r>
       <r>  -34.8632    1.0000 </r>
       <r>  -34.8022    1.0000 </r>
       <r>  -34.8018    1.0000 </r>
       <r>  -13.6235    1.0000 </r>
       <r>  -13.5700    1.0000 </r>
       <r>  -12.5508    1.0000 </r>
       <r>  -12.4683    1.0000 </r>
       <r>   -5.3095    1.0000 </r>
       <r>   -5.0310    1.0000 </r>
       <r>   -3.2436    1.0000 </r>
       <r>   -3.2369    1.0000 </r>
       <r>   -2.9457    1.0000 </r>
       <r>   -2.6737    1.0000 </r>
       <r>   -2.2588    1.0000 </r>
       <r>   -2.2573    1.0000 </r>
       <r>   -1.9842    1.0000 </r>
       <r>   -1.9821    1.0000 </r>
       <r>   -1.2432    1.0000 </r>
       <r>   -0.9388    1.0000 </r>
       <r>   -0.3540    1.0000 </r>
       <r>   -0.1376    1.0000 </r>
       <r>    2.2032   -0.0000 </r>
       <r>    2.3735   -0.0000 </r>
       <r>    2.5141   -0.0000 </r>
       <r>    2.5761   -0.0000 </r>
       <r>    2.5851   -0.0000 </r>
       <r>    2.6266   -0.0000 </r>
       <r>    3.2142    0.0000 </r>
       <r>    3.2200    0.0000 </r>
       <r>    5.8563    0.0000 </r>
       <r>    6.1956    0.0000 </r>
       <r>    6.9241    0.0000 </r>
       <r>    7.7302    0.0000 </r>
      </set>
      <set comment="kpoint 4">
       <r>  -34.9453    1.0000 </r>
       <r>  -34.9448    1.0000 </r>
       <r>  -34.9431    1.0000 </r>
       <r>  -34.9425    1.0000 </r>
       <r>  -34.8211    1.0000 </r>
       <r>  -34.8206    1.0000 </r>
       <r>  -13.2476    1.0000 </r>
       <r>  -13.1972    1.0000 </r>
       <r>  -12.3924    1.0000 </r>
       <r>  -12.3220    1.0000 </r>
       <r>   -5.0459    1.0000 </r>
       <r>   -4.8140    1.0000 </r>
       <r>   -3.7016    1.0000 </r>
       <r>   -3.6716    1.0000 </r>
       <r>   -3.4744    1.0000 </r>
       <r>   -3.2946    1.0000 </r>
       <r>   -2.3795    1.0000 </r>
       <r>   -2.3769    1.0000 </r>
       <r>   -1.8899    1.0000 </r>
       <r>   -1.8875    1.0000 </r>
       <r>   -1.4018    1.0000 </r>
       <r>   -1.1405    1.0000 </r>
       <r>   -0.6669    1.0000 </r>
       <r>   -0.5937    1.0000 </r>
       <r>    1.9682   -0.0000 </r>
       <r>    2.2500   -0.0000 </r>
       <r>    2.3267   -0.0000 </r>
       <r>    2.3354   -0.0000 </r>
       <r>    2.7128   -0.0000 </r>
       <r>    2.9086   -0.0000 </r>
       <r>    3.5961    0.0000 </r>
       <r>    3.6057    0.0000 </r>
       <r>    6.3977    0.0000 </r>
       <r>    6.6844    0.0000 </r>
       <r>    7.3879    0.0000 </r>
       <r>    8.1632    0.0000 </r>
      </set>
      <set comment="kpoint 5">
       <r>  -35.0306    1.0000 </r>
       <r>  -35.0300    1.0000 </r>
       <r>  -34.9259    1.0000 </r>
       <r>  -34.9254    1.0000 </r>
       <r>  -34.8410    1.0000 </r>
       <r>  -34.8405    1.0000 </r>
       <r>  -12.8058    1.0000 </r>
       <r>  -12.7620    1.0000 </r>
       <r>  -12.2087    1.0000 </r>
       <r>  -12.1543    1.0000 </r>
       <r>   -5.1005    1.0000 </r>
       <r>   -4.9847    1.0000 </r>
       <r>   -4.0373    1.0000 </r>
       <r>   -3.9236    1.0000 </r>
       <r>   -3.8321    1.0000 </r>
       <r>   -3.7516    1.0000 </r>
       <r>   -2.7349    1.0000 </r>
       <r>   -2.7320    1.0000 </r>
       <r>   -1.6612    1.0000 </r>
       <r>   -1.4973    1.0000 </r>
       <r>   -1.4902    1.0000 </r>
       <r>   -1.4514    1.0000 </r>
       <r>   -0.9589    1.0000 </r>
       <r>   -0.9150    1.0000 </r>
       <r>    2.0588   -0.0000 </r>
       <r>    2.1581   -0.0000 </r>
       <r>    2.1659   -0.0000 </r>
       <r>    2.3323   -0.0000 </r>
       <r>    3.1265    0.0000 </r>
       <r>    3.3495    0.0000 </r>
       <r>    3.8992    0.0000 </r>
       <r>    3.9132    0.0000 </r>
       <r>    7.0602    0.0000 </r>
       <r>    7.2376    0.0000 </r>
       <r>    7.8882    0.0000 </r>
       <r>    7.9940    0.0000 </r>
      </set>
      <set comment="kpoint 6">
       <r>  -35.1004    1.0000 </r>
       <r>  -35.0998    1.0000 </r>
       <r>  -34.9117    1.0000 </r>
       <r>  -34.9112    1.0000 </r>
       <r>  -34.8574    1.0000 </r>
       <r>  -34.8570    1.0000 </r>
       <r>  -12.3915    1.0000 </r>
       <r>  -12.3593    1.0000 </r>
       <r>  -12.0405    1.0000 </r>
       <r>  -12.0049    1.0000 </r>
       <r>   -5.4116    1.0000 </r>
       <r>   -5.3627    1.0000 </r>
       <r>   -4.4509    1.0000 </r>
       <r>   -4.3858    1.0000 </r>
       <r>   -3.9058    1.0000 </r>
       <r>   -3.8399    1.0000 </r>
       <r>   -2.9949    1.0000 </r>
       <r>   -2.9917    1.0000 </r>
       <r>   -1.8545    1.0000 </r>
       <r>   -1.7045    1.0000 </r>
       <r>   -1.1775    1.0000 </r>
       <r>   -1.1712    1.0000 </r>
       <r>   -0.9181    1.0000 </r>
       <r>   -0.8481    1.0000 </r>
       <r>    2.1137   -0.0000 </r>
       <r>    2.1186   -0.0000 </r>
       <r>    2.3227   -0.0000 </r>
       <r>    2.5061   -0.0000 </r>
       <r>    3.5380    0.0000 </r>
       <r>    3.7149    0.0000 </r>
       <r>    4.0881    0.0000 </r>
       <r>    4.1058    0.0000 </r>
       <r>    6.9309    0.0000 </r>
       <r>    7.1102    0.0000 </r>
       <r>    7.7017    0.0000 </r>
       <r>    7.9639    0.0000 </r>
      </set>
      <set comment="kpoint 7">
       <r>  -35.1394    1.0000 </r>
       <r>  -35.1388    1.0000 </r>
       <r>  -34.9036    1.0000 </r>
       <r>  -34.9031    1.0000 </r>
       <r>  -34.8667    1.0000 </r>
       <r>  -34.8662    1.0000 </r>
       <r>  -12.1277    1.0000 </r>
       <r>  -12.1113    1.0000 </r>
       <r>  -11.9353    1.0000 </r>
       <r>  -11.9184    1.0000 </r>
       <r>   -5.6432    1.0000 </r>
       <r>   -5.6235    1.0000 </r>
       <r>   -4.6921    1.0000 </r>
       <r>   -4.6621    1.0000 </r>
       <r>   -4.0043    1.0000 </r>
       <r>   -3.9555    1.0000 </r>
       <r>   -3.1308    1.0000 </r>
       <r>   -3.1276    1.0000 </r>
       <r>   -1.9398    1.0000 </r>
       <r>   -1.8360    1.0000 </r>
       <r>   -1.0108    1.0000 </r>
       <r>   -1.0028    1.0000 </r>
       <r>   -0.6883    1.0000 </r>
       <r>   -0.6316    1.0000 </r>
       <r>    2.1401   -0.0000 </r>
       <r>    2.1427   -0.0000 </r>
       <r>    2.5808   -0.0000 </r>
       <r>    2.6469   -0.0000 </r>
       <r>    3.7862    0.0000 </r>
       <r>    3.8789    0.0000 </r>
       <r>    4.1736    0.0000 </r>
       <r>    4.1936    0.0000 </r>
       <r>    6.1987    0.0000 </r>
       <r>    6.3682    0.0000 </r>
       <r>    7.9185    0.0000 </r>
       <r>    7.9757    0.0000 </r>
      </set>
      <set comment="kpoint 8">
       <r>  -34.9705    1.0000 </r>
       <r>  -34.9700    1.0000 </r>
       <r>  -34.8053    1.0000 </r>
       <r>  -34.8047    1.0000 </r>
       <r>  -34.7889    1.0000 </r>
       <r>  -34.7884    1.0000 </r>
       <r>  -13.8724    1.0000 </r>
       <r>  -13.8174    1.0000 </r>
       <r>  -12.6564    1.0000 </r>
       <r>  -12.5660    1.0000 </r>
       <r>   -5.5708    1.0000 </r>
       <r>   -5.2842    1.0000 </r>
       <r>   -2.7933    1.0000 </r>
       <r>   -2.7893    1.0000 </r>
       <r>   -2.5164    1.0000 </r>
       <r>   -2.5109    1.0000 </r>
       <r>   -2.4446    1.0000 </r>
       <r>   -2.0577    1.0000 </r>
       <r>   -1.6530    1.0000 </r>
       <r>   -1.6431    1.0000 </r>
       <r>   -1.3511    1.0000 </r>
       <r>   -1.0510    1.0000 </r>
       <r>   -0.2280    1.0000 </r>
       <r>    0.1572    1.0319 </r>
       <r>    2.5853   -0.0000 </r>
       <r>    2.6229   -0.0000 </r>
       <r>    2.6497   -0.0000 </r>
       <r>    2.7420   -0.0000 </r>
       <r>    2.7799   -0.0000 </r>
       <r>    2.8267   -0.0000 </r>
       <r>    2.8565   -0.0000 </r>
       <r>    2.8912   -0.0000 </r>
       <r>    5.5070    0.0000 </r>
       <r>    5.8458    0.0000 </r>
       <r>    6.6042    0.0000 </r>
       <r>    6.9594    0.0000 </r>
      </set>
      <set comment="kpoint 9">
       <r>  -34.9628    1.0000 </r>
       <r>  -34.9623    1.0000 </r>
       <r>  -34.8443    1.0000 </r>
       <r>  -34.8437    1.0000 </r>
       <r>  -34.7989    1.0000 </r>
       <r>  -34.7984    1.0000 </r>
       <r>  -13.7047    1.0000 </r>
       <r>  -13.6502    1.0000 </r>
       <r>  -12.5854    1.0000 </r>
       <r>  -12.4996    1.0000 </r>
       <r>   -5.3890    1.0000 </r>
       <r>   -5.1053    1.0000 </r>
       <r>   -3.1072    1.0000 </r>
       <r>   -3.1021    1.0000 </r>
       <r>   -2.7828    1.0000 </r>
       <r>   -2.4720    1.0000 </r>
       <r>   -2.3472    1.0000 </r>
       <r>   -2.3438    1.0000 </r>
       <r>   -1.9623    1.0000 </r>
       <r>   -1.9601    1.0000 </r>
       <r>   -1.1892    1.0000 </r>
       <r>   -0.8710    1.0000 </r>
       <r>   -0.3032    1.0000 </r>
       <r>   -0.0197    1.0002 </r>
       <r>    2.2996   -0.0000 </r>
       <r>    2.4340   -0.0000 </r>
       <r>    2.4693   -0.0000 </r>
       <r>    2.5615   -0.0000 </r>
       <r>    2.6454   -0.0000 </r>
       <r>    2.6501   -0.0000 </r>
       <r>    3.1424    0.0000 </r>
       <r>    3.1549    0.0000 </r>
       <r>    5.7466    0.0000 </r>
       <r>    6.0902    0.0000 </r>
       <r>    6.9263    0.0000 </r>
       <r>    7.6080    0.0000 </r>
      </set>
      <set comment="kpoint 10">
       <r>  -34.9491    1.0000 </r>
       <r>  -34.9486    1.0000 </r>
       <r>  -34.9119    1.0000 </r>
       <r>  -34.9112    1.0000 </r>
       <r>  -34.8174    1.0000 </r>
       <r>  -34.8169    1.0000 </r>
       <r>  -13.3919    1.0000 </r>
       <r>  -13.3393    1.0000 </r>
       <r>  -12.4532    1.0000 </r>
       <r>  -12.3766    1.0000 </r>
       <r>   -5.1093    1.0000 </r>
       <r>   -4.8471    1.0000 </r>
       <r>   -3.5499    1.0000 </r>
       <r>   -3.5327    1.0000 </r>
       <r>   -3.2177    1.0000 </r>
       <r>   -2.9932    1.0000 </r>
       <r>   -2.4528    1.0000 </r>
       <r>   -2.4287    1.0000 </r>
       <r>   -2.0622    1.0000 </r>
       <r>   -2.0602    1.0000 </r>
       <r>   -1.1577    1.0000 </r>
       <r>   -0.8852    1.0000 </r>
       <r>   -0.5315    1.0000 </r>
       <r>   -0.4015    1.0000 </r>
       <r>    1.9698   -0.0000 </r>
       <r>    2.1969   -0.0000 </r>
       <r>    2.4073   -0.0000 </r>
       <r>    2.4391   -0.0000 </r>
       <r>    2.4737   -0.0000 </r>
       <r>    2.6422   -0.0000 </r>
       <r>    3.5513    0.0000 </r>
       <r>    3.5668    0.0000 </r>
       <r>    6.1930    0.0000 </r>
       <r>    6.5124    0.0000 </r>
       <r>    7.2299    0.0000 </r>
       <r>    8.2140    0.0000 </r>
      </set>
      <set comment="kpoint 11">
       <r>  -34.9922    1.0000 </r>
       <r>  -34.9916    1.0000 </r>
       <r>  -34.9324    1.0000 </r>
       <r>  -34.9319    1.0000 </r>
       <r>  -34.8398    1.0000 </r>
       <r>  -34.8393    1.0000 </r>
       <r>  -12.9813    1.0000 </r>
       <r>  -12.9330    1.0000 </r>
       <r>  -12.2805    1.0000 </r>
       <r>  -12.2174    1.0000 </r>
       <r>   -4.9859    1.0000 </r>
       <r>   -4.8170    1.0000 </r>
       <r>   -3.8529    1.0000 </r>
       <r>   -3.7672    1.0000 </r>
       <r>   -3.7018    1.0000 </r>
       <r>   -3.5859    1.0000 </r>
       <r>   -2.8488    1.0000 </r>
       <r>   -2.7912    1.0000 </r>
       <r>   -1.7814    1.0000 </r>
       <r>   -1.7751    1.0000 </r>
       <r>   -1.3534    1.0000 </r>
       <r>   -1.1468    1.0000 </r>
       <r>   -0.8314    1.0000 </r>
       <r>   -0.7889    1.0000 </r>
       <r>    1.8613   -0.0000 </r>
       <r>    2.0787   -0.0000 </r>
       <r>    2.2920   -0.0000 </r>
       <r>    2.3864   -0.0000 </r>
       <r>    2.7513   -0.0000 </r>
       <r>    2.9715   -0.0000 </r>
       <r>    3.9000    0.0000 </r>
       <r>    3.9322    0.0000 </r>
       <r>    6.8140    0.0000 </r>
       <r>    7.0565    0.0000 </r>
       <r>    7.7877    0.0000 </r>
       <r>    8.3626    0.0000 </r>
      </set>
      <set comment="kpoint 12">
       <r>  -35.0669    1.0000 </r>
       <r>  -35.0662    1.0000 </r>
       <r>  -34.9167    1.0000 </r>
       <r>  -34.9162    1.0000 </r>
       <r>  -34.8608    1.0000 </r>
       <r>  -34.8603    1.0000 </r>
       <r>  -12.5485    1.0000 </r>
       <r>  -12.5088    1.0000 </r>
       <r>  -12.1010    1.0000 </r>
       <r>  -12.0549    1.0000 </r>
       <r>   -5.2054    1.0000 </r>
       <r>   -5.1298    1.0000 </r>
       <r>   -4.2741    1.0000 </r>
       <r>   -4.2021    1.0000 </r>
       <r>   -3.8334    1.0000 </r>
       <r>   -3.7483    1.0000 </r>
       <r>   -3.0628    1.0000 </r>
       <r>   -3.0060    1.0000 </r>
       <r>   -1.6797    1.0000 </r>
       <r>   -1.6114    1.0000 </r>
       <r>   -1.5879    1.0000 </r>
       <r>   -1.4670    1.0000 </r>
       <r>   -0.8525    1.0000 </r>
       <r>   -0.8249    1.0000 </r>
       <r>    1.9661   -0.0000 </r>
       <r>    2.1098   -0.0000 </r>
       <r>    2.3351   -0.0000 </r>
       <r>    2.4489   -0.0000 </r>
       <r>    3.1741    0.0000 </r>
       <r>    3.3994    0.0000 </r>
       <r>    4.1043    0.0000 </r>
       <r>    4.1408    0.0000 </r>
       <r>    7.4112    0.0000 </r>
       <r>    7.5313    0.0000 </r>
       <r>    7.7076    0.0000 </r>
       <r>    8.0356    0.0000 </r>
      </set>
      <set comment="kpoint 13">
       <r>  -35.1192    1.0000 </r>
       <r>  -35.1186    1.0000 </r>
       <r>  -34.9056    1.0000 </r>
       <r>  -34.9051    1.0000 </r>
       <r>  -34.8756    1.0000 </r>
       <r>  -34.8752    1.0000 </r>
       <r>  -12.2016    1.0000 </r>
       <r>  -12.1758    1.0000 </r>
       <r>  -11.9598    1.0000 </r>
       <r>  -11.9327    1.0000 </r>
       <r>   -5.4793    1.0000 </r>
       <r>   -5.4458    1.0000 </r>
       <r>   -4.6524    1.0000 </r>
       <r>   -4.6156    1.0000 </r>
       <r>   -3.9253    1.0000 </r>
       <r>   -3.8690    1.0000 </r>
       <r>   -3.1473    1.0000 </r>
       <r>   -3.1153    1.0000 </r>
       <r>   -1.8615    1.0000 </r>
       <r>   -1.7439    1.0000 </r>
       <r>   -1.4975    1.0000 </r>
       <r>   -1.4296    1.0000 </r>
       <r>   -0.6334    1.0000 </r>
       <r>   -0.6051    1.0000 </r>
       <r>    2.1179   -0.0000 </r>
       <r>    2.1698   -0.0000 </r>
       <r>    2.5111   -0.0000 </r>
       <r>    2.6033   -0.0000 </r>
       <r>    3.5766    0.0000 </r>
       <r>    3.7634    0.0000 </r>
       <r>    4.1166    0.0000 </r>
       <r>    4.1607    0.0000 </r>
       <r>    6.5932    0.0000 </r>
       <r>    6.7933    0.0000 </r>
       <r>    8.0705    0.0000 </r>
       <r>    8.2325    0.0000 </r>
      </set>
      <set comment="kpoint 14">
       <r>  -35.1380    1.0000 </r>
       <r>  -35.1374    1.0000 </r>
       <r>  -34.9016    1.0000 </r>
       <r>  -34.9011    1.0000 </r>
       <r>  -34.8810    1.0000 </r>
       <r>  -34.8805    1.0000 </r>
       <r>  -12.0622    1.0000 </r>
       <r>  -12.0500    1.0000 </r>
       <r>  -11.9029    1.0000 </r>
       <r>  -11.8901    1.0000 </r>
       <r>   -5.5897    1.0000 </r>
       <r>   -5.5749    1.0000 </r>
       <r>   -4.7886    1.0000 </r>
       <r>   -4.7688    1.0000 </r>
       <r>   -3.9932    1.0000 </r>
       <r>   -3.9453    1.0000 </r>
       <r>   -3.1622    1.0000 </r>
       <r>   -3.1510    1.0000 </r>
       <r>   -1.9339    1.0000 </r>
       <r>   -1.8385    1.0000 </r>
       <r>   -1.4269    1.0000 </r>
       <r>   -1.3722    1.0000 </r>
       <r>   -0.4984    1.0000 </r>
       <r>   -0.4656    1.0000 </r>
       <r>    2.1582   -0.0000 </r>
       <r>    2.1680   -0.0000 </r>
       <r>    2.6772   -0.0000 </r>
       <r>    2.6957   -0.0000 </r>
       <r>    3.8712    0.0000 </r>
       <r>    3.9066    0.0000 </r>
       <r>    4.0149    0.0000 </r>
       <r>    4.0729    0.0000 </r>
       <r>    6.1960    0.0000 </r>
       <r>    6.3564    0.0000 </r>
       <r>    8.3515    0.0000 </r>
       <r>    8.3851    0.0000 </r>
      </set>
      <set comment="kpoint 15">
       <r>  -35.1192    1.0000 </r>
       <r>  -35.1186    1.0000 </r>
       <r>  -34.9056    1.0000 </r>
       <r>  -34.9051    1.0000 </r>
       <r>  -34.8756    1.0000 </r>
       <r>  -34.8752    1.0000 </r>
       <r>  -12.1998    1.0000 </r>
       <r>  -12.1773    1.0000 </r>
       <r>  -11.9582    1.0000 </r>
       <r>  -11.9347    1.0000 </r>
       <r>   -5.4790    1.0000 </r>
       <r>   -5.4464    1.0000 </r>
       <r>   -4.6495    1.0000 </r>
       <r>   -4.6183    1.0000 </r>
       <r>   -3.9241    1.0000 </r>
       <r>   -3.8709    1.0000 </r>
       <r>   -3.1488    1.0000 </r>
       <r>   -3.1126    1.0000 </r>
       <r>   -1.8451    1.0000 </r>
       <r>   -1.7520    1.0000 </r>
       <r>   -1.4830    1.0000 </r>
       <r>   -1.4561    1.0000 </r>
       <r>   -0.6382    1.0000 </r>
       <r>   -0.5998    1.0000 </r>
       <r>    2.1125   -0.0000 </r>
       <r>    2.1770   -0.0000 </r>
       <r>    2.5142   -0.0000 </r>
       <r>    2.6000   -0.0000 </r>
       <r>    3.6091    0.0000 </r>
       <r>    3.7318    0.0000 </r>
       <r>    4.1001    0.0000 </r>
       <r>    4.1734    0.0000 </r>
       <r>    6.5916    0.0000 </r>
       <r>    6.7948    0.0000 </r>
       <r>    8.0925    0.0000 </r>
       <r>    8.2558    0.0000 </r>
      </set>
      <set comment="kpoint 16">
       <r>  -35.0669    1.0000 </r>
       <r>  -35.0663    1.0000 </r>
       <r>  -34.9167    1.0000 </r>
       <r>  -34.9162    1.0000 </r>
       <r>  -34.8608    1.0000 </r>
       <r>  -34.8603    1.0000 </r>
       <r>  -12.5469    1.0000 </r>
       <r>  -12.5101    1.0000 </r>
       <r>  -12.0994    1.0000 </r>
       <r>  -12.0568    1.0000 </r>
       <r>   -5.2054    1.0000 </r>
       <r>   -5.1301    1.0000 </r>
       <r>   -4.2710    1.0000 </r>
       <r>   -4.2045    1.0000 </r>
       <r>   -3.8284    1.0000 </r>
       <r>   -3.7547    1.0000 </r>
       <r>   -3.0614    1.0000 </r>
       <r>   -3.0048    1.0000 </r>
       <r>   -1.6381    1.0000 </r>
       <r>   -1.6157    1.0000 </r>
       <r>   -1.5972    1.0000 </r>
       <r>   -1.5002    1.0000 </r>
       <r>   -0.8510    1.0000 </r>
       <r>   -0.8271    1.0000 </r>
       <r>    1.9692   -0.0000 </r>
       <r>    2.1104   -0.0000 </r>
       <r>    2.3366   -0.0000 </r>
       <r>    2.4454   -0.0000 </r>
       <r>    3.2008    0.0000 </r>
       <r>    3.3700    0.0000 </r>
       <r>    4.1063    0.0000 </r>
       <r>    4.1407    0.0000 </r>
       <r>    7.4076    0.0000 </r>
       <r>    7.5240    0.0000 </r>
       <r>    7.6973    0.0000 </r>
       <r>    8.1295    0.0000 </r>
      </set>
      <set comment="kpoint 17">
       <r>  -34.9922    1.0000 </r>
       <r>  -34.9916    1.0000 </r>
       <r>  -34.9324    1.0000 </r>
       <r>  -34.9319    1.0000 </r>
       <r>  -34.8398    1.0000 </r>
       <r>  -34.8393    1.0000 </r>
       <r>  -12.9802    1.0000 </r>
       <r>  -12.9339    1.0000 </r>
       <r>  -12.2791    1.0000 </r>
       <r>  -12.2189    1.0000 </r>
       <r>   -4.9859    1.0000 </r>
       <r>   -4.8168    1.0000 </r>
       <r>   -3.8452    1.0000 </r>
       <r>   -3.7741    1.0000 </r>
       <r>   -3.7005    1.0000 </r>
       <r>   -3.5889    1.0000 </r>
       <r>   -2.8450    1.0000 </r>
       <r>   -2.7929    1.0000 </r>
       <r>   -1.7821    1.0000 </r>
       <r>   -1.7724    1.0000 </r>
       <r>   -1.3360    1.0000 </r>
       <r>   -1.1671    1.0000 </r>
       <r>   -0.8271    1.0000 </r>
       <r>   -0.7999    1.0000 </r>
       <r>    1.8685   -0.0000 </r>
       <r>    2.0739   -0.0000 </r>
       <r>    2.2937   -0.0000 </r>
       <r>    2.3830   -0.0000 </r>
       <r>    2.7701   -0.0000 </r>
       <r>    2.9536   -0.0000 </r>
       <r>    3.9008    0.0000 </r>
       <r>    3.9346    0.0000 </r>
       <r>    6.8137    0.0000 </r>
       <r>    7.0568    0.0000 </r>
       <r>    7.7811    0.0000 </r>
       <r>    8.4378    0.0000 </r>
      </set>
      <set comment="kpoint 18">
       <r>  -34.9491    1.0000 </r>
       <r>  -34.9486    1.0000 </r>
       <r>  -34.9119    1.0000 </r>
       <r>  -34.9113    1.0000 </r>
       <r>  -34.8174    1.0000 </r>
       <r>  -34.8169    1.0000 </r>
       <r>  -13.3912    1.0000 </r>
       <r>  -13.3399    1.0000 </r>
       <r>  -12.4522    1.0000 </r>
       <r>  -12.3777    1.0000 </r>
       <r>   -5.1082    1.0000 </r>
       <r>   -4.8479    1.0000 </r>
       <r>   -3.5472    1.0000 </r>
       <r>   -3.5353    1.0000 </r>
       <r>   -3.2197    1.0000 </r>
       <r>   -2.9915    1.0000 </r>
       <r>   -2.4487    1.0000 </r>
       <r>   -2.4320    1.0000 </r>
       <r>   -2.0629    1.0000 </r>
       <r>   -2.0595    1.0000 </r>
       <r>   -1.1379    1.0000 </r>
       <r>   -0.9012    1.0000 </r>
       <r>   -0.5245    1.0000 </r>
       <r>   -0.4232    1.0000 </r>
       <r>    1.9790   -0.0000 </r>
       <r>    2.1989   -0.0000 </r>
       <r>    2.4071   -0.0000 </r>
       <r>    2.4300   -0.0000 </r>
       <r>    2.4885   -0.0000 </r>
       <r>    2.6340   -0.0000 </r>
       <r>    3.5446    0.0000 </r>
       <r>    3.5755    0.0000 </r>
       <r>    6.1931    0.0000 </r>
       <r>    6.5118    0.0000 </r>
       <r>    7.2289    0.0000 </r>
       <r>    8.2082    0.0000 </r>
      </set>
      <set comment="kpoint 19">
       <r>  -34.9628    1.0000 </r>
       <r>  -34.9623    1.0000 </r>
       <r>  -34.8443    1.0000 </r>
       <r>  -34.8437    1.0000 </r>
       <r>  -34.7989    1.0000 </r>
       <r>  -34.7984    1.0000 </r>
       <r>  -13.7043    1.0000 </r>
       <r>  -13.6505    1.0000 </r>
       <r>  -12.5848    1.0000 </r>
       <r>  -12.5003    1.0000 </r>
       <r>   -5.3879    1.0000 </r>
       <r>   -5.1063    1.0000 </r>
       <r>   -3.1090    1.0000 </r>
       <r>   -3.1000    1.0000 </r>
       <r>   -2.7852    1.0000 </r>
       <r>   -2.4699    1.0000 </r>
       <r>   -2.3465    1.0000 </r>
       <r>   -2.3446    1.0000 </r>
       <r>   -1.9631    1.0000 </r>
       <r>   -1.9589    1.0000 </r>
       <r>   -1.1711    1.0000 </r>
       <r>   -0.8857    1.0000 </r>
       <r>   -0.2982    1.0000 </r>
       <r>   -0.0403    1.0001 </r>
       <r>    2.3264   -0.0000 </r>
       <r>    2.4359   -0.0000 </r>
       <r>    2.4804   -0.0000 </r>
       <r>    2.5433   -0.0000 </r>
       <r>    2.6352   -0.0000 </r>
       <r>    2.6519   -0.0000 </r>
       <r>    3.1380    0.0000 </r>
       <r>    3.1593    0.0000 </r>
       <r>    5.7470    0.0000 </r>
       <r>    6.0896    0.0000 </r>
       <r>    6.8802    0.0000 </r>
       <r>    7.6147    0.0000 </r>
      </set>
      <set comment="kpoint 20">
       <r>  -34.9705    1.0000 </r>
       <r>  -34.9700    1.0000 </r>
       <r>  -34.8053    1.0000 </r>
       <r>  -34.8048    1.0000 </r>
       <r>  -34.7889    1.0000 </r>
       <r>  -34.7883    1.0000 </r>
       <r>  -13.8723    1.0000 </r>
       <r>  -13.8175    1.0000 </r>
       <r>  -12.6561    1.0000 </r>
       <r>  -12.5662    1.0000 </r>
       <r>   -5.5704    1.0000 </r>
       <r>   -5.2846    1.0000 </r>
       <r>   -2.7935    1.0000 </r>
       <r>   -2.7890    1.0000 </r>
       <r>   -2.5142    1.0000 </r>
       <r>   -2.5132    1.0000 </r>
       <r>   -2.4459    1.0000 </r>
       <r>   -2.0576    1.0000 </r>
       <r>   -1.6489    1.0000 </r>
       <r>   -1.6474    1.0000 </r>
       <r>   -1.3387    1.0000 </r>
       <r>   -1.0608    1.0000 </r>
       <r>   -0.2264    1.0000 </r>
       <r>    0.1491    1.0349 </r>
       <r>    2.6106   -0.0000 </r>
       <r>    2.6170   -0.0000 </r>
       <r>    2.6639   -0.0000 </r>
       <r>    2.7088   -0.0000 </r>
       <r>    2.8083   -0.0000 </r>
       <r>    2.8137   -0.0000 </r>
       <r>    2.8675   -0.0000 </r>
       <r>    2.8705   -0.0000 </r>
       <r>    5.5073    0.0000 </r>
       <r>    5.8455    0.0000 </r>
       <r>    6.5855    0.0000 </r>
       <r>    6.9613    0.0000 </r>
      </set>
      <set comment="kpoint 21">
       <r>  -34.9592    1.0000 </r>
       <r>  -34.9587    1.0000 </r>
       <r>  -34.8638    1.0000 </r>
       <r>  -34.8632    1.0000 </r>
       <r>  -34.8023    1.0000 </r>
       <r>  -34.8018    1.0000 </r>
       <r>  -13.6240    1.0000 </r>
       <r>  -13.5695    1.0000 </r>
       <r>  -12.5517    1.0000 </r>
       <r>  -12.4674    1.0000 </r>
       <r>   -5.3109    1.0000 </r>
       <r>   -5.0299    1.0000 </r>
       <r>   -3.2483    1.0000 </r>
       <r>   -3.2325    1.0000 </r>
       <r>   -2.9444    1.0000 </r>
       <r>   -2.6732    1.0000 </r>
       <r>   -2.2617    1.0000 </r>
       <r>   -2.2544    1.0000 </r>
       <r>   -1.9885    1.0000 </r>
       <r>   -1.9777    1.0000 </r>
       <r>   -1.2758    1.0000 </r>
       <r>   -0.9136    1.0000 </r>
       <r>   -0.3618    1.0000 </r>
       <r>   -0.1070    1.0000 </r>
       <r>    2.1689   -0.0000 </r>
       <r>    2.3776   -0.0000 </r>
       <r>    2.5046   -0.0000 </r>
       <r>    2.5574   -0.0000 </r>
       <r>    2.6028   -0.0000 </r>
       <r>    2.6477   -0.0000 </r>
       <r>    3.1969    0.0000 </r>
       <r>    3.2383    0.0000 </r>
       <r>    5.8589    0.0000 </r>
       <r>    6.1976    0.0000 </r>
       <r>    6.9815    0.0000 </r>
       <r>    7.8576    0.0000 </r>
      </set>
      <set comment="kpoint 22">
       <r>  -34.9491    1.0000 </r>
       <r>  -34.9486    1.0000 </r>
       <r>  -34.9118    1.0000 </r>
       <r>  -34.9112    1.0000 </r>
       <r>  -34.8174    1.0000 </r>
       <r>  -34.8170    1.0000 </r>
       <r>  -13.3925    1.0000 </r>
       <r>  -13.3389    1.0000 </r>
       <r>  -12.4539    1.0000 </r>
       <r>  -12.3758    1.0000 </r>
       <r>   -5.1100    1.0000 </r>
       <r>   -4.8467    1.0000 </r>
       <r>   -3.5574    1.0000 </r>
       <r>   -3.5251    1.0000 </r>
       <r>   -3.2183    1.0000 </r>
       <r>   -2.9916    1.0000 </r>
       <r>   -2.4518    1.0000 </r>
       <r>   -2.4308    1.0000 </r>
       <r>   -2.0645    1.0000 </r>
       <r>   -2.0577    1.0000 </r>
       <r>   -1.1804    1.0000 </r>
       <r>   -0.8686    1.0000 </r>
       <r>   -0.5375    1.0000 </r>
       <r>   -0.3792    1.0000 </r>
       <r>    1.9573   -0.0000 </r>
       <r>    2.1965   -0.0000 </r>
       <r>    2.4115   -0.0000 </r>
       <r>    2.4220   -0.0000 </r>
       <r>    2.4822   -0.0000 </r>
       <r>    2.6465   -0.0000 </r>
       <r>    3.5575    0.0000 </r>
       <r>    3.5625    0.0000 </r>
       <r>    6.1917    0.0000 </r>
       <r>    6.5148    0.0000 </r>
       <r>    7.2266    0.0000 </r>
       <r>    8.2037    0.0000 </r>
      </set>
      <set comment="kpoint 23">
       <r>  -34.9740    1.0000 </r>
       <r>  -34.9734    1.0000 </r>
       <r>  -34.9348    1.0000 </r>
       <r>  -34.9343    1.0000 </r>
       <r>  -34.8438    1.0000 </r>
       <r>  -34.8433    1.0000 </r>
       <r>  -13.0435    1.0000 </r>
       <r>  -12.9928    1.0000 </r>
       <r>  -12.3060    1.0000 </r>
       <r>  -12.2382    1.0000 </r>
       <r>   -4.9370    1.0000 </r>
       <r>   -4.7414    1.0000 </r>
       <r>   -3.8030    1.0000 </r>
       <r>   -3.7176    1.0000 </r>
       <r>   -3.5101    1.0000 </r>
       <r>   -3.3864    1.0000 </r>
       <r>   -3.0839    1.0000 </r>
       <r>   -2.9823    1.0000 </r>
       <r>   -1.9324    1.0000 </r>
       <r>   -1.9270    1.0000 </r>
       <r>   -1.1432    1.0000 </r>
       <r>   -0.9161    1.0000 </r>
       <r>   -0.7704    1.0000 </r>
       <r>   -0.7097    1.0000 </r>
       <r>    1.7698   -0.0000 </r>
       <r>    2.0001   -0.0000 </r>
       <r>    2.3337   -0.0000 </r>
       <r>    2.4154   -0.0000 </r>
       <r>    2.5276   -0.0000 </r>
       <r>    2.7252   -0.0000 </r>
       <r>    3.9437    0.0000 </r>
       <r>    3.9905    0.0000 </r>
       <r>    6.7296    0.0000 </r>
       <r>    7.0053    0.0000 </r>
       <r>    7.7361    0.0000 </r>
       <r>    8.5497    0.0000 </r>
      </set>
      <set comment="kpoint 24">
       <r>  -35.0368    1.0000 </r>
       <r>  -35.0362    1.0000 </r>
       <r>  -34.9196    1.0000 </r>
       <r>  -34.9191    1.0000 </r>
       <r>  -34.8741    1.0000 </r>
       <r>  -34.8736    1.0000 </r>
       <r>  -12.6365    1.0000 </r>
       <r>  -12.5918    1.0000 </r>
       <r>  -12.1331    1.0000 </r>
       <r>  -12.0794    1.0000 </r>
       <r>   -5.0131    1.0000 </r>
       <r>   -4.9098    1.0000 </r>
       <r>   -4.0888    1.0000 </r>
       <r>   -4.0441    1.0000 </r>
       <r>   -3.7631    1.0000 </r>
       <r>   -3.6436    1.0000 </r>
       <r>   -3.3033    1.0000 </r>
       <r>   -3.1550    1.0000 </r>
       <r>   -2.0620    1.0000 </r>
       <r>   -2.0458    1.0000 </r>
       <r>   -1.3364    1.0000 </r>
       <r>   -1.1821    1.0000 </r>
       <r>   -0.8223    1.0000 </r>
       <r>   -0.8089    1.0000 </r>
       <r>    1.7960   -0.0000 </r>
       <r>    2.0538   -0.0000 </r>
       <r>    2.4042   -0.0000 </r>
       <r>    2.4611   -0.0000 </r>
       <r>    2.7787   -0.0000 </r>
       <r>    2.9926   -0.0000 </r>
       <r>    4.2000    0.0000 </r>
       <r>    4.2688    0.0000 </r>
       <r>    7.4050    0.0000 </r>
       <r>    7.5873    0.0000 </r>
       <r>    8.2440    0.0000 </r>
       <r>    8.3871    0.0000 </r>
      </set>
      <set comment="kpoint 25">
       <r>  -35.0874    1.0000 </r>
       <r>  -35.0868    1.0000 </r>
       <r>  -34.9070    1.0000 </r>
       <r>  -34.9065    1.0000 </r>
       <r>  -34.9000    1.0000 </r>
       <r>  -34.8996    1.0000 </r>
       <r>  -12.2595    1.0000 </r>
       <r>  -12.2255    1.0000 </r>
       <r>  -11.9734    1.0000 </r>
       <r>  -11.9365    1.0000 </r>
       <r>   -5.2094    1.0000 </r>
       <r>   -5.1527    1.0000 </r>
       <r>   -4.6244    1.0000 </r>
       <r>   -4.6004    1.0000 </r>
       <r>   -3.7635    1.0000 </r>
       <r>   -3.6888    1.0000 </r>
       <r>   -3.2714    1.0000 </r>
       <r>   -3.1579    1.0000 </r>
       <r>   -2.2194    1.0000 </r>
       <r>   -2.1474    1.0000 </r>
       <r>   -1.6501    1.0000 </r>
       <r>   -1.5422    1.0000 </r>
       <r>   -0.6481    1.0000 </r>
       <r>   -0.6348    1.0000 </r>
       <r>    2.0219   -0.0000 </r>
       <r>    2.2200   -0.0000 </r>
       <r>    2.5240   -0.0000 </r>
       <r>    2.5649   -0.0000 </r>
       <r>    3.1193    0.0000 </r>
       <r>    3.3227    0.0000 </r>
       <r>    4.2900    0.0000 </r>
       <r>    4.3531    0.0000 </r>
       <r>    7.2283    0.0000 </r>
       <r>    7.4112    0.0000 </r>
       <r>    8.2435    0.0000 </r>
       <r>    8.4380    0.0000 </r>
      </set>
      <set comment="kpoint 26">
       <r>  -35.1156    1.0000 </r>
       <r>  -35.1150    1.0000 </r>
       <r>  -34.9149    1.0000 </r>
       <r>  -34.9144    1.0000 </r>
       <r>  -34.8998    1.0000 </r>
       <r>  -34.8994    1.0000 </r>
       <r>  -12.0227    1.0000 </r>
       <r>  -12.0035    1.0000 </r>
       <r>  -11.8728    1.0000 </r>
       <r>  -11.8533    1.0000 </r>
       <r>   -5.3306    1.0000 </r>
       <r>   -5.3064    1.0000 </r>
       <r>   -4.9285    1.0000 </r>
       <r>   -4.9123    1.0000 </r>
       <r>   -3.8949    1.0000 </r>
       <r>   -3.8448    1.0000 </r>
       <r>   -3.1660    1.0000 </r>
       <r>   -3.1181    1.0000 </r>
       <r>   -2.2254    1.0000 </r>
       <r>   -2.1358    1.0000 </r>
       <r>   -1.8968    1.0000 </r>
       <r>   -1.7995    1.0000 </r>
       <r>   -0.4162    1.0000 </r>
       <r>   -0.3985    1.0000 </r>
       <r>    2.0775   -0.0000 </r>
       <r>    2.1169   -0.0000 </r>
       <r>    2.7873   -0.0000 </r>
       <r>    2.8487   -0.0000 </r>
       <r>    3.3850    0.0000 </r>
       <r>    3.5313    0.0000 </r>
       <r>    4.2599    0.0000 </r>
       <r>    4.3219    0.0000 </r>
       <r>    6.5473    0.0000 </r>
       <r>    6.7338    0.0000 </r>
       <r>    8.7644    0.0000 </r>
       <r>    8.8176    0.0000 </r>
      </set>
      <set comment="kpoint 27">
       <r>  -35.1156    1.0000 </r>
       <r>  -35.1150    1.0000 </r>
       <r>  -34.9149    1.0000 </r>
       <r>  -34.9144    1.0000 </r>
       <r>  -34.8998    1.0000 </r>
       <r>  -34.8994    1.0000 </r>
       <r>  -12.0194    1.0000 </r>
       <r>  -12.0061    1.0000 </r>
       <r>  -11.8701    1.0000 </r>
       <r>  -11.8566    1.0000 </r>
       <r>   -5.3300    1.0000 </r>
       <r>   -5.3074    1.0000 </r>
       <r>   -4.9266    1.0000 </r>
       <r>   -4.9140    1.0000 </r>
       <r>   -3.8945    1.0000 </r>
       <r>   -3.8451    1.0000 </r>
       <r>   -3.1680    1.0000 </r>
       <r>   -3.1149    1.0000 </r>
       <r>   -2.2075    1.0000 </r>
       <r>   -2.1454    1.0000 </r>
       <r>   -1.9031    1.0000 </r>
       <r>   -1.8049    1.0000 </r>
       <r>   -0.4162    1.0000 </r>
       <r>   -0.3978    1.0000 </r>
       <r>    2.0736   -0.0000 </r>
       <r>    2.1206   -0.0000 </r>
       <r>    2.7863   -0.0000 </r>
       <r>    2.8504   -0.0000 </r>
       <r>    3.4333    0.0000 </r>
       <r>    3.4798    0.0000 </r>
       <r>    4.2582    0.0000 </r>
       <r>    4.3235    0.0000 </r>
       <r>    6.5468    0.0000 </r>
       <r>    6.7370    0.0000 </r>
       <r>    8.8437    0.0000 </r>
       <r>    9.0407    0.0000 </r>
      </set>
      <set comment="kpoint 28">
       <r>  -35.0874    1.0000 </r>
       <r>  -35.0869    1.0000 </r>
       <r>  -34.9070    1.0000 </r>
       <r>  -34.9065    1.0000 </r>
       <r>  -34.9000    1.0000 </r>
       <r>  -34.8995    1.0000 </r>
       <r>  -12.2556    1.0000 </r>
       <r>  -12.2286    1.0000 </r>
       <r>  -11.9697    1.0000 </r>
       <r>  -11.9410    1.0000 </r>
       <r>   -5.2094    1.0000 </r>
       <r>   -5.1537    1.0000 </r>
       <r>   -4.6197    1.0000 </r>
       <r>   -4.6052    1.0000 </r>
       <r>   -3.7548    1.0000 </r>
       <r>   -3.6962    1.0000 </r>
       <r>   -3.2689    1.0000 </r>
       <r>   -3.1574    1.0000 </r>
       <r>   -2.1954    1.0000 </r>
       <r>   -2.1653    1.0000 </r>
       <r>   -1.6453    1.0000 </r>
       <r>   -1.5629    1.0000 </r>
       <r>   -0.6492    1.0000 </r>
       <r>   -0.6318    1.0000 </r>
       <r>    2.0169   -0.0000 </r>
       <r>    2.2283   -0.0000 </r>
       <r>    2.5288   -0.0000 </r>
       <r>    2.5577   -0.0000 </r>
       <r>    3.1651    0.0000 </r>
       <r>    3.2710    0.0000 </r>
       <r>    4.2952    0.0000 </r>
       <r>    4.3501    0.0000 </r>
       <r>    7.2121    0.0000 </r>
       <r>    7.4293    0.0000 </r>
       <r>    8.2485    0.0000 </r>
       <r>    8.4767    0.0000 </r>
      </set>
      <set comment="kpoint 29">
       <r>  -35.0368    1.0000 </r>
       <r>  -35.0362    1.0000 </r>
       <r>  -34.9196    1.0000 </r>
       <r>  -34.9191    1.0000 </r>
       <r>  -34.8741    1.0000 </r>
       <r>  -34.8736    1.0000 </r>
       <r>  -12.6334    1.0000 </r>
       <r>  -12.5942    1.0000 </r>
       <r>  -12.1298    1.0000 </r>
       <r>  -12.0832    1.0000 </r>
       <r>   -5.0143    1.0000 </r>
       <r>   -4.9095    1.0000 </r>
       <r>   -4.0852    1.0000 </r>
       <r>   -4.0511    1.0000 </r>
       <r>   -3.7383    1.0000 </r>
       <r>   -3.6624    1.0000 </r>
       <r>   -3.2985    1.0000 </r>
       <r>   -3.1585    1.0000 </r>
       <r>   -2.0655    1.0000 </r>
       <r>   -2.0407    1.0000 </r>
       <r>   -1.3061    1.0000 </r>
       <r>   -1.2239    1.0000 </r>
       <r>   -0.8309    1.0000 </r>
       <r>   -0.8013    1.0000 </r>
       <r>    1.7985   -0.0000 </r>
       <r>    2.0539   -0.0000 </r>
       <r>    2.4075   -0.0000 </r>
       <r>    2.4540   -0.0000 </r>
       <r>    2.8031   -0.0000 </r>
       <r>    2.9696   -0.0000 </r>
       <r>    4.2134    0.0000 </r>
       <r>    4.2583    0.0000 </r>
       <r>    7.4030    0.0000 </r>
       <r>    7.5871    0.0000 </r>
       <r>    8.1724    0.0000 </r>
       <r>    8.3527    0.0000 </r>
      </set>
      <set comment="kpoint 30">
       <r>  -34.9740    1.0000 </r>
       <r>  -34.9734    1.0000 </r>
       <r>  -34.9348    1.0000 </r>
       <r>  -34.9343    1.0000 </r>
       <r>  -34.8438    1.0000 </r>
       <r>  -34.8432    1.0000 </r>
       <r>  -13.0415    1.0000 </r>
       <r>  -12.9945    1.0000 </r>
       <r>  -12.3034    1.0000 </r>
       <r>  -12.2411    1.0000 </r>
       <r>   -4.9373    1.0000 </r>
       <r>   -4.7405    1.0000 </r>
       <r>   -3.7844    1.0000 </r>
       <r>   -3.7391    1.0000 </r>
       <r>   -3.5079    1.0000 </r>
       <r>   -3.3854    1.0000 </r>
       <r>   -3.0754    1.0000 </r>
       <r>   -2.9897    1.0000 </r>
       <r>   -1.9363    1.0000 </r>
       <r>   -1.9227    1.0000 </r>
       <r>   -1.0991    1.0000 </r>
       <r>   -0.9523    1.0000 </r>
       <r>   -0.7639    1.0000 </r>
       <r>   -0.7399    1.0000 </r>
       <r>    1.7772   -0.0000 </r>
       <r>    1.9988   -0.0000 </r>
       <r>    2.3375   -0.0000 </r>
       <r>    2.4106   -0.0000 </r>
       <r>    2.5394   -0.0000 </r>
       <r>    2.7194   -0.0000 </r>
       <r>    3.9454    0.0000 </r>
       <r>    3.9901    0.0000 </r>
       <r>    6.7305    0.0000 </r>
       <r>    7.0021    0.0000 </r>
       <r>    7.7402    0.0000 </r>
       <r>    8.5941    0.0000 </r>
      </set>
      <set comment="kpoint 31">
       <r>  -34.9491    1.0000 </r>
       <r>  -34.9486    1.0000 </r>
       <r>  -34.9118    1.0000 </r>
       <r>  -34.9113    1.0000 </r>
       <r>  -34.8174    1.0000 </r>
       <r>  -34.8169    1.0000 </r>
       <r>  -13.3912    1.0000 </r>
       <r>  -13.3399    1.0000 </r>
       <r>  -12.4522    1.0000 </r>
       <r>  -12.3777    1.0000 </r>
       <r>   -5.1082    1.0000 </r>
       <r>   -4.8479    1.0000 </r>
       <r>   -3.5471    1.0000 </r>
       <r>   -3.5353    1.0000 </r>
       <r>   -3.2196    1.0000 </r>
       <r>   -2.9915    1.0000 </r>
       <r>   -2.4487    1.0000 </r>
       <r>   -2.4320    1.0000 </r>
       <r>   -2.0629    1.0000 </r>
       <r>   -2.0595    1.0000 </r>
       <r>   -1.1379    1.0000 </r>
       <r>   -0.9012    1.0000 </r>
       <r>   -0.5245    1.0000 </r>
       <r>   -0.4232    1.0000 </r>
       <r>    1.9790   -0.0000 </r>
       <r>    2.1989   -0.0000 </r>
       <r>    2.4070   -0.0000 </r>
       <r>    2.4300   -0.0000 </r>
       <r>    2.4885   -0.0000 </r>
       <r>    2.6340   -0.0000 </r>
       <r>    3.5445    0.0000 </r>
       <r>    3.5756    0.0000 </r>
       <r>    6.1929    0.0000 </r>
       <r>    6.5118    0.0000 </r>
       <r>    7.2315    0.0000 </r>
       <r>    8.2852    0.0000 </r>
      </set>
      <set comment="kpoint 32">
       <r>  -34.9592    1.0000 </r>
       <r>  -34.9587    1.0000 </r>
       <r>  -34.8637    1.0000 </r>
       <r>  -34.8633    1.0000 </r>
       <r>  -34.8023    1.0000 </r>
       <r>  -34.8017    1.0000 </r>
       <r>  -13.6235    1.0000 </r>
       <r>  -13.5700    1.0000 </r>
       <r>  -12.5508    1.0000 </r>
       <r>  -12.4683    1.0000 </r>
       <r>   -5.3095    1.0000 </r>
       <r>   -5.0310    1.0000 </r>
       <r>   -3.2436    1.0000 </r>
       <r>   -3.2369    1.0000 </r>
       <r>   -2.9457    1.0000 </r>
       <r>   -2.6737    1.0000 </r>
       <r>   -2.2588    1.0000 </r>
       <r>   -2.2573    1.0000 </r>
       <r>   -1.9843    1.0000 </r>
       <r>   -1.9821    1.0000 </r>
       <r>   -1.2432    1.0000 </r>
       <r>   -0.9388    1.0000 </r>
       <r>   -0.3540    1.0000 </r>
       <r>   -0.1376    1.0000 </r>
       <r>    2.2032   -0.0000 </r>
       <r>    2.3735   -0.0000 </r>
       <r>    2.5141   -0.0000 </r>
       <r>    2.5761   -0.0000 </r>
       <r>    2.5851   -0.0000 </r>
       <r>    2.6265   -0.0000 </r>
       <r>    3.2142    0.0000 </r>
       <r>    3.2200    0.0000 </r>
       <r>    5.8563    0.0000 </r>
       <r>    6.1956    0.0000 </r>
       <r>    6.9048    0.0000 </r>
       <r>    7.7855    0.0000 </r>
      </set>
      <set comment="kpoint 33">
       <r>  -34.9628    1.0000 </r>
       <r>  -34.9623    1.0000 </r>
       <r>  -34.8442    1.0000 </r>
       <r>  -34.8437    1.0000 </r>
       <r>  -34.7990    1.0000 </r>
       <r>  -34.7984    1.0000 </r>
       <r>  -13.7047    1.0000 </r>
       <r>  -13.6502    1.0000 </r>
       <r>  -12.5854    1.0000 </r>
       <r>  -12.4996    1.0000 </r>
       <r>   -5.3890    1.0000 </r>
       <r>   -5.1053    1.0000 </r>
       <r>   -3.1072    1.0000 </r>
       <r>   -3.1021    1.0000 </r>
       <r>   -2.7828    1.0000 </r>
       <r>   -2.4720    1.0000 </r>
       <r>   -2.3472    1.0000 </r>
       <r>   -2.3438    1.0000 </r>
       <r>   -1.9624    1.0000 </r>
       <r>   -1.9600    1.0000 </r>
       <r>   -1.1892    1.0000 </r>
       <r>   -0.8710    1.0000 </r>
       <r>   -0.3031    1.0000 </r>
       <r>   -0.0197    1.0002 </r>
       <r>    2.2997   -0.0000 </r>
       <r>    2.4340   -0.0000 </r>
       <r>    2.4693   -0.0000 </r>
       <r>    2.5615   -0.0000 </r>
       <r>    2.6455   -0.0000 </r>
       <r>    2.6500   -0.0000 </r>
       <r>    3.1425    0.0000 </r>
       <r>    3.1549    0.0000 </r>
       <r>    5.7468    0.0000 </r>
       <r>    6.0901    0.0000 </r>
       <r>    6.9110    0.0000 </r>
       <r>    7.6052    0.0000 </r>
      </set>
      <set comment="kpoint 34">
       <r>  -34.9453    1.0000 </r>
       <r>  -34.9448    1.0000 </r>
       <r>  -34.9430    1.0000 </r>
       <r>  -34.9425    1.0000 </r>
       <r>  -34.8211    1.0000 </r>
       <r>  -34.8206    1.0000 </r>
       <r>  -13.2492    1.0000 </r>
       <r>  -13.1959    1.0000 </r>
       <r>  -12.3946    1.0000 </r>
       <r>  -12.3195    1.0000 </r>
       <r>   -5.0470    1.0000 </r>
       <r>   -4.8135    1.0000 </r>
       <r>   -3.7235    1.0000 </r>
       <r>   -3.6499    1.0000 </r>
       <r>   -3.4772    1.0000 </r>
       <r>   -3.2896    1.0000 </r>
       <r>   -2.3842    1.0000 </r>
       <r>   -2.3722    1.0000 </r>
       <r>   -1.8941    1.0000 </r>
       <r>   -1.8829    1.0000 </r>
       <r>   -1.4608    1.0000 </r>
       <r>   -1.0924    1.0000 </r>
       <r>   -0.6837    1.0000 </r>
       <r>   -0.5470    1.0000 </r>
       <r>    1.9448   -0.0000 </r>
       <r>    2.2515   -0.0000 </r>
       <r>    2.3096   -0.0000 </r>
       <r>    2.3520   -0.0000 </r>
       <r>    2.7000   -0.0000 </r>
       <r>    2.9213   -0.0000 </r>
       <r>    3.5749    0.0000 </r>
       <r>    3.6275    0.0000 </r>
       <r>    6.3954    0.0000 </r>
       <r>    6.6918    0.0000 </r>
       <r>    7.3812    0.0000 </r>
       <r>    8.1716    0.0000 </r>
      </set>
      <set comment="kpoint 35">
       <r>  -34.9921    1.0000 </r>
       <r>  -34.9916    1.0000 </r>
       <r>  -34.9324    1.0000 </r>
       <r>  -34.9319    1.0000 </r>
       <r>  -34.8398    1.0000 </r>
       <r>  -34.8393    1.0000 </r>
       <r>  -12.9831    1.0000 </r>
       <r>  -12.9316    1.0000 </r>
       <r>  -12.2828    1.0000 </r>
       <r>  -12.2147    1.0000 </r>
       <r>   -4.9852    1.0000 </r>
       <r>   -4.8170    1.0000 </r>
       <r>   -3.8746    1.0000 </r>
       <r>   -3.7372    1.0000 </r>
       <r>   -3.7163    1.0000 </r>
       <r>   -3.5808    1.0000 </r>
       <r>   -2.8474    1.0000 </r>
       <r>   -2.7924    1.0000 </r>
       <r>   -1.7832    1.0000 </r>
       <r>   -1.7716    1.0000 </r>
       <r>   -1.4033    1.0000 </r>
       <r>   -1.1063    1.0000 </r>
       <r>   -0.8417    1.0000 </r>
       <r>   -0.7573    1.0000 </r>
       <r>    1.8612   -0.0000 </r>
       <r>    2.0687   -0.0000 </r>
       <r>    2.2956   -0.0000 </r>
       <r>    2.3770   -0.0000 </r>
       <r>    2.7603   -0.0000 </r>
       <r>    2.9599   -0.0000 </r>
       <r>    3.9125    0.0000 </r>
       <r>    3.9254    0.0000 </r>
       <r>    6.8113    0.0000 </r>
       <r>    7.0668    0.0000 </r>
       <r>    7.7891    0.0000 </r>
       <r>    8.4332    0.0000 </r>
      </set>
      <set comment="kpoint 36">
       <r>  -35.0368    1.0000 </r>
       <r>  -35.0362    1.0000 </r>
       <r>  -34.9196    1.0000 </r>
       <r>  -34.9191    1.0000 </r>
       <r>  -34.8741    1.0000 </r>
       <r>  -34.8736    1.0000 </r>
[...]
       <r>    -2.1286     2.1115    18.5890 </r>
       <r>    -1.9662     3.7139    19.1919 </r>
       <r>    -1.8039     3.5877    19.7742 </r>
       <r>    -1.6416     3.2688    20.3048 </r>
       <r>    -1.4792     2.9245    20.7796 </r>
       <r>    -1.3169     2.8483    21.2419 </r>
       <r>    -1.1546     1.8112    21.5359 </r>
       <r>    -0.9923     1.6630    21.8059 </r>
       <r>    -0.8299     2.9842    22.2903 </r>
       <r>    -0.6676     3.0972    22.7930 </r>
       <r>    -0.5053     2.5589    23.2084 </r>
       <r>    -0.3430     2.5728    23.6261 </r>
       <r>    -0.1806     1.1542    23.8134 </r>
       <r>    -0.0183     0.8205    23.9466 </r>
       <r>     0.1440     0.1732    23.9747 </r>
       <r>     0.3064     0.1608    24.0008 </r>
       <r>     0.4687    -0.0050    24.0000 </r>
       <r>     0.6310    -0.0001    24.0000 </r>
       <r>     0.7933    -0.0000    24.0000 </r>
       <r>     0.9557    -0.0000    24.0000 </r>
       <r>     1.1180    -0.0000    24.0000 </r>
       <r>     1.2803    -0.0000    24.0000 </r>
       <r>     1.4426    -0.0004    23.9999 </r>
       <r>     1.6050    -0.0161    23.9973 </r>
       <r>     1.7673     0.6201    24.0980 </r>
       <r>     1.9296     1.6638    24.3680 </r>
       <r>     2.0920     4.2334    25.0552 </r>
       <r>     2.2543     4.6872    25.8161 </r>
       <r>     2.4166     3.9490    26.4571 </r>
       <r>     2.5789     5.2413    27.3079 </r>
       <r>     2.7413     4.0913    27.9721 </r>
       <r>     2.9036     3.1458    28.4827 </r>
       <r>     3.0659     2.5757    28.9008 </r>
       <r>     3.2282     3.0353    29.3935 </r>
       <r>     3.3906     1.8059    29.6867 </r>
       <r>     3.5529     1.8062    29.9799 </r>
       <r>     3.7152     1.5939    30.2386 </r>
       <r>     3.8776     1.1546    30.4260 </r>
       <r>     4.0399     2.0824    30.7641 </r>
       <r>     4.2022     2.8884    31.2329 </r>
       <r>     4.3645     2.2312    31.5951 </r>
       <r>     4.5269     1.2212    31.7933 </r>
       <r>     4.6892     0.9581    31.9489 </r>
       <r>     4.8515     0.3210    32.0010 </r>
       <r>     5.0138    -0.0057    32.0000 </r>
       <r>     5.1762    -0.0006    32.0000 </r>
       <r>     5.3385     0.0039    32.0006 </r>
       <r>     5.5008     0.1312    32.0219 </r>
       <r>     5.6632     0.1288    32.0428 </r>
       <r>     5.8255     0.3672    32.1024 </r>
       <r>     5.9878     0.4391    32.1737 </r>
       <r>     6.1501     0.3695    32.2336 </r>
       <r>     6.3125     1.0579    32.4054 </r>
       <r>     6.4748     0.7257    32.5232 </r>
       <r>     6.6371     1.2744    32.7300 </r>
       <r>     6.7994     1.2626    32.9350 </r>
       <r>     6.9618     1.5659    33.1892 </r>
       <r>     7.1241     1.8074    33.4826 </r>
       <r>     7.2864     1.4683    33.7209 </r>
       <r>     7.4488     1.5760    33.9767 </r>
       <r>     7.6111     1.5313    34.2253 </r>
       <r>     7.7734     1.4481    34.4604 </r>
       <r>     7.9357     1.1520    34.6474 </r>
       <r>     8.0981     1.2364    34.8481 </r>
       <r>     8.2604     2.4778    35.2503 </r>
       <r>     8.4227     1.9372    35.5648 </r>
       <r>     8.5850     1.0857    35.7410 </r>
       <r>     8.7474     0.7488    35.8625 </r>
       <r>     8.9097     0.5486    35.9516 </r>
       <r>     9.0720     0.2019    35.9844 </r>
       <r>     9.2343     0.0995    36.0005 </r>
       <r>     9.3967    -0.0033    36.0000 </r>
       <r>     9.5590    -0.0000    36.0000 </r>
       <r>     9.7213    -0.0000    36.0000 </r>
       <r>     9.8837    -0.0000    36.0000 </r>
       <r>    10.0460     0.0000    36.0000 </r>
       <r>    10.2083     0.0000    36.0000 </r>
       <r>    10.3706     0.0000    36.0000 </r>
       <r>    10.5330     0.0000    36.0000 </r>
       <r>    10.6953     0.0000    36.0000 </r>
       <r>    10.8576     0.0000    36.0000 </r>
       <r>    11.0199     0.0000    36.0000 </r>
       <r>    11.1823     0.0000    36.0000 </r>
       <r>    11.3446     0.0000    36.0000 </r>
      </set>
      <set comment="spin 2">
       <r>   -37.3536     0.0000     0.0000 </r>
       <r>   -37.1912     0.0000     0.0000 </r>
       <r>   -37.0289     0.0000     0.0000 </r>
       <r>   -36.8666     0.0000     0.0000 </r>
       <r>   -36.7042     0.0000     0.0000 </r>
       <r>   -36.5419     0.0000     0.0000 </r>
       <r>   -36.3796     0.0000     0.0000 </r>
       <r>   -36.2173     0.0000     0.0000 </r>
       <r>   -36.0549    -0.0000    -0.0000 </r>
       <r>   -35.8926    -0.0000    -0.0000 </r>
       <r>   -35.7303    -0.0000    -0.0000 </r>
       <r>   -35.5680    -0.0000    -0.0000 </r>
       <r>   -35.4056    -0.0009    -0.0001 </r>
       <r>   -35.2433    -0.1939    -0.0316 </r>
       <r>   -35.0810     4.3248     0.6704 </r>
       <r>   -34.9186    15.5713     3.1981 </r>
       <r>   -34.7563    17.3455     6.0137 </r>
       <r>   -34.5940    -0.0616     6.0037 </r>
       <r>   -34.4317    -0.0228     6.0000 </r>
       <r>   -34.2693    -0.0000     6.0000 </r>
       <r>   -34.1070    -0.0000     6.0000 </r>
       <r>   -33.9447     0.0000     6.0000 </r>
       <r>   -33.7824     0.0000     6.0000 </r>
       <r>   -33.6200     0.0000     6.0000 </r>
       <r>   -33.4577     0.0000     6.0000 </r>
       <r>   -33.2954     0.0000     6.0000 </r>
       <r>   -33.1330     0.0000     6.0000 </r>
       <r>   -32.9707     0.0000     6.0000 </r>
       <r>   -32.8084     0.0000     6.0000 </r>
       <r>   -32.6461     0.0000     6.0000 </r>
       <r>   -32.4837     0.0000     6.0000 </r>
       <r>   -32.3214     0.0000     6.0000 </r>
       <r>   -32.1591     0.0000     6.0000 </r>
       <r>   -31.9968     0.0000     6.0000 </r>
       <r>   -31.8344     0.0000     6.0000 </r>
       <r>   -31.6721     0.0000     6.0000 </r>
       <r>   -31.5098     0.0000     6.0000 </r>
       <r>   -31.3474     0.0000     6.0000 </r>
       <r>   -31.1851     0.0000     6.0000 </r>
       <r>   -31.0228     0.0000     6.0000 </r>
       <r>   -30.8605     0.0000     6.0000 </r>
       <r>   -30.6981     0.0000     6.0000 </r>
       <r>   -30.5358     0.0000     6.0000 </r>
       <r>   -30.3735     0.0000     6.0000 </r>
       <r>   -30.2112     0.0000     6.0000 </r>
       <r>   -30.0488     0.0000     6.0000 </r>
       <r>   -29.8865     0.0000     6.0000 </r>
       <r>   -29.7242     0.0000     6.0000 </r>
       <r>   -29.5618     0.0000     6.0000 </r>
       <r>   -29.3995     0.0000     6.0000 </r>
       <r>   -29.2372     0.0000     6.0000 </r>
       <r>   -29.0749     0.0000     6.0000 </r>
       <r>   -28.9125     0.0000     6.0000 </r>
       <r>   -28.7502     0.0000     6.0000 </r>
       <r>   -28.5879     0.0000     6.0000 </r>
       <r>   -28.4256     0.0000     6.0000 </r>
       <r>   -28.2632     0.0000     6.0000 </r>
       <r>   -28.1009     0.0000     6.0000 </r>
       <r>   -27.9386     0.0000     6.0000 </r>
       <r>   -27.7763     0.0000     6.0000 </r>
       <r>   -27.6139     0.0000     6.0000 </r>
       <r>   -27.4516     0.0000     6.0000 </r>
       <r>   -27.2893     0.0000     6.0000 </r>
       <r>   -27.1269     0.0000     6.0000 </r>
       <r>   -26.9646     0.0000     6.0000 </r>
       <r>   -26.8023     0.0000     6.0000 </r>
       <r>   -26.6400     0.0000     6.0000 </r>
       <r>   -26.4776     0.0000     6.0000 </r>
       <r>   -26.3153     0.0000     6.0000 </r>
       <r>   -26.1530     0.0000     6.0000 </r>
       <r>   -25.9907     0.0000     6.0000 </r>
       <r>   -25.8283     0.0000     6.0000 </r>
       <r>   -25.6660     0.0000     6.0000 </r>
       <r>   -25.5037     0.0000     6.0000 </r>
       <r>   -25.3413     0.0000     6.0000 </r>
       <r>   -25.1790     0.0000     6.0000 </r>
       <r>   -25.0167     0.0000     6.0000 </r>
       <r>   -24.8544     0.0000     6.0000 </r>
       <r>   -24.6920     0.0000     6.0000 </r>
       <r>   -24.5297     0.0000     6.0000 </r>
       <r>   -24.3674     0.0000     6.0000 </r>
       <r>   -24.2051     0.0000     6.0000 </r>
       <r>   -24.0427     0.0000     6.0000 </r>
       <r>   -23.8804     0.0000     6.0000 </r>
       <r>   -23.7181     0.0000     6.0000 </r>
       <r>   -23.5557     0.0000     6.0000 </r>
       <r>   -23.3934     0.0000     6.0000 </r>
       <r>   -23.2311     0.0000     6.0000 </r>
       <r>   -23.0688     0.0000     6.0000 </r>
       <r>   -22.9064     0.0000     6.0000 </r>
       <r>   -22.7441     0.0000     6.0000 </r>
       <r>   -22.5818     0.0000     6.0000 </r>
       <r>   -22.4195     0.0000     6.0000 </r>
       <r>   -22.2571     0.0000     6.0000 </r>
       <r>   -22.0948     0.0000     6.0000 </r>
       <r>   -21.9325     0.0000     6.0000 </r>
       <r>   -21.7701     0.0000     6.0000 </r>
       <r>   -21.6078     0.0000     6.0000 </r>
       <r>   -21.4455     0.0000     6.0000 </r>
       <r>   -21.2832     0.0000     6.0000 </r>
       <r>   -21.1208     0.0000     6.0000 </r>
       <r>   -20.9585     0.0000     6.0000 </r>
       <r>   -20.7962     0.0000     6.0000 </r>
       <r>   -20.6339     0.0000     6.0000 </r>
       <r>   -20.4715     0.0000     6.0000 </r>
       <r>   -20.3092     0.0000     6.0000 </r>
       <r>   -20.1469     0.0000     6.0000 </r>
       <r>   -19.9845     0.0000     6.0000 </r>
       <r>   -19.8222     0.0000     6.0000 </r>
       <r>   -19.6599     0.0000     6.0000 </r>
       <r>   -19.4976     0.0000     6.0000 </r>
       <r>   -19.3352     0.0000     6.0000 </r>
       <r>   -19.1729     0.0000     6.0000 </r>
       <r>   -19.0106     0.0000     6.0000 </r>
       <r>   -18.8483     0.0000     6.0000 </r>
       <r>   -18.6859     0.0000     6.0000 </r>
       <r>   -18.5236     0.0000     6.0000 </r>
       <r>   -18.3613     0.0000     6.0000 </r>
       <r>   -18.1989     0.0000     6.0000 </r>
       <r>   -18.0366     0.0000     6.0000 </r>
       <r>   -17.8743     0.0000     6.0000 </r>
       <r>   -17.7120     0.0000     6.0000 </r>
       <r>   -17.5496     0.0000     6.0000 </r>
       <r>   -17.3873     0.0000     6.0000 </r>
       <r>   -17.2250     0.0000     6.0000 </r>
       <r>   -17.0627     0.0000     6.0000 </r>
       <r>   -16.9003     0.0000     6.0000 </r>
       <r>   -16.7380     0.0000     6.0000 </r>
       <r>   -16.5757     0.0000     6.0000 </r>
       <r>   -16.4133     0.0000     6.0000 </r>
       <r>   -16.2510     0.0000     6.0000 </r>
       <r>   -16.0887     0.0000     6.0000 </r>
       <r>   -15.9264     0.0000     6.0000 </r>
       <r>   -15.7640     0.0000     6.0000 </r>
       <r>   -15.6017     0.0000     6.0000 </r>
       <r>   -15.4394     0.0000     6.0000 </r>
       <r>   -15.2771     0.0000     6.0000 </r>
       <r>   -15.1147     0.0000     6.0000 </r>
       <r>   -14.9524     0.0000     6.0000 </r>
       <r>   -14.7901    -0.0000     6.0000 </r>
       <r>   -14.6277    -0.0000     6.0000 </r>
       <r>   -14.4654    -0.0000     6.0000 </r>
       <r>   -14.3031    -0.0000     6.0000 </r>
       <r>   -14.1408    -0.0007     5.9999 </r>
       <r>   -13.9784     0.0025     6.0003 </r>
       <r>   -13.8161     0.3687     6.0601 </r>
       <r>   -13.6538     0.4977     6.1409 </r>
       <r>   -13.4915     0.5050     6.2229 </r>
       <r>   -13.3291     0.6731     6.3322 </r>
       <r>   -13.1668     0.5850     6.4271 </r>
       <r>   -13.0045     0.4847     6.5058 </r>
       <r>   -12.8421     0.9645     6.6624 </r>
       <r>   -12.6798     0.4869     6.7414 </r>
       <r>   -12.5175     2.2387     7.1048 </r>
       <r>   -12.3552     2.0367     7.4354 </r>
       <r>   -12.1928     3.4020     7.9876 </r>
       <r>   -12.0305     4.0724     8.6487 </r>
       <r>   -11.8682     5.8040     9.5909 </r>
       <r>   -11.7059     2.5722    10.0084 </r>
       <r>   -11.5435    -0.0495    10.0004 </r>
       <r>   -11.3812    -0.0022    10.0000 </r>
       <r>   -11.2189    -0.0000    10.0000 </r>
       <r>   -11.0565    -0.0000    10.0000 </r>
       <r>   -10.8942     0.0000    10.0000 </r>
       <r>   -10.7319     0.0000    10.0000 </r>
       <r>   -10.5696     0.0000    10.0000 </r>
       <r>   -10.4072     0.0000    10.0000 </r>
       <r>   -10.2449     0.0000    10.0000 </r>
       <r>   -10.0826     0.0000    10.0000 </r>
       <r>    -9.9203     0.0000    10.0000 </r>
       <r>    -9.7579     0.0000    10.0000 </r>
       <r>    -9.5956     0.0000    10.0000 </r>
       <r>    -9.4333     0.0000    10.0000 </r>
       <r>    -9.2710     0.0000    10.0000 </r>
       <r>    -9.1086     0.0000    10.0000 </r>
       <r>    -8.9463     0.0000    10.0000 </r>
       <r>    -8.7840     0.0000    10.0000 </r>
       <r>    -8.6216     0.0000    10.0000 </r>
       <r>    -8.4593     0.0000    10.0000 </r>
       <r>    -8.2970     0.0000    10.0000 </r>
       <r>    -8.1347     0.0000    10.0000 </r>
       <r>    -7.9723     0.0000    10.0000 </r>
       <r>    -7.8100     0.0000    10.0000 </r>
       <r>    -7.6477     0.0000    10.0000 </r>
       <r>    -7.4854     0.0000    10.0000 </r>
       <r>    -7.3230     0.0000    10.0000 </r>
       <r>    -7.1607     0.0000    10.0000 </r>
       <r>    -6.9984     0.0000    10.0000 </r>
       <r>    -6.8360     0.0000    10.0000 </r>
       <r>    -6.6737     0.0000    10.0000 </r>
       <r>    -6.5114    -0.0000    10.0000 </r>
       <r>    -6.3491    -0.0000    10.0000 </r>
       <r>    -6.1867    -0.0000    10.0000 </r>
       <r>    -6.0244    -0.0000    10.0000 </r>
       <r>    -5.8621    -0.0022     9.9997 </r>
       <r>    -5.6998     0.0207    10.0030 </r>
       <r>    -5.5374     1.0044    10.1661 </r>
       <r>    -5.3751     1.4637    10.4037 </r>
       <r>    -5.2128     2.4304    10.7982 </r>
       <r>    -5.0504     3.4145    11.3524 </r>
       <r>    -4.8881     4.6436    12.1062 </r>
       <r>    -4.7258     1.9796    12.4276 </r>
       <r>    -4.5635     2.7781    12.8785 </r>
       <r>    -4.4011     0.5351    12.9654 </r>
       <r>    -4.2388     0.5926    13.0616 </r>
       <r>    -4.0765     0.9243    13.2116 </r>
       <r>    -3.9142     2.3134    13.5871 </r>
       <r>    -3.7518     4.9893    14.3971 </r>
       <r>    -3.5895     4.0321    15.0516 </r>
       <r>    -3.4272     2.0349    15.3819 </r>
       <r>    -3.2648     1.4280    15.6137 </r>
       <r>    -3.1025     4.9992    16.4252 </r>
       <r>    -2.9402     4.5104    17.1574 </r>
       <r>    -2.7779     2.4418    17.5538 </r>
       <r>    -2.6155     1.1415    17.7390 </r>
       <r>    -2.4532     1.4450    17.9736 </r>
       <r>    -2.2909     1.6818    18.2466 </r>
       <r>    -2.1286     2.1175    18.5903 </r>
       <r>    -1.9662     3.7137    19.1932 </r>
       <r>    -1.8039     3.5875    19.7755 </r>
       <r>    -1.6416     3.2694    20.3062 </r>
       <r>    -1.4792     2.9254    20.7811 </r>
       <r>    -1.3169     2.8416    21.2424 </r>
       <r>    -1.1546     1.8160    21.5371 </r>
       <r>    -0.9923     1.6606    21.8067 </r>
       <r>    -0.8299     2.9896    22.2920 </r>
       <r>    -0.6676     3.0929    22.7941 </r>
       <r>    -0.5053     2.5560    23.2090 </r>
       <r>    -0.3430     2.5735    23.6267 </r>
       <r>    -0.1806     1.1523    23.8138 </r>
       <r>    -0.0183     0.8181    23.9466 </r>
       <r>     0.1440     0.1734    23.9747 </r>
       <r>     0.3064     0.1607    24.0008 </r>
       <r>     0.4687    -0.0050    24.0000 </r>
       <r>     0.6310    -0.0001    24.0000 </r>
       <r>     0.7933    -0.0000    24.0000 </r>
       <r>     0.9557    -0.0000    24.0000 </r>
       <r>     1.1180    -0.0000    24.0000 </r>
       <r>     1.2803    -0.0000    24.0000 </r>
       <r>     1.4426    -0.0004    23.9999 </r>
       <r>     1.6050    -0.0160    23.9973 </r>
       <r>     1.7673     0.6209    24.0981 </r>
       <r>     1.9296     1.6647    24.3684 </r>
       <r>     2.0920     4.2443    25.0573 </r>
       <r>     2.2543     4.6826    25.8174 </r>
       <r>     2.4166     3.9561    26.4596 </r>
       <r>     2.5789     5.2352    27.3094 </r>
       <r>     2.7413     4.0872    27.9729 </r>
       <r>     2.9036     3.1456    28.4835 </r>
       <r>     3.0659     2.5752    28.9015 </r>
       <r>     3.2282     3.0356    29.3943 </r>
       <r>     3.3906     1.8042    29.6872 </r>
       <r>     3.5529     1.8062    29.9804 </r>
       <r>     3.7152     1.5925    30.2389 </r>
       <r>     3.8776     1.1556    30.4265 </r>
       <r>     4.0399     2.0821    30.7644 </r>
       <r>     4.2022     2.8899    31.2335 </r>
       <r>     4.3645     2.2297    31.5955 </r>
       <r>     4.5269     1.2200    31.7935 </r>
       <r>     4.6892     0.9577    31.9490 </r>
       <r>     4.8515     0.3203    32.0010 </r>
       <r>     5.0138    -0.0057    32.0000 </r>
       <r>     5.1762    -0.0005    32.0000 </r>
       <r>     5.3385     0.0023    32.0003 </r>
       <r>     5.5008     0.1200    32.0198 </r>
       <r>     5.6632     0.1350    32.0417 </r>
       <r>     5.8255     0.2837    32.0878 </r>
       <r>     5.9878     0.5138    32.1712 </r>
       <r>     6.1501     0.2129    32.2057 </r>
       <r>     6.3125     1.1806    32.3974 </r>
       <r>     6.4748     0.8720    32.5389 </r>
       <r>     6.6371     1.0740    32.7133 </r>
       <r>     6.7994     1.5326    32.9621 </r>
       <r>     6.9618     1.4286    33.1940 </r>
       <r>     7.1241     1.6265    33.4580 </r>
       <r>     7.2864     1.6629    33.7279 </r>
       <r>     7.4488     1.4349    33.9609 </r>
       <r>     7.6111     1.5164    34.2070 </r>
       <r>     7.7734     2.0267    34.5360 </r>
       <r>     7.9357     0.6543    34.6422 </r>
       <r>     8.0981     1.1228    34.8245 </r>
       <r>     8.2604     2.5176    35.2331 </r>
       <r>     8.4227     2.3807    35.6196 </r>
       <r>     8.5850     0.7721    35.7449 </r>
       <r>     8.7474     0.5356    35.8319 </r>
       <r>     8.9097     0.6958    35.9448 </r>
       <r>     9.0720     0.2767    35.9898 </r>
       <r>     9.2343     0.0662    36.0005 </r>
       <r>     9.3967    -0.0031    36.0000 </r>
       <r>     9.5590    -0.0000    36.0000 </r>
       <r>     9.7213    -0.0000    36.0000 </r>
       <r>     9.8837     0.0000    36.0000 </r>
       <r>    10.0460     0.0000    36.0000 </r>
       <r>    10.2083     0.0000    36.0000 </r>
       <r>    10.3706     0.0000    36.0000 </r>
       <r>    10.5330     0.0000    36.0000 </r>
       <r>    10.6953     0.0000    36.0000 </r>
       <r>    10.8576     0.0000    36.0000 </r>
       <r>    11.0199     0.0000    36.0000 </r>
       <r>    11.1823     0.0000    36.0000 </r>
       <r>    11.3446     0.0000    36.0000 </r>
      </set>
     </set>
    </array>
   </total>
  </dos>
 </calculation>
 <structure name="finalpos" >
  <crystal>
   <varray name="basis" >
    <v>       3.19031700       0.00000000       0.00000000 </v>
    <v>      -1.59515800       2.76289700       0.00000000 </v>
    <v>       0.00000000       0.00000000      23.14049200 </v>
   </varray>
   <i name="volume">    203.97226633 </i>
   <varray name="rec_basis" >
    <v>       0.31344848       0.18096941       0.00000000 </v>
    <v>       0.00000000       0.36193894       0.00000000 </v>
    <v>       0.00000000       0.00000000       0.04321429 </v>
   </varray>
  </crystal>
  <varray name="positions" >
   <v>       0.66666700       0.33333300       0.06785900 </v>
   <v>       0.33333300       0.66666700       0.00000000 </v>
   <v>       0.33333300       0.66666700       0.13571500 </v>
   <v>       0.09523843       0.33333300       0.35482300 </v>
   <v>       0.76190443       0.66666700       0.28696500 </v>
   <v>       0.76190443       0.66666700       0.42267900 </v>
  </varray>
 </structure>
</modeling>
