<?xml version="1.0" encoding="ISO-8859-1"?>
<modeling>
 <generator>
  <i name="program" type="string">vasp </i>
  <i name="version" type="string">5.3.5  </i>
  <i name="subversion" type="string">31Mar14 (build Oct 29 2014 16:16:03) complex                          parallel </i>
  <i name="platform" type="string">Linux-UFHPC </i>
  <i name="date" type="string">2016 02 09 </i>
  <i name="time" type="string">18:08:21 </i>
 </generator>
 <incar>
  <i type="string" name="PREC">accurate</i>
  <i type="int" name="IBRION">     2</i>
  <i name="EDIFF">      0.00000100</i>
  <i type="int" name="NSW">     0</i>
  <i type="int" name="ISIF">     3</i>
  <i name="ENCUT">    300.00000000</i>
  <i type="string" name="LREAL"> Auto</i>
  <i type="int" name="ISMEAR">     0</i>
  <i name="SIGMA">      0.10000000</i>
  <i type="logical" name="LWAVE"> F  </i>
  <i type="logical" name="LCHARG"> F  </i>
  <i type="logical" name="LAECHG"> F  </i>
  <i type="string" name="GGA"> Bo</i>
  <i name="PARAM1">      0.18333333</i>
  <i name="PARAM2">      0.22000000</i>
  <i type="logical" name="LUSE_VDW"> T  </i>
  <i name="AGGAC">      0.00000000</i>
 </incar>
 <kpoints>
  <generation param="Gamma">
   <v type="int" name="divisions">      13        4        2 </v>
   <v name="usershift">      0.00000000       0.00000000       0.00000000 </v>
   <v name="genvec1">      0.07692308      -0.00000000       0.00000000 </v>
   <v name="genvec2">      0.00000000       0.25000000       0.00000000 </v>
   <v name="genvec3">      0.00000000       0.00000000       0.50000000 </v>
   <v name="shift">      0.00000000       0.00000000       0.00000000 </v>
  </generation>
  <varray name="kpointlist" >
   <v>       0.00000000       0.00000000       0.00000000 </v>
   <v>       0.07692308      -0.00000000       0.00000000 </v>
   <v>       0.15384615      -0.00000000       0.00000000 </v>
   <v>       0.23076923      -0.00000000       0.00000000 </v>
   <v>       0.30769231      -0.00000000       0.00000000 </v>
   <v>       0.38461538      -0.00000000       0.00000000 </v>
   <v>       0.46153846      -0.00000000       0.00000000 </v>
   <v>       0.00000000       0.25000000       0.00000000 </v>
   <v>       0.07692308       0.25000000       0.00000000 </v>
   <v>       0.15384615       0.25000000       0.00000000 </v>
   <v>       0.23076923       0.25000000       0.00000000 </v>
   <v>       0.30769231       0.25000000       0.00000000 </v>
   <v>       0.38461538       0.25000000       0.00000000 </v>
   <v>       0.46153846       0.25000000       0.00000000 </v>
   <v>      -0.46153846       0.25000000       0.00000000 </v>
   <v>      -0.38461538       0.25000000       0.00000000 </v>
   <v>      -0.30769231       0.25000000       0.00000000 </v>
   <v>      -0.23076923       0.25000000       0.00000000 </v>
   <v>      -0.15384615       0.25000000       0.00000000 </v>
   <v>      -0.07692308       0.25000000       0.00000000 </v>
   <v>       0.00000000       0.50000000       0.00000000 </v>
   <v>       0.07692308       0.50000000       0.00000000 </v>
   <v>       0.15384615       0.50000000       0.00000000 </v>
   <v>       0.23076923       0.50000000       0.00000000 </v>
   <v>       0.30769231       0.50000000       0.00000000 </v>
   <v>       0.38461538       0.50000000       0.00000000 </v>
   <v>       0.46153846       0.50000000       0.00000000 </v>
   <v>       0.00000000       0.00000000       0.50000000 </v>
   <v>       0.07692308      -0.00000000       0.50000000 </v>
   <v>       0.15384615      -0.00000000       0.50000000 </v>
   <v>       0.23076923      -0.00000000       0.50000000 </v>
   <v>       0.30769231      -0.00000000       0.50000000 </v>
   <v>       0.38461538      -0.00000000       0.50000000 </v>
   <v>       0.46153846      -0.00000000       0.50000000 </v>
   <v>       0.00000000       0.25000000       0.50000000 </v>
   <v>       0.07692308       0.25000000       0.50000000 </v>
   <v>       0.15384615       0.25000000       0.50000000 </v>
   <v>       0.23076923       0.25000000       0.50000000 </v>
   <v>       0.30769231       0.25000000       0.50000000 </v>
   <v>       0.38461538       0.25000000       0.50000000 </v>
   <v>       0.46153846       0.25000000       0.50000000 </v>
   <v>      -0.46153846       0.25000000       0.50000000 </v>
   <v>      -0.38461538       0.25000000       0.50000000 </v>
   <v>      -0.30769231       0.25000000       0.50000000 </v>
   <v>      -0.23076923       0.25000000       0.50000000 </v>
   <v>      -0.15384615       0.25000000       0.50000000 </v>
   <v>      -0.07692308       0.25000000       0.50000000 </v>
   <v>       0.00000000       0.50000000       0.50000000 </v>
   <v>       0.07692308       0.50000000       0.50000000 </v>
   <v>       0.15384615       0.50000000       0.50000000 </v>
   <v>       0.23076923       0.50000000       0.50000000 </v>
   <v>       0.30769231       0.50000000       0.50000000 </v>
   <v>       0.38461538       0.50000000       0.50000000 </v>
   <v>       0.46153846       0.50000000       0.50000000 </v>
  </varray>
  <varray name="weights" >
   <v>       0.00961538 </v>
   <v>       0.01923077 </v>
   <v>       0.01923077 </v>
   <v>       0.01923077 </v>
   <v>       0.01923077 </v>
   <v>       0.01923077 </v>
   <v>       0.01923077 </v>
   <v>       0.01923077 </v>
   <v>       0.01923077 </v>
   <v>       0.01923077 </v>
   <v>       0.01923077 </v>
   <v>       0.01923077 </v>
   <v>       0.01923077 </v>
   <v>       0.01923077 </v>
   <v>       0.01923077 </v>
   <v>       0.01923077 </v>
   <v>       0.01923077 </v>
   <v>       0.01923077 </v>
   <v>       0.01923077 </v>
   <v>       0.01923077 </v>
   <v>       0.00961538 </v>
   <v>       0.01923077 </v>
   <v>       0.01923077 </v>
   <v>       0.01923077 </v>
   <v>       0.01923077 </v>
   <v>       0.01923077 </v>
   <v>       0.01923077 </v>
   <v>       0.00961538 </v>
   <v>       0.01923077 </v>
   <v>       0.01923077 </v>
   <v>       0.01923077 </v>
   <v>       0.01923077 </v>
   <v>       0.01923077 </v>
   <v>       0.01923077 </v>
   <v>       0.01923077 </v>
   <v>       0.01923077 </v>
   <v>       0.01923077 </v>
   <v>       0.01923077 </v>
   <v>       0.01923077 </v>
   <v>       0.01923077 </v>
   <v>       0.01923077 </v>
   <v>       0.01923077 </v>
   <v>       0.01923077 </v>
   <v>       0.01923077 </v>
   <v>       0.01923077 </v>
   <v>       0.01923077 </v>
   <v>       0.01923077 </v>
   <v>       0.00961538 </v>
   <v>       0.01923077 </v>
   <v>       0.01923077 </v>
   <v>       0.01923077 </v>
   <v>       0.01923077 </v>
   <v>       0.01923077 </v>
   <v>       0.01923077 </v>
  </varray>
 </kpoints>
 <parameters>
  <separator name="general" >
   <i type="string" name="SYSTEM">unknown system</i>
   <i type="logical" name="LCOMPAT"> F  </i>
  </separator>
  <separator name="electronic" >
   <i type="string" name="PREC">accura</i>
   <i name="ENMAX">    300.00000000</i>
   <i name="ENAUG">    342.92400000</i>
   <i name="EDIFF">      0.00000100</i>
   <i type="int" name="IALGO">    38</i>
   <i type="int" name="IWAVPR">    10</i>
   <i type="int" name="NBANDS">    68</i>
   <i name="NELECT">    108.00000000</i>
   <i type="int" name="TURBO">     0</i>
   <i type="int" name="IRESTART">     0</i>
   <i type="int" name="NREBOOT">     0</i>
   <i type="int" name="NMIN">     0</i>
   <i name="EREF">      0.00000000</i>
   <separator name="electronic smearing" >
    <i type="int" name="ISMEAR">     0</i>
    <i name="SIGMA">      0.10000000</i>
    <i name="KSPACING">      0.50000000</i>
    <i type="logical" name="KGAMMA"> T  </i>
   </separator>
   <separator name="electronic projectors" >
    <i type="logical" name="LREAL"> T  </i>
    <v name="ROPT">     -0.00025000     -0.00025000</v>
    <i type="int" name="LMAXPAW">  -100</i>
    <i type="int" name="LMAXMIX">     2</i>
    <i type="logical" name="NLSPLINE"> F  </i>
   </separator>
   <separator name="electronic startup" >
    <i type="int" name="ISTART">     0</i>
    <i type="int" name="ICHARG">     2</i>
    <i type="int" name="INIWAV">     1</i>
   </separator>
   <separator name="electronic spin" >
    <i type="int" name="ISPIN">     1</i>
    <i type="logical" name="LNONCOLLINEAR"> F  </i>
    <v name="MAGMOM">      1.00000000      1.00000000      1.00000000      1.00000000      1.00000000      1.00000000      1.00000000      1.00000000      1.00000000      1.00000000      1.00000000      1.00000000      1.00000000      1.00000000      1.00000000      1.00000000      1.00000000      1.00000000      1.00000000      1.00000000
      1.00000000      1.00000000      1.00000000      1.00000000</v>
    <i name="NUPDOWN">     -1.00000000</i>
    <i type="logical" name="LSORBIT"> F  </i>
    <v name="SAXIS">      0.00000000      0.00000000      1.00000000</v>
    <i type="logical" name="LSPIRAL"> F  </i>
    <v name="QSPIRAL">      0.00000000      0.00000000      0.00000000</v>
    <i type="logical" name="LZEROZ"> F  </i>
   </separator>
   <separator name="electronic exchange-correlation" >
    <i type="logical" name="LASPH"> F  </i>
    <i type="logical" name="LMETAGGA"> F  </i>
   </separator>
   <separator name="electronic convergence" >
    <i type="int" name="NELM">    60</i>
    <i type="int" name="NELMDL">    -5</i>
    <i type="int" name="NELMIN">     2</i>
    <i name="ENINI">    300.00000000</i>
    <separator name="electronic convergence detail" >
     <i type="logical" name="LDIAG"> T  </i>
     <i type="logical" name="LSUBROT"> F  </i>
     <i name="WEIMIN">      0.00000000</i>
     <i name="EBREAK">      0.00000000</i>
     <i name="DEPER">      0.30000000</i>
     <i type="int" name="NRMM">     4</i>
     <i name="TIME">      0.40000000</i>
    </separator>
   </separator>
   <separator name="electronic mixer" >
    <i name="AMIX">      0.40000000</i>
    <i name="BMIX">      1.00000000</i>
    <i name="AMIN">      0.10000000</i>
    <i name="AMIX_MAG">      1.60000000</i>
    <i name="BMIX_MAG">      1.00000000</i>
    <separator name="electronic mixer details" >
     <i type="int" name="IMIX">     4</i>
     <i type="int" name="MAXMIX">   -45</i>
     <i name="WC">    100.00000000</i>
     <i type="int" name="INIMIX">     1</i>
     <i type="int" name="MIXPRE">     1</i>
     <i type="int" name="MREMOVE">     5</i>
    </separator>
   </separator>
   <separator name="electronic dipolcorrection" >
    <i type="logical" name="LDIPOL"> F  </i>
    <i type="logical" name="LMONO"> F  </i>
    <i type="int" name="IDIPOL">     0</i>
    <i name="EPSILON">      1.00000000</i>
    <v name="DIPOL">   -100.00000000   -100.00000000   -100.00000000</v>
    <i name="EFIELD">      0.00000000</i>
   </separator>
  </separator>
  <separator name="grids" >
   <i type="int" name="NGX">    20</i>
   <i type="int" name="NGY">    60</i>
   <i type="int" name="NGZ">   160</i>
   <i type="int" name="NGXF">    40</i>
   <i type="int" name="NGYF">   120</i>
   <i type="int" name="NGZF">   320</i>
   <i type="logical" name="ADDGRID"> F  </i>
  </separator>
  <separator name="ionic" >
   <i type="int" name="NSW">     0</i>
   <i type="int" name="IBRION">    -1</i>
   <i type="int" name="ISIF">     3</i>
   <i name="PSTRESS">      0.00000000</i>
   <i name="EDIFFG">      0.00001000</i>
   <i type="int" name="NFREE">     1</i>
   <i name="POTIM">      0.50000000</i>
   <i name="SMASS">     -3.00000000</i>
   <i name="SCALEE">      1.00000000</i>
  </separator>
  <separator name="ionic md" >
   <i name="TEBEG">      0.00010000</i>
   <i name="TEEND">      0.00010000</i>
   <i type="int" name="NBLOCK">     1</i>
   <i type="int" name="KBLOCK">     1</i>
   <i type="int" name="NPACO">   256</i>
   <i name="APACO">     16.00000000</i>
  </separator>
  <separator name="symmetry" >
   <i type="int" name="ISYM">     2</i>
   <i name="SYMPREC">      0.00001000</i>
  </separator>
  <separator name="dos" >
   <i type="logical" name="LORBIT"> F  </i>
   <v name="RWIGS">     -1.00000000     -1.00000000</v>
   <i type="int" name="NEDOS">   301</i>
   <i name="EMIN">     10.00000000</i>
   <i name="EMAX">    -10.00000000</i>
   <i name="EFERMI">      0.00000000</i>
  </separator>
  <separator name="writing" >
   <i type="int" name="NWRITE">     2</i>
   <i type="logical" name="LWAVE"> F  </i>
   <i type="logical" name="LCHARG"> F  </i>
   <i type="logical" name="LPARD"> F  </i>
   <i type="logical" name="LVTOT"> F  </i>
   <i type="logical" name="LVHAR"> F  </i>
   <i type="logical" name="LELF"> F  </i>
   <i type="logical" name="LOPTICS"> F  </i>
   <v name="STM">      0.00000000      0.00000000      0.00000000      0.00000000      0.00000000      0.00000000      0.00000000</v>
  </separator>
  <separator name="performance" >
   <i type="int" name="NPAR">     4</i>
   <i type="int" name="NSIM">     4</i>
   <i type="int" name="NBLK">    -1</i>
   <i type="logical" name="LPLANE"> T  </i>
   <i type="logical" name="LSCALAPACK"> T  </i>
   <i type="logical" name="LSCAAWARE"> F  </i>
   <i type="logical" name="LSCALU"> F  </i>
   <i type="logical" name="LASYNC"> F  </i>
   <i type="logical" name="LORBITALREAL"> F  </i>
  </separator>
  <separator name="miscellaneous" >
   <i type="int" name="IDIOT">     3</i>
   <i type="logical" name="LMUSIC"> F  </i>
   <v name="POMASS">     30.97400000     28.08500000</v>
   <v name="DARWINR">      0.00000000      0.00000000</v>
   <v name="DARWINV">      1.00000000      1.00000000</v>
   <i type="logical" name="LCORR"> T  </i>
  </separator>
  <i type="logical" name="GGA_COMPAT"> T  </i>
  <i type="logical" name="LBERRY"> F  </i>
  <i type="int" name="ICORELEVEL">     0</i>
  <i type="logical" name="LDAU"> F  </i>
  <i type="int" name="I_CONSTRAINED_M">     0</i>
  <separator name="electronic exchange-correlation" >
   <i type="string" name="GGA">BO</i>
   <i type="int" name="VOSKOWN">     0</i>
   <i type="logical" name="LHFCALC"> F  </i>
   <i type="string" name="PRECFOCK"></i>
   <i type="logical" name="LSYMGRAD"> F  </i>
   <i type="logical" name="LHFONE"> F  </i>
   <i type="logical" name="LRHFCALC"> F  </i>
   <i type="logical" name="LTHOMAS"> F  </i>
   <i type="logical" name="LMODELHF"> F  </i>
   <i name="ENCUT4O">     -1.00000000</i>
   <i type="int" name="EXXOEP">     0</i>
   <i type="int" name="FOURORBIT">     0</i>
   <i name="AEXX">      0.00000000</i>
   <i name="HFALPHA">      0.00000000</i>
   <i name="MCALPHA">      0.00000000</i>
   <i name="ALDAX">      1.00000000</i>
   <i name="AGGAX">      1.00000000</i>
   <i name="ALDAC">      1.00000000</i>
   <i name="AGGAC">      0.00000000</i>
   <i type="int" name="NKREDX">     1</i>
   <i type="int" name="NKREDY">     1</i>
   <i type="int" name="NKREDZ">     1</i>
   <i type="logical" name="SHIFTRED"> F  </i>
   <i type="logical" name="ODDONLY"> F  </i>
   <i type="logical" name="EVENONLY"> F  </i>
   <i type="int" name="LMAXFOCK">     0</i>
   <i type="int" name="NMAXFOCKAE">     0</i>
   <i type="logical" name="LFOCKAEDFT"> F  </i>
   <i name="HFSCREEN">      0.00000000</i>
   <i name="HFSCREENC">      0.00000000</i>
   <i type="int" name="NBANDSGWLOW">     0</i>
  </separator>
  <separator name="vdW DFT" >
   <i type="logical" name="LUSE_VDW"> T  </i>
   <i name="Zab_VDW">     -0.84910000</i>
   <i name="PARAM1">      0.18333333</i>
   <i name="PARAM2">      0.22000000</i>
   <i name="PARAM3">      0.00000000</i>
  </separator>
  <separator name="model GW" >
   <i type="int" name="MODEL_GW">     0</i>
   <i name="MODEL_EPS0">     25.05800243</i>
   <i name="MODEL_ALPHA">      1.00000000</i>
  </separator>
  <separator name="linear response parameters" >
   <i type="logical" name="LEPSILON"> F  </i>
   <i type="logical" name="LRPA"> F  </i>
   <i type="logical" name="LNABLA"> F  </i>
   <i type="logical" name="LVEL"> F  </i>
   <i type="int" name="KINTER">     0</i>
   <i name="CSHIFT">      0.10000000</i>
   <i name="OMEGAMAX">     -1.00000000</i>
   <i name="DEG_THRESHOLD">      0.00200000</i>
  </separator>
  <separator name="orbital magnetization" >
   <i type="logical" name="NUCIND"> F  </i>
   <v name="MAGPOS">      0.00000000      0.00000000      0.00000000</v>
   <i type="logical" name="LNICSALL"> T  </i>
   <i type="logical" name="ORBITALMAG"> F  </i>
   <i type="logical" name="LMAGBLOCH"> F  </i>
   <i type="logical" name="LCHIMAG"> F  </i>
   <i type="logical" name="LGAUGE"> T  </i>
   <i type="int" name="MAGATOM">     0</i>
   <v name="MAGDIPOL">      0.00000000      0.00000000      0.00000000</v>
   <v name="AVECCONST">      0.00000000      0.00000000      0.00000000</v>
  </separator>
  <separator name="response functions" >
   <i type="logical" name="LADDER"> F  </i>
   <i type="logical" name="LFXC"> F  </i>
   <i type="logical" name="LHARTREE"> T  </i>
   <i type="int" name="IBSE">     0</i>
   <i type="logical" name="LTCTE"> F  </i>
   <i type="logical" name="LTETE"> F  </i>
   <i type="logical" name="LTRIPLET"> F  </i>
   <i type="logical" name="LFXCEPS"> F  </i>
   <i type="logical" name="LFXHEG"> F  </i>
   <i type="logical" name="L2ORDER"> F  </i>
   <i type="logical" name="LUSEW"> F  </i>
   <i name="ENCUTGW">     -2.00000000</i>
   <i name="ENCUTGWSOFT">     -2.00000000</i>
   <i name="ENCUTLF">     -1.00000000</i>
   <i type="int" name="LMAXMP2">    -1</i>
   <i name="SCISSOR">      0.00000000</i>
   <i type="int" name="NOMEGA">     0</i>
   <i type="int" name="NOMEGAR">     0</i>
   <i type="int" name="NBANDSGW">    -1</i>
   <i type="int" name="NBANDSO">    -1</i>
   <i type="int" name="NBANDSV">    -1</i>
   <i type="int" name="NELM">     1</i>
   <i type="int" name="DIM">     3</i>
   <i type="int" name="ANTIRES">     0</i>
   <i name="OMEGAMAX">    -30.00000000</i>
   <i name="OMEGAMIN">    -30.00000000</i>
   <i name="OMEGATL">   -200.00000000</i>
   <i type="int" name="OMEGAGRID">     0</i>
   <i name="CSHIFT">     -0.10000000</i>
   <i type="logical" name="SELFENERGY"> F  </i>
   <i type="logical" name="LSPECTRAL"> F  </i>
   <i type="logical" name="ODDONLYGW"> F  </i>
   <i type="logical" name="EVENONLYGW"> F  </i>
   <i type="int" name="NKREDLFX">     1</i>
   <i type="int" name="NKREDLFY">     1</i>
   <i type="int" name="NKREDLFZ">     1</i>
   <i type="int" name="MAXMEM">  1800</i>
   <i type="int" name="TELESCOPE">     0</i>
   <i type="int" name="TAUPAR">     1</i>
  </separator>
  <separator name="External order field" >
   <i name="OFIELD_KAPPA">      0.00000000</i>
   <v name="OFIELD_K">      0.00000000      0.00000000      0.00000000</v>
   <i name="OFIELD_Q6_NEAR">      0.00000000</i>
   <i name="OFIELD_Q6_FAR">      0.00000000</i>
   <i name="OFIELD_A">      0.00000000</i>
  </separator>
 </parameters>
 <atominfo>
  <atoms>      24 </atoms>
  <types>       2 </types>
  <array name="atoms" >
   <dimension dim="1">ion</dimension>
   <field type="string">element</field>
   <field type="int">atomtype</field>
   <set>
    <rc><c>P </c><c>   1</c></rc>
    <rc><c>P </c><c>   1</c></rc>
    <rc><c>P </c><c>   1</c></rc>
    <rc><c>P </c><c>   1</c></rc>
    <rc><c>P </c><c>   1</c></rc>
    <rc><c>P </c><c>   1</c></rc>
    <rc><c>P </c><c>   1</c></rc>
    <rc><c>P </c><c>   1</c></rc>
    <rc><c>P </c><c>   1</c></rc>
    <rc><c>P </c><c>   1</c></rc>
    <rc><c>P </c><c>   1</c></rc>
    <rc><c>P </c><c>   1</c></rc>
    <rc><c>Si</c><c>   2</c></rc>
    <rc><c>Si</c><c>   2</c></rc>
    <rc><c>Si</c><c>   2</c></rc>
    <rc><c>Si</c><c>   2</c></rc>
    <rc><c>Si</c><c>   2</c></rc>
    <rc><c>Si</c><c>   2</c></rc>
    <rc><c>Si</c><c>   2</c></rc>
    <rc><c>Si</c><c>   2</c></rc>
    <rc><c>Si</c><c>   2</c></rc>
    <rc><c>Si</c><c>   2</c></rc>
    <rc><c>Si</c><c>   2</c></rc>
    <rc><c>Si</c><c>   2</c></rc>
   </set>
  </array>
  <array name="atomtypes" >
   <dimension dim="1">type</dimension>
   <field type="int">atomspertype</field>
   <field type="string">element</field>
   <field>mass</field>
   <field>valence</field>
   <field type="string">pseudopotential</field>
   <set>
    <rc><c>  12</c><c>P </c><c>     30.97400000</c><c>      5.00000000</c><c>  PAW_PBE P 17Jan2003                   </c></rc>
    <rc><c>  12</c><c>Si</c><c>     28.08500000</c><c>      4.00000000</c><c> PAW_PBE Si 05Jan2001                   </c></rc>
   </set>
  </array>
 </atominfo>
 <structure name="initialpos" >
  <crystal>
   <varray name="basis" >
    <v>       3.54040000       0.00000000       0.00000000 </v>
    <v>      -1.77020000      10.29434800       0.00000000 </v>
    <v>       0.00000000       0.00000000      27.50142900 </v>
   </varray>
   <i name="volume">   1002.32009712 </i>
   <varray name="rec_basis" >
    <v>       0.28245396       0.04857034       0.00000000 </v>
    <v>       0.00000000       0.09714068       0.00000000 </v>
    <v>       0.00000000       0.00000000       0.03636175 </v>
   </varray>
  </crystal>
  <varray name="positions" >
   <v>       0.11402300       0.22804500       0.23316207 </v>
   <v>       0.61402300       0.32804500       0.51499159 </v>
   <v>       0.45808900       0.91617900       0.20939482 </v>
   <v>       0.95808900       0.01617900       0.49122434 </v>
   <v>       0.31085400       0.62170900       0.08414979 </v>
   <v>       0.31085400       0.62170900       0.36597930 </v>
   <v>       0.99923000       0.99846000       0.08631254 </v>
   <v>       0.99923000       0.99846000       0.36814206 </v>
   <v>       0.65492700       0.30985400       0.06041748 </v>
   <v>       0.65492700       0.30985400       0.34224700 </v>
   <v>       0.76973800       0.53947500       0.20725292 </v>
   <v>       0.26973800       0.63947500       0.48908244 </v>
   <v>       0.93971600       0.87943300       0.15783749 </v>
   <v>       0.43971600       0.97943300       0.43966701 </v>
   <v>       0.20515200       0.41030300       0.18578822 </v>
   <v>       0.70515200       0.51030300       0.46761774 </v>
   <v>       0.20184900       0.40369900       0.09969156 </v>
   <v>       0.20184900       0.40369900       0.38152107 </v>
   <v>       0.56380500       0.12761000       0.10779021 </v>
   <v>       0.56380500       0.12761000       0.38961973 </v>
   <v>       0.56710600       0.13421200       0.19387616 </v>
   <v>       0.06710600       0.23421200       0.47570568 </v>
   <v>       0.82923400       0.65846800       0.13571444 </v>
   <v>       0.32923400       0.75846800       0.41754396 </v>
  </varray>
 </structure>
 <calculation>
  <scstep>
   <time name="dav">   64.31   64.35</time>
   <time name="total">   80.83   80.92</time>
   <energy>
    <i name="alphaZ">     36.80884744 </i>
    <i name="ewald">  11894.46325772 </i>
    <i name="hartreedc"> -14950.22911201 </i>
    <i name="XCdc">    -88.27391444 </i>
    <i name="pawpsdc">   1056.43050070 </i>
    <i name="pawaedc">   -732.41190547 </i>
    <i name="eentropy">     -0.04429896 </i>
    <i name="bandstr">    -85.61814315 </i>
    <i name="atom">   3354.04126044 </i>
    <i name="e_fr_energy">    485.16649228 </i>
    <i name="e_wo_entrp">    485.21079125 </i>
    <i name="e_0_energy">    485.18864177 </i>
   </energy>
  </scstep>
  <scstep>
   <time name="dav">   80.13   80.22</time>
   <time name="total">   80.14   80.23</time>
   <energy>
    <i name="e_fr_energy">    -69.51136983 </i>
    <i name="e_wo_entrp">    -69.48784887 </i>
    <i name="e_0_energy">    -69.49960935 </i>
   </energy>
  </scstep>
  <scstep>
   <time name="dav">   73.93   74.01</time>
   <time name="total">   73.94   74.03</time>
   <energy>
    <i name="e_fr_energy">   -124.76356326 </i>
    <i name="e_wo_entrp">   -124.73646373 </i>
    <i name="e_0_energy">   -124.75001350 </i>
   </energy>
  </scstep>
  <scstep>
   <time name="dav">   87.13   87.34</time>
   <time name="total">   87.15   87.36</time>
   <energy>
    <i name="e_fr_energy">   -127.17698510 </i>
    <i name="e_wo_entrp">   -127.14866475 </i>
    <i name="e_0_energy">   -127.16282493 </i>
   </energy>
  </scstep>
  <scstep>
   <time name="dav">   83.10   83.13</time>
   <time name="total">   87.76   87.80</time>
   <energy>
    <i name="e_fr_energy">   -127.23802852 </i>
    <i name="e_wo_entrp">   -127.20960594 </i>
    <i name="e_0_energy">   -127.22381723 </i>
   </energy>
  </scstep>
  <scstep>
   <time name="dav">   76.97   77.03</time>
   <time name="total">   97.05   97.14</time>
   <energy>
    <i name="e_fr_energy">   -125.34632824 </i>
    <i name="e_wo_entrp">   -125.30759863 </i>
    <i name="e_0_energy">   -125.32696343 </i>
   </energy>
  </scstep>
  <scstep>
   <time name="dav">   78.24   78.27</time>
   <time name="total">   98.15   98.20</time>
   <energy>
    <i name="e_fr_energy">   -125.19892022 </i>
    <i name="e_wo_entrp">   -125.17191687 </i>
    <i name="e_0_energy">   -125.18541855 </i>
   </energy>
  </scstep>
  <scstep>
   <time name="dav">   76.81   76.84</time>
   <time name="total">   96.89   96.94</time>
   <energy>
    <i name="e_fr_energy">   -125.04755769 </i>
    <i name="e_wo_entrp">   -125.00734403 </i>
    <i name="e_0_energy">   -125.02745086 </i>
   </energy>
  </scstep>
  <scstep>
   <time name="dav">   80.80   80.93</time>
   <time name="total">  100.84  100.98</time>
   <energy>
    <i name="e_fr_energy">   -125.03543662 </i>
    <i name="e_wo_entrp">   -124.99188365 </i>
    <i name="e_0_energy">   -125.01366013 </i>
   </energy>
  </scstep>
  <scstep>
   <time name="dav">   79.03   79.16</time>
   <time name="total">   99.12   99.25</time>
   <energy>
    <i name="e_fr_energy">   -125.01273287 </i>
    <i name="e_wo_entrp">   -124.97144747 </i>
    <i name="e_0_energy">   -124.99209017 </i>
   </energy>
  </scstep>
  <scstep>
   <time name="dav">   78.65   78.83</time>
   <time name="total">   98.67   98.97</time>
   <energy>
    <i name="e_fr_energy">   -125.00214885 </i>
    <i name="e_wo_entrp">   -124.96083072 </i>
    <i name="e_0_energy">   -124.98148978 </i>
   </energy>
  </scstep>
  <scstep>
   <time name="dav">   79.13   79.23</time>
   <time name="total">   99.14   99.27</time>
   <energy>
    <i name="e_fr_energy">   -124.99761674 </i>
    <i name="e_wo_entrp">   -124.95600469 </i>
    <i name="e_0_energy">   -124.97681072 </i>
   </energy>
  </scstep>
  <scstep>
   <time name="dav">   80.43   80.65</time>
   <time name="total">  100.44  100.67</time>
   <energy>
    <i name="e_fr_energy">   -124.99476882 </i>
    <i name="e_wo_entrp">   -124.95312118 </i>
    <i name="e_0_energy">   -124.97394500 </i>
   </energy>
  </scstep>
  <scstep>
   <time name="dav">   81.90   82.12</time>
   <time name="total">  101.96  102.22</time>
   <energy>
    <i name="e_fr_energy">   -124.99246563 </i>
    <i name="e_wo_entrp">   -124.95079964 </i>
    <i name="e_0_energy">   -124.97163264 </i>
   </energy>
  </scstep>
  <scstep>
   <time name="dav">   79.48   79.60</time>
   <time name="total">   99.48   99.73</time>
   <energy>
    <i name="e_fr_energy">   -124.99166271 </i>
    <i name="e_wo_entrp">   -124.94998804 </i>
    <i name="e_0_energy">   -124.97082537 </i>
   </energy>
  </scstep>
  <scstep>
   <time name="dav">   74.42   74.67</time>
   <time name="total">   94.39   94.65</time>
   <energy>
    <i name="e_fr_energy">   -124.99150803 </i>
    <i name="e_wo_entrp">   -124.94983265 </i>
    <i name="e_0_energy">   -124.97067034 </i>
   </energy>
  </scstep>
  <scstep>
   <time name="dav">   74.18   74.32</time>
   <time name="total">   94.28   94.42</time>
   <energy>
    <i name="e_fr_energy">   -124.99209370 </i>
    <i name="e_wo_entrp">   -124.95041529 </i>
    <i name="e_0_energy">   -124.97125450 </i>
   </energy>
  </scstep>
  <scstep>
   <time name="dav">   69.85   69.88</time>
   <time name="total">   89.97   90.02</time>
   <energy>
    <i name="e_fr_energy">   -124.99230421 </i>
    <i name="e_wo_entrp">   -124.95062513 </i>
    <i name="e_0_energy">   -124.97146467 </i>
   </energy>
  </scstep>
  <scstep>
   <time name="dav">   66.03   66.08</time>
   <time name="total">   86.12   86.21</time>
   <energy>
    <i name="e_fr_energy">   -124.99230714 </i>
    <i name="e_wo_entrp">   -124.95062864 </i>
    <i name="e_0_energy">   -124.97146789 </i>
   </energy>
  </scstep>
  <scstep>
   <time name="dav">   60.10   60.17</time>
   <time name="total">   80.19   80.30</time>
   <energy>
    <i name="e_fr_energy">   -124.99236716 </i>
    <i name="e_wo_entrp">   -124.95068856 </i>
    <i name="e_0_energy">   -124.97152786 </i>
   </energy>
  </scstep>
  <scstep>
   <time name="dav">   66.80   66.92</time>
   <time name="total">   86.75   86.98</time>
   <energy>
    <i name="e_fr_energy">   -124.99233657 </i>
    <i name="e_wo_entrp">   -124.95065653 </i>
    <i name="e_0_energy">   -124.97149655 </i>
   </energy>
  </scstep>
  <scstep>
   <time name="dav">   63.95   63.97</time>
   <time name="total">   84.11   84.19</time>
   <energy>
    <i name="e_fr_energy">   -124.99233085 </i>
    <i name="e_wo_entrp">   -124.95065183 </i>
    <i name="e_0_energy">   -124.97149134 </i>
   </energy>
  </scstep>
  <scstep>
   <time name="dav">   62.73   62.80</time>
   <time name="total">   82.73   82.82</time>
   <energy>
    <i name="e_fr_energy">   -124.99226646 </i>
    <i name="e_wo_entrp">   -124.95058649 </i>
    <i name="e_0_energy">   -124.97142648 </i>
   </energy>
  </scstep>
  <scstep>
   <time name="dav">   64.45   64.57</time>
   <time name="total">   84.52   84.64</time>
   <energy>
    <i name="e_fr_energy">   -124.99225849 </i>
    <i name="e_wo_entrp">   -124.95057837 </i>
    <i name="e_0_energy">   -124.97141843 </i>
   </energy>
  </scstep>
  <scstep>
   <time name="dav">   64.12   64.15</time>
   <time name="total">   84.24   84.38</time>
   <energy>
    <i name="e_fr_energy">   -124.99223715 </i>
    <i name="e_wo_entrp">   -124.95055726 </i>
    <i name="e_0_energy">   -124.97139720 </i>
   </energy>
  </scstep>
  <scstep>
   <time name="dav">   60.45   60.54</time>
   <time name="total">   80.59   80.71</time>
   <energy>
    <i name="e_fr_energy">   -124.99223822 </i>
    <i name="e_wo_entrp">   -124.95055818 </i>
    <i name="e_0_energy">   -124.97139820 </i>
   </energy>
  </scstep>
  <scstep>
   <time name="dav">   58.27   58.39</time>
   <time name="total">   78.43   78.57</time>
   <energy>
    <i name="e_fr_energy">   -124.99223682 </i>
    <i name="e_wo_entrp">   -124.95055688 </i>
    <i name="e_0_energy">   -124.97139685 </i>
   </energy>
  </scstep>
  <scstep>
   <time name="dav">   56.88   56.92</time>
   <time name="total">   77.08   77.18</time>
   <energy>
    <i name="e_fr_energy">   -124.99223916 </i>
    <i name="e_wo_entrp">   -124.95055919 </i>
    <i name="e_0_energy">   -124.97139917 </i>
   </energy>
  </scstep>
  <scstep>
   <time name="dav">   63.95   63.99</time>
   <time name="total">   79.32   79.37</time>
   <energy>
    <i name="alphaZ">     36.80884744 </i>
    <i name="ewald">  11894.46325772 </i>
    <i name="hartreedc"> -15034.79839070 </i>
    <i name="XCdc">    -80.86105023 </i>
    <i name="pawpsdc">   1156.62051039 </i>
    <i name="pawaedc">   -835.38082358 </i>
    <i name="eentropy">     -0.04167988 </i>
    <i name="bandstr">   -615.84417080 </i>
    <i name="atom">   3354.04126044 </i>
    <i name="e_fr_energy">   -124.99223920 </i>
    <i name="e_wo_entrp">   -124.95055932 </i>
    <i name="e_0_energy">   -124.97139926 </i>
   </energy>
  </scstep>
  <structure>
   <crystal>
    <varray name="basis" >
     <v>       3.54040000       0.00000000       0.00000000 </v>
     <v>      -1.77020000      10.29434800       0.00000000 </v>
     <v>       0.00000000       0.00000000      27.50142900 </v>
    </varray>
    <i name="volume">   1002.32009712 </i>
    <varray name="rec_basis" >
     <v>       0.28245396       0.04857034       0.00000000 </v>
     <v>       0.00000000       0.09714068       0.00000000 </v>
     <v>       0.00000000       0.00000000       0.03636175 </v>
    </varray>
   </crystal>
   <varray name="positions" >
    <v>       0.11402300       0.22804500       0.23316207 </v>
    <v>       0.61402300       0.32804500       0.51499159 </v>
    <v>       0.45808900       0.91617900       0.20939482 </v>
    <v>       0.95808900       0.01617900       0.49122434 </v>
    <v>       0.31085400       0.62170900       0.08414979 </v>
    <v>       0.31085400       0.62170900       0.36597930 </v>
    <v>       0.99923000       0.99846000       0.08631254 </v>
    <v>       0.99923000       0.99846000       0.36814206 </v>
    <v>       0.65492700       0.30985400       0.06041748 </v>
    <v>       0.65492700       0.30985400       0.34224700 </v>
    <v>       0.76973800       0.53947500       0.20725292 </v>
    <v>       0.26973800       0.63947500       0.48908244 </v>
    <v>       0.93971600       0.87943300       0.15783749 </v>
    <v>       0.43971600       0.97943300       0.43966701 </v>
    <v>       0.20515200       0.41030300       0.18578822 </v>
    <v>       0.70515200       0.51030300       0.46761774 </v>
    <v>       0.20184900       0.40369900       0.09969156 </v>
    <v>       0.20184900       0.40369900       0.38152107 </v>
    <v>       0.56380500       0.12761000       0.10779021 </v>
    <v>       0.56380500       0.12761000       0.38961973 </v>
    <v>       0.56710600       0.13421200       0.19387616 </v>
    <v>       0.06710600       0.23421200       0.47570568 </v>
    <v>       0.82923400       0.65846800       0.13571444 </v>
    <v>       0.32923400       0.75846800       0.41754396 </v>
   </varray>
  </structure>
  <varray name="forces" >
   <v>       0.00692742      -0.02823317       0.02831014 </v>
   <v>       0.04337377      -0.09106751       0.02697983 </v>
   <v>       0.00007228      -0.01230555       0.10027431 </v>
   <v>       0.12804479      -0.35713356       1.20604969 </v>
   <v>      -0.00001026      -0.00595689       0.00422618 </v>
   <v>       0.46904249      -1.44513313      -3.69290005 </v>
   <v>      -0.00056061       0.01243939       0.01059233 </v>
   <v>      -0.05683606      -0.21922255      -1.49926141 </v>
   <v>       0.00119905      -0.00242705       0.02624984 </v>
   <v>      -0.10408670       0.23398100      -0.32486165 </v>
   <v>       0.00067753       0.00471605       0.09899661 </v>
   <v>      -0.17452544       0.22323316       0.47132808 </v>
   <v>       0.00246945      -0.00604903       0.01721745 </v>
   <v>      -0.56639814      -2.82232594       3.41100087 </v>
   <v>      -0.00207509       0.04213157       0.05372171 </v>
   <v>      -0.12953969      -0.21899728      -0.10346962 </v>
   <v>      -0.00084738      -0.00094538      -0.03605323 </v>
   <v>       0.08677226       0.19776566       1.34979374 </v>
   <v>      -0.00197435       0.00158685      -0.06059177 </v>
   <v>       0.48473152       3.63304121      -3.53498631 </v>
   <v>      -0.00077033      -0.05330141       0.06676167 </v>
   <v>       0.03262704       0.03810312      -0.53667974 </v>
   <v>       0.00168831       0.00320933       0.00168987 </v>
   <v>      -0.22000187       0.87289107       2.91561143 </v>
  </varray>
  <varray name="stress" >
   <v>      -6.81745157       0.21530457      -2.06783018 </v>
   <v>       0.21530464       7.64101371      -5.38677096 </v>
   <v>      -2.06783042      -5.38677096      17.78212631 </v>
  </varray>
  <energy>
   <i name="e_fr_energy">   -124.99223920 </i>
   <i name="e_wo_entrp">   -124.97139926 </i>
   <i name="e_0_energy">     -0.04167988 </i>
  </energy>
  <time name="totalsc"> 2721.53 2725.66</time>
  <eigenvalues>
   <array>
    <dimension dim="1">band</dimension>
    <dimension dim="2">kpoint</dimension>
    <dimension dim="3">spin</dimension>
    <field>eigene</field>
    <field>occ</field>
    <set>
     <set comment="spin 1">
      <set comment="kpoint 1">
       <r>  -13.7281    1.0000 </r>
       <r>  -13.6913    1.0000 </r>
       <r>  -12.9523    1.0000 </r>
       <r>  -12.7051    1.0000 </r>
       <r>  -12.6487    1.0000 </r>
       <r>  -12.3729    1.0000 </r>
       <r>  -12.2335    1.0000 </r>
       <r>  -11.9717    1.0000 </r>
       <r>  -11.5856    1.0000 </r>
       <r>  -11.1610    1.0000 </r>
       <r>  -11.1419    1.0000 </r>
       <r>  -10.6673    1.0000 </r>
       <r>   -8.2019    1.0000 </r>
       <r>   -8.0922    1.0000 </r>
       <r>   -7.9838    1.0000 </r>
       <r>   -7.5378    1.0000 </r>
       <r>   -7.0061    1.0000 </r>
       <r>   -6.6808    1.0000 </r>
       <r>   -6.6457    1.0000 </r>
       <r>   -6.2786    1.0000 </r>
       <r>   -5.9723    1.0000 </r>
       <r>   -5.6622    1.0000 </r>
       <r>   -4.9324    1.0000 </r>
       <r>   -4.7866    1.0000 </r>
       <r>   -4.1034    1.0000 </r>
       <r>   -3.8626    1.0000 </r>
       <r>   -3.8330    1.0000 </r>
       <r>   -3.4491    1.0000 </r>
       <r>   -3.4120    1.0000 </r>
       <r>   -3.2134    1.0000 </r>
       <r>   -3.0900    1.0000 </r>
       <r>   -2.9932    1.0000 </r>
       <r>   -2.9065    1.0000 </r>
       <r>   -2.5928    1.0000 </r>
       <r>   -2.5571    1.0000 </r>
       <r>   -2.5030    1.0000 </r>
       <r>   -2.3591    1.0000 </r>
       <r>   -2.2824    1.0000 </r>
       <r>   -2.2373    1.0000 </r>
       <r>   -2.0179    1.0000 </r>
       <r>   -1.9119    1.0000 </r>
       <r>   -1.8776    1.0000 </r>
       <r>   -1.7978    1.0000 </r>
       <r>   -1.7466    1.0000 </r>
       <r>   -1.6995    1.0000 </r>
       <r>   -1.5851    1.0000 </r>
       <r>   -1.5066    1.0000 </r>
       <r>   -1.2316    1.0000 </r>
       <r>   -1.1998    1.0000 </r>
       <r>   -1.1502    1.0000 </r>
       <r>   -1.0989    1.0000 </r>
       <r>   -0.4658    0.9999 </r>
       <r>   -0.3938    0.9968 </r>
       <r>   -0.2082    0.5389 </r>
       <r>    0.0819    0.0000 </r>
       <r>    0.7452    0.0000 </r>
       <r>    1.0351    0.0000 </r>
       <r>    1.1665    0.0000 </r>
       <r>    1.5135    0.0000 </r>
       <r>    1.5727    0.0000 </r>
       <r>    1.8286    0.0000 </r>
       <r>    1.9036    0.0000 </r>
       <r>    1.9864    0.0000 </r>
       <r>    2.2201    0.0000 </r>
       <r>    2.2772    0.0000 </r>
       <r>    2.3318    0.0000 </r>
       <r>    2.4968    0.0000 </r>
       <r>    2.6276    0.0000 </r>
      </set>
      <set comment="kpoint 2">
       <r>  -13.6655    1.0000 </r>
       <r>  -13.6297    1.0000 </r>
       <r>  -12.9001    1.0000 </r>
       <r>  -12.6542    1.0000 </r>
       <r>  -12.5931    1.0000 </r>
       <r>  -12.3174    1.0000 </r>
       <r>  -12.1719    1.0000 </r>
       <r>  -11.9184    1.0000 </r>
       <r>  -11.5366    1.0000 </r>
       <r>  -11.1152    1.0000 </r>
       <r>  -11.0935    1.0000 </r>
       <r>  -10.6231    1.0000 </r>
       <r>   -8.2324    1.0000 </r>
       <r>   -8.0898    1.0000 </r>
       <r>   -7.9467    1.0000 </r>
       <r>   -7.4840    1.0000 </r>
       <r>   -6.9752    1.0000 </r>
       <r>   -6.7103    1.0000 </r>
       <r>   -6.6413    1.0000 </r>
       <r>   -6.3016    1.0000 </r>
       <r>   -5.9390    1.0000 </r>
       <r>   -5.6710    1.0000 </r>
       <r>   -4.9270    1.0000 </r>
       <r>   -4.7731    1.0000 </r>
       <r>   -4.0917    1.0000 </r>
       <r>   -3.9128    1.0000 </r>
       <r>   -3.8458    1.0000 </r>
       <r>   -3.7637    1.0000 </r>
       <r>   -3.6543    1.0000 </r>
       <r>   -3.4518    1.0000 </r>
       <r>   -3.3798    1.0000 </r>
       <r>   -3.1650    1.0000 </r>
       <r>   -2.9869    1.0000 </r>
       <r>   -2.9136    1.0000 </r>
       <r>   -2.8461    1.0000 </r>
       <r>   -2.6634    1.0000 </r>
       <r>   -2.6173    1.0000 </r>
       <r>   -2.4673    1.0000 </r>
       <r>   -2.3535    1.0000 </r>
       <r>   -2.2095    1.0000 </r>
       <r>   -2.1200    1.0000 </r>
       <r>   -2.1124    1.0000 </r>
       <r>   -1.9951    1.0000 </r>
       <r>   -1.9030    1.0000 </r>
       <r>   -1.7942    1.0000 </r>
       <r>   -1.6658    1.0000 </r>
       <r>   -1.5302    1.0000 </r>
       <r>   -1.4153    1.0000 </r>
       <r>   -1.1820    1.0000 </r>
       <r>   -1.1204    1.0000 </r>
       <r>   -0.9696    1.0000 </r>
       <r>   -0.4335    0.9995 </r>
       <r>   -0.3023    0.9235 </r>
       <r>   -0.1717    0.3378 </r>
       <r>   -0.0448    0.0135 </r>
       <r>    1.0108    0.0000 </r>
       <r>    1.4150    0.0000 </r>
       <r>    1.4878    0.0000 </r>
       <r>    1.6113    0.0000 </r>
       <r>    1.9733    0.0000 </r>
       <r>    2.0530    0.0000 </r>
       <r>    2.1143    0.0000 </r>
       <r>    2.2250    0.0000 </r>
       <r>    2.3354    0.0000 </r>
       <r>    2.4559    0.0000 </r>
       <r>    2.6029    0.0000 </r>
       <r>    2.6310    0.0000 </r>
       <r>    2.8592    0.0000 </r>
      </set>
      <set comment="kpoint 3">
       <r>  -13.4787    1.0000 </r>
       <r>  -13.4461    1.0000 </r>
       <r>  -12.7443    1.0000 </r>
       <r>  -12.5046    1.0000 </r>
       <r>  -12.4283    1.0000 </r>
       <r>  -12.1533    1.0000 </r>
       <r>  -11.9912    1.0000 </r>
       <r>  -11.7625    1.0000 </r>
       <r>  -11.3944    1.0000 </r>
       <r>  -10.9816    1.0000 </r>
       <r>  -10.9549    1.0000 </r>
       <r>  -10.4952    1.0000 </r>
       <r>   -8.3238    1.0000 </r>
       <r>   -8.0686    1.0000 </r>
       <r>   -7.9056    1.0000 </r>
       <r>   -7.3789    1.0000 </r>
       <r>   -6.9758    1.0000 </r>
       <r>   -6.8472    1.0000 </r>
       <r>   -6.6545    1.0000 </r>
       <r>   -6.3718    1.0000 </r>
       <r>   -5.8653    1.0000 </r>
       <r>   -5.6988    1.0000 </r>
       <r>   -5.0216    1.0000 </r>
       <r>   -4.7806    1.0000 </r>
       <r>   -4.3719    1.0000 </r>
       <r>   -4.3535    1.0000 </r>
       <r>   -4.2442    1.0000 </r>
       <r>   -4.1329    1.0000 </r>
       <r>   -4.0198    1.0000 </r>
       <r>   -3.8809    1.0000 </r>
       <r>   -3.6975    1.0000 </r>
       <r>   -3.6432    1.0000 </r>
       <r>   -3.5247    1.0000 </r>
       <r>   -3.3457    1.0000 </r>
       <r>   -3.2961    1.0000 </r>
       <r>   -3.1536    1.0000 </r>
       <r>   -3.1082    1.0000 </r>
       <r>   -2.8957    1.0000 </r>
       <r>   -2.7173    1.0000 </r>
       <r>   -2.5354    1.0000 </r>
       <r>   -2.5162    1.0000 </r>
       <r>   -2.3032    1.0000 </r>
       <r>   -2.2086    1.0000 </r>
       <r>   -2.1042    1.0000 </r>
       <r>   -1.9083    1.0000 </r>
       <r>   -1.8149    1.0000 </r>
       <r>   -1.5322    1.0000 </r>
       <r>   -1.4044    1.0000 </r>
       <r>   -1.1990    1.0000 </r>
       <r>   -1.1705    1.0000 </r>
       <r>   -1.0032    1.0000 </r>
       <r>   -0.7987    1.0000 </r>
       <r>   -0.4436    0.9997 </r>
       <r>   -0.2601    0.7970 </r>
       <r>    0.3314    0.0000 </r>
       <r>    0.9691    0.0000 </r>
       <r>    1.4706    0.0000 </r>
       <r>    1.8087    0.0000 </r>
       <r>    2.1019    0.0000 </r>
       <r>    2.2256    0.0000 </r>
       <r>    2.2637    0.0000 </r>
       <r>    2.4572    0.0000 </r>
       <r>    2.5076    0.0000 </r>
       <r>    2.7076    0.0000 </r>
       <r>    2.7859    0.0000 </r>
       <r>    2.9108    0.0000 </r>
       <r>    3.0350    0.0000 </r>
       <r>    3.1416    0.0000 </r>
      </set>
      <set comment="kpoint 4">
       <r>  -13.1711    1.0000 </r>
       <r>  -13.1433    1.0000 </r>
       <r>  -12.4880    1.0000 </r>
       <r>  -12.2676    1.0000 </r>
       <r>  -12.1615    1.0000 </r>
       <r>  -11.8886    1.0000 </r>
       <r>  -11.7056    1.0000 </r>
       <r>  -11.5182    1.0000 </r>
       <r>  -11.1771    1.0000 </r>
       <r>  -10.7732    1.0000 </r>
       <r>  -10.7519    1.0000 </r>
       <r>  -10.3004    1.0000 </r>
       <r>   -8.5140    1.0000 </r>
       <r>   -8.1088    1.0000 </r>
       <r>   -7.9809    1.0000 </r>
       <r>   -7.6417    1.0000 </r>
       <r>   -7.1326    1.0000 </r>
       <r>   -6.8453    1.0000 </r>
       <r>   -6.7891    1.0000 </r>
       <r>   -6.5321    1.0000 </r>
       <r>   -5.8874    1.0000 </r>
       <r>   -5.7491    1.0000 </r>
       <r>   -5.4914    1.0000 </r>
       <r>   -5.0230    1.0000 </r>
       <r>   -4.9509    1.0000 </r>
       <r>   -4.7596    1.0000 </r>
       <r>   -4.6677    1.0000 </r>
       <r>   -4.5609    1.0000 </r>
       <r>   -4.4681    1.0000 </r>
       <r>   -4.3469    1.0000 </r>
       <r>   -4.2433    1.0000 </r>
       <r>   -4.0106    1.0000 </r>
       <r>   -3.9226    1.0000 </r>
       <r>   -3.6524    1.0000 </r>
       <r>   -3.6206    1.0000 </r>
       <r>   -3.5278    1.0000 </r>
       <r>   -3.2108    1.0000 </r>
       <r>   -3.1278    1.0000 </r>
       <r>   -2.8246    1.0000 </r>
       <r>   -2.7026    1.0000 </r>
       <r>   -2.6769    1.0000 </r>
       <r>   -2.5794    1.0000 </r>
       <r>   -2.4166    1.0000 </r>
       <r>   -2.0582    1.0000 </r>
       <r>   -1.9707    1.0000 </r>
       <r>   -1.8887    1.0000 </r>
       <r>   -1.7751    1.0000 </r>
       <r>   -1.6229    1.0000 </r>
       <r>   -1.5364    1.0000 </r>
       <r>   -1.2601    1.0000 </r>
       <r>   -1.1373    1.0000 </r>
       <r>   -0.8894    1.0000 </r>
       <r>   -0.5090    1.0000 </r>
       <r>   -0.4182    0.9989 </r>
       <r>    0.1336    0.0000 </r>
       <r>    0.6999    0.0000 </r>
       <r>    1.3684    0.0000 </r>
       <r>    1.7153    0.0000 </r>
       <r>    1.8457    0.0000 </r>
       <r>    1.9133    0.0000 </r>
       <r>    2.1055    0.0000 </r>
       <r>    2.2083    0.0000 </r>
       <r>    2.3911    0.0000 </r>
       <r>    2.5293    0.0000 </r>
       <r>    2.7302    0.0000 </r>
       <r>    2.8100    0.0000 </r>
       <r>    3.0194    0.0000 </r>
       <r>    3.1344    0.0000 </r>
      </set>
      <set comment="kpoint 5">
       <r>  -12.7515    1.0000 </r>
       <r>  -12.7271    1.0000 </r>
       <r>  -12.1396    1.0000 </r>
       <r>  -11.9693    1.0000 </r>
       <r>  -11.8095    1.0000 </r>
       <r>  -11.5399    1.0000 </r>
       <r>  -11.3498    1.0000 </r>
       <r>  -11.2175    1.0000 </r>
       <r>  -10.9321    1.0000 </r>
       <r>  -10.5672    1.0000 </r>
       <r>  -10.5146    1.0000 </r>
       <r>  -10.0850    1.0000 </r>
       <r>   -8.8089    1.0000 </r>
       <r>   -8.6885    1.0000 </r>
       <r>   -8.2411    1.0000 </r>
       <r>   -7.8641    1.0000 </r>
       <r>   -7.3444    1.0000 </r>
       <r>   -7.1518    1.0000 </r>
       <r>   -7.0542    1.0000 </r>
       <r>   -6.7592    1.0000 </r>
       <r>   -6.3097    1.0000 </r>
       <r>   -6.1223    1.0000 </r>
       <r>   -6.0733    1.0000 </r>
       <r>   -5.3689    1.0000 </r>
       <r>   -5.2964    1.0000 </r>
       <r>   -5.0435    1.0000 </r>
       <r>   -4.9488    1.0000 </r>
       <r>   -4.8544    1.0000 </r>
       <r>   -4.6343    1.0000 </r>
       <r>   -4.5250    1.0000 </r>
       <r>   -4.4361    1.0000 </r>
       <r>   -4.3514    1.0000 </r>
       <r>   -4.1330    1.0000 </r>
       <r>   -3.6764    1.0000 </r>
       <r>   -3.5433    1.0000 </r>
       <r>   -3.3082    1.0000 </r>
       <r>   -3.2314    1.0000 </r>
       <r>   -3.1893    1.0000 </r>
       <r>   -3.1161    1.0000 </r>
       <r>   -2.9712    1.0000 </r>
       <r>   -2.7801    1.0000 </r>
       <r>   -2.6826    1.0000 </r>
       <r>   -2.4133    1.0000 </r>
       <r>   -2.2434    1.0000 </r>
       <r>   -2.2038    1.0000 </r>
       <r>   -2.0331    1.0000 </r>
       <r>   -2.0071    1.0000 </r>
       <r>   -1.8620    1.0000 </r>
       <r>   -1.7996    1.0000 </r>
       <r>   -1.4602    1.0000 </r>
       <r>   -1.3849    1.0000 </r>
       <r>   -0.9221    1.0000 </r>
       <r>   -0.7104    1.0000 </r>
       <r>   -0.4816    1.0000 </r>
       <r>   -0.0998    0.0756 </r>
       <r>    0.4692    0.0000 </r>
       <r>    1.2224    0.0000 </r>
       <r>    1.2668    0.0000 </r>
       <r>    1.4488    0.0000 </r>
       <r>    1.6381    0.0000 </r>
       <r>    1.8278    0.0000 </r>
       <r>    2.0123    0.0000 </r>
       <r>    2.1021    0.0000 </r>
       <r>    2.2206    0.0000 </r>
       <r>    2.5176    0.0000 </r>
       <r>    2.6584    0.0000 </r>
       <r>    2.8421    0.0000 </r>
       <r>    3.0017    0.0000 </r>
      </set>
      <set comment="kpoint 6">
       <r>  -12.2384    1.0000 </r>
       <r>  -12.2128    1.0000 </r>
       <r>  -11.7203    1.0000 </r>
       <r>  -11.6621    1.0000 </r>
       <r>  -11.4112    1.0000 </r>
       <r>  -11.1463    1.0000 </r>
       <r>  -11.0075    1.0000 </r>
       <r>  -10.9366    1.0000 </r>
       <r>  -10.7765    1.0000 </r>
       <r>  -10.6084    1.0000 </r>
       <r>  -10.2747    1.0000 </r>
       <r>   -9.9627    1.0000 </r>
       <r>   -9.4338    1.0000 </r>
       <r>   -8.9844    1.0000 </r>
       <r>   -8.5334    1.0000 </r>
       <r>   -8.0458    1.0000 </r>
       <r>   -7.6917    1.0000 </r>
       <r>   -7.6120    1.0000 </r>
       <r>   -7.5708    1.0000 </r>
       <r>   -7.0450    1.0000 </r>
       <r>   -6.9078    1.0000 </r>
       <r>   -6.8180    1.0000 </r>
       <r>   -6.5625    1.0000 </r>
       <r>   -5.7846    1.0000 </r>
       <r>   -5.3654    1.0000 </r>
       <r>   -5.0772    1.0000 </r>
       <r>   -4.8178    1.0000 </r>
       <r>   -4.6803    1.0000 </r>
       <r>   -4.5078    1.0000 </r>
       <r>   -4.4165    1.0000 </r>
       <r>   -4.3486    1.0000 </r>
       <r>   -4.2201    1.0000 </r>
       <r>   -3.8574    1.0000 </r>
       <r>   -3.8076    1.0000 </r>
       <r>   -3.6932    1.0000 </r>
       <r>   -3.6069    1.0000 </r>
       <r>   -3.4206    1.0000 </r>
       <r>   -3.3110    1.0000 </r>
       <r>   -3.0961    1.0000 </r>
       <r>   -2.9457    1.0000 </r>
       <r>   -2.8550    1.0000 </r>
       <r>   -2.6957    1.0000 </r>
       <r>   -2.6321    1.0000 </r>
       <r>   -2.4838    1.0000 </r>
       <r>   -2.3933    1.0000 </r>
       <r>   -2.1892    1.0000 </r>
       <r>   -2.1566    1.0000 </r>
       <r>   -2.0454    1.0000 </r>
       <r>   -1.9670    1.0000 </r>
       <r>   -1.7168    1.0000 </r>
       <r>   -1.5416    1.0000 </r>
       <r>   -1.2973    1.0000 </r>
       <r>   -0.7406    1.0000 </r>
       <r>   -0.4615    0.9999 </r>
       <r>   -0.2191    0.5996 </r>
       <r>    0.3152    0.0000 </r>
       <r>    0.7744    0.0000 </r>
       <r>    1.2415    0.0000 </r>
       <r>    1.2993    0.0000 </r>
       <r>    1.5516    0.0000 </r>
       <r>    1.5772    0.0000 </r>
       <r>    1.7645    0.0000 </r>
       <r>    1.9249    0.0000 </r>
       <r>    2.1116    0.0000 </r>
       <r>    2.1417    0.0000 </r>
       <r>    2.4850    0.0000 </r>
       <r>    2.6376    0.0000 </r>
       <r>    2.7206    0.0000 </r>
      </set>
      <set comment="kpoint 7">
       <r>  -11.7167    1.0000 </r>
       <r>  -11.6560    1.0000 </r>
       <r>  -11.3863    1.0000 </r>
       <r>  -11.2971    1.0000 </r>
       <r>  -11.1104    1.0000 </r>
       <r>  -10.9982    1.0000 </r>
       <r>  -10.9718    1.0000 </r>
       <r>  -10.8813    1.0000 </r>
       <r>  -10.7890    1.0000 </r>
       <r>  -10.7654    1.0000 </r>
       <r>  -10.2874    1.0000 </r>
       <r>   -9.9946    1.0000 </r>
       <r>   -9.7449    1.0000 </r>
       <r>   -8.8399    1.0000 </r>
       <r>   -8.5967    1.0000 </r>
       <r>   -8.3619    1.0000 </r>
       <r>   -8.2316    1.0000 </r>
       <r>   -7.7283    1.0000 </r>
       <r>   -7.6761    1.0000 </r>
       <r>   -7.4413    1.0000 </r>
       <r>   -7.3781    1.0000 </r>
       <r>   -7.3274    1.0000 </r>
       <r>   -6.9443    1.0000 </r>
       <r>   -6.0535    1.0000 </r>
       <r>   -5.0705    1.0000 </r>
       <r>   -4.8629    1.0000 </r>
       <r>   -4.6529    1.0000 </r>
       <r>   -4.4732    1.0000 </r>
       <r>   -4.4322    1.0000 </r>
       <r>   -4.2336    1.0000 </r>
       <r>   -4.1285    1.0000 </r>
       <r>   -4.0663    1.0000 </r>
       <r>   -3.9806    1.0000 </r>
       <r>   -3.9121    1.0000 </r>
       <r>   -3.7478    1.0000 </r>
       <r>   -3.6357    1.0000 </r>
       <r>   -3.5369    1.0000 </r>
       <r>   -3.4033    1.0000 </r>
       <r>   -3.2228    1.0000 </r>
       <r>   -3.1482    1.0000 </r>
       <r>   -3.0301    1.0000 </r>
       <r>   -2.8460    1.0000 </r>
       <r>   -2.8027    1.0000 </r>
       <r>   -2.5144    1.0000 </r>
       <r>   -2.4020    1.0000 </r>
       <r>   -2.3123    1.0000 </r>
       <r>   -2.2440    1.0000 </r>
       <r>   -2.1835    1.0000 </r>
       <r>   -1.9183    1.0000 </r>
       <r>   -1.7668    1.0000 </r>
       <r>   -1.6854    1.0000 </r>
       <r>   -1.5390    1.0000 </r>
       <r>   -0.7402    1.0000 </r>
       <r>   -0.5186    1.0000 </r>
       <r>   -0.2376    0.6962 </r>
       <r>    0.1532    0.0000 </r>
       <r>    0.6547    0.0000 </r>
       <r>    1.2176    0.0000 </r>
       <r>    1.3211    0.0000 </r>
       <r>    1.4271    0.0000 </r>
       <r>    1.4936    0.0000 </r>
       <r>    1.6347    0.0000 </r>
       <r>    1.7127    0.0000 </r>
       <r>    1.9295    0.0000 </r>
       <r>    2.2271    0.0000 </r>
       <r>    2.3164    0.0000 </r>
       <r>    2.4709    0.0000 </r>
       <r>    2.5839    0.0000 </r>
      </set>
      <set comment="kpoint 8">
       <r>  -13.7040    1.0000 </r>
       <r>  -13.6386    1.0000 </r>
       <r>  -13.1259    1.0000 </r>
       <r>  -12.8149    1.0000 </r>
       <r>  -12.6468    1.0000 </r>
       <r>  -12.3671    1.0000 </r>
       <r>  -12.0255    1.0000 </r>
       <r>  -11.8296    1.0000 </r>
       <r>  -11.6305    1.0000 </r>
       <r>  -11.2126    1.0000 </r>
       <r>  -11.1513    1.0000 </r>
       <r>  -10.5949    1.0000 </r>
       <r>   -8.6717    1.0000 </r>
       <r>   -8.5750    1.0000 </r>
       <r>   -7.5516    1.0000 </r>
       <r>   -7.0253    1.0000 </r>
       <r>   -6.8263    1.0000 </r>
       <r>   -6.7627    1.0000 </r>
       <r>   -6.6252    1.0000 </r>
       <r>   -6.3739    1.0000 </r>
       <r>   -5.8968    1.0000 </r>
       <r>   -5.6332    1.0000 </r>
       <r>   -4.8096    1.0000 </r>
       <r>   -4.5869    1.0000 </r>
       <r>   -4.2500    1.0000 </r>
       <r>   -4.1490    1.0000 </r>
       <r>   -3.8892    1.0000 </r>
       <r>   -3.5516    1.0000 </r>
       <r>   -3.4394    1.0000 </r>
       <r>   -3.3507    1.0000 </r>
       <r>   -3.2831    1.0000 </r>
       <r>   -3.0392    1.0000 </r>
       <r>   -2.8605    1.0000 </r>
       <r>   -2.5569    1.0000 </r>
       <r>   -2.5171    1.0000 </r>
       <r>   -2.4769    1.0000 </r>
       <r>   -2.3202    1.0000 </r>
       <r>   -2.2829    1.0000 </r>
       <r>   -2.1643    1.0000 </r>
       <r>   -2.1218    1.0000 </r>
       <r>   -2.0330    1.0000 </r>
       <r>   -1.8588    1.0000 </r>
       <r>   -1.7826    1.0000 </r>
       <r>   -1.7288    1.0000 </r>
       <r>   -1.6321    1.0000 </r>
       <r>   -1.5146    1.0000 </r>
       <r>   -1.4019    1.0000 </r>
       <r>   -1.2361    1.0000 </r>
       <r>   -1.1908    1.0000 </r>
       <r>   -1.1089    1.0000 </r>
       <r>   -1.0382    1.0000 </r>
       <r>   -0.7316    1.0000 </r>
       <r>   -0.3359    0.9715 </r>
       <r>   -0.1563    0.2622 </r>
       <r>    0.0659    0.0001 </r>
       <r>    0.7922    0.0000 </r>
       <r>    1.0570    0.0000 </r>
       <r>    1.2362    0.0000 </r>
       <r>    1.5669    0.0000 </r>
       <r>    1.6588    0.0000 </r>
       <r>    1.7181    0.0000 </r>
       <r>    1.9300    0.0000 </r>
       <r>    2.1000    0.0000 </r>
       <r>    2.2899    0.0000 </r>
       <r>    2.4116    0.0000 </r>
       <r>    2.5038    0.0000 </r>
       <r>    2.5296    0.0000 </r>
       <r>    2.7842    0.0000 </r>
      </set>
      <set comment="kpoint 9">
       <r>  -13.6356    1.0000 </r>
       <r>  -13.5622    1.0000 </r>
       <r>  -13.1066    1.0000 </r>
       <r>  -12.7841    1.0000 </r>
       <r>  -12.5898    1.0000 </r>
       <r>  -12.3104    1.0000 </r>
       <r>  -11.9258    1.0000 </r>
       <r>  -11.7511    1.0000 </r>
       <r>  -11.5892    1.0000 </r>
       <r>  -11.1760    1.0000 </r>
       <r>  -11.1072    1.0000 </r>
       <r>  -10.5378    1.0000 </r>
       <r>   -8.7292    1.0000 </r>
       <r>   -8.6058    1.0000 </r>
       <r>   -7.5021    1.0000 </r>
       <r>   -6.9456    1.0000 </r>
       <r>   -6.8338    1.0000 </r>
       <r>   -6.7279    1.0000 </r>
       <r>   -6.6587    1.0000 </r>
       <r>   -6.3371    1.0000 </r>
       <r>   -5.8486    1.0000 </r>
       <r>   -5.6064    1.0000 </r>
       <r>   -4.8457    1.0000 </r>
       <r>   -4.5844    1.0000 </r>
       <r>   -4.3246    1.0000 </r>
       <r>   -4.2023    1.0000 </r>
       <r>   -3.9872    1.0000 </r>
       <r>   -3.8009    1.0000 </r>
       <r>   -3.6838    1.0000 </r>
       <r>   -3.5361    1.0000 </r>
       <r>   -3.3326    1.0000 </r>
       <r>   -3.1797    1.0000 </r>
       <r>   -3.0602    1.0000 </r>
       <r>   -2.9141    1.0000 </r>
       <r>   -2.8261    1.0000 </r>
       <r>   -2.6823    1.0000 </r>
       <r>   -2.6385    1.0000 </r>
       <r>   -2.4501    1.0000 </r>
       <r>   -2.3275    1.0000 </r>
       <r>   -2.2558    1.0000 </r>
       <r>   -2.1913    1.0000 </r>
       <r>   -2.1566    1.0000 </r>
       <r>   -1.9948    1.0000 </r>
       <r>   -1.9151    1.0000 </r>
       <r>   -1.8260    1.0000 </r>
       <r>   -1.5641    1.0000 </r>
       <r>   -1.4178    1.0000 </r>
       <r>   -1.3043    1.0000 </r>
       <r>   -1.1448    1.0000 </r>
       <r>   -1.0595    1.0000 </r>
       <r>   -0.9398    1.0000 </r>
       <r>   -0.7477    1.0000 </r>
       <r>   -0.2392    0.7039 </r>
       <r>   -0.1172    0.1172 </r>
       <r>   -0.0145    0.0041 </r>
       <r>    0.9828    0.0000 </r>
       <r>    1.4502    0.0000 </r>
       <r>    1.6317    0.0000 </r>
       <r>    1.7920    0.0000 </r>
       <r>    1.8814    0.0000 </r>
       <r>    2.0537    0.0000 </r>
       <r>    2.2990    0.0000 </r>
       <r>    2.3310    0.0000 </r>
       <r>    2.3923    0.0000 </r>
       <r>    2.4995    0.0000 </r>
       <r>    2.6290    0.0000 </r>
       <r>    2.7984    0.0000 </r>
       <r>    2.8400    0.0000 </r>
      </set>
      <set comment="kpoint 10">
       <r>  -13.4428    1.0000 </r>
       <r>  -13.3659    1.0000 </r>
       <r>  -12.9699    1.0000 </r>
       <r>  -12.6485    1.0000 </r>
       <r>  -12.4235    1.0000 </r>
       <r>  -12.1455    1.0000 </r>
       <r>  -11.7281    1.0000 </r>
       <r>  -11.5790    1.0000 </r>
       <r>  -11.4497    1.0000 </r>
       <r>  -11.0509    1.0000 </r>
       <r>  -10.9662    1.0000 </r>
       <r>  -10.4024    1.0000 </r>
       <r>   -8.7942    1.0000 </r>
       <r>   -8.5561    1.0000 </r>
       <r>   -7.4692    1.0000 </r>
       <r>   -7.0480    1.0000 </r>
       <r>   -6.8535    1.0000 </r>
       <r>   -6.8105    1.0000 </r>
       <r>   -6.6444    1.0000 </r>
       <r>   -6.2840    1.0000 </r>
       <r>   -5.8024    1.0000 </r>
       <r>   -5.5716    1.0000 </r>
       <r>   -4.9947    1.0000 </r>
       <r>   -4.6859    1.0000 </r>
       <r>   -4.5360    1.0000 </r>
       <r>   -4.4777    1.0000 </r>
       <r>   -4.4436    1.0000 </r>
       <r>   -4.3367    1.0000 </r>
       <r>   -4.1292    1.0000 </r>
       <r>   -3.7950    1.0000 </r>
       <r>   -3.7182    1.0000 </r>
       <r>   -3.5944    1.0000 </r>
       <r>   -3.5088    1.0000 </r>
       <r>   -3.2802    1.0000 </r>
       <r>   -3.2290    1.0000 </r>
       <r>   -3.1122    1.0000 </r>
       <r>   -2.9727    1.0000 </r>
       <r>   -2.8360    1.0000 </r>
       <r>   -2.7925    1.0000 </r>
       <r>   -2.7402    1.0000 </r>
       <r>   -2.6216    1.0000 </r>
       <r>   -2.4643    1.0000 </r>
       <r>   -2.1644    1.0000 </r>
       <r>   -2.0773    1.0000 </r>
       <r>   -2.0241    1.0000 </r>
       <r>   -1.6483    1.0000 </r>
       <r>   -1.4639    1.0000 </r>
       <r>   -1.3242    1.0000 </r>
       <r>   -1.2366    1.0000 </r>
       <r>   -1.0853    1.0000 </r>
       <r>   -1.0697    1.0000 </r>
       <r>   -0.7687    1.0000 </r>
       <r>   -0.5419    1.0000 </r>
       <r>   -0.2094    0.5455 </r>
       <r>    0.3010    0.0000 </r>
       <r>    1.0205    0.0000 </r>
       <r>    1.5162    0.0000 </r>
       <r>    1.8850    0.0000 </r>
       <r>    1.9774    0.0000 </r>
       <r>    2.0343    0.0000 </r>
       <r>    2.1982    0.0000 </r>
       <r>    2.4300    0.0000 </r>
       <r>    2.5893    0.0000 </r>
       <r>    2.7278    0.0000 </r>
       <r>    2.8866    0.0000 </r>
       <r>    2.9479    0.0000 </r>
       <r>    3.0313    0.0000 </r>
       <r>    3.1406    0.0000 </r>
      </set>
      <set comment="kpoint 11">
       <r>  -13.1280    1.0000 </r>
       <r>  -13.0547    1.0000 </r>
       <r>  -12.7181    1.0000 </r>
       <r>  -12.4190    1.0000 </r>
       <r>  -12.1558    1.0000 </r>
       <r>  -11.8800    1.0000 </r>
       <r>  -11.4520    1.0000 </r>
       <r>  -11.3304    1.0000 </r>
       <r>  -11.2278    1.0000 </r>
       <r>  -10.8492    1.0000 </r>
       <r>  -10.7491    1.0000 </r>
       <r>  -10.2083    1.0000 </r>
       <r>   -8.9256    1.0000 </r>
       <r>   -8.4548    1.0000 </r>
       <r>   -7.7069    1.0000 </r>
       <r>   -7.5532    1.0000 </r>
       <r>   -6.9228    1.0000 </r>
       <r>   -6.8519    1.0000 </r>
       <r>   -6.7935    1.0000 </r>
       <r>   -6.2957    1.0000 </r>
       <r>   -5.9706    1.0000 </r>
       <r>   -5.6291    1.0000 </r>
       <r>   -5.3653    1.0000 </r>
       <r>   -5.1815    1.0000 </r>
       <r>   -4.9450    1.0000 </r>
       <r>   -4.8266    1.0000 </r>
       <r>   -4.7995    1.0000 </r>
       <r>   -4.7116    1.0000 </r>
       <r>   -4.4737    1.0000 </r>
       <r>   -4.2956    1.0000 </r>
       <r>   -4.1759    1.0000 </r>
       <r>   -4.1495    1.0000 </r>
       <r>   -3.8867    1.0000 </r>
       <r>   -3.6346    1.0000 </r>
       <r>   -3.4170    1.0000 </r>
       <r>   -3.3479    1.0000 </r>
       <r>   -3.2441    1.0000 </r>
       <r>   -3.1855    1.0000 </r>
       <r>   -2.8596    1.0000 </r>
       <r>   -2.7401    1.0000 </r>
       <r>   -2.6819    1.0000 </r>
       <r>   -2.6228    1.0000 </r>
       <r>   -2.3580    1.0000 </r>
       <r>   -2.1380    1.0000 </r>
       <r>   -2.0485    1.0000 </r>
       <r>   -1.9211    1.0000 </r>
       <r>   -1.8905    1.0000 </r>
       <r>   -1.5429    1.0000 </r>
       <r>   -1.3755    1.0000 </r>
       <r>   -1.2482    1.0000 </r>
       <r>   -1.1753    1.0000 </r>
       <r>   -0.7721    1.0000 </r>
       <r>   -0.5901    1.0000 </r>
       <r>   -0.4166    0.9988 </r>
       <r>    0.0364    0.0004 </r>
       <r>    0.5857    0.0000 </r>
       <r>    1.3054    0.0000 </r>
       <r>    1.4516    0.0000 </r>
       <r>    1.6267    0.0000 </r>
       <r>    1.7131    0.0000 </r>
       <r>    1.9754    0.0000 </r>
       <r>    2.1377    0.0000 </r>
       <r>    2.4112    0.0000 </r>
       <r>    2.5644    0.0000 </r>
       <r>    2.8767    0.0000 </r>
       <r>    3.0213    0.0000 </r>
       <r>    3.1198    0.0000 </r>
       <r>    3.2329    0.0000 </r>
      </set>
      <set comment="kpoint 12">
       <r>  -12.6965    1.0000 </r>
       <r>  -12.6377    1.0000 </r>
       <r>  -12.3585    1.0000 </r>
       <r>  -12.1205    1.0000 </r>
       <r>  -11.8044    1.0000 </r>
       <r>  -11.5308    1.0000 </r>
       <r>  -11.1390    1.0000 </r>
       <r>  -11.0490    1.0000 </r>
       <r>  -10.9641    1.0000 </r>
       <r>  -10.5871    1.0000 </r>
       <r>  -10.5438    1.0000 </r>
       <r>  -10.0091    1.0000 </r>
       <r>   -9.1252    1.0000 </r>
       <r>   -8.6484    1.0000 </r>
       <r>   -8.2302    1.0000 </r>
       <r>   -7.8656    1.0000 </r>
       <r>   -7.2933    1.0000 </r>
       <r>   -7.2607    1.0000 </r>
       <r>   -7.1173    1.0000 </r>
       <r>   -6.4966    1.0000 </r>
       <r>   -6.3374    1.0000 </r>
       <r>   -6.0919    1.0000 </r>
       <r>   -6.0555    1.0000 </r>
       <r>   -5.5321    1.0000 </r>
       <r>   -5.3305    1.0000 </r>
       <r>   -5.0941    1.0000 </r>
       <r>   -4.9207    1.0000 </r>
       <r>   -4.7169    1.0000 </r>
       <r>   -4.5893    1.0000 </r>
       <r>   -4.5580    1.0000 </r>
       <r>   -4.4598    1.0000 </r>
       <r>   -4.1938    1.0000 </r>
       <r>   -4.1464    1.0000 </r>
       <r>   -3.6940    1.0000 </r>
       <r>   -3.4928    1.0000 </r>
       <r>   -3.2635    1.0000 </r>
       <r>   -3.1848    1.0000 </r>
       <r>   -3.1340    1.0000 </r>
       <r>   -3.0485    1.0000 </r>
       <r>   -3.0035    1.0000 </r>
       <r>   -2.7148    1.0000 </r>
       <r>   -2.6128    1.0000 </r>
       <r>   -2.5003    1.0000 </r>
       <r>   -2.4205    1.0000 </r>
       <r>   -2.3091    1.0000 </r>
       <r>   -2.0964    1.0000 </r>
       <r>   -2.0231    1.0000 </r>
       <r>   -1.8918    1.0000 </r>
       <r>   -1.5588    1.0000 </r>
       <r>   -1.4743    1.0000 </r>
       <r>   -1.4190    1.0000 </r>
       <r>   -0.8348    1.0000 </r>
       <r>   -0.6997    1.0000 </r>
       <r>   -0.5790    1.0000 </r>
       <r>   -0.1880    0.4254 </r>
       <r>    0.0979    0.0000 </r>
       <r>    1.0854    0.0000 </r>
       <r>    1.1430    0.0000 </r>
       <r>    1.2016    0.0000 </r>
       <r>    1.3680    0.0000 </r>
       <r>    1.8120    0.0000 </r>
       <r>    2.0291    0.0000 </r>
       <r>    2.1641    0.0000 </r>
       <r>    2.2910    0.0000 </r>
       <r>    2.4616    0.0000 </r>
       <r>    2.7403    0.0000 </r>
       <r>    2.8667    0.0000 </r>
       <r>    3.0016    0.0000 </r>
      </set>
      <set comment="kpoint 13">
       <r>  -12.1640    1.0000 </r>
       <r>  -12.1317    1.0000 </r>
       <r>  -11.9080    1.0000 </r>
       <r>  -11.8054    1.0000 </r>
       <r>  -11.4092    1.0000 </r>
       <r>  -11.1379    1.0000 </r>
       <r>  -10.8798    1.0000 </r>
       <r>  -10.8387    1.0000 </r>
       <r>  -10.7541    1.0000 </r>
       <r>  -10.6209    1.0000 </r>
       <r>  -10.3009    1.0000 </r>
       <r>   -9.9344    1.0000 </r>
       <r>   -9.3776    1.0000 </r>
       <r>   -9.1150    1.0000 </r>
       <r>   -8.2711    1.0000 </r>
       <r>   -8.2198    1.0000 </r>
       <r>   -7.9310    1.0000 </r>
       <r>   -7.7111    1.0000 </r>
       <r>   -7.5141    1.0000 </r>
       <r>   -6.9666    1.0000 </r>
       <r>   -6.8532    1.0000 </r>
       <r>   -6.8080    1.0000 </r>
       <r>   -6.5288    1.0000 </r>
       <r>   -5.9000    1.0000 </r>
       <r>   -5.4953    1.0000 </r>
       <r>   -4.9401    1.0000 </r>
       <r>   -4.7875    1.0000 </r>
       <r>   -4.6815    1.0000 </r>
       <r>   -4.5282    1.0000 </r>
       <r>   -4.4249    1.0000 </r>
       <r>   -4.2677    1.0000 </r>
       <r>   -4.0156    1.0000 </r>
       <r>   -3.9110    1.0000 </r>
       <r>   -3.6905    1.0000 </r>
       <r>   -3.5046    1.0000 </r>
       <r>   -3.4621    1.0000 </r>
       <r>   -3.4302    1.0000 </r>
       <r>   -3.2760    1.0000 </r>
       <r>   -3.2081    1.0000 </r>
       <r>   -3.0800    1.0000 </r>
       <r>   -2.9399    1.0000 </r>
       <r>   -2.8238    1.0000 </r>
       <r>   -2.6580    1.0000 </r>
       <r>   -2.5214    1.0000 </r>
       <r>   -2.4145    1.0000 </r>
       <r>   -2.2213    1.0000 </r>
       <r>   -2.1517    1.0000 </r>
       <r>   -1.9987    1.0000 </r>
       <r>   -1.7985    1.0000 </r>
       <r>   -1.7150    1.0000 </r>
       <r>   -1.5866    1.0000 </r>
       <r>   -1.2691    1.0000 </r>
       <r>   -0.7296    1.0000 </r>
       <r>   -0.5823    1.0000 </r>
       <r>   -0.3303    0.9660 </r>
       <r>   -0.0039    0.0026 </r>
       <r>    0.9198    0.0000 </r>
       <r>    1.0575    0.0000 </r>
       <r>    1.1855    0.0000 </r>
       <r>    1.2097    0.0000 </r>
       <r>    1.6349    0.0000 </r>
       <r>    1.7114    0.0000 </r>
       <r>    1.9225    0.0000 </r>
       <r>    2.0065    0.0000 </r>
       <r>    2.4407    0.0000 </r>
       <r>    2.4890    0.0000 </r>
       <r>    2.6002    0.0000 </r>
       <r>    2.7669    0.0000 </r>
      </set>
      <set comment="kpoint 14">
       <r>  -11.6513    1.0000 </r>
       <r>  -11.5897    1.0000 </r>
       <r>  -11.4857    1.0000 </r>
       <r>  -11.4123    1.0000 </r>
       <r>  -11.1216    1.0000 </r>
       <r>  -11.0184    1.0000 </r>
       <r>  -10.9710    1.0000 </r>
       <r>  -10.8508    1.0000 </r>
       <r>  -10.7596    1.0000 </r>
       <r>  -10.7352    1.0000 </r>
       <r>  -10.2337    1.0000 </r>
       <r>   -9.9990    1.0000 </r>
       <r>   -9.7395    1.0000 </r>
       <r>   -8.7070    1.0000 </r>
       <r>   -8.5529    1.0000 </r>
       <r>   -8.4865    1.0000 </r>
       <r>   -8.3891    1.0000 </r>
       <r>   -7.6800    1.0000 </r>
       <r>   -7.6725    1.0000 </r>
       <r>   -7.4716    1.0000 </r>
       <r>   -7.4044    1.0000 </r>
       <r>   -7.2862    1.0000 </r>
       <r>   -6.9191    1.0000 </r>
       <r>   -6.1190    1.0000 </r>
       <r>   -5.1712    1.0000 </r>
       <r>   -4.6364    1.0000 </r>
       <r>   -4.6060    1.0000 </r>
       <r>   -4.4977    1.0000 </r>
       <r>   -4.3711    1.0000 </r>
       <r>   -4.3048    1.0000 </r>
       <r>   -4.2338    1.0000 </r>
       <r>   -4.0903    1.0000 </r>
       <r>   -3.9235    1.0000 </r>
       <r>   -3.8081    1.0000 </r>
       <r>   -3.6799    1.0000 </r>
       <r>   -3.5891    1.0000 </r>
       <r>   -3.4741    1.0000 </r>
       <r>   -3.4077    1.0000 </r>
       <r>   -3.3438    1.0000 </r>
       <r>   -3.1463    1.0000 </r>
       <r>   -3.0376    1.0000 </r>
       <r>   -2.8244    1.0000 </r>
       <r>   -2.7898    1.0000 </r>
       <r>   -2.7479    1.0000 </r>
       <r>   -2.3999    1.0000 </r>
       <r>   -2.2797    1.0000 </r>
       <r>   -2.1994    1.0000 </r>
       <r>   -2.1372    1.0000 </r>
       <r>   -1.8942    1.0000 </r>
       <r>   -1.7773    1.0000 </r>
       <r>   -1.7089    1.0000 </r>
       <r>   -1.5268    1.0000 </r>
       <r>   -0.7573    1.0000 </r>
       <r>   -0.5707    1.0000 </r>
       <r>   -0.2614    0.8023 </r>
       <r>   -0.0440    0.0131 </r>
       <r>    0.8835    0.0000 </r>
       <r>    1.2725    0.0000 </r>
       <r>    1.2933    0.0000 </r>
       <r>    1.3584    0.0000 </r>
       <r>    1.4220    0.0000 </r>
       <r>    1.5107    0.0000 </r>
       <r>    1.6660    0.0000 </r>
       <r>    1.9781    0.0000 </r>
       <r>    2.2963    0.0000 </r>
       <r>    2.3203    0.0000 </r>
       <r>    2.4568    0.0000 </r>
       <r>    2.5167    0.0000 </r>
      </set>
      <set comment="kpoint 15">
       <r>  -11.7401    1.0000 </r>
       <r>  -11.6888    1.0000 </r>
       <r>  -11.3455    1.0000 </r>
       <r>  -11.2209    1.0000 </r>
       <r>  -11.0967    1.0000 </r>
       <r>  -10.9692    1.0000 </r>
       <r>  -10.9585    1.0000 </r>
       <r>  -10.9125    1.0000 </r>
       <r>  -10.8536    1.0000 </r>
       <r>  -10.7660    1.0000 </r>
       <r>  -10.3260    1.0000 </r>
       <r>   -9.9917    1.0000 </r>
       <r>   -9.7522    1.0000 </r>
       <r>   -8.9087    1.0000 </r>
       <r>   -8.5906    1.0000 </r>
       <r>   -8.3364    1.0000 </r>
       <r>   -8.0976    1.0000 </r>
       <r>   -7.7612    1.0000 </r>
       <r>   -7.6642    1.0000 </r>
       <r>   -7.4325    1.0000 </r>
       <r>   -7.3701    1.0000 </r>
       <r>   -7.3528    1.0000 </r>
       <r>   -6.9925    1.0000 </r>
       <r>   -6.0387    1.0000 </r>
       <r>   -4.9039    1.0000 </r>
       <r>   -4.8890    1.0000 </r>
       <r>   -4.7310    1.0000 </r>
       <r>   -4.5272    1.0000 </r>
       <r>   -4.3141    1.0000 </r>
       <r>   -4.1948    1.0000 </r>
       <r>   -4.1611    1.0000 </r>
       <r>   -4.1468    1.0000 </r>
       <r>   -4.0374    1.0000 </r>
       <r>   -3.9207    1.0000 </r>
       <r>   -3.8494    1.0000 </r>
       <r>   -3.7799    1.0000 </r>
       <r>   -3.5180    1.0000 </r>
       <r>   -3.4912    1.0000 </r>
       <r>   -3.1636    1.0000 </r>
       <r>   -2.9494    1.0000 </r>
       <r>   -2.9105    1.0000 </r>
       <r>   -2.8239    1.0000 </r>
       <r>   -2.7928    1.0000 </r>
       <r>   -2.5406    1.0000 </r>
       <r>   -2.4377    1.0000 </r>
       <r>   -2.3416    1.0000 </r>
       <r>   -2.3092    1.0000 </r>
       <r>   -2.1791    1.0000 </r>
       <r>   -1.9188    1.0000 </r>
       <r>   -1.7449    1.0000 </r>
       <r>   -1.6754    1.0000 </r>
       <r>   -1.5792    1.0000 </r>
       <r>   -0.7550    1.0000 </r>
       <r>   -0.3991    0.9974 </r>
       <r>   -0.2728    0.8440 </r>
       <r>    0.1143    0.0000 </r>
       <r>    0.8963    0.0000 </r>
       <r>    1.1190    0.0000 </r>
       <r>    1.2534    0.0000 </r>
       <r>    1.4950    0.0000 </r>
       <r>    1.6086    0.0000 </r>
       <r>    1.6285    0.0000 </r>
       <r>    1.7912    0.0000 </r>
       <r>    2.0781    0.0000 </r>
       <r>    2.2160    0.0000 </r>
       <r>    2.3401    0.0000 </r>
       <r>    2.4133    0.0000 </r>
       <r>    2.4737    0.0000 </r>
      </set>
      <set comment="kpoint 16">
       <r>  -12.2623    1.0000 </r>
       <r>  -12.2320    1.0000 </r>
       <r>  -11.6353    1.0000 </r>
       <r>  -11.6127    1.0000 </r>
       <r>  -11.4095    1.0000 </r>
       <r>  -11.1533    1.0000 </r>
       <r>  -11.0850    1.0000 </r>
       <r>  -10.9673    1.0000 </r>
       <r>  -10.7789    1.0000 </r>
       <r>  -10.6039    1.0000 </r>
       <r>  -10.2542    1.0000 </r>
       <r>   -9.9960    1.0000 </r>
       <r>   -9.4601    1.0000 </r>
       <r>   -8.8953    1.0000 </r>
       <r>   -8.6480    1.0000 </r>
       <r>   -7.9746    1.0000 </r>
       <r>   -7.6227    1.0000 </r>
       <r>   -7.5905    1.0000 </r>
       <r>   -7.4834    1.0000 </r>
       <r>   -7.1286    1.0000 </r>
       <r>   -6.9554    1.0000 </r>
       <r>   -6.8230    1.0000 </r>
       <r>   -6.5968    1.0000 </r>
       <r>   -5.7489    1.0000 </r>
       <r>   -5.2140    1.0000 </r>
       <r>   -5.1479    1.0000 </r>
       <r>   -5.0040    1.0000 </r>
       <r>   -4.5822    1.0000 </r>
       <r>   -4.4938    1.0000 </r>
       <r>   -4.3887    1.0000 </r>
       <r>   -4.2944    1.0000 </r>
       <r>   -4.2321    1.0000 </r>
       <r>   -3.9162    1.0000 </r>
       <r>   -3.8736    1.0000 </r>
       <r>   -3.7690    1.0000 </r>
       <r>   -3.6204    1.0000 </r>
       <r>   -3.5558    1.0000 </r>
       <r>   -3.3263    1.0000 </r>
       <r>   -3.0463    1.0000 </r>
       <r>   -2.8940    1.0000 </r>
       <r>   -2.8313    1.0000 </r>
       <r>   -2.6696    1.0000 </r>
       <r>   -2.5590    1.0000 </r>
       <r>   -2.4773    1.0000 </r>
       <r>   -2.3840    1.0000 </r>
       <r>   -2.2438    1.0000 </r>
       <r>   -2.1217    1.0000 </r>
       <r>   -2.0852    1.0000 </r>
       <r>   -1.9552    1.0000 </r>
       <r>   -1.7226    1.0000 </r>
       <r>   -1.5285    1.0000 </r>
       <r>   -1.3129    1.0000 </r>
       <r>   -0.7512    1.0000 </r>
       <r>   -0.3968    0.9971 </r>
       <r>   -0.2262    0.6375 </r>
       <r>    0.5628    0.0000 </r>
       <r>    0.7747    0.0000 </r>
       <r>    1.0468    0.0000 </r>
       <r>    1.2477    0.0000 </r>
       <r>    1.6239    0.0000 </r>
       <r>    1.7434    0.0000 </r>
       <r>    1.9648    0.0000 </r>
       <r>    2.0654    0.0000 </r>
       <r>    2.1631    0.0000 </r>
       <r>    2.2469    0.0000 </r>
       <r>    2.4239    0.0000 </r>
       <r>    2.4697    0.0000 </r>
       <r>    2.6246    0.0000 </r>
      </set>
      <set comment="kpoint 17">
       <r>  -12.7606    1.0000 </r>
       <r>  -12.7357    1.0000 </r>
       <r>  -12.0979    1.0000 </r>
       <r>  -11.9473    1.0000 </r>
       <r>  -11.8092    1.0000 </r>
       <r>  -11.5431    1.0000 </r>
       <r>  -11.3951    1.0000 </r>
       <r>  -11.2383    1.0000 </r>
       <r>  -10.9238    1.0000 </r>
       <r>  -10.5732    1.0000 </r>
       <r>  -10.4992    1.0000 </r>
       <r>  -10.1029    1.0000 </r>
       <r>   -8.7326    1.0000 </r>
       <r>   -8.7093    1.0000 </r>
       <r>   -8.3437    1.0000 </r>
       <r>   -7.7173    1.0000 </r>
       <r>   -7.3299    1.0000 </r>
       <r>   -7.1565    1.0000 </r>
       <r>   -7.0250    1.0000 </r>
       <r>   -6.8827    1.0000 </r>
       <r>   -6.3025    1.0000 </r>
       <r>   -6.1310    1.0000 </r>
       <r>   -6.0804    1.0000 </r>
       <r>   -5.3670    1.0000 </r>
       <r>   -5.2961    1.0000 </r>
       <r>   -5.0511    1.0000 </r>
       <r>   -4.9939    1.0000 </r>
       <r>   -4.8009    1.0000 </r>
       <r>   -4.5767    1.0000 </r>
       <r>   -4.5154    1.0000 </r>
       <r>   -4.4300    1.0000 </r>
       <r>   -4.3657    1.0000 </r>
       <r>   -4.1381    1.0000 </r>
       <r>   -3.7434    1.0000 </r>
       <r>   -3.6071    1.0000 </r>
       <r>   -3.3242    1.0000 </r>
       <r>   -3.2329    1.0000 </r>
       <r>   -3.1806    1.0000 </r>
       <r>   -3.0915    1.0000 </r>
       <r>   -2.9619    1.0000 </r>
       <r>   -2.7864    1.0000 </r>
       <r>   -2.6662    1.0000 </r>
       <r>   -2.3758    1.0000 </r>
       <r>   -2.2205    1.0000 </r>
       <r>   -2.1677    1.0000 </r>
       <r>   -2.0218    1.0000 </r>
       <r>   -1.9987    1.0000 </r>
       <r>   -1.9001    1.0000 </r>
       <r>   -1.8462    1.0000 </r>
       <r>   -1.4524    1.0000 </r>
       <r>   -1.3793    1.0000 </r>
       <r>   -0.9524    1.0000 </r>
       <r>   -0.7191    1.0000 </r>
       <r>   -0.4859    1.0000 </r>
       <r>   -0.0955    0.0674 </r>
       <r>    0.6776    0.0000 </r>
       <r>    1.0038    0.0000 </r>
       <r>    1.2908    0.0000 </r>
       <r>    1.4853    0.0000 </r>
       <r>    1.7597    0.0000 </r>
       <r>    1.8356    0.0000 </r>
       <r>    2.0950    0.0000 </r>
       <r>    2.2234    0.0000 </r>
       <r>    2.2900    0.0000 </r>
       <r>    2.5083    0.0000 </r>
       <r>    2.5904    0.0000 </r>
       <r>    2.8133    0.0000 </r>
       <r>    2.8583    0.0000 </r>
      </set>
      <set comment="kpoint 18">
       <r>  -13.1678    1.0000 </r>
       <r>  -13.1394    1.0000 </r>
       <r>  -12.5027    1.0000 </r>
       <r>  -12.2834    1.0000 </r>
       <r>  -12.1614    1.0000 </r>
       <r>  -11.8890    1.0000 </r>
       <r>  -11.6886    1.0000 </r>
       <r>  -11.4967    1.0000 </r>
       <r>  -11.1808    1.0000 </r>
       <r>  -10.7793    1.0000 </r>
       <r>  -10.7507    1.0000 </r>
       <r>  -10.2930    1.0000 </r>
       <r>   -8.5542    1.0000 </r>
       <r>   -8.2215    1.0000 </r>
       <r>   -7.9403    1.0000 </r>
       <r>   -7.5065    1.0000 </r>
       <r>   -7.1186    1.0000 </r>
       <r>   -6.8435    1.0000 </r>
       <r>   -6.7926    1.0000 </r>
       <r>   -6.5612    1.0000 </r>
       <r>   -5.8901    1.0000 </r>
       <r>   -5.7569    1.0000 </r>
       <r>   -5.4870    1.0000 </r>
       <r>   -5.0578    1.0000 </r>
       <r>   -4.9759    1.0000 </r>
       <r>   -4.7575    1.0000 </r>
       <r>   -4.6706    1.0000 </r>
       <r>   -4.5509    1.0000 </r>
       <r>   -4.4509    1.0000 </r>
       <r>   -4.3408    1.0000 </r>
       <r>   -4.2377    1.0000 </r>
       <r>   -4.0008    1.0000 </r>
       <r>   -3.9157    1.0000 </r>
       <r>   -3.6764    1.0000 </r>
       <r>   -3.6009    1.0000 </r>
       <r>   -3.5127    1.0000 </r>
       <r>   -3.2207    1.0000 </r>
       <r>   -3.1288    1.0000 </r>
       <r>   -2.8416    1.0000 </r>
       <r>   -2.7403    1.0000 </r>
       <r>   -2.6744    1.0000 </r>
       <r>   -2.5725    1.0000 </r>
       <r>   -2.3340    1.0000 </r>
       <r>   -2.0498    1.0000 </r>
       <r>   -1.9719    1.0000 </r>
       <r>   -1.9035    1.0000 </r>
       <r>   -1.7916    1.0000 </r>
       <r>   -1.6185    1.0000 </r>
       <r>   -1.5451    1.0000 </r>
       <r>   -1.2621    1.0000 </r>
       <r>   -1.1110    1.0000 </r>
[...]
       <r>    2.7541    0.0000 </r>
      </set>
      <set comment="kpoint 54">
       <r>  -11.6932    1.0000 </r>
       <r>  -11.6449    1.0000 </r>
       <r>  -11.4303    1.0000 </r>
       <r>  -11.3191    1.0000 </r>
       <r>  -11.1130    1.0000 </r>
       <r>  -11.0030    1.0000 </r>
       <r>  -10.9651    1.0000 </r>
       <r>  -10.8741    1.0000 </r>
       <r>  -10.7756    1.0000 </r>
       <r>  -10.7587    1.0000 </r>
       <r>  -10.2709    1.0000 </r>
       <r>   -9.9952    1.0000 </r>
       <r>   -9.7486    1.0000 </r>
       <r>   -8.8169    1.0000 </r>
       <r>   -8.5972    1.0000 </r>
       <r>   -8.3596    1.0000 </r>
       <r>   -8.2710    1.0000 </r>
       <r>   -7.7182    1.0000 </r>
       <r>   -7.6864    1.0000 </r>
       <r>   -7.4460    1.0000 </r>
       <r>   -7.3718    1.0000 </r>
       <r>   -7.3172    1.0000 </r>
       <r>   -6.9667    1.0000 </r>
       <r>   -6.0833    1.0000 </r>
       <r>   -5.0995    1.0000 </r>
       <r>   -4.7441    1.0000 </r>
       <r>   -4.6285    1.0000 </r>
       <r>   -4.4968    1.0000 </r>
       <r>   -4.4249    1.0000 </r>
       <r>   -4.2497    1.0000 </r>
       <r>   -4.1441    1.0000 </r>
       <r>   -4.0805    1.0000 </r>
       <r>   -3.9205    1.0000 </r>
       <r>   -3.8628    1.0000 </r>
       <r>   -3.7295    1.0000 </r>
       <r>   -3.6435    1.0000 </r>
       <r>   -3.5277    1.0000 </r>
       <r>   -3.4077    1.0000 </r>
       <r>   -3.2553    1.0000 </r>
       <r>   -3.1810    1.0000 </r>
       <r>   -3.1301    1.0000 </r>
       <r>   -2.8420    1.0000 </r>
       <r>   -2.7784    1.0000 </r>
       <r>   -2.5308    1.0000 </r>
       <r>   -2.3966    1.0000 </r>
       <r>   -2.3016    1.0000 </r>
       <r>   -2.2164    1.0000 </r>
       <r>   -2.1675    1.0000 </r>
       <r>   -1.9279    1.0000 </r>
       <r>   -1.7933    1.0000 </r>
       <r>   -1.6903    1.0000 </r>
       <r>   -1.5570    1.0000 </r>
       <r>   -0.7823    1.0000 </r>
       <r>   -0.4283    0.9993 </r>
       <r>   -0.3131    0.9431 </r>
       <r>    0.1601    0.0000 </r>
       <r>    0.8676    0.0000 </r>
       <r>    1.0931    0.0000 </r>
       <r>    1.2152    0.0000 </r>
       <r>    1.4259    0.0000 </r>
       <r>    1.4642    0.0000 </r>
       <r>    1.5475    0.0000 </r>
       <r>    1.7259    0.0000 </r>
       <r>    1.9014    0.0000 </r>
       <r>    2.1932    0.0000 </r>
       <r>    2.3119    0.0000 </r>
       <r>    2.5699    0.0000 </r>
       <r>    2.6619    0.0000 </r>
      </set>
     </set>
    </set>
   </array>
  </eigenvalues>
  <separator name="orbital magnetization" >
   <v name="MAGDIPOLOUT">      0.00000000      0.00000000      0.00000000</v>
  </separator>
  <dos>
   <i name="efermi">     -0.20128734 </i>
   <total>
    <array>
     <dimension dim="1">gridpoints</dimension>
     <dimension dim="2">spin</dimension>
     <field>energy</field>
     <field>total</field>
     <field>integrated</field>
     <set>
      <set comment="spin 1">
       <r>   -14.7281     0.0000     0.0000 </r>
       <r>   -14.6649     0.0000     0.0000 </r>
       <r>   -14.6017     0.0000     0.0000 </r>
       <r>   -14.5385     0.0000     0.0000 </r>
       <r>   -14.4753     0.0000     0.0000 </r>
       <r>   -14.4121     0.0000     0.0000 </r>
       <r>   -14.3489     0.0000     0.0000 </r>
       <r>   -14.2857     0.0000     0.0000 </r>
       <r>   -14.2225     0.0000     0.0000 </r>
       <r>   -14.1593     0.0000     0.0000 </r>
       <r>   -14.0961     0.0000     0.0000 </r>
       <r>   -14.0329     0.0000     0.0000 </r>
       <r>   -13.9697     0.0003     0.0000 </r>
       <r>   -13.9065     0.0076     0.0005 </r>
       <r>   -13.8433     0.0863     0.0060 </r>
       <r>   -13.7801     0.5197     0.0388 </r>
       <r>   -13.7169     1.7419     0.1489 </r>
       <r>   -13.6537     3.3866     0.3629 </r>
       <r>   -13.5905     4.0598     0.6195 </r>
       <r>   -13.5273     3.6854     0.8525 </r>
       <r>   -13.4641     3.5761     1.0785 </r>
       <r>   -13.4009     3.4138     1.2943 </r>
       <r>   -13.3377     2.5755     1.4570 </r>
       <r>   -13.2744     1.9132     1.5780 </r>
       <r>   -13.2112     2.2524     1.7203 </r>
       <r>   -13.1480     3.5237     1.9430 </r>
       <r>   -13.0848     4.3302     2.2167 </r>
       <r>   -13.0216     3.7928     2.4564 </r>
       <r>   -12.9584     2.7924     2.6329 </r>
       <r>   -12.8952     2.4088     2.7852 </r>
       <r>   -12.8320     3.1593     2.9849 </r>
       <r>   -12.7688     5.0727     3.3055 </r>
       <r>   -12.7056     7.0313     3.7499 </r>
       <r>   -12.6424     7.3694     4.2156 </r>
       <r>   -12.5792     6.1302     4.6031 </r>
       <r>   -12.5160     4.7951     4.9061 </r>
       <r>   -12.4528     4.6077     5.1974 </r>
       <r>   -12.3896     5.2845     5.5314 </r>
       <r>   -12.3264     5.9551     5.9077 </r>
       <r>   -12.2632     6.6661     6.3291 </r>
       <r>   -12.2000     7.8326     6.8241 </r>
       <r>   -12.1368     8.5827     7.3666 </r>
       <r>   -12.0736     7.0442     7.8118 </r>
       <r>   -12.0104     4.9305     8.1234 </r>
       <r>   -11.9472     4.9067     8.4335 </r>
       <r>   -11.8840     6.3025     8.8319 </r>
       <r>   -11.8208     7.7743     9.3232 </r>
       <r>   -11.7576     9.0078     9.8926 </r>
       <r>   -11.6944     9.9496    10.5214 </r>
       <r>   -11.6312    10.2029    11.1663 </r>
       <r>   -11.5680     9.5546    11.7701 </r>
       <r>   -11.5048     8.8165    12.3274 </r>
       <r>   -11.4416     8.6613    12.8748 </r>
       <r>   -11.3784     8.3791    13.4044 </r>
       <r>   -11.3151     7.2031    13.8596 </r>
       <r>   -11.2519     7.0251    14.3037 </r>
       <r>   -11.1887     9.3536    14.8948 </r>
       <r>   -11.1255    11.8729    15.6452 </r>
       <r>   -11.0623    12.2011    16.4164 </r>
       <r>   -10.9991    12.0184    17.1760 </r>
       <r>   -10.9359    12.1830    17.9460 </r>
       <r>   -10.8727    11.1538    18.6509 </r>
       <r>   -10.8095    10.2294    19.2975 </r>
       <r>   -10.7463     9.7137    19.9114 </r>
       <r>   -10.6831     7.7978    20.4043 </r>
       <r>   -10.6199     6.5765    20.8199 </r>
       <r>   -10.5567     7.1307    21.2706 </r>
       <r>   -10.4935     6.4950    21.6811 </r>
       <r>   -10.4303     4.4380    21.9616 </r>
       <r>   -10.3671     3.4306    22.1784 </r>
       <r>   -10.3039     4.2321    22.4459 </r>
       <r>   -10.2407     4.8066    22.7497 </r>
       <r>   -10.1775     3.7045    22.9838 </r>
       <r>   -10.1143     2.5547    23.1453 </r>
       <r>   -10.0511     3.0287    23.3367 </r>
       <r>    -9.9879     4.2115    23.6029 </r>
       <r>    -9.9247     3.8333    23.8452 </r>
       <r>    -9.8615     2.1236    23.9794 </r>
       <r>    -9.7983     1.3781    24.0665 </r>
       <r>    -9.7351     1.6830    24.1729 </r>
       <r>    -9.6719     1.4204    24.2626 </r>
       <r>    -9.6087     0.6196    24.3018 </r>
       <r>    -9.5455     0.3367    24.3231 </r>
       <r>    -9.4823     0.7950    24.3733 </r>
       <r>    -9.4190     1.4462    24.4647 </r>
       <r>    -9.3558     1.4138    24.5541 </r>
       <r>    -9.2926     0.7560    24.6019 </r>
       <r>    -9.2294     0.3625    24.6248 </r>
       <r>    -9.1662     0.6944    24.6687 </r>
       <r>    -9.1030     1.4659    24.7613 </r>
       <r>    -9.0398     1.9674    24.8857 </r>
       <r>    -8.9766     2.3954    25.0371 </r>
       <r>    -8.9134     3.4411    25.2546 </r>
       <r>    -8.8502     4.4506    25.5358 </r>
       <r>    -8.7870     4.7789    25.8379 </r>
       <r>    -8.7238     5.1232    26.1617 </r>
       <r>    -8.6606     5.8773    26.5332 </r>
       <r>    -8.5974     6.6064    26.9507 </r>
       <r>    -8.5342     6.6782    27.3728 </r>
       <r>    -8.4710     5.5989    27.7267 </r>
       <r>    -8.4078     4.4697    28.0092 </r>
       <r>    -8.3446     4.4711    28.2918 </r>
       <r>    -8.2814     5.0254    28.6094 </r>
       <r>    -8.2182     5.1064    28.9321 </r>
       <r>    -8.1550     4.5172    29.2176 </r>
       <r>    -8.0918     4.1345    29.4789 </r>
       <r>    -8.0286     4.0319    29.7338 </r>
       <r>    -7.9654     4.0214    29.9879 </r>
       <r>    -7.9022     3.9340    30.2366 </r>
       <r>    -7.8390     3.3826    30.4504 </r>
       <r>    -7.7758     3.8139    30.6914 </r>
       <r>    -7.7126     6.1421    31.0796 </r>
       <r>    -7.6494     7.9857    31.5843 </r>
       <r>    -7.5862     7.8712    32.0818 </r>
       <r>    -7.5229     7.5635    32.5599 </r>
       <r>    -7.4597     7.7991    33.0528 </r>
       <r>    -7.3965     7.8718    33.5503 </r>
       <r>    -7.3333     7.2559    34.0089 </r>
       <r>    -7.2701     5.7463    34.3721 </r>
       <r>    -7.2069     4.3454    34.6467 </r>
       <r>    -7.1437     4.5886    34.9367 </r>
       <r>    -7.0805     6.1304    35.3242 </r>
       <r>    -7.0173     7.9427    35.8262 </r>
       <r>    -6.9541     9.8154    36.4466 </r>
       <r>    -6.8909    11.7137    37.1869 </r>
       <r>    -6.8277    13.4007    38.0339 </r>
       <r>    -6.7645    12.6552    38.8337 </r>
       <r>    -6.7013     9.5760    39.4390 </r>
       <r>    -6.6381     7.3041    39.9006 </r>
       <r>    -6.5749     6.1966    40.2923 </r>
       <r>    -6.5117     5.0462    40.6112 </r>
       <r>    -6.4485     3.9778    40.8626 </r>
       <r>    -6.3853     4.2606    41.1319 </r>
       <r>    -6.3221     5.3622    41.4708 </r>
       <r>    -6.2589     5.1486    41.7962 </r>
       <r>    -6.1957     4.1133    42.0562 </r>
       <r>    -6.1325     4.5557    42.3441 </r>
       <r>    -6.0693     5.6506    42.7012 </r>
       <r>    -6.0061     5.3593    43.0400 </r>
       <r>    -5.9429     4.7743    43.3417 </r>
       <r>    -5.8797     5.2179    43.6715 </r>
       <r>    -5.8165     5.6386    44.0279 </r>
       <r>    -5.7533     5.5614    44.3794 </r>
       <r>    -5.6901     5.4771    44.7256 </r>
       <r>    -5.6269     5.1283    45.0497 </r>
       <r>    -5.5636     4.5421    45.3368 </r>
       <r>    -5.5004     4.4899    45.6205 </r>
       <r>    -5.4372     4.6486    45.9143 </r>
       <r>    -5.3740     4.6005    46.2051 </r>
       <r>    -5.3108     4.2999    46.4769 </r>
       <r>    -5.2476     3.5798    46.7031 </r>
       <r>    -5.1844     3.6282    46.9324 </r>
       <r>    -5.1212     5.0181    47.2496 </r>
       <r>    -5.0580     7.0925    47.6979 </r>
       <r>    -4.9948     8.6411    48.2440 </r>
       <r>    -4.9316     9.1778    48.8241 </r>
       <r>    -4.8684     9.9751    49.4546 </r>
       <r>    -4.8052    11.3187    50.1699 </r>
       <r>    -4.7420    11.7730    50.9140 </r>
       <r>    -4.6788    11.4575    51.6382 </r>
       <r>    -4.6156    11.6626    52.3753 </r>
       <r>    -4.5524    12.6576    53.1753 </r>
       <r>    -4.4892    14.0263    54.0618 </r>
       <r>    -4.4260    14.8710    55.0017 </r>
       <r>    -4.3628    14.2538    55.9026 </r>
       <r>    -4.2996    13.2609    56.7407 </r>
       <r>    -4.2364    13.5164    57.5950 </r>
       <r>    -4.1732    14.5792    58.5165 </r>
       <r>    -4.1100    14.0769    59.4062 </r>
       <r>    -4.0468    11.3533    60.1237 </r>
       <r>    -3.9836     9.4341    60.7200 </r>
       <r>    -3.9204    10.2060    61.3651 </r>
       <r>    -3.8572    11.6762    62.1030 </r>
       <r>    -3.7940    11.9415    62.8578 </r>
       <r>    -3.7308    12.5369    63.6501 </r>
       <r>    -3.6675    14.1953    64.5473 </r>
       <r>    -3.6043    15.0398    65.4979 </r>
       <r>    -3.5411    14.7745    66.4317 </r>
       <r>    -3.4779    14.1175    67.3240 </r>
       <r>    -3.4147    13.2519    68.1615 </r>
       <r>    -3.3515    13.4991    69.0147 </r>
       <r>    -3.2883    15.3220    69.9831 </r>
       <r>    -3.2251    17.1591    71.0676 </r>
       <r>    -3.1619    17.5090    72.1743 </r>
       <r>    -3.0987    16.0500    73.1887 </r>
       <r>    -3.0355    13.9323    74.0692 </r>
       <r>    -2.9723    12.7313    74.8739 </r>
       <r>    -2.9091    13.4345    75.7230 </r>
       <r>    -2.8459    15.5329    76.7047 </r>
       <r>    -2.7827    16.8879    77.7721 </r>
       <r>    -2.7195    17.1841    78.8582 </r>
       <r>    -2.6563    17.0613    79.9365 </r>
       <r>    -2.5931    15.8206    80.9364 </r>
       <r>    -2.5299    14.5808    81.8580 </r>
       <r>    -2.4667    14.3233    82.7633 </r>
       <r>    -2.4035    14.5112    83.6804 </r>
       <r>    -2.3403    14.9866    84.6276 </r>
       <r>    -2.2771    15.8877    85.6318 </r>
       <r>    -2.2139    17.1169    86.7136 </r>
       <r>    -2.1507    18.1940    87.8636 </r>
       <r>    -2.0875    18.0226    89.0026 </r>
       <r>    -2.0243    16.9553    90.0743 </r>
       <r>    -1.9611    16.3713    91.1090 </r>
       <r>    -1.8979    16.1667    92.1308 </r>
       <r>    -1.8347    15.0322    93.0809 </r>
       <r>    -1.7714    13.3130    93.9223 </r>
       <r>    -1.7082    11.6950    94.6614 </r>
       <r>    -1.6450    10.5806    95.3302 </r>
       <r>    -1.5818    11.2298    96.0399 </r>
       <r>    -1.5186    12.5837    96.8353 </r>
       <r>    -1.4554    12.3696    97.6171 </r>
       <r>    -1.3922    11.2544    98.3284 </r>
       <r>    -1.3290    10.2631    98.9771 </r>
       <r>    -1.2658     9.9907    99.6085 </r>
       <r>    -1.2026    10.4236   100.2673 </r>
       <r>    -1.1394    10.4506   100.9278 </r>
       <r>    -1.0762     9.7102   101.5415 </r>
       <r>    -1.0130     8.3847   102.0715 </r>
       <r>    -0.9498     6.8637   102.5053 </r>
       <r>    -0.8866     5.9079   102.8787 </r>
       <r>    -0.8234     6.4835   103.2885 </r>
       <r>    -0.7602     8.5054   103.8260 </r>
       <r>    -0.6970     8.9446   104.3913 </r>
       <r>    -0.6338     7.0645   104.8379 </r>
       <r>    -0.5706     6.2554   105.2332 </r>
       <r>    -0.5074     7.0007   105.6757 </r>
       <r>    -0.4442     7.5719   106.1542 </r>
       <r>    -0.3810     7.4375   106.6243 </r>
       <r>    -0.3178     7.1108   107.0738 </r>
       <r>    -0.2546     7.6257   107.5557 </r>
       <r>    -0.1914     8.3294   108.0822 </r>
       <r>    -0.1282     7.5506   108.5594 </r>
       <r>    -0.0650     6.0169   108.9397 </r>
       <r>    -0.0018     5.1191   109.2632 </r>
       <r>     0.0614     4.7596   109.5640 </r>
       <r>     0.1246     4.4681   109.8464 </r>
       <r>     0.1879     3.8758   110.0914 </r>
       <r>     0.2511     3.2104   110.2943 </r>
       <r>     0.3143     2.9274   110.4793 </r>
       <r>     0.3775     2.3000   110.6247 </r>
       <r>     0.4407     1.3414   110.7095 </r>
       <r>     0.5039     1.0693   110.7771 </r>
       <r>     0.5671     1.5230   110.8733 </r>
       <r>     0.6303     2.1586   111.0097 </r>
       <r>     0.6935     2.6814   111.1792 </r>
       <r>     0.7567     3.0870   111.3743 </r>
       <r>     0.8199     3.1319   111.5723 </r>
       <r>     0.8831     3.1579   111.7719 </r>
       <r>     0.9463     4.0891   112.0303 </r>
       <r>     1.0095     5.9498   112.4064 </r>
       <r>     1.0727     7.4327   112.8761 </r>
       <r>     1.1359     7.9028   113.3756 </r>
       <r>     1.1991     8.7203   113.9268 </r>
       <r>     1.2623     9.7455   114.5427 </r>
       <r>     1.3255     9.4618   115.1407 </r>
       <r>     1.3887     9.1067   115.7163 </r>
       <r>     1.4519    10.2419   116.3636 </r>
       <r>     1.5151    11.2251   117.0731 </r>
       <r>     1.5783    11.2067   117.7814 </r>
       <r>     1.6415    11.2903   118.4950 </r>
       <r>     1.7047    11.0423   119.1929 </r>
       <r>     1.7679    10.2128   119.8383 </r>
       <r>     1.8311     9.9602   120.4679 </r>
       <r>     1.8943    10.6664   121.1420 </r>
       <r>     1.9575    11.7285   121.8833 </r>
       <r>     2.0207    12.5079   122.6738 </r>
       <r>     2.0840    12.8473   123.4858 </r>
       <r>     2.1472    12.6007   124.2822 </r>
       <r>     2.2104    12.5387   125.0747 </r>
       <r>     2.2736    13.3170   125.9164 </r>
       <r>     2.3368    13.5726   126.7742 </r>
       <r>     2.4000    13.1164   127.6032 </r>
       <r>     2.4632    13.7834   128.4744 </r>
       <r>     2.5264    14.7970   129.4096 </r>
       <r>     2.5896    14.4144   130.3206 </r>
       <r>     2.6528    13.0239   131.1438 </r>
       <r>     2.7160    11.7461   131.8862 </r>
       <r>     2.7792    11.4550   132.6102 </r>
       <r>     2.8424    11.0921   133.3112 </r>
       <r>     2.9056     9.4697   133.9097 </r>
       <r>     2.9688     7.6888   134.3957 </r>
       <r>     3.0320     7.0636   134.8421 </r>
       <r>     3.0952     6.7159   135.2666 </r>
       <r>     3.1584     5.6553   135.6241 </r>
       <r>     3.2216     3.7230   135.8594 </r>
       <r>     3.2848     1.6630   135.9645 </r>
       <r>     3.3480     0.4720   135.9943 </r>
       <r>     3.4112     0.0818   135.9995 </r>
       <r>     3.4744     0.0080   136.0000 </r>
       <r>     3.5376     0.0004   136.0000 </r>
       <r>     3.6008     0.0000   136.0000 </r>
       <r>     3.6640     0.0000   136.0000 </r>
       <r>     3.7272     0.0000   136.0000 </r>
       <r>     3.7904     0.0000   136.0000 </r>
       <r>     3.8536     0.0000   136.0000 </r>
       <r>     3.9168     0.0000   136.0000 </r>
       <r>     3.9800     0.0000   136.0000 </r>
       <r>     4.0433     0.0000   136.0000 </r>
       <r>     4.1065     0.0000   136.0000 </r>
       <r>     4.1697     0.0000   136.0000 </r>
       <r>     4.2329     0.0000   136.0000 </r>
      </set>
     </set>
    </array>
   </total>
  </dos>
 </calculation>
 <structure name="finalpos" >
  <crystal>
   <varray name="basis" >
    <v>       3.54040000       0.00000000       0.00000000 </v>
    <v>      -1.77020000      10.29434800       0.00000000 </v>
    <v>       0.00000000       0.00000000      27.50142900 </v>
   </varray>
   <i name="volume">   1002.32009712 </i>
   <varray name="rec_basis" >
    <v>       0.28245396       0.04857034       0.00000000 </v>
    <v>       0.00000000       0.09714068       0.00000000 </v>
    <v>       0.00000000       0.00000000       0.03636175 </v>
   </varray>
  </crystal>
  <varray name="positions" >
   <v>       0.11402300       0.22804500       0.23316207 </v>
   <v>       0.61402300       0.32804500       0.51499159 </v>
   <v>       0.45808900       0.91617900       0.20939482 </v>
   <v>       0.95808900       0.01617900       0.49122434 </v>
   <v>       0.31085400       0.62170900       0.08414979 </v>
   <v>       0.31085400       0.62170900       0.36597930 </v>
   <v>       0.99923000       0.99846000       0.08631254 </v>
   <v>       0.99923000       0.99846000       0.36814206 </v>
   <v>       0.65492700       0.30985400       0.06041748 </v>
   <v>       0.65492700       0.30985400       0.34224700 </v>
   <v>       0.76973800       0.53947500       0.20725292 </v>
   <v>       0.26973800       0.63947500       0.48908244 </v>
   <v>       0.93971600       0.87943300       0.15783749 </v>
   <v>       0.43971600       0.97943300       0.43966701 </v>
   <v>       0.20515200       0.41030300       0.18578822 </v>
   <v>       0.70515200       0.51030300       0.46761774 </v>
   <v>       0.20184900       0.40369900       0.09969156 </v>
   <v>       0.20184900       0.40369900       0.38152107 </v>
   <v>       0.56380500       0.12761000       0.10779021 </v>
   <v>       0.56380500       0.12761000       0.38961973 </v>
   <v>       0.56710600       0.13421200       0.19387616 </v>
   <v>       0.06710600       0.23421200       0.47570568 </v>
   <v>       0.82923400       0.65846800       0.13571444 </v>
   <v>       0.32923400       0.75846800       0.41754396 </v>
  </varray>
 </structure>
</modeling>
