<?xml version="1.0" encoding="ISO-8859-1"?>
<modeling>
 <generator>
  <i name="program" type="string">vasp </i>
  <i name="version" type="string">5.3.5  </i>
  <i name="subversion" type="string">31Mar14 (build Oct 29 2014 16:16:03) complex                          parallel </i>
  <i name="platform" type="string">Linux-UFHPC </i>
  <i name="date" type="string">2016 02 09 </i>
  <i name="time" type="string">18:41:00 </i>
 </generator>
 <incar>
  <i type="string" name="PREC">accurate</i>
  <i type="int" name="IBRION">     2</i>
  <i name="EDIFF">      0.00000100</i>
  <i type="int" name="NSW">     0</i>
  <i type="int" name="ISIF">     3</i>
  <i name="ENCUT">    300.00000000</i>
  <i type="string" name="LREAL"> Auto</i>
  <i type="int" name="ISMEAR">     0</i>
  <i name="SIGMA">      0.10000000</i>
  <i type="logical" name="LWAVE"> F  </i>
  <i type="logical" name="LCHARG"> F  </i>
  <i type="logical" name="LAECHG"> F  </i>
  <i type="string" name="GGA"> Bo</i>
  <i name="PARAM1">      0.18333333</i>
  <i name="PARAM2">      0.22000000</i>
  <i type="logical" name="LUSE_VDW"> T  </i>
  <i name="AGGAC">      0.00000000</i>
 </incar>
 <kpoints>
  <generation param="Gamma">
   <v type="int" name="divisions">      13        4        2 </v>
   <v name="usershift">      0.00000000       0.00000000       0.00000000 </v>
   <v name="genvec1">      0.07692308      -0.00000000       0.00000000 </v>
   <v name="genvec2">      0.00000000       0.25000000       0.00000000 </v>
   <v name="genvec3">      0.00000000       0.00000000       0.50000000 </v>
   <v name="shift">      0.00000000       0.00000000       0.00000000 </v>
  </generation>
  <varray name="kpointlist" >
   <v>       0.00000000       0.00000000       0.00000000 </v>
   <v>       0.07692308      -0.00000000       0.00000000 </v>
   <v>       0.15384615      -0.00000000       0.00000000 </v>
   <v>       0.23076923      -0.00000000       0.00000000 </v>
   <v>       0.30769231      -0.00000000       0.00000000 </v>
   <v>       0.38461538      -0.00000000       0.00000000 </v>
   <v>       0.46153846      -0.00000000       0.00000000 </v>
   <v>       0.00000000       0.25000000       0.00000000 </v>
   <v>       0.07692308       0.25000000       0.00000000 </v>
   <v>       0.15384615       0.25000000       0.00000000 </v>
   <v>       0.23076923       0.25000000       0.00000000 </v>
   <v>       0.30769231       0.25000000       0.00000000 </v>
   <v>       0.38461538       0.25000000       0.00000000 </v>
   <v>       0.46153846       0.25000000       0.00000000 </v>
   <v>      -0.46153846       0.25000000       0.00000000 </v>
   <v>      -0.38461538       0.25000000       0.00000000 </v>
   <v>      -0.30769231       0.25000000       0.00000000 </v>
   <v>      -0.23076923       0.25000000       0.00000000 </v>
   <v>      -0.15384615       0.25000000       0.00000000 </v>
   <v>      -0.07692308       0.25000000       0.00000000 </v>
   <v>       0.00000000       0.50000000       0.00000000 </v>
   <v>       0.07692308       0.50000000       0.00000000 </v>
   <v>       0.15384615       0.50000000       0.00000000 </v>
   <v>       0.23076923       0.50000000       0.00000000 </v>
   <v>       0.30769231       0.50000000       0.00000000 </v>
   <v>       0.38461538       0.50000000       0.00000000 </v>
   <v>       0.46153846       0.50000000       0.00000000 </v>
   <v>       0.00000000       0.00000000       0.50000000 </v>
   <v>       0.07692308      -0.00000000       0.50000000 </v>
   <v>       0.15384615      -0.00000000       0.50000000 </v>
   <v>       0.23076923      -0.00000000       0.50000000 </v>
   <v>       0.30769231      -0.00000000       0.50000000 </v>
   <v>       0.38461538      -0.00000000       0.50000000 </v>
   <v>       0.46153846      -0.00000000       0.50000000 </v>
   <v>       0.00000000       0.25000000       0.50000000 </v>
   <v>       0.07692308       0.25000000       0.50000000 </v>
   <v>       0.15384615       0.25000000       0.50000000 </v>
   <v>       0.23076923       0.25000000       0.50000000 </v>
   <v>       0.30769231       0.25000000       0.50000000 </v>
   <v>       0.38461538       0.25000000       0.50000000 </v>
   <v>       0.46153846       0.25000000       0.50000000 </v>
   <v>      -0.46153846       0.25000000       0.50000000 </v>
   <v>      -0.38461538       0.25000000       0.50000000 </v>
   <v>      -0.30769231       0.25000000       0.50000000 </v>
   <v>      -0.23076923       0.25000000       0.50000000 </v>
   <v>      -0.15384615       0.25000000       0.50000000 </v>
   <v>      -0.07692308       0.25000000       0.50000000 </v>
   <v>       0.00000000       0.50000000       0.50000000 </v>
   <v>       0.07692308       0.50000000       0.50000000 </v>
   <v>       0.15384615       0.50000000       0.50000000 </v>
   <v>       0.23076923       0.50000000       0.50000000 </v>
   <v>       0.30769231       0.50000000       0.50000000 </v>
   <v>       0.38461538       0.50000000       0.50000000 </v>
   <v>       0.46153846       0.50000000       0.50000000 </v>
  </varray>
  <varray name="weights" >
   <v>       0.00961538 </v>
   <v>       0.01923077 </v>
   <v>       0.01923077 </v>
   <v>       0.01923077 </v>
   <v>       0.01923077 </v>
   <v>       0.01923077 </v>
   <v>       0.01923077 </v>
   <v>       0.01923077 </v>
   <v>       0.01923077 </v>
   <v>       0.01923077 </v>
   <v>       0.01923077 </v>
   <v>       0.01923077 </v>
   <v>       0.01923077 </v>
   <v>       0.01923077 </v>
   <v>       0.01923077 </v>
   <v>       0.01923077 </v>
   <v>       0.01923077 </v>
   <v>       0.01923077 </v>
   <v>       0.01923077 </v>
   <v>       0.01923077 </v>
   <v>       0.00961538 </v>
   <v>       0.01923077 </v>
   <v>       0.01923077 </v>
   <v>       0.01923077 </v>
   <v>       0.01923077 </v>
   <v>       0.01923077 </v>
   <v>       0.01923077 </v>
   <v>       0.00961538 </v>
   <v>       0.01923077 </v>
   <v>       0.01923077 </v>
   <v>       0.01923077 </v>
   <v>       0.01923077 </v>
   <v>       0.01923077 </v>
   <v>       0.01923077 </v>
   <v>       0.01923077 </v>
   <v>       0.01923077 </v>
   <v>       0.01923077 </v>
   <v>       0.01923077 </v>
   <v>       0.01923077 </v>
   <v>       0.01923077 </v>
   <v>       0.01923077 </v>
   <v>       0.01923077 </v>
   <v>       0.01923077 </v>
   <v>       0.01923077 </v>
   <v>       0.01923077 </v>
   <v>       0.01923077 </v>
   <v>       0.01923077 </v>
   <v>       0.00961538 </v>
   <v>       0.01923077 </v>
   <v>       0.01923077 </v>
   <v>       0.01923077 </v>
   <v>       0.01923077 </v>
   <v>       0.01923077 </v>
   <v>       0.01923077 </v>
  </varray>
 </kpoints>
 <parameters>
  <separator name="general" >
   <i type="string" name="SYSTEM">unknown system</i>
   <i type="logical" name="LCOMPAT"> F  </i>
  </separator>
  <separator name="electronic" >
   <i type="string" name="PREC">accura</i>
   <i name="ENMAX">    300.00000000</i>
   <i name="ENAUG">    342.92400000</i>
   <i name="EDIFF">      0.00000100</i>
   <i type="int" name="IALGO">    38</i>
   <i type="int" name="IWAVPR">    10</i>
   <i type="int" name="NBANDS">    68</i>
   <i name="NELECT">    108.00000000</i>
   <i type="int" name="TURBO">     0</i>
   <i type="int" name="IRESTART">     0</i>
   <i type="int" name="NREBOOT">     0</i>
   <i type="int" name="NMIN">     0</i>
   <i name="EREF">      0.00000000</i>
   <separator name="electronic smearing" >
    <i type="int" name="ISMEAR">     0</i>
    <i name="SIGMA">      0.10000000</i>
    <i name="KSPACING">      0.50000000</i>
    <i type="logical" name="KGAMMA"> T  </i>
   </separator>
   <separator name="electronic projectors" >
    <i type="logical" name="LREAL"> T  </i>
    <v name="ROPT">     -0.00025000     -0.00025000</v>
    <i type="int" name="LMAXPAW">  -100</i>
    <i type="int" name="LMAXMIX">     2</i>
    <i type="logical" name="NLSPLINE"> F  </i>
   </separator>
   <separator name="electronic startup" >
    <i type="int" name="ISTART">     0</i>
    <i type="int" name="ICHARG">     2</i>
    <i type="int" name="INIWAV">     1</i>
   </separator>
   <separator name="electronic spin" >
    <i type="int" name="ISPIN">     1</i>
    <i type="logical" name="LNONCOLLINEAR"> F  </i>
    <v name="MAGMOM">      1.00000000      1.00000000      1.00000000      1.00000000      1.00000000      1.00000000      1.00000000      1.00000000      1.00000000      1.00000000      1.00000000      1.00000000      1.00000000      1.00000000      1.00000000      1.00000000      1.00000000      1.00000000      1.00000000      1.00000000
      1.00000000      1.00000000      1.00000000      1.00000000</v>
    <i name="NUPDOWN">     -1.00000000</i>
    <i type="logical" name="LSORBIT"> F  </i>
    <v name="SAXIS">      0.00000000      0.00000000      1.00000000</v>
    <i type="logical" name="LSPIRAL"> F  </i>
    <v name="QSPIRAL">      0.00000000      0.00000000      0.00000000</v>
    <i type="logical" name="LZEROZ"> F  </i>
   </separator>
   <separator name="electronic exchange-correlation" >
    <i type="logical" name="LASPH"> F  </i>
    <i type="logical" name="LMETAGGA"> F  </i>
   </separator>
   <separator name="electronic convergence" >
    <i type="int" name="NELM">    60</i>
    <i type="int" name="NELMDL">    -5</i>
    <i type="int" name="NELMIN">     2</i>
    <i name="ENINI">    300.00000000</i>
    <separator name="electronic convergence detail" >
     <i type="logical" name="LDIAG"> T  </i>
     <i type="logical" name="LSUBROT"> F  </i>
     <i name="WEIMIN">      0.00000000</i>
     <i name="EBREAK">      0.00000000</i>
     <i name="DEPER">      0.30000000</i>
     <i type="int" name="NRMM">     4</i>
     <i name="TIME">      0.40000000</i>
    </separator>
   </separator>
   <separator name="electronic mixer" >
    <i name="AMIX">      0.40000000</i>
    <i name="BMIX">      1.00000000</i>
    <i name="AMIN">      0.10000000</i>
    <i name="AMIX_MAG">      1.60000000</i>
    <i name="BMIX_MAG">      1.00000000</i>
    <separator name="electronic mixer details" >
     <i type="int" name="IMIX">     4</i>
     <i type="int" name="MAXMIX">   -45</i>
     <i name="WC">    100.00000000</i>
     <i type="int" name="INIMIX">     1</i>
     <i type="int" name="MIXPRE">     1</i>
     <i type="int" name="MREMOVE">     5</i>
    </separator>
   </separator>
   <separator name="electronic dipolcorrection" >
    <i type="logical" name="LDIPOL"> F  </i>
    <i type="logical" name="LMONO"> F  </i>
    <i type="int" name="IDIPOL">     0</i>
    <i name="EPSILON">      1.00000000</i>
    <v name="DIPOL">   -100.00000000   -100.00000000   -100.00000000</v>
    <i name="EFIELD">      0.00000000</i>
   </separator>
  </separator>
  <separator name="grids" >
   <i type="int" name="NGX">    20</i>
   <i type="int" name="NGY">    60</i>
   <i type="int" name="NGZ">   160</i>
   <i type="int" name="NGXF">    40</i>
   <i type="int" name="NGYF">   120</i>
   <i type="int" name="NGZF">   320</i>
   <i type="logical" name="ADDGRID"> F  </i>
  </separator>
  <separator name="ionic" >
   <i type="int" name="NSW">     0</i>
   <i type="int" name="IBRION">    -1</i>
   <i type="int" name="ISIF">     3</i>
   <i name="PSTRESS">      0.00000000</i>
   <i name="EDIFFG">      0.00001000</i>
   <i type="int" name="NFREE">     1</i>
   <i name="POTIM">      0.50000000</i>
   <i name="SMASS">     -3.00000000</i>
   <i name="SCALEE">      1.00000000</i>
  </separator>
  <separator name="ionic md" >
   <i name="TEBEG">      0.00010000</i>
   <i name="TEEND">      0.00010000</i>
   <i type="int" name="NBLOCK">     1</i>
   <i type="int" name="KBLOCK">     1</i>
   <i type="int" name="NPACO">   256</i>
   <i name="APACO">     16.00000000</i>
  </separator>
  <separator name="symmetry" >
   <i type="int" name="ISYM">     2</i>
   <i name="SYMPREC">      0.00001000</i>
  </separator>
  <separator name="dos" >
   <i type="logical" name="LORBIT"> F  </i>
   <v name="RWIGS">     -1.00000000     -1.00000000</v>
   <i type="int" name="NEDOS">   301</i>
   <i name="EMIN">     10.00000000</i>
   <i name="EMAX">    -10.00000000</i>
   <i name="EFERMI">      0.00000000</i>
  </separator>
  <separator name="writing" >
   <i type="int" name="NWRITE">     2</i>
   <i type="logical" name="LWAVE"> F  </i>
   <i type="logical" name="LCHARG"> F  </i>
   <i type="logical" name="LPARD"> F  </i>
   <i type="logical" name="LVTOT"> F  </i>
   <i type="logical" name="LVHAR"> F  </i>
   <i type="logical" name="LELF"> F  </i>
   <i type="logical" name="LOPTICS"> F  </i>
   <v name="STM">      0.00000000      0.00000000      0.00000000      0.00000000      0.00000000      0.00000000      0.00000000</v>
  </separator>
  <separator name="performance" >
   <i type="int" name="NPAR">     4</i>
   <i type="int" name="NSIM">     4</i>
   <i type="int" name="NBLK">    -1</i>
   <i type="logical" name="LPLANE"> T  </i>
   <i type="logical" name="LSCALAPACK"> T  </i>
   <i type="logical" name="LSCAAWARE"> F  </i>
   <i type="logical" name="LSCALU"> F  </i>
   <i type="logical" name="LASYNC"> F  </i>
   <i type="logical" name="LORBITALREAL"> F  </i>
  </separator>
  <separator name="miscellaneous" >
   <i type="int" name="IDIOT">     3</i>
   <i type="logical" name="LMUSIC"> F  </i>
   <v name="POMASS">     30.97400000     28.08500000</v>
   <v name="DARWINR">      0.00000000      0.00000000</v>
   <v name="DARWINV">      1.00000000      1.00000000</v>
   <i type="logical" name="LCORR"> T  </i>
  </separator>
  <i type="logical" name="GGA_COMPAT"> T  </i>
  <i type="logical" name="LBERRY"> F  </i>
  <i type="int" name="ICORELEVEL">     0</i>
  <i type="logical" name="LDAU"> F  </i>
  <i type="int" name="I_CONSTRAINED_M">     0</i>
  <separator name="electronic exchange-correlation" >
   <i type="string" name="GGA">BO</i>
   <i type="int" name="VOSKOWN">     0</i>
   <i type="logical" name="LHFCALC"> F  </i>
   <i type="string" name="PRECFOCK"></i>
   <i type="logical" name="LSYMGRAD"> F  </i>
   <i type="logical" name="LHFONE"> F  </i>
   <i type="logical" name="LRHFCALC"> F  </i>
   <i type="logical" name="LTHOMAS"> F  </i>
   <i type="logical" name="LMODELHF"> F  </i>
   <i name="ENCUT4O">     -1.00000000</i>
   <i type="int" name="EXXOEP">     0</i>
   <i type="int" name="FOURORBIT">     0</i>
   <i name="AEXX">      0.00000000</i>
   <i name="HFALPHA">      0.00000000</i>
   <i name="MCALPHA">      0.00000000</i>
   <i name="ALDAX">      1.00000000</i>
   <i name="AGGAX">      1.00000000</i>
   <i name="ALDAC">      1.00000000</i>
   <i name="AGGAC">      0.00000000</i>
   <i type="int" name="NKREDX">     1</i>
   <i type="int" name="NKREDY">     1</i>
   <i type="int" name="NKREDZ">     1</i>
   <i type="logical" name="SHIFTRED"> F  </i>
   <i type="logical" name="ODDONLY"> F  </i>
   <i type="logical" name="EVENONLY"> F  </i>
   <i type="int" name="LMAXFOCK">     0</i>
   <i type="int" name="NMAXFOCKAE">     0</i>
   <i type="logical" name="LFOCKAEDFT"> F  </i>
   <i name="HFSCREEN">      0.00000000</i>
   <i name="HFSCREENC">      0.00000000</i>
   <i type="int" name="NBANDSGWLOW">     0</i>
  </separator>
  <separator name="vdW DFT" >
   <i type="logical" name="LUSE_VDW"> T  </i>
   <i name="Zab_VDW">     -0.84910000</i>
   <i name="PARAM1">      0.18333333</i>
   <i name="PARAM2">      0.22000000</i>
   <i name="PARAM3">      0.00000000</i>
  </separator>
  <separator name="model GW" >
   <i type="int" name="MODEL_GW">     0</i>
   <i name="MODEL_EPS0">     25.05800243</i>
   <i name="MODEL_ALPHA">      1.00000000</i>
  </separator>
  <separator name="linear response parameters" >
   <i type="logical" name="LEPSILON"> F  </i>
   <i type="logical" name="LRPA"> F  </i>
   <i type="logical" name="LNABLA"> F  </i>
   <i type="logical" name="LVEL"> F  </i>
   <i type="int" name="KINTER">     0</i>
   <i name="CSHIFT">      0.10000000</i>
   <i name="OMEGAMAX">     -1.00000000</i>
   <i name="DEG_THRESHOLD">      0.00200000</i>
  </separator>
  <separator name="orbital magnetization" >
   <i type="logical" name="NUCIND"> F  </i>
   <v name="MAGPOS">      0.00000000      0.00000000      0.00000000</v>
   <i type="logical" name="LNICSALL"> T  </i>
   <i type="logical" name="ORBITALMAG"> F  </i>
   <i type="logical" name="LMAGBLOCH"> F  </i>
   <i type="logical" name="LCHIMAG"> F  </i>
   <i type="logical" name="LGAUGE"> T  </i>
   <i type="int" name="MAGATOM">     0</i>
   <v name="MAGDIPOL">      0.00000000      0.00000000      0.00000000</v>
   <v name="AVECCONST">      0.00000000      0.00000000      0.00000000</v>
  </separator>
  <separator name="response functions" >
   <i type="logical" name="LADDER"> F  </i>
   <i type="logical" name="LFXC"> F  </i>
   <i type="logical" name="LHARTREE"> T  </i>
   <i type="int" name="IBSE">     0</i>
   <i type="logical" name="LTCTE"> F  </i>
   <i type="logical" name="LTETE"> F  </i>
   <i type="logical" name="LTRIPLET"> F  </i>
   <i type="logical" name="LFXCEPS"> F  </i>
   <i type="logical" name="LFXHEG"> F  </i>
   <i type="logical" name="L2ORDER"> F  </i>
   <i type="logical" name="LUSEW"> F  </i>
   <i name="ENCUTGW">     -2.00000000</i>
   <i name="ENCUTGWSOFT">     -2.00000000</i>
   <i name="ENCUTLF">     -1.00000000</i>
   <i type="int" name="LMAXMP2">    -1</i>
   <i name="SCISSOR">      0.00000000</i>
   <i type="int" name="NOMEGA">     0</i>
   <i type="int" name="NOMEGAR">     0</i>
   <i type="int" name="NBANDSGW">    -1</i>
   <i type="int" name="NBANDSO">    -1</i>
   <i type="int" name="NBANDSV">    -1</i>
   <i type="int" name="NELM">     1</i>
   <i type="int" name="DIM">     3</i>
   <i type="int" name="ANTIRES">     0</i>
   <i name="OMEGAMAX">    -30.00000000</i>
   <i name="OMEGAMIN">    -30.00000000</i>
   <i name="OMEGATL">   -200.00000000</i>
   <i type="int" name="OMEGAGRID">     0</i>
   <i name="CSHIFT">     -0.10000000</i>
   <i type="logical" name="SELFENERGY"> F  </i>
   <i type="logical" name="LSPECTRAL"> F  </i>
   <i type="logical" name="ODDONLYGW"> F  </i>
   <i type="logical" name="EVENONLYGW"> F  </i>
   <i type="int" name="NKREDLFX">     1</i>
   <i type="int" name="NKREDLFY">     1</i>
   <i type="int" name="NKREDLFZ">     1</i>
   <i type="int" name="MAXMEM">  1800</i>
   <i type="int" name="TELESCOPE">     0</i>
   <i type="int" name="TAUPAR">     1</i>
  </separator>
  <separator name="External order field" >
   <i name="OFIELD_KAPPA">      0.00000000</i>
   <v name="OFIELD_K">      0.00000000      0.00000000      0.00000000</v>
   <i name="OFIELD_Q6_NEAR">      0.00000000</i>
   <i name="OFIELD_Q6_FAR">      0.00000000</i>
   <i name="OFIELD_A">      0.00000000</i>
  </separator>
 </parameters>
 <atominfo>
  <atoms>      24 </atoms>
  <types>       2 </types>
  <array name="atoms" >
   <dimension dim="1">ion</dimension>
   <field type="string">element</field>
   <field type="int">atomtype</field>
   <set>
    <rc><c>P </c><c>   1</c></rc>
    <rc><c>P </c><c>   1</c></rc>
    <rc><c>P </c><c>   1</c></rc>
    <rc><c>P </c><c>   1</c></rc>
    <rc><c>P </c><c>   1</c></rc>
    <rc><c>P </c><c>   1</c></rc>
    <rc><c>P </c><c>   1</c></rc>
    <rc><c>P </c><c>   1</c></rc>
    <rc><c>P </c><c>   1</c></rc>
    <rc><c>P </c><c>   1</c></rc>
    <rc><c>P </c><c>   1</c></rc>
    <rc><c>P </c><c>   1</c></rc>
    <rc><c>Si</c><c>   2</c></rc>
    <rc><c>Si</c><c>   2</c></rc>
    <rc><c>Si</c><c>   2</c></rc>
    <rc><c>Si</c><c>   2</c></rc>
    <rc><c>Si</c><c>   2</c></rc>
    <rc><c>Si</c><c>   2</c></rc>
    <rc><c>Si</c><c>   2</c></rc>
    <rc><c>Si</c><c>   2</c></rc>
    <rc><c>Si</c><c>   2</c></rc>
    <rc><c>Si</c><c>   2</c></rc>
    <rc><c>Si</c><c>   2</c></rc>
    <rc><c>Si</c><c>   2</c></rc>
   </set>
  </array>
  <array name="atomtypes" >
   <dimension dim="1">type</dimension>
   <field type="int">atomspertype</field>
   <field type="string">element</field>
   <field>mass</field>
   <field>valence</field>
   <field type="string">pseudopotential</field>
   <set>
    <rc><c>  12</c><c>P </c><c>     30.97400000</c><c>      5.00000000</c><c>  PAW_PBE P 17Jan2003                   </c></rc>
    <rc><c>  12</c><c>Si</c><c>     28.08500000</c><c>      4.00000000</c><c> PAW_PBE Si 05Jan2001                   </c></rc>
   </set>
  </array>
 </atominfo>
 <structure name="initialpos" >
  <crystal>
   <varray name="basis" >
    <v>       3.54040000       0.00000000       0.00000000 </v>
    <v>      -1.77020000      10.29434800       0.00000000 </v>
    <v>       0.00000000       0.00000000      27.50142900 </v>
   </varray>
   <i name="volume">   1002.32009712 </i>
   <varray name="rec_basis" >
    <v>       0.28245396       0.04857034       0.00000000 </v>
    <v>       0.00000000       0.09714068       0.00000000 </v>
    <v>       0.00000000       0.00000000       0.03636175 </v>
   </varray>
  </crystal>
  <varray name="positions" >
   <v>       0.11402300       0.22804500       0.23316207 </v>
   <v>       0.91402300       0.72804500       0.51499159 </v>
   <v>       0.45808900       0.91617900       0.20939482 </v>
   <v>       0.25808900       0.41617900       0.49122434 </v>
   <v>       0.31085400       0.62170900       0.08414979 </v>
   <v>       0.31085400       0.62170900       0.36597930 </v>
   <v>       0.99923000       0.99846000       0.08631254 </v>
   <v>       0.99923000       0.99846000       0.36814206 </v>
   <v>       0.65492700       0.30985400       0.06041748 </v>
   <v>       0.65492700       0.30985400       0.34224700 </v>
   <v>       0.76973800       0.53947500       0.20725292 </v>
   <v>       0.56973800       0.03947500       0.48908244 </v>
   <v>       0.93971600       0.87943300       0.15783749 </v>
   <v>       0.73971600       0.37943300       0.43966701 </v>
   <v>       0.20515200       0.41030300       0.18578822 </v>
   <v>       0.00515200       0.91030300       0.46761774 </v>
   <v>       0.20184900       0.40369900       0.09969156 </v>
   <v>       0.20184900       0.40369900       0.38152107 </v>
   <v>       0.56380500       0.12761000       0.10779021 </v>
   <v>       0.56380500       0.12761000       0.38961973 </v>
   <v>       0.56710600       0.13421200       0.19387616 </v>
   <v>       0.36710600       0.63421200       0.47570568 </v>
   <v>       0.82923400       0.65846800       0.13571444 </v>
   <v>       0.62923400       0.15846800       0.41754396 </v>
  </varray>
 </structure>
 <calculation>
  <scstep>
   <time name="dav">   69.86   69.88</time>
   <time name="total">   85.99   86.02</time>
   <energy>
    <i name="alphaZ">     36.80884744 </i>
    <i name="ewald">  12130.11151244 </i>
    <i name="hartreedc"> -15066.39490378 </i>
    <i name="XCdc">    -88.09398107 </i>
    <i name="pawpsdc">   1056.43050070 </i>
    <i name="pawaedc">   -732.41190547 </i>
    <i name="eentropy">     -0.03903416 </i>
    <i name="bandstr">    -93.81801664 </i>
    <i name="atom">   3354.04126044 </i>
    <i name="e_fr_energy">    596.63427990 </i>
    <i name="e_wo_entrp">    596.67331406 </i>
    <i name="e_0_energy">    596.65379698 </i>
   </energy>
  </scstep>
  <scstep>
   <time name="dav">   90.15   90.18</time>
   <time name="total">   90.17   90.19</time>
   <energy>
    <i name="e_fr_energy">     29.29791988 </i>
    <i name="e_wo_entrp">     29.31985030 </i>
    <i name="e_0_energy">     29.30888509 </i>
   </energy>
  </scstep>
  <scstep>
   <time name="dav">   86.87   86.90</time>
   <time name="total">   86.88   86.91</time>
   <energy>
    <i name="e_fr_energy">    -34.45045977 </i>
    <i name="e_wo_entrp">    -34.41450048 </i>
    <i name="e_0_energy">    -34.43248013 </i>
   </energy>
  </scstep>
  <scstep>
   <time name="dav">   96.29   96.32</time>
   <time name="total">   96.31   96.33</time>
   <energy>
    <i name="e_fr_energy">    -38.12524902 </i>
    <i name="e_wo_entrp">    -38.09305509 </i>
    <i name="e_0_energy">    -38.10915206 </i>
   </energy>
  </scstep>
  <scstep>
   <time name="dav">   93.07   93.10</time>
   <time name="total">   97.30   97.33</time>
   <energy>
    <i name="e_fr_energy">    -38.22084847 </i>
    <i name="e_wo_entrp">    -38.18843404 </i>
    <i name="e_0_energy">    -38.20464126 </i>
   </energy>
  </scstep>
  <scstep>
   <time name="dav">   91.29   91.32</time>
   <time name="total">  110.74  110.77</time>
   <energy>
    <i name="e_fr_energy">    -31.07147335 </i>
    <i name="e_wo_entrp">    -31.03688172 </i>
    <i name="e_0_energy">    -31.05417754 </i>
   </energy>
  </scstep>
  <scstep>
   <time name="dav">   75.63   75.66</time>
   <time name="total">   95.13   95.16</time>
   <energy>
    <i name="e_fr_energy">    -31.04234864 </i>
    <i name="e_wo_entrp">    -31.00573624 </i>
    <i name="e_0_energy">    -31.02404244 </i>
   </energy>
  </scstep>
  <scstep>
   <time name="dav">   82.07   82.10</time>
   <time name="total">  102.31  102.36</time>
   <energy>
    <i name="e_fr_energy">    -31.01462286 </i>
    <i name="e_wo_entrp">    -30.98075860 </i>
    <i name="e_0_energy">    -30.99769073 </i>
   </energy>
  </scstep>
  <scstep>
   <time name="dav">   83.09   83.12</time>
   <time name="total">  102.15  102.19</time>
   <energy>
    <i name="e_fr_energy">    -31.07428027 </i>
    <i name="e_wo_entrp">    -31.03763480 </i>
    <i name="e_0_energy">    -31.05595753 </i>
   </energy>
  </scstep>
  <scstep>
   <time name="dav">   82.27   82.29</time>
   <time name="total">  101.91  101.94</time>
   <energy>
    <i name="e_fr_energy">    -31.07107131 </i>
    <i name="e_wo_entrp">    -31.03671481 </i>
    <i name="e_0_energy">    -31.05389306 </i>
   </energy>
  </scstep>
  <scstep>
   <time name="dav">   79.08   79.11</time>
   <time name="total">  100.18  100.21</time>
   <energy>
    <i name="e_fr_energy">    -31.06307403 </i>
    <i name="e_wo_entrp">    -31.02786699 </i>
    <i name="e_0_energy">    -31.04547051 </i>
   </energy>
  </scstep>
  <scstep>
   <time name="dav">   81.82   81.85</time>
   <time name="total">  101.58  101.61</time>
   <energy>
    <i name="e_fr_energy">    -31.05295323 </i>
    <i name="e_wo_entrp">    -31.01784704 </i>
    <i name="e_0_energy">    -31.03540013 </i>
   </energy>
  </scstep>
  <scstep>
   <time name="dav">   80.66   80.68</time>
   <time name="total">  100.04  100.07</time>
   <energy>
    <i name="e_fr_energy">    -31.04685562 </i>
    <i name="e_wo_entrp">    -31.01164623 </i>
    <i name="e_0_energy">    -31.02925093 </i>
   </energy>
  </scstep>
  <scstep>
   <time name="dav">   85.98   86.00</time>
   <time name="total">  105.13  105.16</time>
   <energy>
    <i name="e_fr_energy">    -31.04401589 </i>
    <i name="e_wo_entrp">    -31.00882873 </i>
    <i name="e_0_energy">    -31.02642231 </i>
   </energy>
  </scstep>
  <scstep>
   <time name="dav">   84.37   84.40</time>
   <time name="total">  103.23  103.27</time>
   <energy>
    <i name="e_fr_energy">    -31.04208077 </i>
    <i name="e_wo_entrp">    -31.00693925 </i>
    <i name="e_0_energy">    -31.02451001 </i>
   </energy>
  </scstep>
  <scstep>
   <time name="dav">   80.58   80.61</time>
   <time name="total">   99.98  100.02</time>
   <energy>
    <i name="e_fr_energy">    -31.04138045 </i>
    <i name="e_wo_entrp">    -31.00621302 </i>
    <i name="e_0_energy">    -31.02379674 </i>
   </energy>
  </scstep>
  <scstep>
   <time name="dav">   73.53   73.55</time>
   <time name="total">   93.05   93.07</time>
   <energy>
    <i name="e_fr_energy">    -31.04191898 </i>
    <i name="e_wo_entrp">    -31.00676832 </i>
    <i name="e_0_energy">    -31.02434365 </i>
   </energy>
  </scstep>
  <scstep>
   <time name="dav">   76.06   76.08</time>
   <time name="total">   96.38   96.41</time>
   <energy>
    <i name="e_fr_energy">    -31.04236858 </i>
    <i name="e_wo_entrp">    -31.00721404 </i>
    <i name="e_0_energy">    -31.02479131 </i>
   </energy>
  </scstep>
  <scstep>
   <time name="dav">   71.58   71.60</time>
   <time name="total">   91.10   91.13</time>
   <energy>
    <i name="e_fr_energy">    -31.04248322 </i>
    <i name="e_wo_entrp">    -31.00732852 </i>
    <i name="e_0_energy">    -31.02490587 </i>
   </energy>
  </scstep>
  <scstep>
   <time name="dav">   65.71   65.73</time>
   <time name="total">   84.72   84.75</time>
   <energy>
    <i name="e_fr_energy">    -31.04250041 </i>
    <i name="e_wo_entrp">    -31.00734888 </i>
    <i name="e_0_energy">    -31.02492465 </i>
   </energy>
  </scstep>
  <scstep>
   <time name="dav">   64.67   64.69</time>
   <time name="total">   85.04   85.06</time>
   <energy>
    <i name="e_fr_energy">    -31.04250705 </i>
    <i name="e_wo_entrp">    -31.00735501 </i>
    <i name="e_0_energy">    -31.02493103 </i>
   </energy>
  </scstep>
  <scstep>
   <time name="dav">   69.35   69.37</time>
   <time name="total">   88.54   88.57</time>
   <energy>
    <i name="e_fr_energy">    -31.04250849 </i>
    <i name="e_wo_entrp">    -31.00735540 </i>
    <i name="e_0_energy">    -31.02493194 </i>
   </energy>
  </scstep>
  <scstep>
   <time name="dav">   71.37   71.39</time>
   <time name="total">   90.55   90.57</time>
   <energy>
    <i name="e_fr_energy">    -31.04244989 </i>
    <i name="e_wo_entrp">    -31.00729596 </i>
    <i name="e_0_energy">    -31.02487292 </i>
   </energy>
  </scstep>
  <scstep>
   <time name="dav">   61.86   61.88</time>
   <time name="total">   81.35   81.37</time>
   <energy>
    <i name="e_fr_energy">    -31.04242607 </i>
    <i name="e_wo_entrp">    -31.00727243 </i>
    <i name="e_0_energy">    -31.02484925 </i>
   </energy>
  </scstep>
  <scstep>
   <time name="dav">   66.24   66.26</time>
   <time name="total">   85.83   85.85</time>
   <energy>
    <i name="e_fr_energy">    -31.04241006 </i>
    <i name="e_wo_entrp">    -31.00725638 </i>
    <i name="e_0_energy">    -31.02483322 </i>
   </energy>
  </scstep>
  <scstep>
   <time name="dav">   61.94   61.97</time>
   <time name="total">   81.12   81.16</time>
   <energy>
    <i name="e_fr_energy">    -31.04240817 </i>
    <i name="e_wo_entrp">    -31.00725457 </i>
    <i name="e_0_energy">    -31.02483137 </i>
   </energy>
  </scstep>
  <scstep>
   <time name="dav">   60.02   60.04</time>
   <time name="total">   79.22   79.25</time>
   <energy>
    <i name="e_fr_energy">    -31.04240438 </i>
    <i name="e_wo_entrp">    -31.00725081 </i>
    <i name="e_0_energy">    -31.02482760 </i>
   </energy>
  </scstep>
  <scstep>
   <time name="dav">   60.32   60.34</time>
   <time name="total">   80.08   80.10</time>
   <energy>
    <i name="e_fr_energy">    -31.04240303 </i>
    <i name="e_wo_entrp">    -31.00724944 </i>
    <i name="e_0_energy">    -31.02482624 </i>
   </energy>
  </scstep>
  <scstep>
   <time name="dav">   60.89   60.91</time>
   <time name="total">   80.67   80.69</time>
   <energy>
    <i name="e_fr_energy">    -31.04240198 </i>
    <i name="e_wo_entrp">    -31.00724840 </i>
    <i name="e_0_energy">    -31.02482519 </i>
   </energy>
  </scstep>
  <scstep>
   <time name="dav">   58.43   58.45</time>
   <time name="total">   73.26   73.29</time>
   <energy>
    <i name="alphaZ">     36.80884744 </i>
    <i name="ewald">  12130.11151244 </i>
    <i name="hartreedc"> -15174.60775179 </i>
    <i name="XCdc">    -79.78601541 </i>
    <i name="pawpsdc">   1210.17385900 </i>
    <i name="pawaedc">   -891.00709854 </i>
    <i name="eentropy">     -0.03515358 </i>
    <i name="bandstr">   -616.74186175 </i>
    <i name="atom">   3354.04126044 </i>
    <i name="e_fr_energy">    -31.04240176 </i>
    <i name="e_wo_entrp">    -31.00724818 </i>
    <i name="e_0_energy">    -31.02482497 </i>
   </energy>
  </scstep>
  <structure>
   <crystal>
    <varray name="basis" >
     <v>       3.54040000       0.00000000       0.00000000 </v>
     <v>      -1.77020000      10.29434800       0.00000000 </v>
     <v>       0.00000000       0.00000000      27.50142900 </v>
    </varray>
    <i name="volume">   1002.32009712 </i>
    <varray name="rec_basis" >
     <v>       0.28245396       0.04857034       0.00000000 </v>
     <v>       0.00000000       0.09714068       0.00000000 </v>
     <v>       0.00000000       0.00000000       0.03636175 </v>
    </varray>
   </crystal>
   <varray name="positions" >
    <v>       0.11402300       0.22804500       0.23316207 </v>
    <v>       0.91402300       0.72804500       0.51499159 </v>
    <v>       0.45808900       0.91617900       0.20939482 </v>
    <v>       0.25808900       0.41617900       0.49122434 </v>
    <v>       0.31085400       0.62170900       0.08414979 </v>
    <v>       0.31085400       0.62170900       0.36597930 </v>
    <v>       0.99923000       0.99846000       0.08631254 </v>
    <v>       0.99923000       0.99846000       0.36814206 </v>
    <v>       0.65492700       0.30985400       0.06041748 </v>
    <v>       0.65492700       0.30985400       0.34224700 </v>
    <v>       0.76973800       0.53947500       0.20725292 </v>
    <v>       0.56973800       0.03947500       0.48908244 </v>
    <v>       0.93971600       0.87943300       0.15783749 </v>
    <v>       0.73971600       0.37943300       0.43966701 </v>
    <v>       0.20515200       0.41030300       0.18578822 </v>
    <v>       0.00515200       0.91030300       0.46761774 </v>
    <v>       0.20184900       0.40369900       0.09969156 </v>
    <v>       0.20184900       0.40369900       0.38152107 </v>
    <v>       0.56380500       0.12761000       0.10779021 </v>
    <v>       0.56380500       0.12761000       0.38961973 </v>
    <v>       0.56710600       0.13421200       0.19387616 </v>
    <v>       0.36710600       0.63421200       0.47570568 </v>
    <v>       0.82923400       0.65846800       0.13571444 </v>
    <v>       0.62923400       0.15846800       0.41754396 </v>
   </varray>
  </structure>
  <varray name="forces" >
   <v>      -0.02934110      -0.01904629       0.04828382 </v>
   <v>      -0.01749387       0.02802039      -0.50468840 </v>
   <v>      -0.00135583      -0.01629146       0.08208227 </v>
   <v>       0.14106098       0.59070292       1.86025110 </v>
   <v>      -0.00011002      -0.00470087       0.00800347 </v>
   <v>       0.11457217      -0.39462213       1.29027379 </v>
   <v>      -0.00147558       0.00229750      -0.00272533 </v>
   <v>      -0.52581303      -1.33271075       0.04881321 </v>
   <v>       0.00089241      -0.00049140       0.01965738 </v>
   <v>      -0.22995228      -0.66495868      -2.51240694 </v>
   <v>       0.00006889       0.00420612       0.09497483 </v>
   <v>       0.06475898      -0.50329606       0.61135208 </v>
   <v>       0.00262807       0.00448104       0.01125234 </v>
   <v>      -0.11709397      -0.04563277       1.93662792 </v>
   <v>      -0.00385390       0.00425301       0.04206254 </v>
   <v>      -0.04564625       0.84261838      -0.78972808 </v>
   <v>       0.00043093       0.00335873      -0.02481008 </v>
   <v>       0.18756737       1.88093723      -1.94726923 </v>
   <v>      -0.00575989      -0.01745900      -0.02965284 </v>
   <v>     -55.74175869    -100.27421762    -241.44696780 </v>
   <v>       0.00568695      -0.02029453       0.02406304 </v>
   <v>      -0.08865855      -0.53111271      -1.21298758 </v>
   <v>       0.00102904       0.01589221      -0.00265308 </v>
   <v>      56.28961718     100.44806675     242.39619157 </v>
  </varray>
  <varray name="stress" >
   <v>      12.68380801      30.41306718      70.34807394 </v>
   <v>      30.41306707      50.54593598     127.63814768 </v>
   <v>      70.34807385     127.63814774     302.34270925 </v>
  </varray>
  <energy>
   <i name="e_fr_energy">    -31.04240176 </i>
   <i name="e_wo_entrp">    -31.02482497 </i>
   <i name="e_0_energy">     -0.03515358 </i>
  </energy>
  <time name="totalsc"> 2890.74 2891.71</time>
  <eigenvalues>
   <array>
    <dimension dim="1">band</dimension>
    <dimension dim="2">kpoint</dimension>
    <dimension dim="3">spin</dimension>
    <field>eigene</field>
    <field>occ</field>
    <set>
     <set comment="spin 1">
      <set comment="kpoint 1">
       <r>  -14.0997    1.0000 </r>
       <r>  -13.5171    1.0000 </r>
       <r>  -13.0323    1.0000 </r>
       <r>  -12.8037    1.0000 </r>
       <r>  -12.7755    1.0000 </r>
       <r>  -12.4600    1.0000 </r>
       <r>  -12.0638    1.0000 </r>
       <r>  -11.7366    1.0000 </r>
       <r>  -11.4227    1.0000 </r>
       <r>  -11.4063    1.0000 </r>
       <r>  -10.9676    1.0000 </r>
       <r>  -10.0770    1.0000 </r>
       <r>   -8.5051    1.0000 </r>
       <r>   -8.0049    1.0000 </r>
       <r>   -7.8091    1.0000 </r>
       <r>   -7.7754    1.0000 </r>
       <r>   -7.2796    1.0000 </r>
       <r>   -6.8084    1.0000 </r>
       <r>   -6.4712    1.0000 </r>
       <r>   -6.1641    1.0000 </r>
       <r>   -5.9717    1.0000 </r>
       <r>   -5.8049    1.0000 </r>
       <r>   -5.5689    1.0000 </r>
       <r>   -4.7263    1.0000 </r>
       <r>   -4.6563    1.0000 </r>
       <r>   -4.2643    1.0000 </r>
       <r>   -3.6942    1.0000 </r>
       <r>   -3.5964    1.0000 </r>
       <r>   -3.3700    1.0000 </r>
       <r>   -3.2906    1.0000 </r>
       <r>   -3.0507    1.0000 </r>
       <r>   -3.0329    1.0000 </r>
       <r>   -2.8198    1.0000 </r>
       <r>   -2.6522    1.0000 </r>
       <r>   -2.5971    1.0000 </r>
       <r>   -2.4361    1.0000 </r>
       <r>   -2.3692    1.0000 </r>
       <r>   -2.3276    1.0000 </r>
       <r>   -2.1984    1.0000 </r>
       <r>   -2.1700    1.0000 </r>
       <r>   -2.0385    1.0000 </r>
       <r>   -1.8505    1.0000 </r>
       <r>   -1.7057    1.0000 </r>
       <r>   -1.6218    1.0000 </r>
       <r>   -1.5901    1.0000 </r>
       <r>   -1.5564    1.0000 </r>
       <r>   -1.4797    1.0000 </r>
       <r>   -1.4087    1.0000 </r>
       <r>   -1.2487    1.0000 </r>
       <r>   -1.0503    1.0000 </r>
       <r>   -0.9712    1.0000 </r>
       <r>   -0.5214    1.0000 </r>
       <r>   -0.1661    0.9966 </r>
       <r>    0.0475    0.3749 </r>
       <r>    0.1384    0.0543 </r>
       <r>    0.7631    0.0000 </r>
       <r>    1.1301    0.0000 </r>
       <r>    1.1977    0.0000 </r>
       <r>    1.2800    0.0000 </r>
       <r>    1.3724    0.0000 </r>
       <r>    1.6396    0.0000 </r>
       <r>    1.6940    0.0000 </r>
       <r>    1.8309    0.0000 </r>
       <r>    2.0012    0.0000 </r>
       <r>    2.0699    0.0000 </r>
       <r>    2.2310    0.0000 </r>
       <r>    2.3616    0.0000 </r>
       <r>    2.4544    0.0000 </r>
      </set>
      <set comment="kpoint 2">
       <r>  -14.0434    1.0000 </r>
       <r>  -13.4558    1.0000 </r>
       <r>  -12.9821    1.0000 </r>
       <r>  -12.7417    1.0000 </r>
       <r>  -12.7227    1.0000 </r>
       <r>  -12.4044    1.0000 </r>
       <r>  -12.0016    1.0000 </r>
       <r>  -11.6956    1.0000 </r>
       <r>  -11.3688    1.0000 </r>
       <r>  -11.3548    1.0000 </r>
       <r>  -10.9192    1.0000 </r>
       <r>  -10.0485    1.0000 </r>
       <r>   -8.4807    1.0000 </r>
       <r>   -8.0422    1.0000 </r>
       <r>   -7.7810    1.0000 </r>
       <r>   -7.7536    1.0000 </r>
       <r>   -7.2558    1.0000 </r>
       <r>   -6.7754    1.0000 </r>
       <r>   -6.4654    1.0000 </r>
       <r>   -6.2114    1.0000 </r>
       <r>   -6.0947    1.0000 </r>
       <r>   -5.7711    1.0000 </r>
       <r>   -5.5540    1.0000 </r>
       <r>   -4.7452    1.0000 </r>
       <r>   -4.7099    1.0000 </r>
       <r>   -4.2367    1.0000 </r>
       <r>   -3.8157    1.0000 </r>
       <r>   -3.7283    1.0000 </r>
       <r>   -3.6091    1.0000 </r>
       <r>   -3.4132    1.0000 </r>
       <r>   -3.2682    1.0000 </r>
       <r>   -3.2230    1.0000 </r>
       <r>   -3.1054    1.0000 </r>
       <r>   -3.0400    1.0000 </r>
       <r>   -2.7669    1.0000 </r>
       <r>   -2.7057    1.0000 </r>
       <r>   -2.4938    1.0000 </r>
       <r>   -2.4602    1.0000 </r>
       <r>   -2.3302    1.0000 </r>
       <r>   -2.2439    1.0000 </r>
       <r>   -2.1598    1.0000 </r>
       <r>   -2.0271    1.0000 </r>
       <r>   -1.9416    1.0000 </r>
       <r>   -1.8211    1.0000 </r>
       <r>   -1.8093    1.0000 </r>
       <r>   -1.7287    1.0000 </r>
       <r>   -1.4982    1.0000 </r>
       <r>   -1.4164    1.0000 </r>
       <r>   -1.2004    1.0000 </r>
       <r>   -1.0147    1.0000 </r>
       <r>   -0.9385    1.0000 </r>
       <r>   -0.6064    1.0000 </r>
       <r>   -0.1544    0.9944 </r>
       <r>    0.1008    0.1417 </r>
       <r>    0.4968    0.0000 </r>
       <r>    0.8154    0.0000 </r>
       <r>    0.9993    0.0000 </r>
       <r>    1.4416    0.0000 </r>
       <r>    1.6044    0.0000 </r>
       <r>    1.7873    0.0000 </r>
       <r>    1.8185    0.0000 </r>
       <r>    1.9478    0.0000 </r>
       <r>    2.1364    0.0000 </r>
       <r>    2.1607    0.0000 </r>
       <r>    2.2572    0.0000 </r>
       <r>    2.3349    0.0000 </r>
       <r>    2.5882    0.0000 </r>
       <r>    2.6695    0.0000 </r>
      </set>
      <set comment="kpoint 3">
       <r>  -13.8763    1.0000 </r>
       <r>  -13.2728    1.0000 </r>
       <r>  -12.8308    1.0000 </r>
       <r>  -12.5708    1.0000 </r>
       <r>  -12.5546    1.0000 </r>
       <r>  -12.2397    1.0000 </r>
       <r>  -11.8192    1.0000 </r>
       <r>  -11.5745    1.0000 </r>
       <r>  -11.2217    1.0000 </r>
       <r>  -11.1989    1.0000 </r>
       <r>  -10.7805    1.0000 </r>
       <r>   -9.9724    1.0000 </r>
       <r>   -8.4204    1.0000 </r>
       <r>   -8.1391    1.0000 </r>
       <r>   -7.7765    1.0000 </r>
       <r>   -7.7215    1.0000 </r>
       <r>   -7.1999    1.0000 </r>
       <r>   -6.7001    1.0000 </r>
       <r>   -6.6106    1.0000 </r>
       <r>   -6.4771    1.0000 </r>
       <r>   -6.1083    1.0000 </r>
       <r>   -5.6963    1.0000 </r>
       <r>   -5.5356    1.0000 </r>
       <r>   -5.1582    1.0000 </r>
       <r>   -4.8410    1.0000 </r>
       <r>   -4.4224    1.0000 </r>
       <r>   -4.2220    1.0000 </r>
       <r>   -4.1381    1.0000 </r>
       <r>   -4.0568    1.0000 </r>
       <r>   -3.9371    1.0000 </r>
       <r>   -3.7525    1.0000 </r>
       <r>   -3.6624    1.0000 </r>
       <r>   -3.4210    1.0000 </r>
       <r>   -3.3498    1.0000 </r>
       <r>   -3.1759    1.0000 </r>
       <r>   -3.0992    1.0000 </r>
       <r>   -2.9896    1.0000 </r>
       <r>   -2.9424    1.0000 </r>
       <r>   -2.8165    1.0000 </r>
       <r>   -2.5766    1.0000 </r>
       <r>   -2.3732    1.0000 </r>
       <r>   -2.3444    1.0000 </r>
       <r>   -2.1290    1.0000 </r>
       <r>   -1.9412    1.0000 </r>
       <r>   -1.8056    1.0000 </r>
       <r>   -1.7478    1.0000 </r>
       <r>   -1.6413    1.0000 </r>
       <r>   -1.3289    1.0000 </r>
       <r>   -1.2209    1.0000 </r>
       <r>   -1.0327    1.0000 </r>
       <r>   -0.9690    1.0000 </r>
       <r>   -0.7986    1.0000 </r>
       <r>   -0.2112    0.9996 </r>
       <r>    0.0376    0.4290 </r>
       <r>    0.4621    0.0000 </r>
       <r>    0.6958    0.0000 </r>
       <r>    1.2817    0.0000 </r>
       <r>    1.6262    0.0000 </r>
       <r>    1.8964    0.0000 </r>
       <r>    2.0125    0.0000 </r>
       <r>    2.0946    0.0000 </r>
       <r>    2.2886    0.0000 </r>
       <r>    2.4352    0.0000 </r>
       <r>    2.6058    0.0000 </r>
       <r>    2.6658    0.0000 </r>
       <r>    2.7648    0.0000 </r>
       <r>    2.9379    0.0000 </r>
       <r>    2.9992    0.0000 </r>
      </set>
      <set comment="kpoint 4">
       <r>  -13.6052    1.0000 </r>
       <r>  -12.9718    1.0000 </r>
       <r>  -12.5800    1.0000 </r>
       <r>  -12.3131    1.0000 </r>
       <r>  -12.2651    1.0000 </r>
       <r>  -11.9730    1.0000 </r>
       <r>  -11.5317    1.0000 </r>
       <r>  -11.3851    1.0000 </r>
       <r>  -11.0037    1.0000 </r>
       <r>  -10.9658    1.0000 </r>
       <r>  -10.5776    1.0000 </r>
       <r>   -9.8797    1.0000 </r>
       <r>   -8.3874    1.0000 </r>
       <r>   -8.3255    1.0000 </r>
       <r>   -7.9360    1.0000 </r>
       <r>   -7.7988    1.0000 </r>
       <r>   -7.1788    1.0000 </r>
       <r>   -6.9658    1.0000 </r>
       <r>   -6.6702    1.0000 </r>
       <r>   -6.6107    1.0000 </r>
       <r>   -6.2756    1.0000 </r>
       <r>   -5.9103    1.0000 </r>
       <r>   -5.7165    1.0000 </r>
       <r>   -5.6183    1.0000 </r>
       <r>   -5.3144    1.0000 </r>
       <r>   -4.7901    1.0000 </r>
       <r>   -4.7275    1.0000 </r>
       <r>   -4.5858    1.0000 </r>
       <r>   -4.4955    1.0000 </r>
       <r>   -4.4108    1.0000 </r>
       <r>   -4.2025    1.0000 </r>
       <r>   -4.1608    1.0000 </r>
       <r>   -3.8763    1.0000 </r>
       <r>   -3.7640    1.0000 </r>
       <r>   -3.5656    1.0000 </r>
       <r>   -3.4426    1.0000 </r>
       <r>   -3.1265    1.0000 </r>
       <r>   -3.0131    1.0000 </r>
       <r>   -2.9737    1.0000 </r>
       <r>   -2.7171    1.0000 </r>
       <r>   -2.5581    1.0000 </r>
       <r>   -2.4351    1.0000 </r>
       <r>   -2.4092    1.0000 </r>
       <r>   -1.8913    1.0000 </r>
       <r>   -1.8121    1.0000 </r>
       <r>   -1.7364    1.0000 </r>
       <r>   -1.6896    1.0000 </r>
       <r>   -1.4522    1.0000 </r>
       <r>   -1.3160    1.0000 </r>
       <r>   -1.1142    1.0000 </r>
       <r>   -1.0841    1.0000 </r>
       <r>   -0.8622    1.0000 </r>
       <r>   -0.5554    1.0000 </r>
       <r>   -0.2118    0.9996 </r>
       <r>    0.2168    0.0033 </r>
       <r>    0.5246    0.0000 </r>
       <r>    1.1866    0.0000 </r>
       <r>    1.5901    0.0000 </r>
       <r>    1.8007    0.0000 </r>
       <r>    1.9191    0.0000 </r>
       <r>    2.0537    0.0000 </r>
       <r>    2.2708    0.0000 </r>
       <r>    2.3669    0.0000 </r>
       <r>    2.5175    0.0000 </r>
       <r>    2.7056    0.0000 </r>
       <r>    2.7942    0.0000 </r>
       <r>    2.9196    0.0000 </r>
       <r>    2.9713    0.0000 </r>
      </set>
      <set comment="kpoint 5">
       <r>  -13.2457    1.0000 </r>
       <r>  -12.5601    1.0000 </r>
       <r>  -12.2381    1.0000 </r>
       <r>  -11.9646    1.0000 </r>
       <r>  -11.8922    1.0000 </r>
       <r>  -11.6215    1.0000 </r>
       <r>  -11.1827    1.0000 </r>
       <r>  -11.1559    1.0000 </r>
       <r>  -10.7601    1.0000 </r>
       <r>  -10.7433    1.0000 </r>
       <r>  -10.3921    1.0000 </r>
       <r>   -9.8204    1.0000 </r>
       <r>   -8.6314    1.0000 </r>
       <r>   -8.4932    1.0000 </r>
       <r>   -8.2105    1.0000 </r>
       <r>   -8.0605    1.0000 </r>
       <r>   -7.4001    1.0000 </r>
       <r>   -7.0787    1.0000 </r>
       <r>   -6.9727    1.0000 </r>
       <r>   -6.8749    1.0000 </r>
       <r>   -6.8676    1.0000 </r>
       <r>   -6.2665    1.0000 </r>
       <r>   -6.1358    1.0000 </r>
       <r>   -5.9440    1.0000 </r>
       <r>   -5.8700    1.0000 </r>
       <r>   -5.1984    1.0000 </r>
       <r>   -5.1463    1.0000 </r>
       <r>   -4.7708    1.0000 </r>
       <r>   -4.6914    1.0000 </r>
       <r>   -4.6510    1.0000 </r>
       <r>   -4.5078    1.0000 </r>
       <r>   -4.2902    1.0000 </r>
       <r>   -4.1969    1.0000 </r>
       <r>   -3.9461    1.0000 </r>
       <r>   -3.6026    1.0000 </r>
       <r>   -3.3661    1.0000 </r>
       <r>   -3.2255    1.0000 </r>
       <r>   -3.0611    1.0000 </r>
       <r>   -2.9437    1.0000 </r>
       <r>   -2.8531    1.0000 </r>
       <r>   -2.7241    1.0000 </r>
       <r>   -2.5662    1.0000 </r>
       <r>   -2.4015    1.0000 </r>
       <r>   -2.0483    1.0000 </r>
       <r>   -1.8869    1.0000 </r>
       <r>   -1.8619    1.0000 </r>
       <r>   -1.7058    1.0000 </r>
       <r>   -1.6402    1.0000 </r>
       <r>   -1.5305    1.0000 </r>
       <r>   -1.2920    1.0000 </r>
       <r>   -1.2031    1.0000 </r>
       <r>   -0.9942    1.0000 </r>
       <r>   -0.8165    1.0000 </r>
       <r>   -0.3317    1.0000 </r>
       <r>   -0.0517    0.8609 </r>
       <r>    0.4600    0.0000 </r>
       <r>    1.1038    0.0000 </r>
       <r>    1.3499    0.0000 </r>
       <r>    1.5983    0.0000 </r>
       <r>    1.6401    0.0000 </r>
       <r>    1.8183    0.0000 </r>
       <r>    1.9905    0.0000 </r>
       <r>    2.1551    0.0000 </r>
       <r>    2.2849    0.0000 </r>
       <r>    2.3961    0.0000 </r>
       <r>    2.6237    0.0000 </r>
       <r>    2.7219    0.0000 </r>
       <r>    2.8475    0.0000 </r>
      </set>
      <set comment="kpoint 6">
       <r>  -12.8361    1.0000 </r>
       <r>  -12.0518    1.0000 </r>
       <r>  -11.8278    1.0000 </r>
       <r>  -11.5454    1.0000 </r>
       <r>  -11.5031    1.0000 </r>
       <r>  -11.2244    1.0000 </r>
       <r>  -11.0055    1.0000 </r>
       <r>  -10.8280    1.0000 </r>
       <r>  -10.7242    1.0000 </r>
       <r>  -10.6037    1.0000 </r>
       <r>  -10.4324    1.0000 </r>
       <r>   -9.7768    1.0000 </r>
       <r>   -8.8073    1.0000 </r>
       <r>   -8.6425    1.0000 </r>
       <r>   -8.4687    1.0000 </r>
       <r>   -8.3523    1.0000 </r>
       <r>   -7.8501    1.0000 </r>
       <r>   -7.4455    1.0000 </r>
       <r>   -7.4334    1.0000 </r>
       <r>   -7.3894    1.0000 </r>
       <r>   -7.0267    1.0000 </r>
       <r>   -6.7356    1.0000 </r>
       <r>   -6.6682    1.0000 </r>
       <r>   -6.6379    1.0000 </r>
       <r>   -5.9420    1.0000 </r>
       <r>   -5.4660    1.0000 </r>
       <r>   -5.1869    1.0000 </r>
       <r>   -4.9474    1.0000 </r>
       <r>   -4.6036    1.0000 </r>
       <r>   -4.5034    1.0000 </r>
       <r>   -4.3172    1.0000 </r>
       <r>   -4.2020    1.0000 </r>
       <r>   -4.0705    1.0000 </r>
       <r>   -3.8803    1.0000 </r>
       <r>   -3.6978    1.0000 </r>
       <r>   -3.6257    1.0000 </r>
       <r>   -3.3190    1.0000 </r>
       <r>   -3.2442    1.0000 </r>
       <r>   -3.1388    1.0000 </r>
       <r>   -2.8210    1.0000 </r>
       <r>   -2.7393    1.0000 </r>
       <r>   -2.4899    1.0000 </r>
       <r>   -2.4038    1.0000 </r>
       <r>   -2.2660    1.0000 </r>
       <r>   -2.1240    1.0000 </r>
       <r>   -2.0068    1.0000 </r>
       <r>   -1.8668    1.0000 </r>
       <r>   -1.7814    1.0000 </r>
       <r>   -1.7527    1.0000 </r>
       <r>   -1.4144    1.0000 </r>
       <r>   -1.3784    1.0000 </r>
       <r>   -1.1600    1.0000 </r>
       <r>   -0.8228    1.0000 </r>
       <r>   -0.4001    1.0000 </r>
       <r>   -0.0796    0.9304 </r>
       <r>    0.4122    0.0000 </r>
       <r>    0.9848    0.0000 </r>
       <r>    1.1612    0.0000 </r>
       <r>    1.3697    0.0000 </r>
       <r>    1.4415    0.0000 </r>
       <r>    1.7293    0.0000 </r>
       <r>    1.7500    0.0000 </r>
       <r>    1.9796    0.0000 </r>
       <r>    2.0884    0.0000 </r>
       <r>    2.2789    0.0000 </r>
       <r>    2.3230    0.0000 </r>
       <r>    2.3395    0.0000 </r>
       <r>    2.7377    0.0000 </r>
      </set>
      <set comment="kpoint 7">
       <r>  -12.4927    1.0000 </r>
       <r>  -11.4784    1.0000 </r>
       <r>  -11.4141    1.0000 </r>
       <r>  -11.2938    1.0000 </r>
       <r>  -11.1226    1.0000 </r>
       <r>  -11.0401    1.0000 </r>
       <r>  -10.9266    1.0000 </r>
       <r>  -10.8429    1.0000 </r>
       <r>  -10.8194    1.0000 </r>
       <r>  -10.7049    1.0000 </r>
       <r>  -10.6131    1.0000 </r>
       <r>   -9.7301    1.0000 </r>
       <r>   -8.7598    1.0000 </r>
       <r>   -8.6648    1.0000 </r>
       <r>   -8.4884    1.0000 </r>
       <r>   -8.4124    1.0000 </r>
       <r>   -8.2185    1.0000 </r>
       <r>   -8.0553    1.0000 </r>
       <r>   -7.7059    1.0000 </r>
       <r>   -7.5478    1.0000 </r>
       <r>   -7.3414    1.0000 </r>
       <r>   -7.2606    1.0000 </r>
       <r>   -7.1552    1.0000 </r>
       <r>   -6.7231    1.0000 </r>
       <r>   -5.9316    1.0000 </r>
       <r>   -5.6323    1.0000 </r>
       <r>   -4.9218    1.0000 </r>
       <r>   -4.8206    1.0000 </r>
       <r>   -4.4955    1.0000 </r>
       <r>   -4.3835    1.0000 </r>
       <r>   -4.2282    1.0000 </r>
       <r>   -4.0408    1.0000 </r>
       <r>   -3.9316    1.0000 </r>
       <r>   -3.9010    1.0000 </r>
       <r>   -3.8044    1.0000 </r>
       <r>   -3.6403    1.0000 </r>
       <r>   -3.5507    1.0000 </r>
       <r>   -3.2922    1.0000 </r>
       <r>   -3.2308    1.0000 </r>
       <r>   -2.9868    1.0000 </r>
       <r>   -2.6942    1.0000 </r>
       <r>   -2.6796    1.0000 </r>
       <r>   -2.5650    1.0000 </r>
       <r>   -2.3297    1.0000 </r>
       <r>   -2.1810    1.0000 </r>
       <r>   -2.0921    1.0000 </r>
       <r>   -2.0107    1.0000 </r>
       <r>   -1.8304    1.0000 </r>
       <r>   -1.6973    1.0000 </r>
       <r>   -1.5865    1.0000 </r>
       <r>   -1.4809    1.0000 </r>
       <r>   -1.1866    1.0000 </r>
       <r>   -0.8188    1.0000 </r>
       <r>   -0.4419    1.0000 </r>
       <r>   -0.0406    0.8230 </r>
       <r>    0.4233    0.0000 </r>
       <r>    0.7953    0.0000 </r>
       <r>    1.1195    0.0000 </r>
       <r>    1.2489    0.0000 </r>
       <r>    1.4028    0.0000 </r>
       <r>    1.6072    0.0000 </r>
       <r>    1.6866    0.0000 </r>
       <r>    1.8652    0.0000 </r>
       <r>    1.9440    0.0000 </r>
       <r>    2.0786    0.0000 </r>
       <r>    2.1339    0.0000 </r>
       <r>    2.4124    0.0000 </r>
       <r>    2.5098    0.0000 </r>
      </set>
      <set comment="kpoint 8">
       <r>  -14.0893    1.0000 </r>
       <r>  -13.4618    1.0000 </r>
       <r>  -13.1527    1.0000 </r>
       <r>  -12.9507    1.0000 </r>
       <r>  -12.6257    1.0000 </r>
       <r>  -12.4569    1.0000 </r>
       <r>  -11.9384    1.0000 </r>
       <r>  -11.8460    1.0000 </r>
       <r>  -11.4558    1.0000 </r>
       <r>  -11.2550    1.0000 </r>
       <r>  -10.9766    1.0000 </r>
       <r>  -10.0556    1.0000 </r>
       <r>   -8.7074    1.0000 </r>
       <r>   -8.4887    1.0000 </r>
       <r>   -7.6980    1.0000 </r>
       <r>   -7.3749    1.0000 </r>
       <r>   -7.1983    1.0000 </r>
       <r>   -6.6478    1.0000 </r>
       <r>   -6.5814    1.0000 </r>
       <r>   -6.1299    1.0000 </r>
       <r>   -5.9701    1.0000 </r>
       <r>   -5.7274    1.0000 </r>
       <r>   -5.5887    1.0000 </r>
       <r>   -4.6283    1.0000 </r>
       <r>   -4.5333    1.0000 </r>
       <r>   -4.1759    1.0000 </r>
       <r>   -3.9960    1.0000 </r>
       <r>   -3.5905    1.0000 </r>
       <r>   -3.4200    1.0000 </r>
       <r>   -3.3096    1.0000 </r>
       <r>   -3.2189    1.0000 </r>
       <r>   -3.1042    1.0000 </r>
       <r>   -2.9237    1.0000 </r>
       <r>   -2.7139    1.0000 </r>
       <r>   -2.6847    1.0000 </r>
       <r>   -2.4123    1.0000 </r>
       <r>   -2.3700    1.0000 </r>
       <r>   -2.3176    1.0000 </r>
       <r>   -2.1680    1.0000 </r>
       <r>   -2.0755    1.0000 </r>
       <r>   -1.9540    1.0000 </r>
       <r>   -1.8855    1.0000 </r>
       <r>   -1.8589    1.0000 </r>
       <r>   -1.6376    1.0000 </r>
       <r>   -1.6047    1.0000 </r>
       <r>   -1.5199    1.0000 </r>
       <r>   -1.3821    1.0000 </r>
       <r>   -1.3391    1.0000 </r>
       <r>   -1.1881    1.0000 </r>
       <r>   -1.0532    1.0000 </r>
       <r>   -0.9409    1.0000 </r>
       <r>   -0.5435    1.0000 </r>
       <r>   -0.0954    0.9556 </r>
       <r>    0.0635    0.2927 </r>
       <r>    0.1245    0.0796 </r>
       <r>    0.6700    0.0000 </r>
       <r>    1.1445    0.0000 </r>
       <r>    1.2138    0.0000 </r>
       <r>    1.3077    0.0000 </r>
       <r>    1.4238    0.0000 </r>
       <r>    1.7026    0.0000 </r>
       <r>    1.7362    0.0000 </r>
       <r>    1.7964    0.0000 </r>
       <r>    1.9315    0.0000 </r>
       <r>    2.1721    0.0000 </r>
       <r>    2.2876    0.0000 </r>
       <r>    2.3323    0.0000 </r>
       <r>    2.5520    0.0000 </r>
      </set>
      <set comment="kpoint 9">
       <r>  -14.0308    1.0000 </r>
       <r>  -13.3849    1.0000 </r>
       <r>  -13.1158    1.0000 </r>
       <r>  -12.9316    1.0000 </r>
       <r>  -12.5339    1.0000 </r>
       <r>  -12.3989    1.0000 </r>
       <r>  -11.9275    1.0000 </r>
       <r>  -11.7475    1.0000 </r>
       <r>  -11.4145    1.0000 </r>
       <r>  -11.1786    1.0000 </r>
       <r>  -10.9324    1.0000 </r>
       <r>  -10.0236    1.0000 </r>
       <r>   -8.7158    1.0000 </r>
       <r>   -8.5470    1.0000 </r>
       <r>   -7.6707    1.0000 </r>
       <r>   -7.3319    1.0000 </r>
       <r>   -7.1619    1.0000 </r>
       <r>   -6.6561    1.0000 </r>
       <r>   -6.5090    1.0000 </r>
       <r>   -6.1954    1.0000 </r>
       <r>   -6.0697    1.0000 </r>
       <r>   -5.6785    1.0000 </r>
       <r>   -5.5782    1.0000 </r>
       <r>   -4.6716    1.0000 </r>
       <r>   -4.5790    1.0000 </r>
       <r>   -4.1874    1.0000 </r>
       <r>   -4.0523    1.0000 </r>
       <r>   -3.7519    1.0000 </r>
       <r>   -3.6143    1.0000 </r>
       <r>   -3.5082    1.0000 </r>
       <r>   -3.3886    1.0000 </r>
       <r>   -3.3467    1.0000 </r>
       <r>   -3.1112    1.0000 </r>
       <r>   -3.0059    1.0000 </r>
       <r>   -2.9290    1.0000 </r>
       <r>   -2.6716    1.0000 </r>
       <r>   -2.4937    1.0000 </r>
       <r>   -2.4436    1.0000 </r>
       <r>   -2.3493    1.0000 </r>
       <r>   -2.2782    1.0000 </r>
       <r>   -2.1450    1.0000 </r>
       <r>   -2.0286    1.0000 </r>
       <r>   -1.9889    1.0000 </r>
       <r>   -1.8281    1.0000 </r>
       <r>   -1.7715    1.0000 </r>
       <r>   -1.7207    1.0000 </r>
       <r>   -1.4213    1.0000 </r>
       <r>   -1.3194    1.0000 </r>
       <r>   -1.1378    1.0000 </r>
       <r>   -1.0300    1.0000 </r>
       <r>   -0.9072    1.0000 </r>
       <r>   -0.6903    1.0000 </r>
       <r>   -0.1135    0.9749 </r>
       <r>    0.1695    0.0205 </r>
       <r>    0.4909    0.0000 </r>
       <r>    0.7317    0.0000 </r>
       <r>    1.0107    0.0000 </r>
       <r>    1.4759    0.0000 </r>
       <r>    1.6164    0.0000 </r>
       <r>    1.8161    0.0000 </r>
       <r>    1.8498    0.0000 </r>
       <r>    1.9416    0.0000 </r>
       <r>    2.0599    0.0000 </r>
       <r>    2.1309    0.0000 </r>
       <r>    2.2901    0.0000 </r>
       <r>    2.4872    0.0000 </r>
       <r>    2.6094    0.0000 </r>
       <r>    2.6901    0.0000 </r>
      </set>
      <set comment="kpoint 10">
       <r>  -13.8627    1.0000 </r>
       <r>  -13.1884    1.0000 </r>
       <r>  -12.9633    1.0000 </r>
       <r>  -12.7951    1.0000 </r>
       <r>  -12.3395    1.0000 </r>
       <r>  -12.2315    1.0000 </r>
       <r>  -11.8160    1.0000 </r>
       <r>  -11.5497    1.0000 </r>
       <r>  -11.2752    1.0000 </r>
       <r>  -11.0189    1.0000 </r>
       <r>  -10.7913    1.0000 </r>
       <r>   -9.9483    1.0000 </r>
       <r>   -8.6701    1.0000 </r>
       <r>   -8.6077    1.0000 </r>
       <r>   -7.6475    1.0000 </r>
       <r>   -7.2986    1.0000 </r>
       <r>   -7.1428    1.0000 </r>
       <r>   -6.6346    1.0000 </r>
       <r>   -6.5855    1.0000 </r>
       <r>   -6.4749    1.0000 </r>
       <r>   -6.1018    1.0000 </r>
       <r>   -5.6291    1.0000 </r>
       <r>   -5.5521    1.0000 </r>
       <r>   -5.0635    1.0000 </r>
       <r>   -4.8193    1.0000 </r>
       <r>   -4.4441    1.0000 </r>
       <r>   -4.3546    1.0000 </r>
       <r>   -4.2755    1.0000 </r>
       <r>   -4.0843    1.0000 </r>
       <r>   -3.9469    1.0000 </r>
       <r>   -3.7700    1.0000 </r>
       <r>   -3.6126    1.0000 </r>
       <r>   -3.5710    1.0000 </r>
       <r>   -3.3118    1.0000 </r>
       <r>   -3.1008    1.0000 </r>
       <r>   -2.9838    1.0000 </r>
       <r>   -2.9411    1.0000 </r>
       <r>   -2.8739    1.0000 </r>
       <r>   -2.7885    1.0000 </r>
       <r>   -2.6920    1.0000 </r>
       <r>   -2.5726    1.0000 </r>
       <r>   -2.2986    1.0000 </r>
       <r>   -2.2614    1.0000 </r>
       <r>   -1.9567    1.0000 </r>
       <r>   -1.8694    1.0000 </r>
       <r>   -1.6800    1.0000 </r>
       <r>   -1.4823    1.0000 </r>
       <r>   -1.2728    1.0000 </r>
       <r>   -1.1884    1.0000 </r>
       <r>   -1.0788    1.0000 </r>
       <r>   -0.9571    1.0000 </r>
       <r>   -0.8763    1.0000 </r>
       <r>   -0.2276    0.9998 </r>
       <r>    0.1042    0.1313 </r>
       <r>    0.4754    0.0000 </r>
       <r>    0.6878    0.0000 </r>
       <r>    1.3413    0.0000 </r>
       <r>    1.6075    0.0000 </r>
       <r>    1.6935    0.0000 </r>
       <r>    1.7949    0.0000 </r>
       <r>    2.1129    0.0000 </r>
       <r>    2.1588    0.0000 </r>
       <r>    2.3669    0.0000 </r>
       <r>    2.6858    0.0000 </r>
       <r>    2.7760    0.0000 </r>
       <r>    2.8618    0.0000 </r>
       <r>    3.0007    0.0000 </r>
       <r>    3.1116    0.0000 </r>
      </set>
      <set comment="kpoint 11">
       <r>  -13.5922    1.0000 </r>
       <r>  -12.8770    1.0000 </r>
       <r>  -12.6992    1.0000 </r>
       <r>  -12.5437    1.0000 </r>
       <r>  -12.0565    1.0000 </r>
       <r>  -11.9632    1.0000 </r>
       <r>  -11.6113    1.0000 </r>
       <r>  -11.2730    1.0000 </r>
       <r>  -11.0535    1.0000 </r>
       <r>  -10.8102    1.0000 </r>
       <r>  -10.5742    1.0000 </r>
       <r>   -9.8620    1.0000 </r>
       <r>   -8.7497    1.0000 </r>
       <r>   -8.5877    1.0000 </r>
       <r>   -7.7969    1.0000 </r>
       <r>   -7.3772    1.0000 </r>
       <r>   -7.2356    1.0000 </r>
       <r>   -6.8854    1.0000 </r>
       <r>   -6.6733    1.0000 </r>
       <r>   -6.6205    1.0000 </r>
       <r>   -6.2922    1.0000 </r>
       <r>   -5.8593    1.0000 </r>
       <r>   -5.7884    1.0000 </r>
       <r>   -5.6111    1.0000 </r>
       <r>   -5.1854    1.0000 </r>
       <r>   -5.0059    1.0000 </r>
       <r>   -4.8195    1.0000 </r>
       <r>   -4.6454    1.0000 </r>
       <r>   -4.5329    1.0000 </r>
       <r>   -4.3907    1.0000 </r>
       <r>   -4.3351    1.0000 </r>
       <r>   -3.9963    1.0000 </r>
       <r>   -3.7392    1.0000 </r>
       <r>   -3.6623    1.0000 </r>
       <r>   -3.4733    1.0000 </r>
       <r>   -3.1900    1.0000 </r>
       <r>   -3.1465    1.0000 </r>
       <r>   -3.0691    1.0000 </r>
       <r>   -3.0412    1.0000 </r>
       <r>   -2.8109    1.0000 </r>
       <r>   -2.5773    1.0000 </r>
       <r>   -2.5029    1.0000 </r>
       <r>   -2.2721    1.0000 </r>
       <r>   -1.9704    1.0000 </r>
       <r>   -1.8978    1.0000 </r>
       <r>   -1.7538    1.0000 </r>
       <r>   -1.6723    1.0000 </r>
       <r>   -1.3950    1.0000 </r>
       <r>   -1.3519    1.0000 </r>
       <r>   -1.1579    1.0000 </r>
       <r>   -1.0583    1.0000 </r>
       <r>   -0.9453    1.0000 </r>
       <r>   -0.6031    1.0000 </r>
       <r>   -0.1594    0.9954 </r>
       <r>    0.2698    0.0003 </r>
       <r>    0.5433    0.0000 </r>
       <r>    1.2272    0.0000 </r>
       <r>    1.4631    0.0000 </r>
       <r>    1.5754    0.0000 </r>
       <r>    1.6464    0.0000 </r>
       <r>    1.7147    0.0000 </r>
       <r>    2.1279    0.0000 </r>
       <r>    2.2676    0.0000 </r>
       <r>    2.5781    0.0000 </r>
       <r>    2.7213    0.0000 </r>
       <r>    2.8306    0.0000 </r>
       <r>    2.9482    0.0000 </r>
       <r>    3.0621    0.0000 </r>
      </set>
      <set comment="kpoint 12">
       <r>  -13.2350    1.0000 </r>
       <r>  -12.4604    1.0000 </r>
       <r>  -12.3333    1.0000 </r>
       <r>  -12.1846    1.0000 </r>
       <r>  -11.7182    1.0000 </r>
       <r>  -11.6136    1.0000 </r>
       <r>  -11.3355    1.0000 </r>
       <r>  -10.9592    1.0000 </r>
       <r>  -10.7900    1.0000 </r>
       <r>  -10.6522    1.0000 </r>
       <r>  -10.3688    1.0000 </r>
       <r>   -9.8071    1.0000 </r>
       <r>   -8.9474    1.0000 </r>
       <r>   -8.5627    1.0000 </r>
       <r>   -8.1595    1.0000 </r>
       <r>   -7.6865    1.0000 </r>
       <r>   -7.4965    1.0000 </r>
       <r>   -7.0938    1.0000 </r>
       <r>   -7.0755    1.0000 </r>
       <r>   -6.9386    1.0000 </r>
       <r>   -6.7003    1.0000 </r>
       <r>   -6.3605    1.0000 </r>
       <r>   -6.1655    1.0000 </r>
       <r>   -5.8985    1.0000 </r>
       <r>   -5.8516    1.0000 </r>
       <r>   -5.3580    1.0000 </r>
       <r>   -5.2355    1.0000 </r>
       <r>   -4.9167    1.0000 </r>
       <r>   -4.7777    1.0000 </r>
       <r>   -4.4577    1.0000 </r>
       <r>   -4.3898    1.0000 </r>
       <r>   -4.2951    1.0000 </r>
       <r>   -3.9887    1.0000 </r>
       <r>   -3.8376    1.0000 </r>
       <r>   -3.4778    1.0000 </r>
       <r>   -3.3145    1.0000 </r>
       <r>   -3.2228    1.0000 </r>
       <r>   -2.9866    1.0000 </r>
       <r>   -2.8811    1.0000 </r>
       <r>   -2.8612    1.0000 </r>
       <r>   -2.7755    1.0000 </r>
       <r>   -2.4743    1.0000 </r>
       <r>   -2.3303    1.0000 </r>
       <r>   -2.2565    1.0000 </r>
       <r>   -1.9470    1.0000 </r>
       <r>   -1.8779    1.0000 </r>
       <r>   -1.7818    1.0000 </r>
       <r>   -1.7118    1.0000 </r>
       <r>   -1.5718    1.0000 </r>
       <r>   -1.2850    1.0000 </r>
       <r>   -1.1886    1.0000 </r>
       <r>   -1.0472    1.0000 </r>
       <r>   -0.8815    1.0000 </r>
       <r>   -0.3760    1.0000 </r>
       <r>    0.0036    0.6186 </r>
       <r>    0.5485    0.0000 </r>
       <r>    1.0902    0.0000 </r>
       <r>    1.2558    0.0000 </r>
       <r>    1.3010    0.0000 </r>
       <r>    1.3920    0.0000 </r>
       <r>    1.4871    0.0000 </r>
       <r>    1.8251    0.0000 </r>
       <r>    2.1844    0.0000 </r>
       <r>    2.3098    0.0000 </r>
       <r>    2.4714    0.0000 </r>
       <r>    2.5729    0.0000 </r>
       <r>    2.6495    0.0000 </r>
       <r>    2.9228    0.0000 </r>
      </set>
      <set comment="kpoint 13">
       <r>  -12.8297    1.0000 </r>
       <r>  -11.9570    1.0000 </r>
       <r>  -11.8874    1.0000 </r>
       <r>  -11.7345    1.0000 </r>
       <r>  -11.4106    1.0000 </r>
       <r>  -11.2224    1.0000 </r>
       <r>  -11.0568    1.0000 </r>
       <r>  -10.7209    1.0000 </r>
       <r>  -10.7004    1.0000 </r>
       <r>  -10.5793    1.0000 </r>
       <r>  -10.4450    1.0000 </r>
       <r>   -9.7651    1.0000 </r>
       <r>   -8.9378    1.0000 </r>
       <r>   -8.5923    1.0000 </r>
       <r>   -8.4670    1.0000 </r>
       <r>   -8.0894    1.0000 </r>
       <r>   -7.9788    1.0000 </r>
       <r>   -7.7555    1.0000 </r>
       <r>   -7.3382    1.0000 </r>
       <r>   -7.2420    1.0000 </r>
       <r>   -7.0551    1.0000 </r>
       <r>   -6.8179    1.0000 </r>
       <r>   -6.6730    1.0000 </r>
       <r>   -6.6339    1.0000 </r>
       <r>   -5.9341    1.0000 </r>
       <r>   -5.4991    1.0000 </r>
       <r>   -5.3171    1.0000 </r>
       <r>   -4.9299    1.0000 </r>
       <r>   -4.7620    1.0000 </r>
       <r>   -4.4320    1.0000 </r>
       <r>   -4.3117    1.0000 </r>
       <r>   -4.0946    1.0000 </r>
       <r>   -3.8509    1.0000 </r>
       <r>   -3.8270    1.0000 </r>
       <r>   -3.6205    1.0000 </r>
       <r>   -3.3289    1.0000 </r>
       <r>   -3.3142    1.0000 </r>
       <r>   -3.2519    1.0000 </r>
       <r>   -3.0974    1.0000 </r>
       <r>   -2.9075    1.0000 </r>
       <r>   -2.7087    1.0000 </r>
       <r>   -2.6125    1.0000 </r>
       <r>   -2.3971    1.0000 </r>
       <r>   -2.2738    1.0000 </r>
       <r>   -2.1683    1.0000 </r>
       <r>   -2.0534    1.0000 </r>
       <r>   -1.9365    1.0000 </r>
       <r>   -1.8516    1.0000 </r>
       <r>   -1.7324    1.0000 </r>
       <r>   -1.4546    1.0000 </r>
       <r>   -1.4091    1.0000 </r>
       <r>   -1.1650    1.0000 </r>
       <r>   -0.8267    1.0000 </r>
       <r>   -0.4883    1.0000 </r>
       <r>   -0.0752    0.9217 </r>
       <r>    0.4644    0.0000 </r>
       <r>    0.9883    0.0000 </r>
       <r>    1.1478    0.0000 </r>
       <r>    1.2258    0.0000 </r>
       <r>    1.3154    0.0000 </r>
       <r>    1.3695    0.0000 </r>
       <r>    1.7198    0.0000 </r>
       <r>    1.8460    0.0000 </r>
       <r>    2.0675    0.0000 </r>
       <r>    2.1889    0.0000 </r>
       <r>    2.3230    0.0000 </r>
       <r>    2.5992    0.0000 </r>
       <r>    2.7043    0.0000 </r>
      </set>
      <set comment="kpoint 14">
       <r>  -12.4911    1.0000 </r>
       <r>  -11.4157    1.0000 </r>
       <r>  -11.4075    1.0000 </r>
       <r>  -11.2980    1.0000 </r>
       <r>  -11.2391    1.0000 </r>
       <r>  -11.0650    1.0000 </r>
       <r>  -10.9381    1.0000 </r>
       <r>  -10.8415    1.0000 </r>
       <r>  -10.8081    1.0000 </r>
       <r>  -10.6753    1.0000 </r>
       <r>  -10.5589    1.0000 </r>
       <r>   -9.7359    1.0000 </r>
       <r>   -8.7767    1.0000 </r>
       <r>   -8.5316    1.0000 </r>
       <r>   -8.4768    1.0000 </r>
       <r>   -8.3734    1.0000 </r>
       <r>   -8.3057    1.0000 </r>
       <r>   -8.1958    1.0000 </r>
       <r>   -7.6315    1.0000 </r>
       <r>   -7.4938    1.0000 </r>
       <r>   -7.4306    1.0000 </r>
       <r>   -7.2910    1.0000 </r>
       <r>   -7.1152    1.0000 </r>
       <r>   -6.7448    1.0000 </r>
       <r>   -5.9337    1.0000 </r>
       <r>   -5.6436    1.0000 </r>
       <r>   -5.0015    1.0000 </r>
       <r>   -4.7712    1.0000 </r>
       <r>   -4.4956    1.0000 </r>
       <r>   -4.4277    1.0000 </r>
       <r>   -4.1679    1.0000 </r>
       <r>   -4.0976    1.0000 </r>
       <r>   -3.9134    1.0000 </r>
       <r>   -3.9000    1.0000 </r>
       <r>   -3.6357    1.0000 </r>
       <r>   -3.5955    1.0000 </r>
       <r>   -3.4726    1.0000 </r>
       <r>   -3.3173    1.0000 </r>
       <r>   -3.2343    1.0000 </r>
       <r>   -2.9714    1.0000 </r>
       <r>   -2.6641    1.0000 </r>
       <r>   -2.6360    1.0000 </r>
       <r>   -2.5831    1.0000 </r>
       <r>   -2.5199    1.0000 </r>
       <r>   -2.1560    1.0000 </r>
       <r>   -2.1057    1.0000 </r>
       <r>   -2.0476    1.0000 </r>
       <r>   -1.8374    1.0000 </r>
       <r>   -1.6716    1.0000 </r>
       <r>   -1.5824    1.0000 </r>
       <r>   -1.4954    1.0000 </r>
       <r>   -1.2055    1.0000 </r>
       <r>   -0.8173    1.0000 </r>
       <r>   -0.4731    1.0000 </r>
       <r>   -0.0266    0.7670 </r>
       <r>    0.3888    0.0000 </r>
       <r>    0.7959    0.0000 </r>
       <r>    1.1175    0.0000 </r>
       <r>    1.2331    0.0000 </r>
       <r>    1.4488    0.0000 </r>
       <r>    1.5372    0.0000 </r>
       <r>    1.5924    0.0000 </r>
       <r>    1.7867    0.0000 </r>
       <r>    1.8903    0.0000 </r>
       <r>    2.0663    0.0000 </r>
       <r>    2.2122    0.0000 </r>
       <r>    2.4132    0.0000 </r>
       <r>    2.4991    0.0000 </r>
      </set>
      <set comment="kpoint 15">
       <r>  -12.4939    1.0000 </r>
       <r>  -11.5120    1.0000 </r>
       <r>  -11.4335    1.0000 </r>
       <r>  -11.2430    1.0000 </r>
       <r>  -11.0580    1.0000 </r>
       <r>  -11.0460    1.0000 </r>
       <r>  -10.9138    1.0000 </r>
       <r>  -10.8569    1.0000 </r>
       <r>  -10.7850    1.0000 </r>
       <r>  -10.7331    1.0000 </r>
       <r>  -10.6808    1.0000 </r>
       <r>   -9.7247    1.0000 </r>
       <r>   -8.7662    1.0000 </r>
       <r>   -8.7311    1.0000 </r>
       <r>   -8.5012    1.0000 </r>
       <r>   -8.4086    1.0000 </r>
       <r>   -8.1980    1.0000 </r>
       <r>   -7.9207    1.0000 </r>
       <r>   -7.7503    1.0000 </r>
       <r>   -7.5809    1.0000 </r>
       <r>   -7.2950    1.0000 </r>
       <r>   -7.2554    1.0000 </r>
       <r>   -7.1925    1.0000 </r>
       <r>   -6.7199    1.0000 </r>
       <r>   -5.8829    1.0000 </r>
       <r>   -5.6699    1.0000 </r>
       <r>   -4.8957    1.0000 </r>
       <r>   -4.6883    1.0000 </r>
       <r>   -4.5515    1.0000 </r>
       <r>   -4.3935    1.0000 </r>
       <r>   -4.3048    1.0000 </r>
       <r>   -4.0121    1.0000 </r>
       <r>   -3.9717    1.0000 </r>
       <r>   -3.9094    1.0000 </r>
       <r>   -3.8595    1.0000 </r>
       <r>   -3.6744    1.0000 </r>
       <r>   -3.6172    1.0000 </r>
       <r>   -3.3330    1.0000 </r>
       <r>   -3.2708    1.0000 </r>
       <r>   -2.8059    1.0000 </r>
       <r>   -2.7275    1.0000 </r>
       <r>   -2.6744    1.0000 </r>
       <r>   -2.5857    1.0000 </r>
       <r>   -2.3590    1.0000 </r>
       <r>   -2.1461    1.0000 </r>
       <r>   -2.1179    1.0000 </r>
       <r>   -2.0064    1.0000 </r>
       <r>   -1.7955    1.0000 </r>
       <r>   -1.6921    1.0000 </r>
       <r>   -1.4910    1.0000 </r>
       <r>   -1.4580    1.0000 </r>
       <r>   -1.2285    1.0000 </r>
       <r>   -0.8228    1.0000 </r>
       <r>   -0.4410    1.0000 </r>
       <r>   -0.0227    0.7499 </r>
       <r>    0.4963    0.0000 </r>
       <r>    0.7038    0.0000 </r>
       <r>    1.0956    0.0000 </r>
       <r>    1.2426    0.0000 </r>
       <r>    1.3992    0.0000 </r>
       <r>    1.6748    0.0000 </r>
       <r>    1.7857    0.0000 </r>
       <r>    1.8218    0.0000 </r>
       <r>    1.9863    0.0000 </r>
       <r>    2.1626    0.0000 </r>
       <r>    2.2839    0.0000 </r>
       <r>    2.3973    0.0000 </r>
       <r>    2.5664    0.0000 </r>
      </set>
      <set comment="kpoint 16">
       <r>  -12.8390    1.0000 </r>
       <r>  -12.0783    1.0000 </r>
       <r>  -11.7913    1.0000 </r>
       <r>  -11.5499    1.0000 </r>
       <r>  -11.4605    1.0000 </r>
       <r>  -11.2223    1.0000 </r>
       <r>  -10.9852    1.0000 </r>
       <r>  -10.9087    1.0000 </r>
       <r>  -10.7299    1.0000 </r>
       <r>  -10.6063    1.0000 </r>
       <r>  -10.4279    1.0000 </r>
       <r>   -9.7808    1.0000 </r>
       <r>   -8.7194    1.0000 </r>
       <r>   -8.6480    1.0000 </r>
       <r>   -8.4918    1.0000 </r>
       <r>   -8.4567    1.0000 </r>
       <r>   -7.7764    1.0000 </r>
       <r>   -7.5430    1.0000 </r>
       <r>   -7.4168    1.0000 </r>
       <r>   -7.3054    1.0000 </r>
       <r>   -6.9906    1.0000 </r>
       <r>   -6.7842    1.0000 </r>
       <r>   -6.6441    1.0000 </r>
       <r>   -6.6238    1.0000 </r>
       <r>   -5.9213    1.0000 </r>
       <r>   -5.4963    1.0000 </r>
       <r>   -5.0410    1.0000 </r>
       <r>   -4.9262    1.0000 </r>
       <r>   -4.8064    1.0000 </r>
       <r>   -4.3832    1.0000 </r>
       <r>   -4.3345    1.0000 </r>
       <r>   -4.2350    1.0000 </r>
       <r>   -4.0884    1.0000 </r>
       <r>   -3.8932    1.0000 </r>
       <r>   -3.7154    1.0000 </r>
       <r>   -3.6893    1.0000 </r>
       <r>   -3.3833    1.0000 </r>
       <r>   -3.3448    1.0000 </r>
       <r>   -3.1518    1.0000 </r>
       <r>   -2.8246    1.0000 </r>
       <r>   -2.6924    1.0000 </r>
       <r>   -2.5017    1.0000 </r>
       <r>   -2.4474    1.0000 </r>
       <r>   -2.2306    1.0000 </r>
       <r>   -2.1169    1.0000 </r>
       <r>   -1.9230    1.0000 </r>
       <r>   -1.8501    1.0000 </r>
       <r>   -1.7688    1.0000 </r>
       <r>   -1.6993    1.0000 </r>
       <r>   -1.3968    1.0000 </r>
       <r>   -1.3180    1.0000 </r>
       <r>   -1.1856    1.0000 </r>
       <r>   -0.8340    1.0000 </r>
       <r>   -0.3777    1.0000 </r>
       <r>   -0.0187    0.7315 </r>
       <r>    0.3585    0.0000 </r>
       <r>    0.9986    0.0000 </r>
       <r>    1.0914    0.0000 </r>
       <r>    1.3594    0.0000 </r>
       <r>    1.4543    0.0000 </r>
       <r>    1.8020    0.0000 </r>
       <r>    1.9203    0.0000 </r>
       <r>    2.1251    0.0000 </r>
       <r>    2.1735    0.0000 </r>
       <r>    2.2576    0.0000 </r>
       <r>    2.3516    0.0000 </r>
       <r>    2.4585    0.0000 </r>
       <r>    2.6274    0.0000 </r>
      </set>
      <set comment="kpoint 17">
       <r>  -13.2477    1.0000 </r>
       <r>  -12.5724    1.0000 </r>
       <r>  -12.2100    1.0000 </r>
       <r>  -11.9333    1.0000 </r>
       <r>  -11.9215    1.0000 </r>
       <r>  -11.6212    1.0000 </r>
       <r>  -11.2200    1.0000 </r>
       <r>  -11.1249    1.0000 </r>
       <r>  -10.7786    1.0000 </r>
       <r>  -10.7492    1.0000 </r>
       <r>  -10.3982    1.0000 </r>
       <r>   -9.8195    1.0000 </r>
       <r>   -8.5335    1.0000 </r>
       <r>   -8.3844    1.0000 </r>
       <r>   -8.3408    1.0000 </r>
       <r>   -8.1628    1.0000 </r>
       <r>   -7.3257    1.0000 </r>
       <r>   -7.0881    1.0000 </r>
       <r>   -6.9771    1.0000 </r>
       <r>   -6.9263    1.0000 </r>
       <r>   -6.8444    1.0000 </r>
       <r>   -6.2083    1.0000 </r>
       <r>   -6.1285    1.0000 </r>
       <r>   -5.9544    1.0000 </r>
       <r>   -5.8963    1.0000 </r>
       <r>   -5.1734    1.0000 </r>
       <r>   -5.1131    1.0000 </r>
       <r>   -4.8642    1.0000 </r>
       <r>   -4.6616    1.0000 </r>
       <r>   -4.6079    1.0000 </r>
       <r>   -4.5072    1.0000 </r>
       <r>   -4.2920    1.0000 </r>
       <r>   -4.2187    1.0000 </r>
       <r>   -3.9811    1.0000 </r>
       <r>   -3.6159    1.0000 </r>
       <r>   -3.4316    1.0000 </r>
       <r>   -3.2427    1.0000 </r>
       <r>   -3.0598    1.0000 </r>
       <r>   -2.9377    1.0000 </r>
       <r>   -2.8361    1.0000 </r>
       <r>   -2.7273    1.0000 </r>
       <r>   -2.5642    1.0000 </r>
       <r>   -2.4266    1.0000 </r>
       <r>   -2.0086    1.0000 </r>
       <r>   -1.8813    1.0000 </r>
       <r>   -1.8502    1.0000 </r>
       <r>   -1.6955    1.0000 </r>
       <r>   -1.5942    1.0000 </r>
       <r>   -1.5310    1.0000 </r>
       <r>   -1.2985    1.0000 </r>
       <r>   -1.2073    1.0000 </r>
       <r>   -0.9728    1.0000 </r>
       <r>   -0.8326    1.0000 </r>
       <r>   -0.3599    1.0000 </r>
       <r>    0.0670    0.2761 </r>
       <r>    0.3682    0.0000 </r>
       <r>    1.1138    0.0000 </r>
       <r>    1.3127    0.0000 </r>
       <r>    1.6120    0.0000 </r>
       <r>    1.6758    0.0000 </r>
       <r>    1.9451    0.0000 </r>
       <r>    1.9964    0.0000 </r>
       <r>    2.2421    0.0000 </r>
       <r>    2.3443    0.0000 </r>
       <r>    2.4294    0.0000 </r>
       <r>    2.6432    0.0000 </r>
       <r>    2.7014    0.0000 </r>
       <r>    2.7723    0.0000 </r>
      </set>
      <set comment="kpoint 18">
       <r>  -13.6046    1.0000 </r>
       <r>  -12.9676    1.0000 </r>
       <r>  -12.5883    1.0000 </r>
       <r>  -12.3276    1.0000 </r>
       <r>  -12.2540    1.0000 </r>
       <r>  -11.9731    1.0000 </r>
       <r>  -11.5147    1.0000 </r>
       <r>  -11.3956    1.0000 </r>
       <r>  -11.0072    1.0000 </r>
       <r>  -10.9574    1.0000 </r>
       <r>  -10.5762    1.0000 </r>
       <r>   -9.8779    1.0000 </r>
       <r>   -8.3976    1.0000 </r>
       <r>   -8.3492    1.0000 </r>
       <r>   -7.9725    1.0000 </r>
       <r>   -7.7580    1.0000 </r>
       <r>   -7.1563    1.0000 </r>
       <r>   -6.9332    1.0000 </r>
       <r>   -6.6682    1.0000 </r>
       <r>   -6.6142    1.0000 </r>
       <r>   -6.3276    1.0000 </r>
       <r>   -5.8660    1.0000 </r>
       <r>   -5.7177    1.0000 </r>
       <r>   -5.6271    1.0000 </r>
       <r>   -5.3099    1.0000 </r>
       <r>   -4.8115    1.0000 </r>
       <r>   -4.7609    1.0000 </r>
       <r>   -4.5774    1.0000 </r>
       <r>   -4.5011    1.0000 </r>
       <r>   -4.4170    1.0000 </r>
       <r>   -4.1738    1.0000 </r>
       <r>   -4.1354    1.0000 </r>
       <r>   -3.9035    1.0000 </r>
       <r>   -3.7610    1.0000 </r>
       <r>   -3.5573    1.0000 </r>
       <r>   -3.4235    1.0000 </r>
       <r>   -3.1249    1.0000 </r>
       <r>   -3.0224    1.0000 </r>
       <r>   -2.9715    1.0000 </r>
       <r>   -2.7394    1.0000 </r>
       <r>   -2.5814    1.0000 </r>
       <r>   -2.4205    1.0000 </r>
       <r>   -2.3855    1.0000 </r>
[...]
       <r>    2.5910    0.0000 </r>
      </set>
      <set comment="kpoint 54">
       <r>  -12.4924    1.0000 </r>
       <r>  -11.4671    1.0000 </r>
       <r>  -11.4353    1.0000 </r>
       <r>  -11.2441    1.0000 </r>
       <r>  -11.1448    1.0000 </r>
       <r>  -11.0871    1.0000 </r>
       <r>  -10.9287    1.0000 </r>
       <r>  -10.8291    1.0000 </r>
       <r>  -10.8196    1.0000 </r>
       <r>  -10.6979    1.0000 </r>
       <r>  -10.5997    1.0000 </r>
       <r>   -9.7304    1.0000 </r>
       <r>   -8.7823    1.0000 </r>
       <r>   -8.6421    1.0000 </r>
       <r>   -8.4835    1.0000 </r>
       <r>   -8.4143    1.0000 </r>
       <r>   -8.1915    1.0000 </r>
       <r>   -8.0952    1.0000 </r>
       <r>   -7.6819    1.0000 </r>
       <r>   -7.5375    1.0000 </r>
       <r>   -7.3700    1.0000 </r>
       <r>   -7.2659    1.0000 </r>
       <r>   -7.1456    1.0000 </r>
       <r>   -6.7432    1.0000 </r>
       <r>   -5.8854    1.0000 </r>
       <r>   -5.6730    1.0000 </r>
       <r>   -4.9384    1.0000 </r>
       <r>   -4.8114    1.0000 </r>
       <r>   -4.4823    1.0000 </r>
       <r>   -4.3966    1.0000 </r>
       <r>   -4.2299    1.0000 </r>
       <r>   -4.0572    1.0000 </r>
       <r>   -3.9186    1.0000 </r>
       <r>   -3.9062    1.0000 </r>
       <r>   -3.7433    1.0000 </r>
       <r>   -3.6390    1.0000 </r>
       <r>   -3.5332    1.0000 </r>
       <r>   -3.3022    1.0000 </r>
       <r>   -3.2327    1.0000 </r>
       <r>   -3.0080    1.0000 </r>
       <r>   -2.6954    1.0000 </r>
       <r>   -2.6616    1.0000 </r>
       <r>   -2.6014    1.0000 </r>
       <r>   -2.3463    1.0000 </r>
       <r>   -2.1759    1.0000 </r>
       <r>   -2.0967    1.0000 </r>
       <r>   -2.0105    1.0000 </r>
       <r>   -1.8225    1.0000 </r>
       <r>   -1.6846    1.0000 </r>
       <r>   -1.5186    1.0000 </r>
       <r>   -1.4730    1.0000 </r>
       <r>   -1.2506    1.0000 </r>
       <r>   -0.8204    1.0000 </r>
       <r>   -0.4552    1.0000 </r>
       <r>    0.0048    0.6123 </r>
       <r>    0.4506    0.0000 </r>
       <r>    0.7002    0.0000 </r>
       <r>    1.0603    0.0000 </r>
       <r>    1.2595    0.0000 </r>
       <r>    1.3805    0.0000 </r>
       <r>    1.6211    0.0000 </r>
       <r>    1.6776    0.0000 </r>
       <r>    1.8674    0.0000 </r>
       <r>    1.9474    0.0000 </r>
       <r>    2.0737    0.0000 </r>
       <r>    2.2159    0.0000 </r>
       <r>    2.3709    0.0000 </r>
       <r>    2.4825    0.0000 </r>
      </set>
     </set>
    </set>
   </array>
  </eigenvalues>
  <separator name="orbital magnetization" >
   <v name="MAGDIPOLOUT">      0.00000000      0.00000000      0.00000000</v>
  </separator>
  <dos>
   <i name="efermi">      0.02497058 </i>
   <total>
    <array>
     <dimension dim="1">gridpoints</dimension>
     <dimension dim="2">spin</dimension>
     <field>energy</field>
     <field>total</field>
     <field>integrated</field>
     <set>
      <set comment="spin 1">
       <r>   -15.0997     0.0000     0.0000 </r>
       <r>   -15.0357     0.0000     0.0000 </r>
       <r>   -14.9716     0.0000     0.0000 </r>
       <r>   -14.9075     0.0000     0.0000 </r>
       <r>   -14.8435     0.0000     0.0000 </r>
       <r>   -14.7794     0.0000     0.0000 </r>
       <r>   -14.7154     0.0000     0.0000 </r>
       <r>   -14.6513     0.0000     0.0000 </r>
       <r>   -14.5872     0.0000     0.0000 </r>
       <r>   -14.5232     0.0000     0.0000 </r>
       <r>   -14.4591     0.0000     0.0000 </r>
       <r>   -14.3950     0.0000     0.0000 </r>
       <r>   -14.3310     0.0009     0.0001 </r>
       <r>   -14.2669     0.0165     0.0011 </r>
       <r>   -14.2028     0.1555     0.0111 </r>
       <r>   -14.1388     0.7408     0.0585 </r>
       <r>   -14.0747     1.8326     0.1759 </r>
       <r>   -14.0107     2.4366     0.3320 </r>
       <r>   -13.9466     2.0691     0.4646 </r>
       <r>   -13.8825     1.8638     0.5840 </r>
       <r>   -13.8185     1.7111     0.6936 </r>
       <r>   -13.7544     0.9793     0.7563 </r>
       <r>   -13.6903     0.6451     0.7977 </r>
       <r>   -13.6263     1.2822     0.8798 </r>
       <r>   -13.5622     1.9733     1.0062 </r>
       <r>   -13.4981     2.0228     1.1358 </r>
       <r>   -13.4341     2.0497     1.2671 </r>
       <r>   -13.3700     2.2351     1.4103 </r>
       <r>   -13.3060     2.7673     1.5876 </r>
       <r>   -13.2419     3.8465     1.8340 </r>
       <r>   -13.1778     4.4073     2.1164 </r>
       <r>   -13.1138     4.0115     2.3734 </r>
       <r>   -13.0497     3.5883     2.6032 </r>
       <r>   -12.9856     3.9895     2.8588 </r>
       <r>   -12.9216     4.9897     3.1785 </r>
       <r>   -12.8575     5.8382     3.5525 </r>
       <r>   -12.7934     5.6874     3.9168 </r>
       <r>   -12.7294     4.5327     4.2072 </r>
       <r>   -12.6653     4.0164     4.4645 </r>
       <r>   -12.6013     5.0886     4.7905 </r>
       <r>   -12.5372     6.8616     5.2301 </r>
       <r>   -12.4731     7.5989     5.7169 </r>
       <r>   -12.4091     6.9550     6.1625 </r>
       <r>   -12.3450     6.1096     6.5539 </r>
       <r>   -12.2809     5.9440     6.9347 </r>
       <r>   -12.2169     5.7347     7.3021 </r>
       <r>   -12.1528     4.7198     7.6044 </r>
       <r>   -12.0887     4.2080     7.8740 </r>
       <r>   -12.0247     5.2253     8.2088 </r>
       <r>   -11.9606     6.7712     8.6426 </r>
       <r>   -11.8966     7.4595     9.1204 </r>
       <r>   -11.8325     6.9596     9.5663 </r>
       <r>   -11.7684     6.1004     9.9571 </r>
       <r>   -11.7044     5.7189    10.3235 </r>
       <r>   -11.6403     6.2368    10.7230 </r>
       <r>   -11.5762     7.1755    11.1827 </r>
       <r>   -11.5122     8.1316    11.7037 </r>
       <r>   -11.4481     9.4145    12.3068 </r>
       <r>   -11.3840     9.7938    12.9342 </r>
       <r>   -11.3200     9.1509    13.5205 </r>
       <r>   -11.2559     9.6936    14.1415 </r>
       <r>   -11.1919    10.2018    14.7950 </r>
       <r>   -11.1278     9.2646    15.3886 </r>
       <r>   -11.0637     9.2192    15.9792 </r>
       <r>   -10.9997    10.5138    16.6527 </r>
       <r>   -10.9356    10.9289    17.3529 </r>
       <r>   -10.8715    10.3578    18.0164 </r>
       <r>   -10.8075    11.0375    18.7235 </r>
       <r>   -10.7434    11.9201    19.4872 </r>
       <r>   -10.6793    10.6081    20.1668 </r>
       <r>   -10.6153     8.4119    20.7057 </r>
       <r>   -10.5512     6.4579    21.1194 </r>
       <r>   -10.4872     4.4831    21.4066 </r>
       <r>   -10.4231     3.6259    21.6389 </r>
       <r>   -10.3590     3.1763    21.8424 </r>
       <r>   -10.2950     1.8161    21.9587 </r>
       <r>   -10.2309     0.5832    21.9961 </r>
       <r>   -10.1668     0.3455    22.0182 </r>
       <r>   -10.1028     1.1692    22.0931 </r>
       <r>   -10.0387     2.7628    22.2701 </r>
       <r>    -9.9746     3.9191    22.5212 </r>
       <r>    -9.9106     4.2517    22.7936 </r>
       <r>    -9.8465     4.8084    23.1016 </r>
       <r>    -9.7825     5.5123    23.4547 </r>
       <r>    -9.7184     4.8511    23.7655 </r>
       <r>    -9.6543     2.6858    23.9376 </r>
       <r>    -9.5903     0.8306    23.9908 </r>
       <r>    -9.5262     0.1328    23.9993 </r>
       <r>    -9.4621     0.0104    24.0000 </r>
       <r>    -9.3981     0.0004    24.0000 </r>
       <r>    -9.3340     0.0000    24.0000 </r>
       <r>    -9.2699     0.0000    24.0000 </r>
       <r>    -9.2059     0.0003    24.0000 </r>
       <r>    -9.1418     0.0062    24.0004 </r>
       <r>    -9.0778     0.0733    24.0051 </r>
       <r>    -9.0137     0.4238    24.0323 </r>
       <r>    -8.9496     1.2934    24.1151 </r>
       <r>    -8.8856     2.4597    24.2727 </r>
       <r>    -8.8215     3.9361    24.5249 </r>
       <r>    -8.7574     6.0845    24.9147 </r>
       <r>    -8.6934     7.8816    25.4196 </r>
       <r>    -8.6293     8.4607    25.9616 </r>
       <r>    -8.5652     8.8487    26.5285 </r>
       <r>    -8.5012     9.9510    27.1660 </r>
       <r>    -8.4371    10.4636    27.8363 </r>
       <r>    -8.3731     9.1035    28.4195 </r>
       <r>    -8.3090     6.7436    28.8515 </r>
       <r>    -8.2449     5.1217    29.1797 </r>
       <r>    -8.1809     4.8953    29.4933 </r>
       <r>    -8.1168     4.6423    29.7907 </r>
       <r>    -8.0527     4.0137    30.0478 </r>
       <r>    -7.9887     3.5760    30.2769 </r>
       <r>    -7.9246     3.3637    30.4924 </r>
       <r>    -7.8605     3.7759    30.7343 </r>
       <r>    -7.7965     5.7227    31.1009 </r>
       <r>    -7.7324     8.0152    31.6144 </r>
       <r>    -7.6684     8.1693    32.1378 </r>
       <r>    -7.6043     6.4595    32.5516 </r>
       <r>    -7.5402     5.1843    32.8837 </r>
       <r>    -7.4762     5.4741    33.2344 </r>
       <r>    -7.4121     7.0618    33.6868 </r>
       <r>    -7.3480     8.9929    34.2629 </r>
       <r>    -7.2840    10.1562    34.9136 </r>
       <r>    -7.2199    10.2849    35.5724 </r>
       <r>    -7.1558     9.6636    36.1915 </r>
       <r>    -7.0918     8.7752    36.7537 </r>
       <r>    -7.0277     7.7701    37.2515 </r>
       <r>    -6.9637     6.7723    37.6853 </r>
       <r>    -6.8996     6.0555    38.0733 </r>
       <r>    -6.8355     6.0098    38.4583 </r>
       <r>    -6.7715     7.4722    38.9370 </r>
       <r>    -6.7074    10.4948    39.6093 </r>
       <r>    -6.6433    13.1069    40.4490 </r>
       <r>    -6.5793    11.9953    41.2175 </r>
       <r>    -6.5152     7.7520    41.7141 </r>
       <r>    -6.4511     4.3952    41.9957 </r>
       <r>    -6.3871     3.2373    42.2031 </r>
       <r>    -6.3230     3.7331    42.4422 </r>
       <r>    -6.2590     4.9185    42.7573 </r>
       <r>    -6.1949     6.1815    43.1533 </r>
       <r>    -6.1308     7.1795    43.6133 </r>
       <r>    -6.0668     6.7857    44.0480 </r>
       <r>    -6.0027     5.9115    44.4267 </r>
       <r>    -5.9386     7.1872    44.8871 </r>
       <r>    -5.8746     8.7442    45.4473 </r>
       <r>    -5.8105     7.7206    45.9419 </r>
       <r>    -5.7464     6.3980    46.3518 </r>
       <r>    -5.6824     7.1980    46.8129 </r>
       <r>    -5.6183     8.9737    47.3878 </r>
       <r>    -5.5543     9.4062    47.9904 </r>
       <r>    -5.4902     7.2751    48.4565 </r>
       <r>    -5.4261     4.1096    48.7198 </r>
       <r>    -5.3621     2.7177    48.8939 </r>
       <r>    -5.2980     3.2731    49.1036 </r>
       <r>    -5.2339     4.1800    49.3714 </r>
       <r>    -5.1699     4.8056    49.6792 </r>
       <r>    -5.1058     4.7386    49.9828 </r>
       <r>    -5.0417     4.5809    50.2763 </r>
       <r>    -4.9777     5.4876    50.6278 </r>
       <r>    -4.9136     7.1214    51.0840 </r>
       <r>    -4.8496     8.6535    51.6384 </r>
       <r>    -4.7855     9.6037    52.2537 </r>
       <r>    -4.7214     9.5563    52.8659 </r>
       <r>    -4.6574     9.1809    53.4540 </r>
       <r>    -4.5933     9.1879    54.0426 </r>
       <r>    -4.5292    10.1395    54.6922 </r>
       <r>    -4.4652    12.0156    55.4620 </r>
       <r>    -4.4011    12.7594    56.2794 </r>
       <r>    -4.3370    12.0816    57.0534 </r>
       <r>    -4.2730    11.8479    57.8124 </r>
       <r>    -4.2089    12.0637    58.5852 </r>
       <r>    -4.1449    11.4814    59.3208 </r>
       <r>    -4.0808    10.7503    60.0095 </r>
       <r>    -4.0167    11.0013    60.7143 </r>
       <r>    -3.9527    11.8727    61.4749 </r>
       <r>    -3.8886    12.2991    62.2628 </r>
       <r>    -3.8245    11.4690    62.9976 </r>
       <r>    -3.7605    10.7201    63.6843 </r>
       <r>    -3.6964    11.6220    64.4289 </r>
       <r>    -3.6323    13.3672    65.2852 </r>
       <r>    -3.5683    13.4769    66.1486 </r>
       <r>    -3.5042    11.5958    66.8915 </r>
       <r>    -3.4402    10.7699    67.5814 </r>
       <r>    -3.3761    11.9567    68.3474 </r>
       <r>    -3.3120    13.8684    69.2359 </r>
       <r>    -3.2480    14.8088    70.1846 </r>
       <r>    -3.1839    14.2964    71.1005 </r>
       <r>    -3.1198    14.1328    72.0059 </r>
       <r>    -3.0558    15.3618    72.9900 </r>
       <r>    -2.9917    15.8836    74.0076 </r>
       <r>    -2.9276    14.5855    74.9420 </r>
       <r>    -2.8636    13.2043    75.7879 </r>
       <r>    -2.7995    12.9107    76.6150 </r>
       <r>    -2.7354    13.6618    77.4902 </r>
       <r>    -2.6714    14.5677    78.4235 </r>
       <r>    -2.6073    14.4729    79.3507 </r>
       <r>    -2.5433    14.2901    80.2661 </r>
       <r>    -2.4792    14.1165    81.1705 </r>
       <r>    -2.4151    14.0710    82.0719 </r>
       <r>    -2.3511    14.3825    82.9933 </r>
       <r>    -2.2870    13.9739    83.8886 </r>
       <r>    -2.2229    13.0403    84.7240 </r>
       <r>    -2.1589    12.9959    85.5565 </r>
       <r>    -2.0948    13.5449    86.4243 </r>
       <r>    -2.0307    13.6422    87.2982 </r>
       <r>    -1.9667    14.3906    88.2201 </r>
       <r>    -1.9026    16.3507    89.2676 </r>
       <r>    -1.8386    18.3853    90.4455 </r>
       <r>    -1.7745    19.3631    91.6859 </r>
       <r>    -1.7104    18.8883    92.8960 </r>
       <r>    -1.6464    16.1914    93.9333 </r>
       <r>    -1.5823    12.5466    94.7370 </r>
       <r>    -1.5182    10.8807    95.4341 </r>
       <r>    -1.4542    11.6971    96.1835 </r>
       <r>    -1.3901    12.9259    97.0115 </r>
       <r>    -1.3260    13.1857    97.8563 </r>
       <r>    -1.2620    13.2198    98.7032 </r>
       <r>    -1.1979    13.6014    99.5745 </r>
       <r>    -1.1339    12.7713   100.3927 </r>
       <r>    -1.0698    11.1603   101.1077 </r>
       <r>    -1.0057    10.8738   101.8043 </r>
       <r>    -0.9417    11.2871   102.5274 </r>
       <r>    -0.8776    11.4572   103.2614 </r>
       <r>    -0.8135    10.1124   103.9092 </r>
       <r>    -0.7495     6.4870   104.3248 </r>
       <r>    -0.6854     3.4294   104.5445 </r>
       <r>    -0.6213     3.2423   104.7522 </r>
       <r>    -0.5573     4.1965   105.0211 </r>
       <r>    -0.4932     4.6653   105.3199 </r>
       <r>    -0.4292     4.8575   105.6311 </r>
       <r>    -0.3651     4.4906   105.9188 </r>
       <r>    -0.3010     3.7072   106.1563 </r>
       <r>    -0.2370     3.8825   106.4050 </r>
       <r>    -0.1729     4.9854   106.7244 </r>
       <r>    -0.1088     5.8722   107.1006 </r>
       <r>    -0.0448     6.4801   107.5158 </r>
       <r>     0.0193     6.9350   107.9600 </r>
       <r>     0.0834     6.8930   108.4016 </r>
       <r>     0.1474     5.8991   108.7795 </r>
       <r>     0.2115     4.0892   109.0415 </r>
       <r>     0.2755     2.8203   109.2222 </r>
       <r>     0.3396     3.2999   109.4336 </r>
       <r>     0.4037     5.6156   109.7934 </r>
       <r>     0.4677     8.2761   110.3236 </r>
       <r>     0.5318     8.2136   110.8497 </r>
       <r>     0.5959     5.3844   111.1947 </r>
       <r>     0.6599     3.8740   111.4429 </r>
       <r>     0.7240     4.5384   111.7336 </r>
       <r>     0.7881     4.5260   112.0236 </r>
       <r>     0.8521     3.1926   112.2281 </r>
       <r>     0.9162     2.4738   112.3866 </r>
       <r>     0.9802     3.7093   112.6242 </r>
       <r>     1.0443     5.7651   112.9936 </r>
       <r>     1.1084     7.4980   113.4739 </r>
       <r>     1.1724     8.7237   114.0328 </r>
       <r>     1.2365     9.6744   114.6526 </r>
       <r>     1.3006    10.6544   115.3351 </r>
       <r>     1.3646    11.0979   116.0461 </r>
       <r>     1.4287    10.5667   116.7230 </r>
       <r>     1.4928     9.5107   117.3323 </r>
       <r>     1.5568     9.9175   117.9677 </r>
       <r>     1.6209    12.3619   118.7596 </r>
       <r>     1.6849    13.8930   119.6497 </r>
       <r>     1.7490    14.1162   120.5540 </r>
       <r>     1.8131    14.4950   121.4826 </r>
       <r>     1.8771    13.9677   122.3774 </r>
       <r>     1.9412    12.4150   123.1728 </r>
       <r>     2.0053    11.3238   123.8982 </r>
       <r>     2.0693    12.0491   124.6701 </r>
       <r>     2.1334    14.0276   125.5688 </r>
       <r>     2.1975    14.9744   126.5281 </r>
       <r>     2.2615    15.0329   127.4912 </r>
       <r>     2.3256    15.0432   128.4549 </r>
       <r>     2.3896    14.0058   129.3521 </r>
       <r>     2.4537    12.2498   130.1369 </r>
       <r>     2.5178    11.0330   130.8437 </r>
       <r>     2.5818    10.9963   131.5482 </r>
       <r>     2.6459    11.5894   132.2906 </r>
       <r>     2.7100    11.5817   133.0326 </r>
       <r>     2.7740    10.6656   133.7159 </r>
       <r>     2.8381     9.0361   134.2948 </r>
       <r>     2.9022     7.3533   134.7658 </r>
       <r>     2.9662     6.3949   135.1755 </r>
       <r>     3.0303     5.5464   135.5308 </r>
       <r>     3.0943     4.0444   135.7899 </r>
       <r>     3.1584     2.2456   135.9338 </r>
       <r>     3.2225     0.8336   135.9872 </r>
       <r>     3.2865     0.1786   135.9987 </r>
       <r>     3.3506     0.0199   135.9999 </r>
       <r>     3.4147     0.0011   136.0000 </r>
       <r>     3.4787     0.0000   136.0000 </r>
       <r>     3.5428     0.0000   136.0000 </r>
       <r>     3.6069     0.0000   136.0000 </r>
       <r>     3.6709     0.0000   136.0000 </r>
       <r>     3.7350     0.0000   136.0000 </r>
       <r>     3.7990     0.0000   136.0000 </r>
       <r>     3.8631     0.0000   136.0000 </r>
       <r>     3.9272     0.0000   136.0000 </r>
       <r>     3.9912     0.0000   136.0000 </r>
       <r>     4.0553     0.0000   136.0000 </r>
       <r>     4.1194     0.0000   136.0000 </r>
      </set>
     </set>
    </array>
   </total>
  </dos>
 </calculation>
 <structure name="finalpos" >
  <crystal>
   <varray name="basis" >
    <v>       3.54040000       0.00000000       0.00000000 </v>
    <v>      -1.77020000      10.29434800       0.00000000 </v>
    <v>       0.00000000       0.00000000      27.50142900 </v>
   </varray>
   <i name="volume">   1002.32009712 </i>
   <varray name="rec_basis" >
    <v>       0.28245396       0.04857034       0.00000000 </v>
    <v>       0.00000000       0.09714068       0.00000000 </v>
    <v>       0.00000000       0.00000000       0.03636175 </v>
   </varray>
  </crystal>
  <varray name="positions" >
   <v>       0.11402300       0.22804500       0.23316207 </v>
   <v>       0.91402300       0.72804500       0.51499159 </v>
   <v>       0.45808900       0.91617900       0.20939482 </v>
   <v>       0.25808900       0.41617900       0.49122434 </v>
   <v>       0.31085400       0.62170900       0.08414979 </v>
   <v>       0.31085400       0.62170900       0.36597930 </v>
   <v>       0.99923000       0.99846000       0.08631254 </v>
   <v>       0.99923000       0.99846000       0.36814206 </v>
   <v>       0.65492700       0.30985400       0.06041748 </v>
   <v>       0.65492700       0.30985400       0.34224700 </v>
   <v>       0.76973800       0.53947500       0.20725292 </v>
   <v>       0.56973800       0.03947500       0.48908244 </v>
   <v>       0.93971600       0.87943300       0.15783749 </v>
   <v>       0.73971600       0.37943300       0.43966701 </v>
   <v>       0.20515200       0.41030300       0.18578822 </v>
   <v>       0.00515200       0.91030300       0.46761774 </v>
   <v>       0.20184900       0.40369900       0.09969156 </v>
   <v>       0.20184900       0.40369900       0.38152107 </v>
   <v>       0.56380500       0.12761000       0.10779021 </v>
   <v>       0.56380500       0.12761000       0.38961973 </v>
   <v>       0.56710600       0.13421200       0.19387616 </v>
   <v>       0.36710600       0.63421200       0.47570568 </v>
   <v>       0.82923400       0.65846800       0.13571444 </v>
   <v>       0.62923400       0.15846800       0.41754396 </v>
  </varray>
 </structure>
</modeling>
