<?xml version="1.0" encoding="ISO-8859-1"?>
<modeling>
 <generator>
  <i name="program" type="string">vasp </i>
  <i name="version" type="string">5.3.5  </i>
  <i name="subversion" type="string">31Mar14 (build Oct 29 2014 16:16:03) complex                          parallel </i>
  <i name="platform" type="string">Linux-UFHPC </i>
  <i name="date" type="string">2016 02 09 </i>
  <i name="time" type="string">17:45:16 </i>
 </generator>
 <incar>
  <i type="string" name="PREC">accurate</i>
  <i type="int" name="IBRION">     2</i>
  <i name="EDIFF">      0.00000100</i>
  <i type="int" name="NSW">     0</i>
  <i type="int" name="ISIF">     3</i>
  <i name="ENCUT">    300.00000000</i>
  <i type="string" name="LREAL"> Auto</i>
  <i type="int" name="ISMEAR">     0</i>
  <i name="SIGMA">      0.10000000</i>
  <i type="logical" name="LWAVE"> F  </i>
  <i type="logical" name="LCHARG"> F  </i>
  <i type="logical" name="LAECHG"> F  </i>
  <i type="string" name="GGA"> Bo</i>
  <i name="PARAM1">      0.18333333</i>
  <i name="PARAM2">      0.22000000</i>
  <i type="logical" name="LUSE_VDW"> T  </i>
  <i name="AGGAC">      0.00000000</i>
 </incar>
 <kpoints>
  <generation param="Gamma">
   <v type="int" name="divisions">      13        4        2 </v>
   <v name="usershift">      0.00000000       0.00000000       0.00000000 </v>
   <v name="genvec1">      0.07692308      -0.00000000       0.00000000 </v>
   <v name="genvec2">      0.00000000       0.25000000       0.00000000 </v>
   <v name="genvec3">      0.00000000       0.00000000       0.50000000 </v>
   <v name="shift">      0.00000000       0.00000000       0.00000000 </v>
  </generation>
  <varray name="kpointlist" >
   <v>       0.00000000       0.00000000       0.00000000 </v>
   <v>       0.07692308      -0.00000000       0.00000000 </v>
   <v>       0.15384615      -0.00000000       0.00000000 </v>
   <v>       0.23076923      -0.00000000       0.00000000 </v>
   <v>       0.30769231      -0.00000000       0.00000000 </v>
   <v>       0.38461538      -0.00000000       0.00000000 </v>
   <v>       0.46153846      -0.00000000       0.00000000 </v>
   <v>       0.00000000       0.25000000       0.00000000 </v>
   <v>       0.07692308       0.25000000       0.00000000 </v>
   <v>       0.15384615       0.25000000       0.00000000 </v>
   <v>       0.23076923       0.25000000       0.00000000 </v>
   <v>       0.30769231       0.25000000       0.00000000 </v>
   <v>       0.38461538       0.25000000       0.00000000 </v>
   <v>       0.46153846       0.25000000       0.00000000 </v>
   <v>      -0.46153846       0.25000000       0.00000000 </v>
   <v>      -0.38461538       0.25000000       0.00000000 </v>
   <v>      -0.30769231       0.25000000       0.00000000 </v>
   <v>      -0.23076923       0.25000000       0.00000000 </v>
   <v>      -0.15384615       0.25000000       0.00000000 </v>
   <v>      -0.07692308       0.25000000       0.00000000 </v>
   <v>       0.00000000       0.50000000       0.00000000 </v>
   <v>       0.07692308       0.50000000       0.00000000 </v>
   <v>       0.15384615       0.50000000       0.00000000 </v>
   <v>       0.23076923       0.50000000       0.00000000 </v>
   <v>       0.30769231       0.50000000       0.00000000 </v>
   <v>       0.38461538       0.50000000       0.00000000 </v>
   <v>       0.46153846       0.50000000       0.00000000 </v>
   <v>       0.00000000       0.00000000       0.50000000 </v>
   <v>       0.07692308      -0.00000000       0.50000000 </v>
   <v>       0.15384615      -0.00000000       0.50000000 </v>
   <v>       0.23076923      -0.00000000       0.50000000 </v>
   <v>       0.30769231      -0.00000000       0.50000000 </v>
   <v>       0.38461538      -0.00000000       0.50000000 </v>
   <v>       0.46153846      -0.00000000       0.50000000 </v>
   <v>       0.00000000       0.25000000       0.50000000 </v>
   <v>       0.07692308       0.25000000       0.50000000 </v>
   <v>       0.15384615       0.25000000       0.50000000 </v>
   <v>       0.23076923       0.25000000       0.50000000 </v>
   <v>       0.30769231       0.25000000       0.50000000 </v>
   <v>       0.38461538       0.25000000       0.50000000 </v>
   <v>       0.46153846       0.25000000       0.50000000 </v>
   <v>      -0.46153846       0.25000000       0.50000000 </v>
   <v>      -0.38461538       0.25000000       0.50000000 </v>
   <v>      -0.30769231       0.25000000       0.50000000 </v>
   <v>      -0.23076923       0.25000000       0.50000000 </v>
   <v>      -0.15384615       0.25000000       0.50000000 </v>
   <v>      -0.07692308       0.25000000       0.50000000 </v>
   <v>       0.00000000       0.50000000       0.50000000 </v>
   <v>       0.07692308       0.50000000       0.50000000 </v>
   <v>       0.15384615       0.50000000       0.50000000 </v>
   <v>       0.23076923       0.50000000       0.50000000 </v>
   <v>       0.30769231       0.50000000       0.50000000 </v>
   <v>       0.38461538       0.50000000       0.50000000 </v>
   <v>       0.46153846       0.50000000       0.50000000 </v>
  </varray>
  <varray name="weights" >
   <v>       0.00961538 </v>
   <v>       0.01923077 </v>
   <v>       0.01923077 </v>
   <v>       0.01923077 </v>
   <v>       0.01923077 </v>
   <v>       0.01923077 </v>
   <v>       0.01923077 </v>
   <v>       0.01923077 </v>
   <v>       0.01923077 </v>
   <v>       0.01923077 </v>
   <v>       0.01923077 </v>
   <v>       0.01923077 </v>
   <v>       0.01923077 </v>
   <v>       0.01923077 </v>
   <v>       0.01923077 </v>
   <v>       0.01923077 </v>
   <v>       0.01923077 </v>
   <v>       0.01923077 </v>
   <v>       0.01923077 </v>
   <v>       0.01923077 </v>
   <v>       0.00961538 </v>
   <v>       0.01923077 </v>
   <v>       0.01923077 </v>
   <v>       0.01923077 </v>
   <v>       0.01923077 </v>
   <v>       0.01923077 </v>
   <v>       0.01923077 </v>
   <v>       0.00961538 </v>
   <v>       0.01923077 </v>
   <v>       0.01923077 </v>
   <v>       0.01923077 </v>
   <v>       0.01923077 </v>
   <v>       0.01923077 </v>
   <v>       0.01923077 </v>
   <v>       0.01923077 </v>
   <v>       0.01923077 </v>
   <v>       0.01923077 </v>
   <v>       0.01923077 </v>
   <v>       0.01923077 </v>
   <v>       0.01923077 </v>
   <v>       0.01923077 </v>
   <v>       0.01923077 </v>
   <v>       0.01923077 </v>
   <v>       0.01923077 </v>
   <v>       0.01923077 </v>
   <v>       0.01923077 </v>
   <v>       0.01923077 </v>
   <v>       0.00961538 </v>
   <v>       0.01923077 </v>
   <v>       0.01923077 </v>
   <v>       0.01923077 </v>
   <v>       0.01923077 </v>
   <v>       0.01923077 </v>
   <v>       0.01923077 </v>
  </varray>
 </kpoints>
 <parameters>
  <separator name="general" >
   <i type="string" name="SYSTEM">unknown system</i>
   <i type="logical" name="LCOMPAT"> F  </i>
  </separator>
  <separator name="electronic" >
   <i type="string" name="PREC">accura</i>
   <i name="ENMAX">    300.00000000</i>
   <i name="ENAUG">    342.92400000</i>
   <i name="EDIFF">      0.00000100</i>
   <i type="int" name="IALGO">    38</i>
   <i type="int" name="IWAVPR">    10</i>
   <i type="int" name="NBANDS">    68</i>
   <i name="NELECT">    108.00000000</i>
   <i type="int" name="TURBO">     0</i>
   <i type="int" name="IRESTART">     0</i>
   <i type="int" name="NREBOOT">     0</i>
   <i type="int" name="NMIN">     0</i>
   <i name="EREF">      0.00000000</i>
   <separator name="electronic smearing" >
    <i type="int" name="ISMEAR">     0</i>
    <i name="SIGMA">      0.10000000</i>
    <i name="KSPACING">      0.50000000</i>
    <i type="logical" name="KGAMMA"> T  </i>
   </separator>
   <separator name="electronic projectors" >
    <i type="logical" name="LREAL"> T  </i>
    <v name="ROPT">     -0.00025000     -0.00025000</v>
    <i type="int" name="LMAXPAW">  -100</i>
    <i type="int" name="LMAXMIX">     2</i>
    <i type="logical" name="NLSPLINE"> F  </i>
   </separator>
   <separator name="electronic startup" >
    <i type="int" name="ISTART">     0</i>
    <i type="int" name="ICHARG">     2</i>
    <i type="int" name="INIWAV">     1</i>
   </separator>
   <separator name="electronic spin" >
    <i type="int" name="ISPIN">     1</i>
    <i type="logical" name="LNONCOLLINEAR"> F  </i>
    <v name="MAGMOM">      1.00000000      1.00000000      1.00000000      1.00000000      1.00000000      1.00000000      1.00000000      1.00000000      1.00000000      1.00000000      1.00000000      1.00000000      1.00000000      1.00000000      1.00000000      1.00000000      1.00000000      1.00000000      1.00000000      1.00000000
      1.00000000      1.00000000      1.00000000      1.00000000</v>
    <i name="NUPDOWN">     -1.00000000</i>
    <i type="logical" name="LSORBIT"> F  </i>
    <v name="SAXIS">      0.00000000      0.00000000      1.00000000</v>
    <i type="logical" name="LSPIRAL"> F  </i>
    <v name="QSPIRAL">      0.00000000      0.00000000      0.00000000</v>
    <i type="logical" name="LZEROZ"> F  </i>
   </separator>
   <separator name="electronic exchange-correlation" >
    <i type="logical" name="LASPH"> F  </i>
    <i type="logical" name="LMETAGGA"> F  </i>
   </separator>
   <separator name="electronic convergence" >
    <i type="int" name="NELM">    60</i>
    <i type="int" name="NELMDL">    -5</i>
    <i type="int" name="NELMIN">     2</i>
    <i name="ENINI">    300.00000000</i>
    <separator name="electronic convergence detail" >
     <i type="logical" name="LDIAG"> T  </i>
     <i type="logical" name="LSUBROT"> F  </i>
     <i name="WEIMIN">      0.00000000</i>
     <i name="EBREAK">      0.00000000</i>
     <i name="DEPER">      0.30000000</i>
     <i type="int" name="NRMM">     4</i>
     <i name="TIME">      0.40000000</i>
    </separator>
   </separator>
   <separator name="electronic mixer" >
    <i name="AMIX">      0.40000000</i>
    <i name="BMIX">      1.00000000</i>
    <i name="AMIN">      0.10000000</i>
    <i name="AMIX_MAG">      1.60000000</i>
    <i name="BMIX_MAG">      1.00000000</i>
    <separator name="electronic mixer details" >
     <i type="int" name="IMIX">     4</i>
     <i type="int" name="MAXMIX">   -45</i>
     <i name="WC">    100.00000000</i>
     <i type="int" name="INIMIX">     1</i>
     <i type="int" name="MIXPRE">     1</i>
     <i type="int" name="MREMOVE">     5</i>
    </separator>
   </separator>
   <separator name="electronic dipolcorrection" >
    <i type="logical" name="LDIPOL"> F  </i>
    <i type="logical" name="LMONO"> F  </i>
    <i type="int" name="IDIPOL">     0</i>
    <i name="EPSILON">      1.00000000</i>
    <v name="DIPOL">   -100.00000000   -100.00000000   -100.00000000</v>
    <i name="EFIELD">      0.00000000</i>
   </separator>
  </separator>
  <separator name="grids" >
   <i type="int" name="NGX">    20</i>
   <i type="int" name="NGY">    60</i>
   <i type="int" name="NGZ">   160</i>
   <i type="int" name="NGXF">    40</i>
   <i type="int" name="NGYF">   120</i>
   <i type="int" name="NGZF">   320</i>
   <i type="logical" name="ADDGRID"> F  </i>
  </separator>
  <separator name="ionic" >
   <i type="int" name="NSW">     0</i>
   <i type="int" name="IBRION">    -1</i>
   <i type="int" name="ISIF">     3</i>
   <i name="PSTRESS">      0.00000000</i>
   <i name="EDIFFG">      0.00001000</i>
   <i type="int" name="NFREE">     1</i>
   <i name="POTIM">      0.50000000</i>
   <i name="SMASS">     -3.00000000</i>
   <i name="SCALEE">      1.00000000</i>
  </separator>
  <separator name="ionic md" >
   <i name="TEBEG">      0.00010000</i>
   <i name="TEEND">      0.00010000</i>
   <i type="int" name="NBLOCK">     1</i>
   <i type="int" name="KBLOCK">     1</i>
   <i type="int" name="NPACO">   256</i>
   <i name="APACO">     16.00000000</i>
  </separator>
  <separator name="symmetry" >
   <i type="int" name="ISYM">     2</i>
   <i name="SYMPREC">      0.00001000</i>
  </separator>
  <separator name="dos" >
   <i type="logical" name="LORBIT"> F  </i>
   <v name="RWIGS">     -1.00000000     -1.00000000</v>
   <i type="int" name="NEDOS">   301</i>
   <i name="EMIN">     10.00000000</i>
   <i name="EMAX">    -10.00000000</i>
   <i name="EFERMI">      0.00000000</i>
  </separator>
  <separator name="writing" >
   <i type="int" name="NWRITE">     2</i>
   <i type="logical" name="LWAVE"> F  </i>
   <i type="logical" name="LCHARG"> F  </i>
   <i type="logical" name="LPARD"> F  </i>
   <i type="logical" name="LVTOT"> F  </i>
   <i type="logical" name="LVHAR"> F  </i>
   <i type="logical" name="LELF"> F  </i>
   <i type="logical" name="LOPTICS"> F  </i>
   <v name="STM">      0.00000000      0.00000000      0.00000000      0.00000000      0.00000000      0.00000000      0.00000000</v>
  </separator>
  <separator name="performance" >
   <i type="int" name="NPAR">     4</i>
   <i type="int" name="NSIM">     4</i>
   <i type="int" name="NBLK">    -1</i>
   <i type="logical" name="LPLANE"> T  </i>
   <i type="logical" name="LSCALAPACK"> T  </i>
   <i type="logical" name="LSCAAWARE"> F  </i>
   <i type="logical" name="LSCALU"> F  </i>
   <i type="logical" name="LASYNC"> F  </i>
   <i type="logical" name="LORBITALREAL"> F  </i>
  </separator>
  <separator name="miscellaneous" >
   <i type="int" name="IDIOT">     3</i>
   <i type="logical" name="LMUSIC"> F  </i>
   <v name="POMASS">     30.97400000     28.08500000</v>
   <v name="DARWINR">      0.00000000      0.00000000</v>
   <v name="DARWINV">      1.00000000      1.00000000</v>
   <i type="logical" name="LCORR"> T  </i>
  </separator>
  <i type="logical" name="GGA_COMPAT"> T  </i>
  <i type="logical" name="LBERRY"> F  </i>
  <i type="int" name="ICORELEVEL">     0</i>
  <i type="logical" name="LDAU"> F  </i>
  <i type="int" name="I_CONSTRAINED_M">     0</i>
  <separator name="electronic exchange-correlation" >
   <i type="string" name="GGA">BO</i>
   <i type="int" name="VOSKOWN">     0</i>
   <i type="logical" name="LHFCALC"> F  </i>
   <i type="string" name="PRECFOCK"></i>
   <i type="logical" name="LSYMGRAD"> F  </i>
   <i type="logical" name="LHFONE"> F  </i>
   <i type="logical" name="LRHFCALC"> F  </i>
   <i type="logical" name="LTHOMAS"> F  </i>
   <i type="logical" name="LMODELHF"> F  </i>
   <i name="ENCUT4O">     -1.00000000</i>
   <i type="int" name="EXXOEP">     0</i>
   <i type="int" name="FOURORBIT">     0</i>
   <i name="AEXX">      0.00000000</i>
   <i name="HFALPHA">      0.00000000</i>
   <i name="MCALPHA">      0.00000000</i>
   <i name="ALDAX">      1.00000000</i>
   <i name="AGGAX">      1.00000000</i>
   <i name="ALDAC">      1.00000000</i>
   <i name="AGGAC">      0.00000000</i>
   <i type="int" name="NKREDX">     1</i>
   <i type="int" name="NKREDY">     1</i>
   <i type="int" name="NKREDZ">     1</i>
   <i type="logical" name="SHIFTRED"> F  </i>
   <i type="logical" name="ODDONLY"> F  </i>
   <i type="logical" name="EVENONLY"> F  </i>
   <i type="int" name="LMAXFOCK">     0</i>
   <i type="int" name="NMAXFOCKAE">     0</i>
   <i type="logical" name="LFOCKAEDFT"> F  </i>
   <i name="HFSCREEN">      0.00000000</i>
   <i name="HFSCREENC">      0.00000000</i>
   <i type="int" name="NBANDSGWLOW">     0</i>
  </separator>
  <separator name="vdW DFT" >
   <i type="logical" name="LUSE_VDW"> T  </i>
   <i name="Zab_VDW">     -0.84910000</i>
   <i name="PARAM1">      0.18333333</i>
   <i name="PARAM2">      0.22000000</i>
   <i name="PARAM3">      0.00000000</i>
  </separator>
  <separator name="model GW" >
   <i type="int" name="MODEL_GW">     0</i>
   <i name="MODEL_EPS0">     25.05800243</i>
   <i name="MODEL_ALPHA">      1.00000000</i>
  </separator>
  <separator name="linear response parameters" >
   <i type="logical" name="LEPSILON"> F  </i>
   <i type="logical" name="LRPA"> F  </i>
   <i type="logical" name="LNABLA"> F  </i>
   <i type="logical" name="LVEL"> F  </i>
   <i type="int" name="KINTER">     0</i>
   <i name="CSHIFT">      0.10000000</i>
   <i name="OMEGAMAX">     -1.00000000</i>
   <i name="DEG_THRESHOLD">      0.00200000</i>
  </separator>
  <separator name="orbital magnetization" >
   <i type="logical" name="NUCIND"> F  </i>
   <v name="MAGPOS">      0.00000000      0.00000000      0.00000000</v>
   <i type="logical" name="LNICSALL"> T  </i>
   <i type="logical" name="ORBITALMAG"> F  </i>
   <i type="logical" name="LMAGBLOCH"> F  </i>
   <i type="logical" name="LCHIMAG"> F  </i>
   <i type="logical" name="LGAUGE"> T  </i>
   <i type="int" name="MAGATOM">     0</i>
   <v name="MAGDIPOL">      0.00000000      0.00000000      0.00000000</v>
   <v name="AVECCONST">      0.00000000      0.00000000      0.00000000</v>
  </separator>
  <separator name="response functions" >
   <i type="logical" name="LADDER"> F  </i>
   <i type="logical" name="LFXC"> F  </i>
   <i type="logical" name="LHARTREE"> T  </i>
   <i type="int" name="IBSE">     0</i>
   <i type="logical" name="LTCTE"> F  </i>
   <i type="logical" name="LTETE"> F  </i>
   <i type="logical" name="LTRIPLET"> F  </i>
   <i type="logical" name="LFXCEPS"> F  </i>
   <i type="logical" name="LFXHEG"> F  </i>
   <i type="logical" name="L2ORDER"> F  </i>
   <i type="logical" name="LUSEW"> F  </i>
   <i name="ENCUTGW">     -2.00000000</i>
   <i name="ENCUTGWSOFT">     -2.00000000</i>
   <i name="ENCUTLF">     -1.00000000</i>
   <i type="int" name="LMAXMP2">    -1</i>
   <i name="SCISSOR">      0.00000000</i>
   <i type="int" name="NOMEGA">     0</i>
   <i type="int" name="NOMEGAR">     0</i>
   <i type="int" name="NBANDSGW">    -1</i>
   <i type="int" name="NBANDSO">    -1</i>
   <i type="int" name="NBANDSV">    -1</i>
   <i type="int" name="NELM">     1</i>
   <i type="int" name="DIM">     3</i>
   <i type="int" name="ANTIRES">     0</i>
   <i name="OMEGAMAX">    -30.00000000</i>
   <i name="OMEGAMIN">    -30.00000000</i>
   <i name="OMEGATL">   -200.00000000</i>
   <i type="int" name="OMEGAGRID">     0</i>
   <i name="CSHIFT">     -0.10000000</i>
   <i type="logical" name="SELFENERGY"> F  </i>
   <i type="logical" name="LSPECTRAL"> F  </i>
   <i type="logical" name="ODDONLYGW"> F  </i>
   <i type="logical" name="EVENONLYGW"> F  </i>
   <i type="int" name="NKREDLFX">     1</i>
   <i type="int" name="NKREDLFY">     1</i>
   <i type="int" name="NKREDLFZ">     1</i>
   <i type="int" name="MAXMEM">  1800</i>
   <i type="int" name="TELESCOPE">     0</i>
   <i type="int" name="TAUPAR">     1</i>
  </separator>
  <separator name="External order field" >
   <i name="OFIELD_KAPPA">      0.00000000</i>
   <v name="OFIELD_K">      0.00000000      0.00000000      0.00000000</v>
   <i name="OFIELD_Q6_NEAR">      0.00000000</i>
   <i name="OFIELD_Q6_FAR">      0.00000000</i>
   <i name="OFIELD_A">      0.00000000</i>
  </separator>
 </parameters>
 <atominfo>
  <atoms>      24 </atoms>
  <types>       2 </types>
  <array name="atoms" >
   <dimension dim="1">ion</dimension>
   <field type="string">element</field>
   <field type="int">atomtype</field>
   <set>
    <rc><c>P </c><c>   1</c></rc>
    <rc><c>P </c><c>   1</c></rc>
    <rc><c>P </c><c>   1</c></rc>
    <rc><c>P </c><c>   1</c></rc>
    <rc><c>P </c><c>   1</c></rc>
    <rc><c>P </c><c>   1</c></rc>
    <rc><c>P </c><c>   1</c></rc>
    <rc><c>P </c><c>   1</c></rc>
    <rc><c>P </c><c>   1</c></rc>
    <rc><c>P </c><c>   1</c></rc>
    <rc><c>P </c><c>   1</c></rc>
    <rc><c>P </c><c>   1</c></rc>
    <rc><c>Si</c><c>   2</c></rc>
    <rc><c>Si</c><c>   2</c></rc>
    <rc><c>Si</c><c>   2</c></rc>
    <rc><c>Si</c><c>   2</c></rc>
    <rc><c>Si</c><c>   2</c></rc>
    <rc><c>Si</c><c>   2</c></rc>
    <rc><c>Si</c><c>   2</c></rc>
    <rc><c>Si</c><c>   2</c></rc>
    <rc><c>Si</c><c>   2</c></rc>
    <rc><c>Si</c><c>   2</c></rc>
    <rc><c>Si</c><c>   2</c></rc>
    <rc><c>Si</c><c>   2</c></rc>
   </set>
  </array>
  <array name="atomtypes" >
   <dimension dim="1">type</dimension>
   <field type="int">atomspertype</field>
   <field type="string">element</field>
   <field>mass</field>
   <field>valence</field>
   <field type="string">pseudopotential</field>
   <set>
    <rc><c>  12</c><c>P </c><c>     30.97400000</c><c>      5.00000000</c><c>  PAW_PBE P 17Jan2003                   </c></rc>
    <rc><c>  12</c><c>Si</c><c>     28.08500000</c><c>      4.00000000</c><c> PAW_PBE Si 05Jan2001                   </c></rc>
   </set>
  </array>
 </atominfo>
 <structure name="initialpos" >
  <crystal>
   <varray name="basis" >
    <v>       3.54040000       0.00000000       0.00000000 </v>
    <v>      -1.77020000      10.29434800       0.00000000 </v>
    <v>       0.00000000       0.00000000      27.50142900 </v>
   </varray>
   <i name="volume">   1002.32009712 </i>
   <varray name="rec_basis" >
    <v>       0.28245396       0.04857034       0.00000000 </v>
    <v>       0.00000000       0.09714068       0.00000000 </v>
    <v>       0.00000000       0.00000000       0.03636175 </v>
   </varray>
  </crystal>
  <varray name="positions" >
   <v>       0.11402300       0.22804500       0.23316207 </v>
   <v>       0.41402300       0.62804500       0.51499159 </v>
   <v>       0.45808900       0.91617900       0.20939482 </v>
   <v>       0.75808900       0.31617900       0.49122434 </v>
   <v>       0.31085400       0.62170900       0.08414979 </v>
   <v>       0.31085400       0.62170900       0.36597930 </v>
   <v>       0.99923000       0.99846000       0.08631254 </v>
   <v>       0.99923000       0.99846000       0.36814206 </v>
   <v>       0.65492700       0.30985400       0.06041748 </v>
   <v>       0.65492700       0.30985400       0.34224700 </v>
   <v>       0.76973800       0.53947500       0.20725292 </v>
   <v>       0.06973800       0.93947500       0.48908244 </v>
   <v>       0.93971600       0.87943300       0.15783749 </v>
   <v>       0.23971600       0.27943300       0.43966701 </v>
   <v>       0.20515200       0.41030300       0.18578822 </v>
   <v>       0.50515200       0.81030300       0.46761774 </v>
   <v>       0.20184900       0.40369900       0.09969156 </v>
   <v>       0.20184900       0.40369900       0.38152107 </v>
   <v>       0.56380500       0.12761000       0.10779021 </v>
   <v>       0.56380500       0.12761000       0.38961973 </v>
   <v>       0.56710600       0.13421200       0.19387616 </v>
   <v>       0.86710600       0.53421200       0.47570568 </v>
   <v>       0.82923400       0.65846800       0.13571444 </v>
   <v>       0.12923400       0.05846800       0.41754396 </v>
  </varray>
 </structure>
 <calculation>
  <scstep>
   <time name="dav">   58.58   58.66</time>
   <time name="total">   74.33   74.43</time>
   <energy>
    <i name="alphaZ">     36.80884744 </i>
    <i name="ewald">  12031.20033307 </i>
    <i name="hartreedc"> -15047.24847659 </i>
    <i name="XCdc">    -86.86019035 </i>
    <i name="pawpsdc">   1056.43050070 </i>
    <i name="pawaedc">   -732.41190547 </i>
    <i name="eentropy">     -0.04032904 </i>
    <i name="bandstr">    -99.96160341 </i>
    <i name="atom">   3354.04126044 </i>
    <i name="e_fr_energy">    511.95843680 </i>
    <i name="e_wo_entrp">    511.99876584 </i>
    <i name="e_0_energy">    511.97860132 </i>
   </energy>
  </scstep>
  <scstep>
   <time name="dav">   74.75   74.78</time>
   <time name="total">   74.76   74.80</time>
   <energy>
    <i name="e_fr_energy">    -57.85603536 </i>
    <i name="e_wo_entrp">    -57.84275845 </i>
    <i name="e_0_energy">    -57.84939690 </i>
   </energy>
  </scstep>
  <scstep>
   <time name="dav">   69.93   69.96</time>
   <time name="total">   69.94   69.97</time>
   <energy>
    <i name="e_fr_energy">   -116.64237593 </i>
    <i name="e_wo_entrp">   -116.62962865 </i>
    <i name="e_0_energy">   -116.63600229 </i>
   </energy>
  </scstep>
  <scstep>
   <time name="dav">   83.77   83.82</time>
   <time name="total">   83.78   83.83</time>
   <energy>
    <i name="e_fr_energy">   -119.41135900 </i>
    <i name="e_wo_entrp">   -119.39631753 </i>
    <i name="e_0_energy">   -119.40383826 </i>
   </energy>
  </scstep>
  <scstep>
   <time name="dav">   76.23   76.28</time>
   <time name="total">   80.23   80.27</time>
   <energy>
    <i name="e_fr_energy">   -119.46717776 </i>
    <i name="e_wo_entrp">   -119.45208138 </i>
    <i name="e_0_energy">   -119.45962957 </i>
   </energy>
  </scstep>
  <scstep>
   <time name="dav">   69.63   69.66</time>
   <time name="total">   88.00   88.04</time>
   <energy>
    <i name="e_fr_energy">   -114.02502642 </i>
    <i name="e_wo_entrp">   -113.99875245 </i>
    <i name="e_0_energy">   -114.01188943 </i>
   </energy>
  </scstep>
  <scstep>
   <time name="dav">   66.13   66.16</time>
   <time name="total">   84.45   84.49</time>
   <energy>
    <i name="e_fr_energy">   -114.20230780 </i>
    <i name="e_wo_entrp">   -114.18490704 </i>
    <i name="e_0_energy">   -114.19360742 </i>
   </energy>
  </scstep>
  <scstep>
   <time name="dav">   69.41   69.45</time>
   <time name="total">   87.78   87.83</time>
   <energy>
    <i name="e_fr_energy">   -114.14125460 </i>
    <i name="e_wo_entrp">   -114.12215471 </i>
    <i name="e_0_energy">   -114.13170465 </i>
   </energy>
  </scstep>
  <scstep>
   <time name="dav">   70.30   70.33</time>
   <time name="total">   88.62   88.67</time>
   <energy>
    <i name="e_fr_energy">   -114.15302799 </i>
    <i name="e_wo_entrp">   -114.13456707 </i>
    <i name="e_0_energy">   -114.14379753 </i>
   </energy>
  </scstep>
  <scstep>
   <time name="dav">   70.28   70.32</time>
   <time name="total">   88.60   88.64</time>
   <energy>
    <i name="e_fr_energy">   -114.15411517 </i>
    <i name="e_wo_entrp">   -114.13485897 </i>
    <i name="e_0_energy">   -114.14448707 </i>
   </energy>
  </scstep>
  <scstep>
   <time name="dav">   69.38   69.42</time>
   <time name="total">   87.71   87.76</time>
   <energy>
    <i name="e_fr_energy">   -114.14419190 </i>
    <i name="e_wo_entrp">   -114.12585131 </i>
    <i name="e_0_energy">   -114.13502160 </i>
   </energy>
  </scstep>
  <scstep>
   <time name="dav">   71.20   71.24</time>
   <time name="total">   89.49   89.54</time>
   <energy>
    <i name="e_fr_energy">   -114.13380393 </i>
    <i name="e_wo_entrp">   -114.11522867 </i>
    <i name="e_0_energy">   -114.12451630 </i>
   </energy>
  </scstep>
  <scstep>
   <time name="dav">   70.53   70.56</time>
   <time name="total">   88.88   88.92</time>
   <energy>
    <i name="e_fr_energy">   -114.12917717 </i>
    <i name="e_wo_entrp">   -114.11060548 </i>
    <i name="e_0_energy">   -114.11989132 </i>
   </energy>
  </scstep>
  <scstep>
   <time name="dav">   70.43   70.46</time>
   <time name="total">   88.75   88.80</time>
   <energy>
    <i name="e_fr_energy">   -114.12600733 </i>
    <i name="e_wo_entrp">   -114.10753188 </i>
    <i name="e_0_energy">   -114.11676961 </i>
   </energy>
  </scstep>
  <scstep>
   <time name="dav">   70.62   70.66</time>
   <time name="total">   88.99   89.03</time>
   <energy>
    <i name="e_fr_energy">   -114.12505945 </i>
    <i name="e_wo_entrp">   -114.10656166 </i>
    <i name="e_0_energy">   -114.11581056 </i>
   </energy>
  </scstep>
  <scstep>
   <time name="dav">   69.95   69.99</time>
   <time name="total">   88.31   88.36</time>
   <energy>
    <i name="e_fr_energy">   -114.12458415 </i>
    <i name="e_wo_entrp">   -114.10609736 </i>
    <i name="e_0_energy">   -114.11534075 </i>
   </energy>
  </scstep>
  <scstep>
   <time name="dav">   65.32   65.36</time>
   <time name="total">   83.70   83.74</time>
   <energy>
    <i name="e_fr_energy">   -114.12527800 </i>
    <i name="e_wo_entrp">   -114.10678619 </i>
    <i name="e_0_energy">   -114.11603210 </i>
   </energy>
  </scstep>
  <scstep>
   <time name="dav">   68.19   68.23</time>
   <time name="total">   86.66   86.71</time>
   <energy>
    <i name="e_fr_energy">   -114.12538521 </i>
    <i name="e_wo_entrp">   -114.10689245 </i>
    <i name="e_0_energy">   -114.11613883 </i>
   </energy>
  </scstep>
  <scstep>
   <time name="dav">   63.47   63.51</time>
   <time name="total">   81.99   82.03</time>
   <energy>
    <i name="e_fr_energy">   -114.12555536 </i>
    <i name="e_wo_entrp">   -114.10706205 </i>
    <i name="e_0_energy">   -114.11630870 </i>
   </energy>
  </scstep>
  <scstep>
   <time name="dav">   57.18   57.21</time>
   <time name="total">   75.75   75.80</time>
   <energy>
    <i name="e_fr_energy">   -114.12563540 </i>
    <i name="e_wo_entrp">   -114.10714444 </i>
    <i name="e_0_energy">   -114.11638992 </i>
   </energy>
  </scstep>
  <scstep>
   <time name="dav">   59.70   59.74</time>
   <time name="total">   78.26   78.30</time>
   <energy>
    <i name="e_fr_energy">   -114.12561463 </i>
    <i name="e_wo_entrp">   -114.10712154 </i>
    <i name="e_0_energy">   -114.11636808 </i>
   </energy>
  </scstep>
  <scstep>
   <time name="dav">   58.41   58.44</time>
   <time name="total">   76.96   77.00</time>
   <energy>
    <i name="e_fr_energy">   -114.12560312 </i>
    <i name="e_wo_entrp">   -114.10710935 </i>
    <i name="e_0_energy">   -114.11635623 </i>
   </energy>
  </scstep>
  <scstep>
   <time name="dav">   58.58   58.61</time>
   <time name="total">   77.17   77.21</time>
   <energy>
    <i name="e_fr_energy">   -114.12553068 </i>
    <i name="e_wo_entrp">   -114.10703807 </i>
    <i name="e_0_energy">   -114.11628438 </i>
   </energy>
  </scstep>
  <scstep>
   <time name="dav">   53.47   53.50</time>
   <time name="total">   72.02   72.06</time>
   <energy>
    <i name="e_fr_energy">   -114.12550101 </i>
    <i name="e_wo_entrp">   -114.10700828 </i>
    <i name="e_0_energy">   -114.11625464 </i>
   </energy>
  </scstep>
  <scstep>
   <time name="dav">   57.65   57.68</time>
   <time name="total">   76.23   76.28</time>
   <energy>
    <i name="e_fr_energy">   -114.12548590 </i>
    <i name="e_wo_entrp">   -114.10699325 </i>
    <i name="e_0_energy">   -114.11623957 </i>
   </energy>
  </scstep>
  <scstep>
   <time name="dav">   56.25   56.26</time>
   <time name="total">   74.78   74.81</time>
   <energy>
    <i name="e_fr_energy">   -114.12548803 </i>
    <i name="e_wo_entrp">   -114.10699548 </i>
    <i name="e_0_energy">   -114.11624176 </i>
   </energy>
  </scstep>
  <scstep>
   <time name="dav">   53.69   53.78</time>
   <time name="total">   68.18   68.28</time>
   <energy>
    <i name="alphaZ">     36.80884744 </i>
    <i name="ewald">  12031.20033307 </i>
    <i name="hartreedc"> -15154.85329696 </i>
    <i name="XCdc">    -78.51484267 </i>
    <i name="pawpsdc">   1197.94889120 </i>
    <i name="pawaedc">   -878.03996498 </i>
    <i name="eentropy">     -0.01849253 </i>
    <i name="bandstr">   -622.69822402 </i>
    <i name="atom">   3354.04126044 </i>
    <i name="e_fr_energy">   -114.12548900 </i>
    <i name="e_wo_entrp">   -114.10699647 </i>
    <i name="e_0_energy">   -114.11624273 </i>
   </energy>
  </scstep>
  <structure>
   <crystal>
    <varray name="basis" >
     <v>       3.54040000       0.00000000       0.00000000 </v>
     <v>      -1.77020000      10.29434800       0.00000000 </v>
     <v>       0.00000000       0.00000000      27.50142900 </v>
    </varray>
    <i name="volume">   1002.32009712 </i>
    <varray name="rec_basis" >
     <v>       0.28245396       0.04857034       0.00000000 </v>
     <v>       0.00000000       0.09714068       0.00000000 </v>
     <v>       0.00000000       0.00000000       0.03636175 </v>
    </varray>
   </crystal>
   <varray name="positions" >
    <v>       0.11402300       0.22804500       0.23316207 </v>
    <v>       0.41402300       0.62804500       0.51499159 </v>
    <v>       0.45808900       0.91617900       0.20939482 </v>
    <v>       0.75808900       0.31617900       0.49122434 </v>
    <v>       0.31085400       0.62170900       0.08414979 </v>
    <v>       0.31085400       0.62170900       0.36597930 </v>
    <v>       0.99923000       0.99846000       0.08631254 </v>
    <v>       0.99923000       0.99846000       0.36814206 </v>
    <v>       0.65492700       0.30985400       0.06041748 </v>
    <v>       0.65492700       0.30985400       0.34224700 </v>
    <v>       0.76973800       0.53947500       0.20725292 </v>
    <v>       0.06973800       0.93947500       0.48908244 </v>
    <v>       0.93971600       0.87943300       0.15783749 </v>
    <v>       0.23971600       0.27943300       0.43966701 </v>
    <v>       0.20515200       0.41030300       0.18578822 </v>
    <v>       0.50515200       0.81030300       0.46761774 </v>
    <v>       0.20184900       0.40369900       0.09969156 </v>
    <v>       0.20184900       0.40369900       0.38152107 </v>
    <v>       0.56380500       0.12761000       0.10779021 </v>
    <v>       0.56380500       0.12761000       0.38961973 </v>
    <v>       0.56710600       0.13421200       0.19387616 </v>
    <v>       0.86710600       0.53421200       0.47570568 </v>
    <v>       0.82923400       0.65846800       0.13571444 </v>
    <v>       0.12923400       0.05846800       0.41754396 </v>
   </varray>
  </structure>
  <varray name="forces" >
   <v>       0.01623463      -0.04191049      -0.02351626 </v>
   <v>      -0.00551145      -0.02928866       0.13488938 </v>
   <v>       0.00003164      -0.01608047       0.07702130 </v>
   <v>      -0.37687001       0.24948561       0.34189027 </v>
   <v>      -0.00067092      -0.00514257       0.01080951 </v>
   <v>      -0.27117165      -0.19111621       0.97732962 </v>
   <v>       0.00211478      -0.00160971      -0.00188552 </v>
   <v>      -8.90352174     -15.11804941     -34.43056317 </v>
   <v>       0.00075767       0.00168539       0.00854235 </v>
   <v>       0.48699227      -0.24143394      -0.67077469 </v>
   <v>      -0.00112678       0.00434532       0.08878598 </v>
   <v>       0.04153612      -0.32016076       0.18006331 </v>
   <v>       0.00294457       0.00334871       0.00847721 </v>
   <v>      -0.22209052      -0.81251430       4.26917387 </v>
   <v>      -0.00131775      -0.00328314       0.04423404 </v>
   <v>      -0.09143128      -0.00790975      -0.21373179 </v>
   <v>      -0.00120520       0.00166711      -0.02015624 </v>
   <v>      -0.43202033       2.96348171      -3.13402166 </v>
   <v>      -0.00004982      -0.01879136      -0.00748224 </v>
   <v>      12.26771546       6.29391736      -8.34127547 </v>
   <v>      -0.00244262      -0.00679344      -0.00734404 </v>
   <v>       0.17275036       0.11541835      -0.13049420 </v>
   <v>       0.00118577       0.01610531      -0.00383040 </v>
   <v>      -2.68283319       7.16462931      40.84385886 </v>
  </varray>
  <varray name="stress" >
   <v>      40.59995079      18.27913481       2.71648092 </v>
   <v>      18.27913475      22.96776537      21.43509842 </v>
   <v>       2.71648108      21.43509825      92.14430353 </v>
  </varray>
  <energy>
   <i name="e_fr_energy">   -114.12548900 </i>
   <i name="e_wo_entrp">   -114.11624273 </i>
   <i name="e_0_energy">     -0.01849253 </i>
  </energy>
  <time name="totalsc"> 2310.57 2311.92</time>
  <eigenvalues>
   <array>
    <dimension dim="1">band</dimension>
    <dimension dim="2">kpoint</dimension>
    <dimension dim="3">spin</dimension>
    <field>eigene</field>
    <field>occ</field>
    <set>
     <set comment="spin 1">
      <set comment="kpoint 1">
       <r>  -15.6007    1.0000 </r>
       <r>  -13.5075    1.0000 </r>
       <r>  -13.2126    1.0000 </r>
       <r>  -12.7703    1.0000 </r>
       <r>  -12.7542    1.0000 </r>
       <r>  -12.4466    1.0000 </r>
       <r>  -12.0553    1.0000 </r>
       <r>  -11.8693    1.0000 </r>
       <r>  -11.5165    1.0000 </r>
       <r>  -11.4007    1.0000 </r>
       <r>  -10.9579    1.0000 </r>
       <r>  -10.0901    1.0000 </r>
       <r>   -9.0034    1.0000 </r>
       <r>   -8.0012    1.0000 </r>
       <r>   -7.7959    1.0000 </r>
       <r>   -7.2727    1.0000 </r>
       <r>   -7.2305    1.0000 </r>
       <r>   -6.7846    1.0000 </r>
       <r>   -6.4670    1.0000 </r>
       <r>   -6.3747    1.0000 </r>
       <r>   -5.7975    1.0000 </r>
       <r>   -5.7243    1.0000 </r>
       <r>   -5.4214    1.0000 </r>
       <r>   -4.7710    1.0000 </r>
       <r>   -4.7088    1.0000 </r>
       <r>   -4.0420    1.0000 </r>
       <r>   -3.7111    1.0000 </r>
       <r>   -3.6103    1.0000 </r>
       <r>   -3.2140    1.0000 </r>
       <r>   -3.1169    1.0000 </r>
       <r>   -3.0221    1.0000 </r>
       <r>   -2.9562    1.0000 </r>
       <r>   -2.8573    1.0000 </r>
       <r>   -2.8117    1.0000 </r>
       <r>   -2.7220    1.0000 </r>
       <r>   -2.5182    1.0000 </r>
       <r>   -2.4529    1.0000 </r>
       <r>   -2.3823    1.0000 </r>
       <r>   -2.3464    1.0000 </r>
       <r>   -2.1819    1.0000 </r>
       <r>   -2.0168    1.0000 </r>
       <r>   -1.9336    1.0000 </r>
       <r>   -1.8091    1.0000 </r>
       <r>   -1.6969    1.0000 </r>
       <r>   -1.6100    1.0000 </r>
       <r>   -1.5595    1.0000 </r>
       <r>   -1.5490    1.0000 </r>
       <r>   -1.4779    1.0000 </r>
       <r>   -1.3996    1.0000 </r>
       <r>   -1.3854    1.0000 </r>
       <r>   -1.1152    1.0000 </r>
       <r>   -1.0783    1.0000 </r>
       <r>   -0.3560    0.9974 </r>
       <r>    0.1560    0.0000 </r>
       <r>    0.8847    0.0000 </r>
       <r>    1.0710    0.0000 </r>
       <r>    1.1692    0.0000 </r>
       <r>    1.3112    0.0000 </r>
       <r>    1.3599    0.0000 </r>
       <r>    1.3756    0.0000 </r>
       <r>    1.6932    0.0000 </r>
       <r>    1.7780    0.0000 </r>
       <r>    1.9976    0.0000 </r>
       <r>    2.0375    0.0000 </r>
       <r>    2.1968    0.0000 </r>
       <r>    2.3687    0.0000 </r>
       <r>    2.4696    0.0000 </r>
       <r>    2.5329    0.0000 </r>
      </set>
      <set comment="kpoint 2">
       <r>  -15.5479    1.0000 </r>
       <r>  -13.4461    1.0000 </r>
       <r>  -13.1569    1.0000 </r>
       <r>  -12.7175    1.0000 </r>
       <r>  -12.6958    1.0000 </r>
       <r>  -12.3910    1.0000 </r>
       <r>  -11.9933    1.0000 </r>
       <r>  -11.8212    1.0000 </r>
       <r>  -11.4613    1.0000 </r>
       <r>  -11.3518    1.0000 </r>
       <r>  -10.9096    1.0000 </r>
       <r>  -10.0615    1.0000 </r>
       <r>   -8.9897    1.0000 </r>
       <r>   -8.0376    1.0000 </r>
       <r>   -7.7594    1.0000 </r>
       <r>   -7.3340    1.0000 </r>
       <r>   -7.1948    1.0000 </r>
       <r>   -6.7574    1.0000 </r>
       <r>   -6.4658    1.0000 </r>
       <r>   -6.4038    1.0000 </r>
       <r>   -6.0077    1.0000 </r>
       <r>   -5.7597    1.0000 </r>
       <r>   -5.3925    1.0000 </r>
       <r>   -4.7972    1.0000 </r>
       <r>   -4.7113    1.0000 </r>
       <r>   -4.0116    1.0000 </r>
       <r>   -3.7463    1.0000 </r>
       <r>   -3.6345    1.0000 </r>
       <r>   -3.4785    1.0000 </r>
       <r>   -3.3948    1.0000 </r>
       <r>   -3.2484    1.0000 </r>
       <r>   -3.1945    1.0000 </r>
       <r>   -3.1343    1.0000 </r>
       <r>   -2.9304    1.0000 </r>
       <r>   -2.8716    1.0000 </r>
       <r>   -2.7159    1.0000 </r>
       <r>   -2.6252    1.0000 </r>
       <r>   -2.4584    1.0000 </r>
       <r>   -2.4221    1.0000 </r>
       <r>   -2.2587    1.0000 </r>
       <r>   -2.1688    1.0000 </r>
       <r>   -2.0368    1.0000 </r>
       <r>   -2.0059    1.0000 </r>
       <r>   -1.9326    1.0000 </r>
       <r>   -1.8075    1.0000 </r>
       <r>   -1.7401    1.0000 </r>
       <r>   -1.6734    1.0000 </r>
       <r>   -1.4833    1.0000 </r>
       <r>   -1.3732    1.0000 </r>
       <r>   -1.2928    1.0000 </r>
       <r>   -1.0776    1.0000 </r>
       <r>   -0.9854    1.0000 </r>
       <r>   -0.2927    0.9711 </r>
       <r>    0.1628    0.0000 </r>
       <r>    0.7234    0.0000 </r>
       <r>    1.0231    0.0000 </r>
       <r>    1.1066    0.0000 </r>
       <r>    1.5180    0.0000 </r>
       <r>    1.6123    0.0000 </r>
       <r>    1.7974    0.0000 </r>
       <r>    2.0012    0.0000 </r>
       <r>    2.1646    0.0000 </r>
       <r>    2.2411    0.0000 </r>
       <r>    2.3279    0.0000 </r>
       <r>    2.3827    0.0000 </r>
       <r>    2.6246    0.0000 </r>
       <r>    2.6482    0.0000 </r>
       <r>    2.7468    0.0000 </r>
      </set>
      <set comment="kpoint 3">
       <r>  -15.3923    1.0000 </r>
       <r>  -13.2632    1.0000 </r>
       <r>  -12.9916    1.0000 </r>
       <r>  -12.5610    1.0000 </r>
       <r>  -12.5215    1.0000 </r>
       <r>  -12.2262    1.0000 </r>
       <r>  -11.8115    1.0000 </r>
       <r>  -11.6790    1.0000 </r>
       <r>  -11.3008    1.0000 </r>
       <r>  -11.2099    1.0000 </r>
       <r>  -10.7708    1.0000 </r>
       <r>   -9.9877    1.0000 </r>
       <r>   -8.9742    1.0000 </r>
       <r>   -8.1337    1.0000 </r>
       <r>   -7.7267    1.0000 </r>
       <r>   -7.6675    1.0000 </r>
       <r>   -7.1219    1.0000 </r>
       <r>   -6.7310    1.0000 </r>
       <r>   -6.6338    1.0000 </r>
       <r>   -6.4656    1.0000 </r>
       <r>   -6.1671    1.0000 </r>
       <r>   -5.6857    1.0000 </r>
       <r>   -5.4067    1.0000 </r>
       <r>   -4.8678    1.0000 </r>
       <r>   -4.8265    1.0000 </r>
       <r>   -4.2392    1.0000 </r>
       <r>   -4.1628    1.0000 </r>
       <r>   -4.0473    1.0000 </r>
       <r>   -3.9715    1.0000 </r>
       <r>   -3.9238    1.0000 </r>
       <r>   -3.7563    1.0000 </r>
       <r>   -3.6574    1.0000 </r>
       <r>   -3.3877    1.0000 </r>
       <r>   -3.3221    1.0000 </r>
       <r>   -3.2354    1.0000 </r>
       <r>   -3.1207    1.0000 </r>
       <r>   -2.9370    1.0000 </r>
       <r>   -2.8885    1.0000 </r>
       <r>   -2.6582    1.0000 </r>
       <r>   -2.5719    1.0000 </r>
       <r>   -2.4351    1.0000 </r>
       <r>   -2.3304    1.0000 </r>
       <r>   -2.2339    1.0000 </r>
       <r>   -2.1110    1.0000 </r>
       <r>   -1.9157    1.0000 </r>
       <r>   -1.7762    1.0000 </r>
       <r>   -1.6973    1.0000 </r>
       <r>   -1.6219    1.0000 </r>
       <r>   -1.3231    1.0000 </r>
       <r>   -1.1428    1.0000 </r>
       <r>   -0.9776    1.0000 </r>
       <r>   -0.6977    1.0000 </r>
       <r>   -0.4120    0.9998 </r>
       <r>   -0.0931    0.1772 </r>
       <r>    0.4366    0.0000 </r>
       <r>    0.6202    0.0000 </r>
       <r>    1.0955    0.0000 </r>
       <r>    1.8028    0.0000 </r>
       <r>    1.9749    0.0000 </r>
       <r>    2.2690    0.0000 </r>
       <r>    2.3968    0.0000 </r>
       <r>    2.4830    0.0000 </r>
       <r>    2.6325    0.0000 </r>
       <r>    2.6921    0.0000 </r>
       <r>    2.7376    0.0000 </r>
       <r>    2.9001    0.0000 </r>
       <r>    2.9941    0.0000 </r>
       <r>    3.0856    0.0000 </r>
      </set>
      <set comment="kpoint 4">
       <r>  -15.1446    1.0000 </r>
       <r>  -12.9622    1.0000 </r>
       <r>  -12.7236    1.0000 </r>
       <r>  -12.3044    1.0000 </r>
       <r>  -12.2393    1.0000 </r>
       <r>  -11.9594    1.0000 </r>
       <r>  -11.5265    1.0000 </r>
       <r>  -11.4510    1.0000 </r>
       <r>  -11.0543    1.0000 </r>
       <r>  -10.9933    1.0000 </r>
       <r>  -10.5677    1.0000 </r>
       <r>   -9.9217    1.0000 </r>
       <r>   -9.0592    1.0000 </r>
       <r>   -8.3270    1.0000 </r>
       <r>   -8.3028    1.0000 </r>
       <r>   -7.7884    1.0000 </r>
       <r>   -7.1288    1.0000 </r>
       <r>   -6.8738    1.0000 </r>
       <r>   -6.6546    1.0000 </r>
       <r>   -6.5998    1.0000 </r>
       <r>   -6.1751    1.0000 </r>
       <r>   -5.7083    1.0000 </r>
       <r>   -5.5912    1.0000 </r>
       <r>   -5.3058    1.0000 </r>
       <r>   -5.1640    1.0000 </r>
       <r>   -4.8044    1.0000 </r>
       <r>   -4.7052    1.0000 </r>
       <r>   -4.5697    1.0000 </r>
       <r>   -4.4740    1.0000 </r>
       <r>   -4.3770    1.0000 </r>
       <r>   -4.1468    1.0000 </r>
       <r>   -4.0021    1.0000 </r>
       <r>   -3.7728    1.0000 </r>
       <r>   -3.7430    1.0000 </r>
       <r>   -3.4496    1.0000 </r>
       <r>   -3.3725    1.0000 </r>
       <r>   -3.0886    1.0000 </r>
       <r>   -2.9730    1.0000 </r>
       <r>   -2.8640    1.0000 </r>
       <r>   -2.7722    1.0000 </r>
       <r>   -2.5947    1.0000 </r>
       <r>   -2.4520    1.0000 </r>
       <r>   -2.3739    1.0000 </r>
       <r>   -2.1543    1.0000 </r>
       <r>   -1.8779    1.0000 </r>
       <r>   -1.8332    1.0000 </r>
       <r>   -1.7497    1.0000 </r>
       <r>   -1.6982    1.0000 </r>
       <r>   -1.4416    1.0000 </r>
       <r>   -1.3628    1.0000 </r>
       <r>   -1.0367    1.0000 </r>
       <r>   -0.9189    1.0000 </r>
       <r>   -0.7129    1.0000 </r>
       <r>   -0.5015    1.0000 </r>
       <r>    0.3032    0.0000 </r>
       <r>    0.8924    0.0000 </r>
       <r>    1.0629    0.0000 </r>
       <r>    1.8375    0.0000 </r>
       <r>    1.8828    0.0000 </r>
       <r>    2.0486    0.0000 </r>
       <r>    2.1819    0.0000 </r>
       <r>    2.3338    0.0000 </r>
       <r>    2.4478    0.0000 </r>
       <r>    2.5820    0.0000 </r>
       <r>    2.6827    0.0000 </r>
       <r>    2.7622    0.0000 </r>
       <r>    2.9182    0.0000 </r>
       <r>    3.0021    0.0000 </r>
      </set>
      <set comment="kpoint 5">
       <r>  -14.8287    1.0000 </r>
       <r>  -12.5506    1.0000 </r>
       <r>  -12.3717    1.0000 </r>
       <r>  -11.9561    1.0000 </r>
       <r>  -11.8688    1.0000 </r>
       <r>  -11.6075    1.0000 </r>
       <r>  -11.1903    1.0000 </r>
       <r>  -11.1470    1.0000 </r>
       <r>  -10.7704    1.0000 </r>
       <r>  -10.7492    1.0000 </r>
       <r>  -10.3817    1.0000 </r>
       <r>  -10.0374    1.0000 </r>
       <r>   -9.2920    1.0000 </r>
       <r>   -8.7944    1.0000 </r>
       <r>   -8.6198    1.0000 </r>
       <r>   -8.0495    1.0000 </r>
       <r>   -7.3727    1.0000 </r>
       <r>   -7.0322    1.0000 </r>
       <r>   -6.9607    1.0000 </r>
       <r>   -6.8656    1.0000 </r>
       <r>   -6.3898    1.0000 </r>
       <r>   -6.1316    1.0000 </r>
       <r>   -5.9311    1.0000 </r>
       <r>   -5.7779    1.0000 </r>
       <r>   -5.6492    1.0000 </r>
       <r>   -5.1942    1.0000 </r>
       <r>   -5.0588    1.0000 </r>
       <r>   -4.7458    1.0000 </r>
       <r>   -4.6665    1.0000 </r>
       <r>   -4.5069    1.0000 </r>
       <r>   -4.2756    1.0000 </r>
       <r>   -4.1869    1.0000 </r>
       <r>   -3.9970    1.0000 </r>
       <r>   -3.8765    1.0000 </r>
       <r>   -3.3618    1.0000 </r>
       <r>   -3.3305    1.0000 </r>
       <r>   -3.1766    1.0000 </r>
       <r>   -3.0542    1.0000 </r>
       <r>   -2.9974    1.0000 </r>
       <r>   -2.9319    1.0000 </r>
       <r>   -2.7499    1.0000 </r>
       <r>   -2.5773    1.0000 </r>
       <r>   -2.3880    1.0000 </r>
       <r>   -2.2324    1.0000 </r>
       <r>   -2.0386    1.0000 </r>
       <r>   -1.9050    1.0000 </r>
       <r>   -1.8493    1.0000 </r>
       <r>   -1.7858    1.0000 </r>
       <r>   -1.6812    1.0000 </r>
       <r>   -1.6386    1.0000 </r>
       <r>   -1.3111    1.0000 </r>
       <r>   -1.2020    1.0000 </r>
       <r>   -1.0421    1.0000 </r>
       <r>   -0.7414    1.0000 </r>
       <r>    0.0213    0.0055 </r>
       <r>    0.7332    0.0000 </r>
       <r>    1.3060    0.0000 </r>
       <r>    1.6027    0.0000 </r>
       <r>    1.6774    0.0000 </r>
       <r>    1.8058    0.0000 </r>
       <r>    1.9785    0.0000 </r>
       <r>    2.0879    0.0000 </r>
       <r>    2.2513    0.0000 </r>
       <r>    2.3766    0.0000 </r>
       <r>    2.5201    0.0000 </r>
       <r>    2.6676    0.0000 </r>
       <r>    2.7976    0.0000 </r>
       <r>    2.8978    0.0000 </r>
      </set>
      <set comment="kpoint 6">
       <r>  -14.4978    1.0000 </r>
       <r>  -12.0449    1.0000 </r>
       <r>  -11.9937    1.0000 </r>
       <r>  -11.5369    1.0000 </r>
       <r>  -11.4570    1.0000 </r>
       <r>  -11.2095    1.0000 </r>
       <r>  -10.9244    1.0000 </r>
       <r>  -10.8149    1.0000 </r>
       <r>  -10.5954    1.0000 </r>
       <r>  -10.5776    1.0000 </r>
       <r>  -10.4224    1.0000 </r>
       <r>  -10.3323    1.0000 </r>
       <r>   -9.4650    1.0000 </r>
       <r>   -9.1528    1.0000 </r>
       <r>   -8.7966    1.0000 </r>
       <r>   -8.3421    1.0000 </r>
       <r>   -7.7270    1.0000 </r>
       <r>   -7.4256    1.0000 </r>
       <r>   -7.3808    1.0000 </r>
       <r>   -7.2219    1.0000 </r>
       <r>   -6.8355    1.0000 </r>
       <r>   -6.7280    1.0000 </r>
       <r>   -6.6272    1.0000 </r>
       <r>   -6.2584    1.0000 </r>
       <r>   -5.5084    1.0000 </r>
       <r>   -5.1922    1.0000 </r>
       <r>   -5.0152    1.0000 </r>
       <r>   -4.5892    1.0000 </r>
       <r>   -4.4948    1.0000 </r>
       <r>   -4.3661    1.0000 </r>
       <r>   -4.1959    1.0000 </r>
       <r>   -4.1018    1.0000 </r>
       <r>   -4.0413    1.0000 </r>
       <r>   -3.9248    1.0000 </r>
       <r>   -3.6227    1.0000 </r>
       <r>   -3.4258    1.0000 </r>
       <r>   -3.2362    1.0000 </r>
       <r>   -3.1933    1.0000 </r>
       <r>   -3.0609    1.0000 </r>
       <r>   -2.9970    1.0000 </r>
       <r>   -2.7633    1.0000 </r>
       <r>   -2.7041    1.0000 </r>
       <r>   -2.5426    1.0000 </r>
       <r>   -2.4315    1.0000 </r>
       <r>   -2.2544    1.0000 </r>
       <r>   -2.1377    1.0000 </r>
       <r>   -1.9969    1.0000 </r>
       <r>   -1.8628    1.0000 </r>
       <r>   -1.7976    1.0000 </r>
       <r>   -1.6848    1.0000 </r>
       <r>   -1.5416    1.0000 </r>
       <r>   -1.3915    1.0000 </r>
       <r>   -1.2847    1.0000 </r>
       <r>   -0.7342    1.0000 </r>
       <r>   -0.2561    0.9161 </r>
       <r>    0.3936    0.0000 </r>
       <r>    1.3056    0.0000 </r>
       <r>    1.4442    0.0000 </r>
       <r>    1.6087    0.0000 </r>
       <r>    1.7318    0.0000 </r>
       <r>    1.7681    0.0000 </r>
       <r>    1.8601    0.0000 </r>
       <r>    2.0915    0.0000 </r>
       <r>    2.2174    0.0000 </r>
       <r>    2.3022    0.0000 </r>
       <r>    2.4745    0.0000 </r>
       <r>    2.6294    0.0000 </r>
       <r>    2.7826    0.0000 </r>
      </set>
      <set comment="kpoint 7">
       <r>  -14.2617    1.0000 </r>
       <r>  -11.7778    1.0000 </r>
       <r>  -11.4667    1.0000 </r>
       <r>  -11.1144    1.0000 </r>
       <r>  -11.0948    1.0000 </r>
       <r>  -10.9092    1.0000 </r>
       <r>  -10.8235    1.0000 </r>
       <r>  -10.8095    1.0000 </r>
       <r>  -10.6952    1.0000 </r>
       <r>  -10.6052    1.0000 </r>
       <r>  -10.6015    1.0000 </r>
       <r>  -10.3593    1.0000 </r>
       <r>   -9.7734    1.0000 </r>
       <r>   -9.2368    1.0000 </r>
       <r>   -8.6553    1.0000 </r>
       <r>   -8.4046    1.0000 </r>
       <r>   -8.0451    1.0000 </r>
       <r>   -7.8477    1.0000 </r>
       <r>   -7.5890    1.0000 </r>
       <r>   -7.5361    1.0000 </r>
       <r>   -7.2523    1.0000 </r>
       <r>   -7.1538    1.0000 </r>
       <r>   -7.1226    1.0000 </r>
       <r>   -6.4127    1.0000 </r>
       <r>   -5.2053    1.0000 </r>
       <r>   -5.0105    1.0000 </r>
       <r>   -4.8773    1.0000 </r>
       <r>   -4.4823    1.0000 </r>
       <r>   -4.4504    1.0000 </r>
       <r>   -4.2378    1.0000 </r>
       <r>   -4.1028    1.0000 </r>
       <r>   -4.0129    1.0000 </r>
       <r>   -3.9134    1.0000 </r>
       <r>   -3.8069    1.0000 </r>
       <r>   -3.7518    1.0000 </r>
       <r>   -3.5693    1.0000 </r>
       <r>   -3.4765    1.0000 </r>
       <r>   -3.2320    1.0000 </r>
       <r>   -3.2093    1.0000 </r>
       <r>   -3.0164    1.0000 </r>
       <r>   -2.9254    1.0000 </r>
       <r>   -2.8856    1.0000 </r>
       <r>   -2.7222    1.0000 </r>
       <r>   -2.6388    1.0000 </r>
       <r>   -2.3222    1.0000 </r>
       <r>   -2.1692    1.0000 </r>
       <r>   -2.1011    1.0000 </r>
       <r>   -1.9375    1.0000 </r>
       <r>   -1.8245    1.0000 </r>
       <r>   -1.6401    1.0000 </r>
       <r>   -1.5773    1.0000 </r>
       <r>   -1.4769    1.0000 </r>
       <r>   -1.3730    1.0000 </r>
       <r>   -0.7710    1.0000 </r>
       <r>   -0.3420    0.9953 </r>
       <r>    0.1414    0.0000 </r>
       <r>    1.2101    0.0000 </r>
       <r>    1.3979    0.0000 </r>
       <r>    1.5368    0.0000 </r>
       <r>    1.6051    0.0000 </r>
       <r>    1.6694    0.0000 </r>
       <r>    1.8711    0.0000 </r>
       <r>    1.9347    0.0000 </r>
       <r>    2.0853    0.0000 </r>
       <r>    2.3450    0.0000 </r>
       <r>    2.4354    0.0000 </r>
       <r>    2.5025    0.0000 </r>
       <r>    2.6846    0.0000 </r>
      </set>
      <set comment="kpoint 8">
       <r>  -15.5999    1.0000 </r>
       <r>  -13.4522    1.0000 </r>
       <r>  -13.2485    1.0000 </r>
       <r>  -12.9420    1.0000 </r>
       <r>  -12.6747    1.0000 </r>
       <r>  -12.4450    1.0000 </r>
       <r>  -12.0146    1.0000 </r>
       <r>  -11.8359    1.0000 </r>
       <r>  -11.4467    1.0000 </r>
       <r>  -11.3993    1.0000 </r>
       <r>  -10.9667    1.0000 </r>
       <r>  -10.0608    1.0000 </r>
       <r>   -9.1066    1.0000 </r>
       <r>   -8.4828    1.0000 </r>
       <r>   -7.4084    1.0000 </r>
       <r>   -7.2495    1.0000 </r>
       <r>   -7.2070    1.0000 </r>
       <r>   -6.6384    1.0000 </r>
       <r>   -6.5697    1.0000 </r>
       <r>   -6.2780    1.0000 </r>
       <r>   -5.7275    1.0000 </r>
       <r>   -5.7031    1.0000 </r>
       <r>   -5.4642    1.0000 </r>
       <r>   -4.6235    1.0000 </r>
       <r>   -4.5723    1.0000 </r>
       <r>   -4.0319    1.0000 </r>
       <r>   -3.9694    1.0000 </r>
       <r>   -3.5726    1.0000 </r>
       <r>   -3.3520    1.0000 </r>
       <r>   -3.3007    1.0000 </r>
       <r>   -3.1261    1.0000 </r>
       <r>   -3.0942    1.0000 </r>
       <r>   -2.8825    1.0000 </r>
       <r>   -2.6916    1.0000 </r>
       <r>   -2.6760    1.0000 </r>
       <r>   -2.5524    1.0000 </r>
       <r>   -2.3698    1.0000 </r>
       <r>   -2.3499    1.0000 </r>
       <r>   -2.2574    1.0000 </r>
       <r>   -2.2173    1.0000 </r>
       <r>   -2.0893    1.0000 </r>
       <r>   -1.9386    1.0000 </r>
       <r>   -1.8670    1.0000 </r>
       <r>   -1.8474    1.0000 </r>
       <r>   -1.6442    1.0000 </r>
       <r>   -1.5949    1.0000 </r>
       <r>   -1.4951    1.0000 </r>
       <r>   -1.4431    1.0000 </r>
       <r>   -1.3295    1.0000 </r>
       <r>   -1.2787    1.0000 </r>
       <r>   -1.0930    1.0000 </r>
       <r>   -1.0182    1.0000 </r>
       <r>   -0.3357    0.9939 </r>
       <r>   -0.0206    0.0255 </r>
       <r>    0.9829    0.0000 </r>
       <r>    1.0795    0.0000 </r>
       <r>    1.2208    0.0000 </r>
       <r>    1.2858    0.0000 </r>
       <r>    1.4173    0.0000 </r>
       <r>    1.4661    0.0000 </r>
       <r>    1.7315    0.0000 </r>
       <r>    1.7723    0.0000 </r>
       <r>    1.9423    0.0000 </r>
       <r>    2.1103    0.0000 </r>
       <r>    2.2693    0.0000 </r>
       <r>    2.3367    0.0000 </r>
       <r>    2.5620    0.0000 </r>
       <r>    2.6557    0.0000 </r>
      </set>
      <set comment="kpoint 9">
       <r>  -15.5470    1.0000 </r>
       <r>  -13.3754    1.0000 </r>
       <r>  -13.1985    1.0000 </r>
       <r>  -12.9229    1.0000 </r>
       <r>  -12.5984    1.0000 </r>
       <r>  -12.3879    1.0000 </r>
       <r>  -11.9894    1.0000 </r>
       <r>  -11.7369    1.0000 </r>
       <r>  -11.4051    1.0000 </r>
       <r>  -11.3262    1.0000 </r>
       <r>  -10.9224    1.0000 </r>
       <r>  -10.0267    1.0000 </r>
       <r>   -9.1131    1.0000 </r>
       <r>   -8.5413    1.0000 </r>
       <r>   -7.4160    1.0000 </r>
       <r>   -7.2617    1.0000 </r>
       <r>   -7.1655    1.0000 </r>
       <r>   -6.6472    1.0000 </r>
       <r>   -6.4988    1.0000 </r>
       <r>   -6.3125    1.0000 </r>
       <r>   -5.9581    1.0000 </r>
       <r>   -5.6671    1.0000 </r>
       <r>   -5.4816    1.0000 </r>
       <r>   -4.6604    1.0000 </r>
       <r>   -4.5749    1.0000 </r>
       <r>   -4.0819    1.0000 </r>
       <r>   -3.9661    1.0000 </r>
       <r>   -3.6323    1.0000 </r>
       <r>   -3.5322    1.0000 </r>
       <r>   -3.4186    1.0000 </r>
       <r>   -3.3534    1.0000 </r>
       <r>   -3.2213    1.0000 </r>
       <r>   -3.0527    1.0000 </r>
       <r>   -3.0012    1.0000 </r>
       <r>   -2.9793    1.0000 </r>
       <r>   -2.7325    1.0000 </r>
       <r>   -2.6252    1.0000 </r>
       <r>   -2.4989    1.0000 </r>
       <r>   -2.4408    1.0000 </r>
       <r>   -2.2632    1.0000 </r>
       <r>   -2.1585    1.0000 </r>
       <r>   -2.0955    1.0000 </r>
       <r>   -2.0253    1.0000 </r>
       <r>   -1.9696    1.0000 </r>
       <r>   -1.8009    1.0000 </r>
       <r>   -1.7206    1.0000 </r>
       <r>   -1.6471    1.0000 </r>
       <r>   -1.4134    1.0000 </r>
       <r>   -1.3652    1.0000 </r>
       <r>   -1.2120    1.0000 </r>
       <r>   -1.0355    1.0000 </r>
       <r>   -0.9394    1.0000 </r>
       <r>   -0.2853    0.9635 </r>
       <r>   -0.0164    0.0222 </r>
       <r>    0.7613    0.0000 </r>
       <r>    1.0420    0.0000 </r>
       <r>    1.1884    0.0000 </r>
       <r>    1.5463    0.0000 </r>
       <r>    1.6385    0.0000 </r>
       <r>    1.8113    0.0000 </r>
       <r>    1.9706    0.0000 </r>
       <r>    2.0639    0.0000 </r>
       <r>    2.2681    0.0000 </r>
       <r>    2.4484    0.0000 </r>
       <r>    2.5636    0.0000 </r>
       <r>    2.6212    0.0000 </r>
       <r>    2.7017    0.0000 </r>
       <r>    2.8346    0.0000 </r>
      </set>
      <set comment="kpoint 10">
       <r>  -15.3914    1.0000 </r>
       <r>  -13.1790    1.0000 </r>
       <r>  -13.0344    1.0000 </r>
       <r>  -12.7865    1.0000 </r>
       <r>  -12.4140    1.0000 </r>
       <r>  -12.2217    1.0000 </r>
       <r>  -11.8586    1.0000 </r>
       <r>  -11.5392    1.0000 </r>
       <r>  -11.2656    1.0000 </r>
       <r>  -11.1589    1.0000 </r>
       <r>  -10.7811    1.0000 </r>
       <r>   -9.9533    1.0000 </r>
       <r>   -9.0939    1.0000 </r>
       <r>   -8.6068    1.0000 </r>
       <r>   -7.7060    1.0000 </r>
       <r>   -7.2751    1.0000 </r>
       <r>   -7.1242    1.0000 </r>
       <r>   -6.6312    1.0000 </r>
       <r>   -6.6062    1.0000 </r>
       <r>   -6.4645    1.0000 </r>
       <r>   -6.0777    1.0000 </r>
       <r>   -5.6201    1.0000 </r>
       <r>   -5.5213    1.0000 </r>
       <r>   -4.8123    1.0000 </r>
       <r>   -4.6739    1.0000 </r>
       <r>   -4.3497    1.0000 </r>
       <r>   -4.2659    1.0000 </r>
       <r>   -4.1612    1.0000 </r>
       <r>   -4.0019    1.0000 </r>
       <r>   -3.9273    1.0000 </r>
       <r>   -3.7603    1.0000 </r>
       <r>   -3.5918    1.0000 </r>
       <r>   -3.3923    1.0000 </r>
       <r>   -3.2825    1.0000 </r>
       <r>   -3.1611    1.0000 </r>
       <r>   -3.0242    1.0000 </r>
       <r>   -2.9317    1.0000 </r>
       <r>   -2.8666    1.0000 </r>
       <r>   -2.7655    1.0000 </r>
       <r>   -2.6880    1.0000 </r>
       <r>   -2.5710    1.0000 </r>
       <r>   -2.4074    1.0000 </r>
       <r>   -2.2943    1.0000 </r>
       <r>   -2.1065    1.0000 </r>
       <r>   -1.9289    1.0000 </r>
       <r>   -1.8456    1.0000 </r>
       <r>   -1.6418    1.0000 </r>
       <r>   -1.4691    1.0000 </r>
       <r>   -1.2738    1.0000 </r>
       <r>   -1.0833    1.0000 </r>
       <r>   -0.9451    1.0000 </r>
       <r>   -0.7213    1.0000 </r>
       <r>   -0.4011    0.9997 </r>
       <r>   -0.1736    0.5841 </r>
       <r>    0.4077    0.0000 </r>
       <r>    0.5765    0.0000 </r>
       <r>    1.1621    0.0000 </r>
       <r>    1.6703    0.0000 </r>
       <r>    1.8209    0.0000 </r>
       <r>    2.1520    0.0000 </r>
       <r>    2.3735    0.0000 </r>
       <r>    2.4610    0.0000 </r>
       <r>    2.7170    0.0000 </r>
       <r>    2.7552    0.0000 </r>
       <r>    2.8241    0.0000 </r>
       <r>    2.9053    0.0000 </r>
       <r>    3.0787    0.0000 </r>
       <r>    3.1412    0.0000 </r>
      </set>
      <set comment="kpoint 11">
       <r>  -15.1438    1.0000 </r>
       <r>  -12.8680    1.0000 </r>
       <r>  -12.7622    1.0000 </r>
       <r>  -12.5352    1.0000 </r>
       <r>  -12.1326    1.0000 </r>
       <r>  -11.9542    1.0000 </r>
       <r>  -11.6301    1.0000 </r>
       <r>  -11.2626    1.0000 </r>
       <r>  -11.0438    1.0000 </r>
       <r>  -10.9175    1.0000 </r>
       <r>  -10.5639    1.0000 </r>
       <r>   -9.8984    1.0000 </r>
       <r>   -9.1327    1.0000 </r>
       <r>   -8.7380    1.0000 </r>
       <r>   -8.3211    1.0000 </r>
       <r>   -7.3610    1.0000 </r>
       <r>   -7.2333    1.0000 </r>
       <r>   -6.7434    1.0000 </r>
       <r>   -6.6629    1.0000 </r>
       <r>   -6.6103    1.0000 </r>
       <r>   -6.1296    1.0000 </r>
       <r>   -5.7908    1.0000 </r>
       <r>   -5.6757    1.0000 </r>
       <r>   -5.1794    1.0000 </r>
       <r>   -5.0795    1.0000 </r>
       <r>   -4.9943    1.0000 </r>
       <r>   -4.7369    1.0000 </r>
       <r>   -4.6282    1.0000 </r>
       <r>   -4.5191    1.0000 </r>
       <r>   -4.3938    1.0000 </r>
       <r>   -4.0031    1.0000 </r>
       <r>   -3.9804    1.0000 </r>
       <r>   -3.7143    1.0000 </r>
       <r>   -3.6791    1.0000 </r>
       <r>   -3.2677    1.0000 </r>
       <r>   -3.1792    1.0000 </r>
       <r>   -3.0782    1.0000 </r>
       <r>   -3.0476    1.0000 </r>
       <r>   -2.9736    1.0000 </r>
       <r>   -2.8097    1.0000 </r>
       <r>   -2.6179    1.0000 </r>
       <r>   -2.5004    1.0000 </r>
       <r>   -2.4751    1.0000 </r>
       <r>   -2.1638    1.0000 </r>
       <r>   -1.9583    1.0000 </r>
       <r>   -1.8731    1.0000 </r>
       <r>   -1.7455    1.0000 </r>
       <r>   -1.6787    1.0000 </r>
       <r>   -1.4043    1.0000 </r>
       <r>   -1.3445    1.0000 </r>
       <r>   -0.9992    1.0000 </r>
       <r>   -0.9729    1.0000 </r>
       <r>   -0.7688    1.0000 </r>
       <r>   -0.4164    0.9999 </r>
       <r>    0.1805    0.0000 </r>
       <r>    0.8885    0.0000 </r>
       <r>    1.1069    0.0000 </r>
       <r>    1.4804    0.0000 </r>
       <r>    1.6232    0.0000 </r>
       <r>    1.7306    0.0000 </r>
       <r>    2.1380    0.0000 </r>
       <r>    2.2595    0.0000 </r>
       <r>    2.5048    0.0000 </r>
       <r>    2.6297    0.0000 </r>
       <r>    2.7271    0.0000 </r>
       <r>    2.8384    0.0000 </r>
       <r>    3.0069    0.0000 </r>
       <r>    3.0741    0.0000 </r>
      </set>
      <set comment="kpoint 12">
       <r>  -14.8281    1.0000 </r>
       <r>  -12.4534    1.0000 </r>
       <r>  -12.3982    1.0000 </r>
       <r>  -12.1763    1.0000 </r>
       <r>  -11.7793    1.0000 </r>
       <r>  -11.6032    1.0000 </r>
       <r>  -11.3262    1.0000 </r>
       <r>  -10.9489    1.0000 </r>
       <r>  -10.7800    1.0000 </r>
       <r>  -10.6541    1.0000 </r>
       <r>  -10.3583    1.0000 </r>
       <r>  -10.0383    1.0000 </r>
       <r>   -9.2918    1.0000 </r>
       <r>   -8.9370    1.0000 </r>
       <r>   -8.8030    1.0000 </r>
       <r>   -7.6716    1.0000 </r>
       <r>   -7.5263    1.0000 </r>
       <r>   -7.0794    1.0000 </r>
       <r>   -6.9297    1.0000 </r>
       <r>   -6.9091    1.0000 </r>
       <r>   -6.3612    1.0000 </r>
       <r>   -6.1603    1.0000 </r>
       <r>   -5.8897    1.0000 </r>
       <r>   -5.8489    1.0000 </r>
       <r>   -5.6438    1.0000 </r>
       <r>   -5.3516    1.0000 </r>
       <r>   -5.0552    1.0000 </r>
       <r>   -4.9057    1.0000 </r>
       <r>   -4.5043    1.0000 </r>
       <r>   -4.3870    1.0000 </r>
       <r>   -4.2912    1.0000 </r>
       <r>   -4.0405    1.0000 </r>
       <r>   -3.9797    1.0000 </r>
       <r>   -3.7541    1.0000 </r>
       <r>   -3.3363    1.0000 </r>
       <r>   -3.3064    1.0000 </r>
       <r>   -3.0689    1.0000 </r>
       <r>   -2.9727    1.0000 </r>
       <r>   -2.8730    1.0000 </r>
       <r>   -2.8214    1.0000 </r>
       <r>   -2.7943    1.0000 </r>
       <r>   -2.5552    1.0000 </r>
       <r>   -2.4713    1.0000 </r>
       <r>   -2.3391    1.0000 </r>
       <r>   -2.2697    1.0000 </r>
       <r>   -1.9455    1.0000 </r>
       <r>   -1.8576    1.0000 </r>
       <r>   -1.7955    1.0000 </r>
       <r>   -1.7179    1.0000 </r>
       <r>   -1.6526    1.0000 </r>
       <r>   -1.3498    1.0000 </r>
       <r>   -1.2576    1.0000 </r>
       <r>   -1.0489    1.0000 </r>
       <r>   -0.6994    1.0000 </r>
       <r>   -0.0692    0.1031 </r>
       <r>    0.6684    0.0000 </r>
       <r>    1.2570    0.0000 </r>
       <r>    1.3029    0.0000 </r>
       <r>    1.4768    0.0000 </r>
       <r>    1.5835    0.0000 </r>
       <r>    1.9095    0.0000 </r>
       <r>    2.1903    0.0000 </r>
       <r>    2.2241    0.0000 </r>
       <r>    2.4494    0.0000 </r>
       <r>    2.4701    0.0000 </r>
       <r>    2.6350    0.0000 </r>
       <r>    2.7820    0.0000 </r>
       <r>    2.9640    0.0000 </r>
      </set>
      <set comment="kpoint 13">
       <r>  -14.4974    1.0000 </r>
       <r>  -12.0116    1.0000 </r>
       <r>  -11.9419    1.0000 </r>
       <r>  -11.7265    1.0000 </r>
       <r>  -11.4177    1.0000 </r>
       <r>  -11.2089    1.0000 </r>
       <r>  -11.0059    1.0000 </r>
       <r>  -10.6913    1.0000 </r>
       <r>  -10.5690    1.0000 </r>
       <r>  -10.5275    1.0000 </r>
       <r>  -10.4349    1.0000 </r>
       <r>  -10.3236    1.0000 </r>
       <r>   -9.4484    1.0000 </r>
       <r>   -9.1381    1.0000 </r>
       <r>   -8.9270    1.0000 </r>
       <r>   -8.0766    1.0000 </r>
       <r>   -7.8153    1.0000 </r>
       <r>   -7.7460    1.0000 </r>
       <r>   -7.3232    1.0000 </r>
       <r>   -7.1489    1.0000 </r>
       <r>   -6.9008    1.0000 </r>
       <r>   -6.6620    1.0000 </r>
       <r>   -6.6270    1.0000 </r>
       <r>   -6.2395    1.0000 </r>
       <r>   -5.5514    1.0000 </r>
       <r>   -5.3152    1.0000 </r>
       <r>   -4.9923    1.0000 </r>
       <r>   -4.7504    1.0000 </r>
       <r>   -4.4733    1.0000 </r>
       <r>   -4.3689    1.0000 </r>
       <r>   -4.1273    1.0000 </r>
       <r>   -4.0824    1.0000 </r>
       <r>   -3.8289    1.0000 </r>
       <r>   -3.6855    1.0000 </r>
       <r>   -3.4750    1.0000 </r>
       <r>   -3.3204    1.0000 </r>
       <r>   -3.2536    1.0000 </r>
       <r>   -3.0964    1.0000 </r>
       <r>   -3.0472    1.0000 </r>
       <r>   -2.9602    1.0000 </r>
       <r>   -2.8296    1.0000 </r>
       <r>   -2.7374    1.0000 </r>
       <r>   -2.6180    1.0000 </r>
       <r>   -2.5202    1.0000 </r>
       <r>   -2.2833    1.0000 </r>
       <r>   -2.1752    1.0000 </r>
       <r>   -2.0429    1.0000 </r>
       <r>   -1.8971    1.0000 </r>
       <r>   -1.8488    1.0000 </r>
       <r>   -1.7083    1.0000 </r>
       <r>   -1.5430    1.0000 </r>
       <r>   -1.4664    1.0000 </r>
       <r>   -1.3742    1.0000 </r>
       <r>   -0.7244    1.0000 </r>
       <r>   -0.2779    0.9543 </r>
       <r>    0.3744    0.0000 </r>
       <r>    1.2230    0.0000 </r>
       <r>    1.3252    0.0000 </r>
       <r>    1.3799    0.0000 </r>
       <r>    1.5389    0.0000 </r>
       <r>    1.8359    0.0000 </r>
       <r>    1.9265    0.0000 </r>
       <r>    2.0613    0.0000 </r>
       <r>    2.1352    0.0000 </r>
       <r>    2.2691    0.0000 </r>
       <r>    2.5761    0.0000 </r>
       <r>    2.6722    0.0000 </r>
       <r>    2.6871    0.0000 </r>
      </set>
      <set comment="kpoint 14">
       <r>  -14.2616    1.0000 </r>
       <r>  -11.7743    1.0000 </r>
       <r>  -11.3952    1.0000 </r>
       <r>  -11.2314    1.0000 </r>
       <r>  -11.1163    1.0000 </r>
       <r>  -10.9223    1.0000 </r>
       <r>  -10.8320    1.0000 </r>
       <r>  -10.8040    1.0000 </r>
       <r>  -10.6666    1.0000 </r>
       <r>  -10.6149    1.0000 </r>
       <r>  -10.5475    1.0000 </r>
       <r>  -10.3480    1.0000 </r>
       <r>   -9.7741    1.0000 </r>
       <r>   -9.2170    1.0000 </r>
       <r>   -8.5216    1.0000 </r>
       <r>   -8.3661    1.0000 </r>
       <r>   -8.2929    1.0000 </r>
       <r>   -7.8737    1.0000 </r>
       <r>   -7.5806    1.0000 </r>
       <r>   -7.4820    1.0000 </r>
       <r>   -7.2818    1.0000 </r>
       <r>   -7.1559    1.0000 </r>
       <r>   -7.1057    1.0000 </r>
       <r>   -6.4003    1.0000 </r>
       <r>   -5.2356    1.0000 </r>
       <r>   -5.0091    1.0000 </r>
       <r>   -4.9633    1.0000 </r>
       <r>   -4.4870    1.0000 </r>
       <r>   -4.4355    1.0000 </r>
       <r>   -4.1867    1.0000 </r>
       <r>   -4.1163    1.0000 </r>
       <r>   -4.0378    1.0000 </r>
       <r>   -3.8959    1.0000 </r>
       <r>   -3.7604    1.0000 </r>
       <r>   -3.6284    1.0000 </r>
       <r>   -3.4705    1.0000 </r>
       <r>   -3.3801    1.0000 </r>
       <r>   -3.2374    1.0000 </r>
       <r>   -3.1966    1.0000 </r>
       <r>   -3.1301    1.0000 </r>
       <r>   -2.9492    1.0000 </r>
       <r>   -2.8651    1.0000 </r>
       <r>   -2.6021    1.0000 </r>
       <r>   -2.5657    1.0000 </r>
       <r>   -2.5504    1.0000 </r>
       <r>   -2.1613    1.0000 </r>
       <r>   -2.0921    1.0000 </r>
       <r>   -1.9965    1.0000 </r>
       <r>   -1.8235    1.0000 </r>
       <r>   -1.6591    1.0000 </r>
       <r>   -1.6412    1.0000 </r>
       <r>   -1.5128    1.0000 </r>
       <r>   -1.4205    1.0000 </r>
       <r>   -0.7691    1.0000 </r>
       <r>   -0.3390    0.9946 </r>
       <r>    0.1783    0.0000 </r>
       <r>    1.2560    0.0000 </r>
       <r>    1.4472    0.0000 </r>
       <r>    1.5187    0.0000 </r>
       <r>    1.5701    0.0000 </r>
       <r>    1.6122    0.0000 </r>
       <r>    1.7344    0.0000 </r>
       <r>    1.9265    0.0000 </r>
       <r>    2.1022    0.0000 </r>
       <r>    2.2827    0.0000 </r>
       <r>    2.4679    0.0000 </r>
       <r>    2.4896    0.0000 </r>
       <r>    2.5438    0.0000 </r>
      </set>
      <set comment="kpoint 15">
       <r>  -14.2618    1.0000 </r>
       <r>  -11.7767    1.0000 </r>
       <r>  -11.5005    1.0000 </r>
       <r>  -11.0941    1.0000 </r>
       <r>  -11.0377    1.0000 </r>
       <r>  -10.8952    1.0000 </r>
       <r>  -10.8123    1.0000 </r>
       <r>  -10.7766    1.0000 </r>
       <r>  -10.7215    1.0000 </r>
       <r>  -10.6713    1.0000 </r>
       <r>  -10.6229    1.0000 </r>
       <r>  -10.3535    1.0000 </r>
       <r>   -9.7765    1.0000 </r>
       <r>   -9.2311    1.0000 </r>
       <r>   -8.7238    1.0000 </r>
       <r>   -8.3984    1.0000 </r>
       <r>   -7.9100    1.0000 </r>
       <r>   -7.8398    1.0000 </r>
       <r>   -7.6223    1.0000 </r>
       <r>   -7.5693    1.0000 </r>
       <r>   -7.2472    1.0000 </r>
       <r>   -7.1888    1.0000 </r>
       <r>   -7.0978    1.0000 </r>
       <r>   -6.4043    1.0000 </r>
       <r>   -5.2434    1.0000 </r>
       <r>   -4.9869    1.0000 </r>
       <r>   -4.6989    1.0000 </r>
       <r>   -4.5463    1.0000 </r>
       <r>   -4.4128    1.0000 </r>
       <r>   -4.3265    1.0000 </r>
       <r>   -4.0661    1.0000 </r>
       <r>   -3.9737    1.0000 </r>
       <r>   -3.9621    1.0000 </r>
       <r>   -3.8684    1.0000 </r>
       <r>   -3.8486    1.0000 </r>
       <r>   -3.6474    1.0000 </r>
       <r>   -3.5356    1.0000 </r>
       <r>   -3.3175    1.0000 </r>
       <r>   -3.1102    1.0000 </r>
       <r>   -3.0350    1.0000 </r>
       <r>   -2.9177    1.0000 </r>
       <r>   -2.7549    1.0000 </r>
       <r>   -2.6472    1.0000 </r>
       <r>   -2.5699    1.0000 </r>
       <r>   -2.3455    1.0000 </r>
       <r>   -2.1508    1.0000 </r>
       <r>   -2.1180    1.0000 </r>
       <r>   -2.0277    1.0000 </r>
       <r>   -1.8425    1.0000 </r>
       <r>   -1.6479    1.0000 </r>
       <r>   -1.5710    1.0000 </r>
       <r>   -1.4682    1.0000 </r>
       <r>   -1.3660    1.0000 </r>
       <r>   -0.7747    1.0000 </r>
       <r>   -0.3456    0.9959 </r>
       <r>    0.2149    0.0000 </r>
       <r>    1.2470    0.0000 </r>
       <r>    1.3956    0.0000 </r>
       <r>    1.5517    0.0000 </r>
       <r>    1.6810    0.0000 </r>
       <r>    1.7657    0.0000 </r>
       <r>    1.7974    0.0000 </r>
       <r>    1.9689    0.0000 </r>
       <r>    2.2280    0.0000 </r>
       <r>    2.3844    0.0000 </r>
       <r>    2.4000    0.0000 </r>
       <r>    2.4954    0.0000 </r>
       <r>    2.6246    0.0000 </r>
      </set>
      <set comment="kpoint 16">
       <r>  -14.4979    1.0000 </r>
       <r>  -12.0699    1.0000 </r>
       <r>  -11.9858    1.0000 </r>
       <r>  -11.4818    1.0000 </r>
       <r>  -11.4517    1.0000 </r>
       <r>  -11.2072    1.0000 </r>
       <r>  -10.9020    1.0000 </r>
       <r>  -10.8783    1.0000 </r>
       <r>  -10.6082    1.0000 </r>
       <r>  -10.5981    1.0000 </r>
       <r>  -10.4177    1.0000 </r>
       <r>  -10.3294    1.0000 </r>
       <r>   -9.4659    1.0000 </r>
       <r>   -9.1557    1.0000 </r>
       <r>   -8.7084    1.0000 </r>
       <r>   -8.4558    1.0000 </r>
       <r>   -7.7001    1.0000 </r>
       <r>   -7.4061    1.0000 </r>
       <r>   -7.2989    1.0000 </r>
       <r>   -7.2582    1.0000 </r>
       <r>   -6.8200    1.0000 </r>
       <r>   -6.7777    1.0000 </r>
       <r>   -6.6310    1.0000 </r>
       <r>   -6.2389    1.0000 </r>
       <r>   -5.4921    1.0000 </r>
       <r>   -5.1034    1.0000 </r>
       <r>   -4.9700    1.0000 </r>
       <r>   -4.7992    1.0000 </r>
       <r>   -4.3775    1.0000 </r>
       <r>   -4.3304    1.0000 </r>
       <r>   -4.2234    1.0000 </r>
       <r>   -4.1356    1.0000 </r>
       <r>   -4.0523    1.0000 </r>
       <r>   -3.9512    1.0000 </r>
       <r>   -3.6893    1.0000 </r>
       <r>   -3.3874    1.0000 </r>
       <r>   -3.3328    1.0000 </r>
       <r>   -3.2146    1.0000 </r>
       <r>   -3.1470    1.0000 </r>
       <r>   -3.0702    1.0000 </r>
       <r>   -2.7519    1.0000 </r>
       <r>   -2.6573    1.0000 </r>
       <r>   -2.4801    1.0000 </r>
       <r>   -2.3648    1.0000 </r>
       <r>   -2.2201    1.0000 </r>
       <r>   -2.1477    1.0000 </r>
       <r>   -1.9184    1.0000 </r>
       <r>   -1.8920    1.0000 </r>
       <r>   -1.8235    1.0000 </r>
       <r>   -1.6776    1.0000 </r>
       <r>   -1.5172    1.0000 </r>
       <r>   -1.3786    1.0000 </r>
       <r>   -1.2846    1.0000 </r>
       <r>   -0.7635    1.0000 </r>
       <r>   -0.2253    0.8273 </r>
       <r>    0.4401    0.0000 </r>
       <r>    1.2745    0.0000 </r>
       <r>    1.4221    0.0000 </r>
       <r>    1.5342    0.0000 </r>
       <r>    1.7993    0.0000 </r>
       <r>    1.9274    0.0000 </r>
       <r>    2.0694    0.0000 </r>
       <r>    2.1422    0.0000 </r>
       <r>    2.2979    0.0000 </r>
       <r>    2.4280    0.0000 </r>
       <r>    2.4975    0.0000 </r>
       <r>    2.6161    0.0000 </r>
       <r>    2.6783    0.0000 </r>
      </set>
      <set comment="kpoint 17">
       <r>  -14.8288    1.0000 </r>
       <r>  -12.5628    1.0000 </r>
       <r>  -12.3636    1.0000 </r>
       <r>  -11.9150    1.0000 </r>
       <r>  -11.8846    1.0000 </r>
       <r>  -11.6070    1.0000 </r>
       <r>  -11.2128    1.0000 </r>
       <r>  -11.1459    1.0000 </r>
       <r>  -10.7963    1.0000 </r>
       <r>  -10.7412    1.0000 </r>
       <r>  -10.3878    1.0000 </r>
       <r>  -10.0357    1.0000 </r>
       <r>   -9.2654    1.0000 </r>
       <r>   -8.8102    1.0000 </r>
       <r>   -8.5207    1.0000 </r>
       <r>   -8.1523    1.0000 </r>
       <r>   -7.4046    1.0000 </r>
       <r>   -6.9930    1.0000 </r>
       <r>   -6.9642    1.0000 </r>
       <r>   -6.8362    1.0000 </r>
       <r>   -6.4131    1.0000 </r>
       <r>   -6.1243    1.0000 </r>
       <r>   -5.9395    1.0000 </r>
       <r>   -5.7653    1.0000 </r>
       <r>   -5.6389    1.0000 </r>
       <r>   -5.1421    1.0000 </r>
       <r>   -5.0429    1.0000 </r>
       <r>   -4.8366    1.0000 </r>
       <r>   -4.6122    1.0000 </r>
       <r>   -4.5528    1.0000 </r>
       <r>   -4.2767    1.0000 </r>
       <r>   -4.2073    1.0000 </r>
       <r>   -4.0152    1.0000 </r>
       <r>   -3.8292    1.0000 </r>
       <r>   -3.4260    1.0000 </r>
       <r>   -3.2938    1.0000 </r>
       <r>   -3.1984    1.0000 </r>
       <r>   -3.0549    1.0000 </r>
       <r>   -2.9895    1.0000 </r>
       <r>   -2.9275    1.0000 </r>
       <r>   -2.7517    1.0000 </r>
       <r>   -2.5699    1.0000 </r>
       <r>   -2.4431    1.0000 </r>
       <r>   -2.2162    1.0000 </r>
       <r>   -1.9903    1.0000 </r>
       <r>   -1.9388    1.0000 </r>
       <r>   -1.8394    1.0000 </r>
       <r>   -1.8035    1.0000 </r>
       <r>   -1.6769    1.0000 </r>
       <r>   -1.5996    1.0000 </r>
       <r>   -1.3115    1.0000 </r>
       <r>   -1.2113    1.0000 </r>
       <r>   -1.0272    1.0000 </r>
       <r>   -0.7589    1.0000 </r>
       <r>    0.0245    0.0048 </r>
       <r>    0.7331    0.0000 </r>
       <r>    1.3548    0.0000 </r>
       <r>    1.5731    0.0000 </r>
       <r>    1.6546    0.0000 </r>
       <r>    1.9079    0.0000 </r>
       <r>    2.0136    0.0000 </r>
       <r>    2.2140    0.0000 </r>
       <r>    2.2850    0.0000 </r>
       <r>    2.3864    0.0000 </r>
       <r>    2.5286    0.0000 </r>
       <r>    2.6753    0.0000 </r>
       <r>    2.7498    0.0000 </r>
       <r>    2.9229    0.0000 </r>
      </set>
      <set comment="kpoint 18">
       <r>  -15.1445    1.0000 </r>
       <r>  -12.9579    1.0000 </r>
       <r>  -12.7254    1.0000 </r>
       <r>  -12.3189    1.0000 </r>
       <r>  -12.2333    1.0000 </r>
       <r>  -11.9594    1.0000 </r>
       <r>  -11.5142    1.0000 </r>
       <r>  -11.4607    1.0000 </r>
       <r>  -11.0446    1.0000 </r>
       <r>  -10.9969    1.0000 </r>
       <r>  -10.5662    1.0000 </r>
       <r>   -9.9228    1.0000 </r>
       <r>   -9.0293    1.0000 </r>
       <r>   -8.3682    1.0000 </r>
       <r>   -8.3303    1.0000 </r>
       <r>   -7.7471    1.0000 </r>
       <r>   -7.2385    1.0000 </r>
       <r>   -6.7364    1.0000 </r>
       <r>   -6.6505    1.0000 </r>
       <r>   -6.6036    1.0000 </r>
       <r>   -6.1938    1.0000 </r>
       <r>   -5.7113    1.0000 </r>
       <r>   -5.6169    1.0000 </r>
       <r>   -5.3020    1.0000 </r>
       <r>   -5.1557    1.0000 </r>
       <r>   -4.8118    1.0000 </r>
       <r>   -4.7052    1.0000 </r>
       <r>   -4.5623    1.0000 </r>
       <r>   -4.4785    1.0000 </r>
       <r>   -4.4197    1.0000 </r>
       <r>   -4.1409    1.0000 </r>
       <r>   -3.9721    1.0000 </r>
       <r>   -3.7473    1.0000 </r>
       <r>   -3.7290    1.0000 </r>
       <r>   -3.4311    1.0000 </r>
       <r>   -3.3689    1.0000 </r>
       <r>   -3.0750    1.0000 </r>
       <r>   -2.9680    1.0000 </r>
       <r>   -2.8553    1.0000 </r>
       <r>   -2.7282    1.0000 </r>
       <r>   -2.5967    1.0000 </r>
       <r>   -2.4359    1.0000 </r>
       <r>   -2.4150    1.0000 </r>
       <r>   -2.2346    1.0000 </r>
       <r>   -1.8902    1.0000 </r>
       <r>   -1.8644    1.0000 </r>
       <r>   -1.7800    1.0000 </r>
       <r>   -1.7051    1.0000 </r>
       <r>   -1.4361    1.0000 </r>
       <r>   -1.3518    1.0000 </r>
       <r>   -1.0307    1.0000 </r>
       <r>   -0.9065    1.0000 </r>
       <r>   -0.6923    1.0000 </r>
       <r>   -0.4906    1.0000 </r>
       <r>    0.2616    0.0000 </r>
       <r>    0.9448    0.0000 </r>
       <r>    1.1171    0.0000 </r>
       <r>    1.7773    0.0000 </r>
       <r>    1.8385    0.0000 </r>
       <r>    1.9912    0.0000 </r>
       <r>    2.0675    0.0000 </r>
       <r>    2.2946    0.0000 </r>
       <r>    2.4075    0.0000 </r>
       <r>    2.6122    0.0000 </r>
       <r>    2.7380    0.0000 </r>
       <r>    2.8628    0.0000 </r>
       <r>    2.9566    0.0000 </r>
[...]
       <r>    2.8229    0.0000 </r>
      </set>
      <set comment="kpoint 54">
       <r>  -14.2617    1.0000 </r>
       <r>  -11.7732    1.0000 </r>
       <r>  -11.4553    1.0000 </r>
       <r>  -11.1364    1.0000 </r>
       <r>  -11.1150    1.0000 </r>
       <r>  -10.9121    1.0000 </r>
       <r>  -10.8172    1.0000 </r>
       <r>  -10.7950    1.0000 </r>
       <r>  -10.6890    1.0000 </r>
       <r>  -10.6328    1.0000 </r>
       <r>  -10.5882    1.0000 </r>
       <r>  -10.3433    1.0000 </r>
       <r>   -9.7774    1.0000 </r>
       <r>   -9.2108    1.0000 </r>
       <r>   -8.6324    1.0000 </r>
       <r>   -8.4052    1.0000 </r>
       <r>   -8.0851    1.0000 </r>
       <r>   -7.8705    1.0000 </r>
       <r>   -7.6118    1.0000 </r>
       <r>   -7.5259    1.0000 </r>
       <r>   -7.2567    1.0000 </r>
       <r>   -7.1433    1.0000 </r>
       <r>   -7.1165    1.0000 </r>
       <r>   -6.3916    1.0000 </r>
       <r>   -5.2847    1.0000 </r>
       <r>   -4.9647    1.0000 </r>
       <r>   -4.9019    1.0000 </r>
       <r>   -4.4543    1.0000 </r>
       <r>   -4.4281    1.0000 </r>
       <r>   -4.2468    1.0000 </r>
       <r>   -4.0887    1.0000 </r>
       <r>   -4.0094    1.0000 </r>
       <r>   -3.9164    1.0000 </r>
       <r>   -3.7723    1.0000 </r>
       <r>   -3.7354    1.0000 </r>
       <r>   -3.5685    1.0000 </r>
       <r>   -3.4663    1.0000 </r>
       <r>   -3.2279    1.0000 </r>
       <r>   -3.2213    1.0000 </r>
       <r>   -3.0134    1.0000 </r>
       <r>   -2.9854    1.0000 </r>
       <r>   -2.8928    1.0000 </r>
       <r>   -2.6505    1.0000 </r>
       <r>   -2.4446    1.0000 </r>
       <r>   -2.3382    1.0000 </r>
       <r>   -2.1974    1.0000 </r>
       <r>   -2.1147    1.0000 </r>
       <r>   -2.0688    1.0000 </r>
       <r>   -1.8381    1.0000 </r>
       <r>   -1.6959    1.0000 </r>
       <r>   -1.6151    1.0000 </r>
       <r>   -1.5112    1.0000 </r>
       <r>   -1.4090    1.0000 </r>
       <r>   -0.7634    1.0000 </r>
       <r>   -0.3466    0.9961 </r>
       <r>    0.2479    0.0000 </r>
       <r>    1.2586    0.0000 </r>
       <r>    1.3767    0.0000 </r>
       <r>    1.4647    0.0000 </r>
       <r>    1.6129    0.0000 </r>
       <r>    1.6564    0.0000 </r>
       <r>    1.8783    0.0000 </r>
       <r>    2.0209    0.0000 </r>
       <r>    2.0758    0.0000 </r>
       <r>    2.2783    0.0000 </r>
       <r>    2.3897    0.0000 </r>
       <r>    2.4833    0.0000 </r>
       <r>    2.6915    0.0000 </r>
      </set>
     </set>
    </set>
   </array>
  </eigenvalues>
  <separator name="orbital magnetization" >
   <v name="MAGDIPOLOUT">      0.00000000      0.00000000      0.00000000</v>
  </separator>
  <dos>
   <i name="efermi">     -0.15855292 </i>
   <total>
    <array>
     <dimension dim="1">gridpoints</dimension>
     <dimension dim="2">spin</dimension>
     <field>energy</field>
     <field>total</field>
     <field>integrated</field>
     <set>
      <set comment="spin 1">
       <r>   -16.6007     0.0000     0.0000 </r>
       <r>   -16.5315     0.0000     0.0000 </r>
       <r>   -16.4622     0.0000     0.0000 </r>
       <r>   -16.3930     0.0000     0.0000 </r>
       <r>   -16.3238     0.0000     0.0000 </r>
       <r>   -16.2545     0.0000     0.0000 </r>
       <r>   -16.1853     0.0000     0.0000 </r>
       <r>   -16.1161     0.0000     0.0000 </r>
       <r>   -16.0468     0.0000     0.0000 </r>
       <r>   -15.9776     0.0000     0.0000 </r>
       <r>   -15.9084     0.0000     0.0000 </r>
       <r>   -15.8391     0.0009     0.0001 </r>
       <r>   -15.7699     0.0208     0.0015 </r>
       <r>   -15.7007     0.2164     0.0165 </r>
       <r>   -15.6314     1.0112     0.0865 </r>
       <r>   -15.5622     2.1969     0.2386 </r>
       <r>   -15.4930     2.4284     0.4067 </r>
       <r>   -15.4237     2.0444     0.5483 </r>
       <r>   -15.3545     1.8533     0.6766 </r>
       <r>   -15.2853     1.1463     0.7559 </r>
       <r>   -15.2160     0.8507     0.8148 </r>
       <r>   -15.1468     1.4960     0.9184 </r>
       <r>   -15.0776     1.5209     1.0237 </r>
       <r>   -15.0083     0.6713     1.0702 </r>
       <r>   -14.9391     0.3503     1.0944 </r>
       <r>   -14.8699     0.9866     1.1627 </r>
       <r>   -14.8006     1.6622     1.2778 </r>
       <r>   -14.7314     1.1670     1.3586 </r>
       <r>   -14.6622     0.3785     1.3848 </r>
       <r>   -14.5929     0.3906     1.4119 </r>
       <r>   -14.5237     1.1911     1.4943 </r>
       <r>   -14.4545     1.6715     1.6100 </r>
       <r>   -14.3852     1.1191     1.6875 </r>
       <r>   -14.3160     1.0303     1.7589 </r>
       <r>   -14.2468     1.6324     1.8719 </r>
       <r>   -14.1775     1.3312     1.9640 </r>
       <r>   -14.1083     0.4528     1.9954 </r>
       <r>   -14.0391     0.0631     1.9997 </r>
       <r>   -13.9698     0.0036     2.0000 </r>
       <r>   -13.9006     0.0001     2.0000 </r>
       <r>   -13.8314     0.0000     2.0000 </r>
       <r>   -13.7621     0.0001     2.0000 </r>
       <r>   -13.6929     0.0030     2.0002 </r>
       <r>   -13.6237     0.0415     2.0031 </r>
       <r>   -13.5544     0.2772     2.0223 </r>
       <r>   -13.4852     0.9483     2.0879 </r>
       <r>   -13.4160     1.7852     2.2115 </r>
       <r>   -13.3467     2.2662     2.3684 </r>
       <r>   -13.2775     2.9225     2.5708 </r>
       <r>   -13.2083     3.8945     2.8404 </r>
       <r>   -13.1390     3.9514     3.1140 </r>
       <r>   -13.0698     3.3651     3.3469 </r>
       <r>   -13.0006     3.4499     3.5858 </r>
       <r>   -12.9313     3.7487     3.8453 </r>
       <r>   -12.8621     3.7246     4.1032 </r>
       <r>   -12.7929     3.8757     4.3715 </r>
       <r>   -12.7236     4.2978     4.6691 </r>
       <r>   -12.6544     4.3916     4.9731 </r>
       <r>   -12.5852     4.6535     5.2953 </r>
       <r>   -12.5159     5.4640     5.6736 </r>
       <r>   -12.4467     6.1949     6.1025 </r>
       <r>   -12.3775     6.6011     6.5595 </r>
       <r>   -12.3082     5.6857     6.9531 </r>
       <r>   -12.2390     4.6156     7.2727 </r>
       <r>   -12.1698     4.4791     7.5828 </r>
       <r>   -12.1005     4.6787     7.9067 </r>
       <r>   -12.0313     5.9965     8.3219 </r>
       <r>   -11.9621     7.9021     8.8690 </r>
       <r>   -11.8928     8.0821     9.4285 </r>
       <r>   -11.8236     7.3296     9.9360 </r>
       <r>   -11.7543     6.8888    10.4129 </r>
       <r>   -11.6851     6.0621    10.8326 </r>
       <r>   -11.6159     5.8260    11.2360 </r>
       <r>   -11.5466     6.6186    11.6942 </r>
       <r>   -11.4774     8.3811    12.2745 </r>
       <r>   -11.4082     9.5203    12.9336 </r>
       <r>   -11.3389     8.5646    13.5265 </r>
       <r>   -11.2697     8.1922    14.0937 </r>
       <r>   -11.2005     8.8787    14.7084 </r>
       <r>   -11.1312     8.6527    15.3075 </r>
       <r>   -11.0620     8.0452    15.8645 </r>
       <r>   -10.9928     8.4414    16.4489 </r>
       <r>   -10.9235     9.6476    17.1168 </r>
       <r>   -10.8543    10.3158    17.8310 </r>
       <r>   -10.7851    10.7681    18.5765 </r>
       <r>   -10.7158    10.4724    19.3016 </r>
       <r>   -10.6466     9.8040    19.9803 </r>
       <r>   -10.5774     9.7690    20.6567 </r>
       <r>   -10.5081     7.8118    21.1975 </r>
       <r>   -10.4389     5.5167    21.5795 </r>
       <r>   -10.3697     5.8887    21.9872 </r>
       <r>   -10.3004     5.5663    22.3725 </r>
       <r>   -10.2312     2.8421    22.5693 </r>
       <r>   -10.1620     1.1535    22.6492 </r>
       <r>   -10.0927     2.3500    22.8119 </r>
       <r>   -10.0235     4.9435    23.1541 </r>
       <r>    -9.9543     5.7439    23.5518 </r>
       <r>    -9.8850     4.3640    23.8539 </r>
       <r>    -9.8158     2.8589    24.0519 </r>
       <r>    -9.7466     2.1198    24.1986 </r>
       <r>    -9.6773     1.2085    24.2823 </r>
       <r>    -9.6081     0.4021    24.3101 </r>
       <r>    -9.5389     0.5204    24.3462 </r>
       <r>    -9.4696     1.3734    24.4412 </r>
       <r>    -9.4004     1.8004    24.5659 </r>
       <r>    -9.3312     1.9308    24.6996 </r>
       <r>    -9.2619     3.3079    24.9286 </r>
       <r>    -9.1927     5.2165    25.2897 </r>
       <r>    -9.1235     6.3368    25.7285 </r>
       <r>    -9.0542     5.9820    26.1426 </r>
       <r>    -8.9850     4.6961    26.4677 </r>
       <r>    -8.9158     3.7653    26.7284 </r>
       <r>    -8.8465     3.6270    26.9795 </r>
       <r>    -8.7773     4.2400    27.2731 </r>
       <r>    -8.7081     4.6539    27.5953 </r>
       <r>    -8.6388     4.2020    27.8862 </r>
       <r>    -8.5696     3.3878    28.1208 </r>
       <r>    -8.5004     3.1745    28.3405 </r>
       <r>    -8.4311     3.9793    28.6160 </r>
       <r>    -8.3619     5.3487    28.9863 </r>
       <r>    -8.2927     5.2592    29.3505 </r>
       <r>    -8.2234     3.3488    29.5823 </r>
       <r>    -8.1542     2.2460    29.7378 </r>
       <r>    -8.0850     2.5829    29.9166 </r>
       <r>    -8.0157     2.7265    30.1054 </r>
       <r>    -7.9465     2.2545    30.2615 </r>
       <r>    -7.8773     2.7770    30.4537 </r>
       <r>    -7.8080     4.5232    30.7669 </r>
       <r>    -7.7388     6.1639    31.1936 </r>
       <r>    -7.6696     6.3815    31.6354 </r>
       <r>    -7.6003     5.6716    32.0281 </r>
       <r>    -7.5311     5.4918    32.4083 </r>
       <r>    -7.4619     5.7497    32.8064 </r>
       <r>    -7.3926     6.8941    33.2837 </r>
       <r>    -7.3234     8.7803    33.8916 </r>
       <r>    -7.2542    11.0280    34.6551 </r>
       <r>    -7.1849    12.2700    35.5046 </r>
       <r>    -7.1157    10.9627    36.2636 </r>
       <r>    -7.0465     7.6059    36.7902 </r>
       <r>    -6.9772     5.0916    37.1427 </r>
       <r>    -6.9080     5.0567    37.4928 </r>
       <r>    -6.8388     5.6324    37.8827 </r>
       <r>    -6.7695     6.2065    38.3124 </r>
       <r>    -6.7003     8.3405    38.8899 </r>
       <r>    -6.6311    11.1609    39.6626 </r>
       <r>    -6.5618    10.5531    40.3932 </r>
       <r>    -6.4926     7.5280    40.9144 </r>
       <r>    -6.4234     6.4983    41.3643 </r>
       <r>    -6.3541     6.4587    41.8114 </r>
       <r>    -6.2849     6.0252    42.2286 </r>
       <r>    -6.2157     6.4213    42.6732 </r>
       <r>    -6.1464     6.6263    43.1319 </r>
       <r>    -6.0772     5.3570    43.5028 </r>
       <r>    -6.0080     3.7932    43.7654 </r>
       <r>    -5.9387     3.4173    44.0020 </r>
       <r>    -5.8695     3.9494    44.2754 </r>
       <r>    -5.8003     5.0077    44.6221 </r>
       <r>    -5.7310     6.8292    45.0950 </r>
       <r>    -5.6618     8.6794    45.6959 </r>
       <r>    -5.5926     8.7027    46.2984 </r>
       <r>    -5.5233     7.0506    46.7865 </r>
       <r>    -5.4541     5.5667    47.1719 </r>
       <r>    -5.3849     4.5957    47.4901 </r>
       <r>    -5.3156     4.4409    47.7976 </r>
       <r>    -5.2464     4.9708    48.1417 </r>
       <r>    -5.1772     5.4776    48.5209 </r>
       <r>    -5.1079     5.9054    48.9298 </r>
       <r>    -5.0387     7.0105    49.4151 </r>
       <r>    -4.9695     7.9410    49.9649 </r>
       <r>    -4.9002     7.4478    50.4806 </r>
       <r>    -4.8310     7.3442    50.9890 </r>
       <r>    -4.7618     7.9522    51.5396 </r>
       <r>    -4.6925     8.5066    52.1285 </r>
       <r>    -4.6233     9.2046    52.7658 </r>
       <r>    -4.5541    10.0684    53.4629 </r>
       <r>    -4.4848    10.9915    54.2238 </r>
       <r>    -4.4156    11.3783    55.0116 </r>
       <r>    -4.3464    10.5880    55.7446 </r>
       <r>    -4.2771     9.4972    56.4022 </r>
       <r>    -4.2079     9.6829    57.0726 </r>
       <r>    -4.1387    11.3217    57.8564 </r>
       <r>    -4.0694    14.2195    58.8409 </r>
       <r>    -4.0002    17.1735    60.0298 </r>
       <r>    -3.9310    16.3848    61.1642 </r>
       <r>    -3.8617    11.8256    61.9830 </r>
       <r>    -3.7925     9.6283    62.6496 </r>
       <r>    -3.7233    11.1253    63.4198 </r>
       <r>    -3.6540    11.6171    64.2241 </r>
       <r>    -3.5848    10.1171    64.9245 </r>
       <r>    -3.5156     9.2336    65.5638 </r>
       <r>    -3.4463    10.6589    66.3018 </r>
       <r>    -3.3771    13.7091    67.2509 </r>
       <r>    -3.3079    16.1990    68.3724 </r>
       <r>    -3.2386    17.2629    69.5676 </r>
       <r>    -3.1694    17.3277    70.7672 </r>
       <r>    -3.1002    17.2302    71.9601 </r>
       <r>    -3.0309    18.3489    73.2305 </r>
       <r>    -2.9617    18.8945    74.5386 </r>
       <r>    -2.8925    18.1337    75.7941 </r>
       <r>    -2.8232    16.5973    76.9432 </r>
       <r>    -2.7540    15.4164    78.0105 </r>
       <r>    -2.6848    15.1727    79.0610 </r>
       <r>    -2.6155    15.4685    80.1319 </r>
       <r>    -2.5463    16.2757    81.2587 </r>
       <r>    -2.4771    16.4130    82.3950 </r>
       <r>    -2.4078    15.9272    83.4977 </r>
       <r>    -2.3386    14.7368    84.5180 </r>
       <r>    -2.2694    13.9097    85.4810 </r>
       <r>    -2.2001    14.7527    86.5024 </r>
       <r>    -2.1309    15.5402    87.5783 </r>
       <r>    -2.0617    14.7971    88.6028 </r>
       <r>    -1.9924    14.7264    89.6223 </r>
       <r>    -1.9232    17.0838    90.8051 </r>
       <r>    -1.8540    19.5140    92.1561 </r>
       <r>    -1.7847    19.5118    93.5070 </r>
       <r>    -1.7155    18.6263    94.7966 </r>
       <r>    -1.6463    17.9777    96.0412 </r>
       <r>    -1.5770    14.9156    97.0739 </r>
       <r>    -1.5078    12.0805    97.9103 </r>
       <r>    -1.4386    12.9389    98.8061 </r>
       <r>    -1.3693    15.2711    99.8633 </r>
       <r>    -1.3001    14.8461   100.8912 </r>
       <r>    -1.2309    10.7032   101.6322 </r>
       <r>    -1.1616     6.8995   102.1099 </r>
       <r>    -1.0924     6.9509   102.5911 </r>
       <r>    -1.0232     9.3039   103.2353 </r>
       <r>    -0.9539     9.7082   103.9074 </r>
       <r>    -0.8847     7.1339   104.4013 </r>
       <r>    -0.8155     5.4834   104.7809 </r>
       <r>    -0.7462     7.1538   105.2762 </r>
       <r>    -0.6770     7.4263   105.7904 </r>
       <r>    -0.6078     4.1626   106.0785 </r>
       <r>    -0.5385     1.7829   106.2020 </r>
       <r>    -0.4693     2.2614   106.3585 </r>
       <r>    -0.4001     4.3232   106.6579 </r>
       <r>    -0.3308     6.1626   107.0845 </r>
       <r>    -0.2616     6.3408   107.5235 </r>
       <r>    -0.1924     4.9726   107.8678 </r>
       <r>    -0.1231     3.7456   108.1271 </r>
       <r>    -0.0539     3.5268   108.3713 </r>
       <r>     0.0153     3.3746   108.6049 </r>
       <r>     0.0846     2.9423   108.8086 </r>
       <r>     0.1538     3.0687   109.0211 </r>
       <r>     0.2230     3.3488   109.2529 </r>
       <r>     0.2923     2.9242   109.4554 </r>
       <r>     0.3615     2.9267   109.6580 </r>
       <r>     0.4307     3.4938   109.8999 </r>
       <r>     0.5000     2.8257   110.0955 </r>
       <r>     0.5692     1.8605   110.2243 </r>
       <r>     0.6384     2.4809   110.3961 </r>
       <r>     0.7077     3.7148   110.6533 </r>
       <r>     0.7769     3.7681   110.9141 </r>
       <r>     0.8461     2.8427   111.1110 </r>
       <r>     0.9154     2.6791   111.2964 </r>
       <r>     0.9846     3.4809   111.5374 </r>
       <r>     1.0538     5.0184   111.8849 </r>
       <r>     1.1231     6.5349   112.3373 </r>
       <r>     1.1923     7.4894   112.8558 </r>
       <r>     1.2615     8.8034   113.4653 </r>
       <r>     1.3308     9.5563   114.1269 </r>
       <r>     1.4000     9.3282   114.7728 </r>
       <r>     1.4692     9.6786   115.4428 </r>
       <r>     1.5385    11.0961   116.2111 </r>
       <r>     1.6077    12.5201   117.0779 </r>
       <r>     1.6769    12.5925   117.9497 </r>
       <r>     1.7462    12.3001   118.8013 </r>
       <r>     1.8154    12.6594   119.6777 </r>
       <r>     1.8846    12.2374   120.5250 </r>
       <r>     1.9539    11.6356   121.3306 </r>
       <r>     2.0231    11.6638   122.1381 </r>
       <r>     2.0924    11.8995   122.9619 </r>
       <r>     2.1616    12.2462   123.8098 </r>
       <r>     2.2308    13.3430   124.7336 </r>
       <r>     2.3001    14.7843   125.7571 </r>
       <r>     2.3693    14.8377   126.7844 </r>
       <r>     2.4385    14.8073   127.8095 </r>
       <r>     2.5078    14.9585   128.8452 </r>
       <r>     2.5770    14.6069   129.8565 </r>
       <r>     2.6462    15.5429   130.9326 </r>
       <r>     2.7155    16.4865   132.0740 </r>
       <r>     2.7847    14.7031   133.0919 </r>
       <r>     2.8539    11.2256   133.8691 </r>
       <r>     2.9232     8.4086   134.4513 </r>
       <r>     2.9924     7.0525   134.9395 </r>
       <r>     3.0616     6.2793   135.3743 </r>
       <r>     3.1309     5.0148   135.7215 </r>
       <r>     3.2001     2.8661   135.9199 </r>
       <r>     3.2693     0.9708   135.9871 </r>
       <r>     3.3386     0.1714   135.9990 </r>
       <r>     3.4078     0.0144   136.0000 </r>
       <r>     3.4770     0.0005   136.0000 </r>
       <r>     3.5463     0.0000   136.0000 </r>
       <r>     3.6155     0.0000   136.0000 </r>
       <r>     3.6847     0.0000   136.0000 </r>
       <r>     3.7540     0.0000   136.0000 </r>
       <r>     3.8232     0.0000   136.0000 </r>
       <r>     3.8924     0.0000   136.0000 </r>
       <r>     3.9617     0.0000   136.0000 </r>
       <r>     4.0309     0.0000   136.0000 </r>
       <r>     4.1001     0.0000   136.0000 </r>
       <r>     4.1694     0.0000   136.0000 </r>
      </set>
     </set>
    </array>
   </total>
  </dos>
 </calculation>
 <structure name="finalpos" >
  <crystal>
   <varray name="basis" >
    <v>       3.54040000       0.00000000       0.00000000 </v>
    <v>      -1.77020000      10.29434800       0.00000000 </v>
    <v>       0.00000000       0.00000000      27.50142900 </v>
   </varray>
   <i name="volume">   1002.32009712 </i>
   <varray name="rec_basis" >
    <v>       0.28245396       0.04857034       0.00000000 </v>
    <v>       0.00000000       0.09714068       0.00000000 </v>
    <v>       0.00000000       0.00000000       0.03636175 </v>
   </varray>
  </crystal>
  <varray name="positions" >
   <v>       0.11402300       0.22804500       0.23316207 </v>
   <v>       0.41402300       0.62804500       0.51499159 </v>
   <v>       0.45808900       0.91617900       0.20939482 </v>
   <v>       0.75808900       0.31617900       0.49122434 </v>
   <v>       0.31085400       0.62170900       0.08414979 </v>
   <v>       0.31085400       0.62170900       0.36597930 </v>
   <v>       0.99923000       0.99846000       0.08631254 </v>
   <v>       0.99923000       0.99846000       0.36814206 </v>
   <v>       0.65492700       0.30985400       0.06041748 </v>
   <v>       0.65492700       0.30985400       0.34224700 </v>
   <v>       0.76973800       0.53947500       0.20725292 </v>
   <v>       0.06973800       0.93947500       0.48908244 </v>
   <v>       0.93971600       0.87943300       0.15783749 </v>
   <v>       0.23971600       0.27943300       0.43966701 </v>
   <v>       0.20515200       0.41030300       0.18578822 </v>
   <v>       0.50515200       0.81030300       0.46761774 </v>
   <v>       0.20184900       0.40369900       0.09969156 </v>
   <v>       0.20184900       0.40369900       0.38152107 </v>
   <v>       0.56380500       0.12761000       0.10779021 </v>
   <v>       0.56380500       0.12761000       0.38961973 </v>
   <v>       0.56710600       0.13421200       0.19387616 </v>
   <v>       0.86710600       0.53421200       0.47570568 </v>
   <v>       0.82923400       0.65846800       0.13571444 </v>
   <v>       0.12923400       0.05846800       0.41754396 </v>
  </varray>
 </structure>
</modeling>
