  24  24   0   0
  0.4176334E+02  0.3540400E-09  0.1044544E-08  0.2750143E-08  0.5000000E-15
  1.000000000000000E-004
  CAR 
 unknown system                          
      4.17692964    -15.81276894  301      0.02705590      1.00000000
    -15.813  0.0000E+00  0.0000E+00
    -15.746  0.0000E+00  0.0000E+00
    -15.680  0.0000E+00  0.0000E+00
    -15.613  0.0000E+00  0.0000E+00
    -15.546  0.0000E+00  0.0000E+00
    -15.480  0.0000E+00  0.0000E+00
    -15.413  0.0000E+00  0.0000E+00
    -15.346  0.3630E-13  0.2419E-14
    -15.280  0.3379E-10  0.2254E-11
    -15.213  0.1325E-07  0.8852E-09
    -15.146  0.2204E-05  0.1477E-06
    -15.080  0.1575E-03  0.1064E-04
    -15.013  0.4938E-02  0.3396E-03
    -14.947  0.6989E-01  0.4996E-02
    -14.880  0.4633E+00  0.3587E-01
    -14.813  0.1490E+01  0.1352E+00
    -14.747  0.2402E+01  0.2952E+00
    -14.680  0.2203E+01  0.4420E+00
    -14.613  0.1892E+01  0.5681E+00
    -14.547  0.1769E+01  0.6859E+00
    -14.480  0.1041E+01  0.7553E+00
    -14.413  0.6791E+00  0.8005E+00
    -14.347  0.1301E+01  0.8872E+00
    -14.280  0.1651E+01  0.9972E+00
    -14.214  0.9394E+00  0.1060E+01
    -14.147  0.2722E+00  0.1078E+01
    -14.080  0.3396E+00  0.1101E+01
    -14.014  0.1098E+01  0.1174E+01
    -13.947  0.1673E+01  0.1285E+01
    -13.880  0.1120E+01  0.1360E+01
    -13.814  0.3328E+00  0.1382E+01
    -13.747  0.1140E+00  0.1390E+01
    -13.681  0.4995E+00  0.1423E+01
    -13.614  0.1579E+01  0.1528E+01
    -13.547  0.2558E+01  0.1699E+01
    -13.481  0.2636E+01  0.1874E+01
    -13.414  0.2426E+01  0.2036E+01
    -13.347  0.2834E+01  0.2225E+01
    -13.281  0.3796E+01  0.2478E+01
    -13.214  0.4072E+01  0.2749E+01
    -13.147  0.3625E+01  0.2990E+01
    -13.081  0.3351E+01  0.3214E+01
    -13.014  0.3951E+01  0.3477E+01
    -12.948  0.4862E+01  0.3801E+01
    -12.881  0.4803E+01  0.4121E+01
    -12.814  0.3942E+01  0.4384E+01
    -12.748  0.3271E+01  0.4602E+01
    -12.681  0.3649E+01  0.4845E+01
    -12.614  0.5126E+01  0.5186E+01
    -12.548  0.6106E+01  0.5593E+01
    -12.481  0.5757E+01  0.5977E+01
    -12.415  0.4976E+01  0.6308E+01
    -12.348  0.5034E+01  0.6644E+01
    -12.281  0.5919E+01  0.7038E+01
    -12.215  0.5807E+01  0.7425E+01
    -12.148  0.4822E+01  0.7746E+01
    -12.081  0.4757E+01  0.8063E+01
    -12.015  0.5935E+01  0.8459E+01
    -11.948  0.7028E+01  0.8927E+01
    -11.881  0.6947E+01  0.9390E+01
    -11.815  0.6122E+01  0.9798E+01
    -11.748  0.6105E+01  0.1020E+02
    -11.682  0.7493E+01  0.1070E+02
    -11.615  0.8827E+01  0.1129E+02
    -11.548  0.8969E+01  0.1189E+02
    -11.482  0.8026E+01  0.1242E+02
    -11.415  0.6684E+01  0.1287E+02
    -11.348  0.6748E+01  0.1332E+02
    -11.282  0.8327E+01  0.1387E+02
    -11.215  0.8583E+01  0.1445E+02
    -11.149  0.7783E+01  0.1496E+02
    -11.082  0.9111E+01  0.1557E+02
    -11.015  0.1167E+02  0.1635E+02
    -10.949  0.1244E+02  0.1718E+02
    -10.882  0.1238E+02  0.1800E+02
    -10.815  0.1282E+02  0.1886E+02
    -10.749  0.1201E+02  0.1966E+02
    -10.682  0.1046E+02  0.2035E+02
    -10.615  0.9123E+01  0.2096E+02
    -10.549  0.7469E+01  0.2146E+02
    -10.482  0.6991E+01  0.2193E+02
    -10.416  0.6901E+01  0.2239E+02
    -10.349  0.5152E+01  0.2273E+02
    -10.282  0.3173E+01  0.2294E+02
    -10.216  0.2025E+01  0.2308E+02
    -10.149  0.1791E+01  0.2320E+02
    -10.082  0.1748E+01  0.2331E+02
    -10.016  0.1285E+01  0.2340E+02
     -9.949  0.1528E+01  0.2350E+02
     -9.882  0.2387E+01  0.2366E+02
     -9.816  0.2719E+01  0.2384E+02
     -9.749  0.2531E+01  0.2401E+02
     -9.683  0.3170E+01  0.2422E+02
     -9.616  0.5574E+01  0.2459E+02
     -9.549  0.7836E+01  0.2511E+02
     -9.483  0.7294E+01  0.2560E+02
     -9.416  0.4275E+01  0.2588E+02
     -9.349  0.1462E+01  0.2598E+02
     -9.283  0.2641E+00  0.2600E+02
     -9.216  0.2490E-01  0.2600E+02
     -9.150  0.3201E-01  0.2600E+02
     -9.083  0.2453E+00  0.2602E+02
     -9.016  0.9245E+00  0.2608E+02
     -8.950  0.1909E+01  0.2621E+02
     -8.883  0.2973E+01  0.2641E+02
     -8.816  0.4358E+01  0.2670E+02
     -8.750  0.5034E+01  0.2703E+02
     -8.683  0.4371E+01  0.2732E+02
     -8.616  0.3813E+01  0.2758E+02
     -8.550  0.4422E+01  0.2787E+02
     -8.483  0.5364E+01  0.2823E+02
     -8.417  0.5288E+01  0.2858E+02
     -8.350  0.3868E+01  0.2884E+02
     -8.283  0.2328E+01  0.2899E+02
     -8.217  0.2227E+01  0.2914E+02
     -8.150  0.3830E+01  0.2940E+02
     -8.083  0.5714E+01  0.2978E+02
     -8.017  0.6160E+01  0.3019E+02
     -7.950  0.6043E+01  0.3059E+02
     -7.884  0.6383E+01  0.3102E+02
     -7.817  0.7225E+01  0.3150E+02
     -7.750  0.7477E+01  0.3200E+02
     -7.684  0.6208E+01  0.3241E+02
     -7.617  0.4581E+01  0.3271E+02
     -7.550  0.3972E+01  0.3298E+02
     -7.484  0.4548E+01  0.3328E+02
     -7.417  0.6022E+01  0.3368E+02
     -7.350  0.7310E+01  0.3417E+02
     -7.284  0.7413E+01  0.3466E+02
     -7.217  0.6692E+01  0.3511E+02
     -7.151  0.6090E+01  0.3552E+02
     -7.084  0.5542E+01  0.3589E+02
     -7.017  0.5389E+01  0.3624E+02
     -6.951  0.6091E+01  0.3665E+02
     -6.884  0.7406E+01  0.3714E+02
     -6.817  0.9154E+01  0.3775E+02
     -6.751  0.1104E+02  0.3849E+02
     -6.684  0.1226E+02  0.3931E+02
     -6.618  0.1050E+02  0.4001E+02
     -6.551  0.7303E+01  0.4049E+02
     -6.484  0.4982E+01  0.4083E+02
     -6.418  0.3348E+01  0.4105E+02
     -6.351  0.2571E+01  0.4122E+02
     -6.284  0.2272E+01  0.4137E+02
     -6.218  0.2608E+01  0.4154E+02
     -6.151  0.3183E+01  0.4176E+02
     -6.084  0.3380E+01  0.4198E+02
     -6.018  0.4783E+01  0.4230E+02
     -5.951  0.7509E+01  0.4280E+02
     -5.885  0.9312E+01  0.4342E+02
     -5.818  0.1025E+02  0.4410E+02
     -5.751  0.9963E+01  0.4477E+02
     -5.685  0.7925E+01  0.4530E+02
     -5.618  0.5478E+01  0.4566E+02
     -5.551  0.3633E+01  0.4590E+02
     -5.485  0.3314E+01  0.4612E+02
     -5.418  0.5167E+01  0.4647E+02
     -5.351  0.6673E+01  0.4691E+02
     -5.285  0.5878E+01  0.4730E+02
     -5.218  0.4888E+01  0.4763E+02
     -5.152  0.4926E+01  0.4796E+02
     -5.085  0.5834E+01  0.4835E+02
     -5.018  0.7341E+01  0.4884E+02
     -4.952  0.8345E+01  0.4939E+02
     -4.885  0.9142E+01  0.5000E+02
     -4.818  0.9952E+01  0.5067E+02
     -4.752  0.1046E+02  0.5136E+02
     -4.685  0.1173E+02  0.5214E+02
     -4.619  0.1292E+02  0.5301E+02
     -4.552  0.1272E+02  0.5385E+02
     -4.485  0.1245E+02  0.5468E+02
     -4.419  0.1304E+02  0.5555E+02
     -4.352  0.1330E+02  0.5644E+02
     -4.285  0.1303E+02  0.5731E+02
     -4.219  0.1256E+02  0.5814E+02
     -4.152  0.1252E+02  0.5898E+02
     -4.085  0.1422E+02  0.5992E+02
     -4.019  0.1575E+02  0.6097E+02
     -3.952  0.1415E+02  0.6192E+02
     -3.886  0.1070E+02  0.6263E+02
     -3.819  0.9279E+01  0.6325E+02
     -3.752  0.1078E+02  0.6397E+02
     -3.686  0.1280E+02  0.6482E+02
     -3.619  0.1302E+02  0.6569E+02
     -3.552  0.1200E+02  0.6649E+02
     -3.486  0.1164E+02  0.6726E+02
     -3.419  0.1236E+02  0.6809E+02
     -3.353  0.1297E+02  0.6895E+02
     -3.286  0.1392E+02  0.6988E+02
     -3.219  0.1518E+02  0.7089E+02
     -3.153  0.1503E+02  0.7189E+02
     -3.086  0.1526E+02  0.7291E+02
     -3.019  0.1669E+02  0.7402E+02
     -2.953  0.1629E+02  0.7511E+02
     -2.886  0.1444E+02  0.7607E+02
     -2.819  0.1486E+02  0.7706E+02
     -2.753  0.1650E+02  0.7816E+02
     -2.686  0.1613E+02  0.7923E+02
     -2.620  0.1528E+02  0.8025E+02
     -2.553  0.1552E+02  0.8128E+02
     -2.486  0.1457E+02  0.8225E+02
     -2.420  0.1301E+02  0.8312E+02
     -2.353  0.1241E+02  0.8395E+02
     -2.286  0.1228E+02  0.8477E+02
     -2.220  0.1287E+02  0.8562E+02
     -2.153  0.1410E+02  0.8656E+02
     -2.087  0.1524E+02  0.8758E+02
     -2.020  0.1601E+02  0.8865E+02
     -1.953  0.1668E+02  0.8976E+02
     -1.887  0.1761E+02  0.9093E+02
     -1.820  0.1764E+02  0.9211E+02
     -1.753  0.1600E+02  0.9317E+02
     -1.687  0.1289E+02  0.9403E+02
     -1.620  0.1062E+02  0.9474E+02
     -1.553  0.1090E+02  0.9546E+02
     -1.487  0.1240E+02  0.9629E+02
     -1.420  0.1345E+02  0.9719E+02
     -1.354  0.1264E+02  0.9803E+02
     -1.287  0.1012E+02  0.9870E+02
     -1.220  0.8443E+01  0.9927E+02
     -1.154  0.8616E+01  0.9984E+02
     -1.087  0.9813E+01  0.1005E+03
     -1.020  0.1088E+02  0.1012E+03
     -0.954  0.1043E+02  0.1019E+03
     -0.887  0.8056E+01  0.1025E+03
     -0.820  0.4634E+01  0.1028E+03
     -0.754  0.1982E+01  0.1029E+03
     -0.687  0.1440E+01  0.1030E+03
     -0.621  0.3379E+01  0.1032E+03
     -0.554  0.6110E+01  0.1036E+03
     -0.487  0.7264E+01  0.1041E+03
     -0.421  0.7274E+01  0.1046E+03
     -0.354  0.6969E+01  0.1051E+03
     -0.287  0.6968E+01  0.1055E+03
     -0.221  0.7627E+01  0.1060E+03
     -0.154  0.8489E+01  0.1066E+03
     -0.088  0.8853E+01  0.1072E+03
     -0.021  0.7712E+01  0.1077E+03
      0.046  0.6261E+01  0.1081E+03
      0.112  0.6382E+01  0.1085E+03
      0.179  0.6855E+01  0.1090E+03
      0.246  0.6255E+01  0.1094E+03
      0.312  0.5128E+01  0.1098E+03
      0.379  0.4190E+01  0.1100E+03
      0.446  0.3887E+01  0.1103E+03
      0.512  0.3864E+01  0.1105E+03
      0.579  0.3351E+01  0.1108E+03
      0.645  0.2725E+01  0.1110E+03
      0.712  0.3306E+01  0.1112E+03
      0.779  0.5596E+01  0.1115E+03
      0.845  0.8208E+01  0.1121E+03
      0.912  0.8681E+01  0.1127E+03
      0.979  0.7027E+01  0.1131E+03
      1.045  0.5206E+01  0.1135E+03
      1.112  0.4555E+01  0.1138E+03
      1.178  0.5551E+01  0.1142E+03
      1.245  0.7007E+01  0.1146E+03
      1.312  0.8562E+01  0.1152E+03
      1.378  0.1057E+02  0.1159E+03
      1.445  0.1172E+02  0.1167E+03
      1.512  0.1140E+02  0.1174E+03
      1.578  0.1131E+02  0.1182E+03
      1.645  0.1233E+02  0.1190E+03
      1.712  0.1271E+02  0.1199E+03
      1.778  0.1197E+02  0.1207E+03
      1.845  0.1110E+02  0.1214E+03
      1.911  0.1030E+02  0.1221E+03
      1.978  0.9941E+01  0.1228E+03
      2.045  0.1068E+02  0.1235E+03
      2.111  0.1192E+02  0.1243E+03
      2.178  0.1339E+02  0.1251E+03
      2.245  0.1471E+02  0.1261E+03
      2.311  0.1430E+02  0.1271E+03
      2.378  0.1387E+02  0.1280E+03
      2.444  0.1424E+02  0.1290E+03
      2.511  0.1427E+02  0.1299E+03
      2.578  0.1454E+02  0.1309E+03
      2.644  0.1457E+02  0.1318E+03
      2.711  0.1358E+02  0.1328E+03
      2.778  0.1146E+02  0.1335E+03
      2.844  0.8798E+01  0.1341E+03
      2.911  0.7310E+01  0.1346E+03
      2.978  0.6906E+01  0.1350E+03
      3.044  0.5984E+01  0.1354E+03
      3.111  0.4204E+01  0.1357E+03
      3.177  0.2470E+01  0.1359E+03
      3.244  0.1193E+01  0.1360E+03
      3.311  0.3799E+00  0.1360E+03
      3.377  0.6341E-01  0.1360E+03
      3.444  0.4915E-02  0.1360E+03
      3.511  0.1679E-03  0.1360E+03
      3.577  0.2467E-05  0.1360E+03
      3.644  0.1538E-07  0.1360E+03
      3.711  0.4039E-10  0.1360E+03
      3.777  0.4447E-13  0.1360E+03
      3.844  0.0000E+00  0.1360E+03
      3.910  0.0000E+00  0.1360E+03
      3.977  0.0000E+00  0.1360E+03
      4.044  0.0000E+00  0.1360E+03
      4.110  0.0000E+00  0.1360E+03
      4.177  0.0000E+00  0.1360E+03
