       N       E                     dE             d eps       ncg     rms          rms(c)
DAV:   1     0.500309518869E+03    0.50031E+03   -0.28747E+04  7376   0.790E+02
DAV:   2    -0.630576380605E+02   -0.56337E+03   -0.54929E+03  9860   0.190E+02
DAV:   3    -0.119008323616E+03   -0.55951E+02   -0.55078E+02  8804   0.622E+01
DAV:   4    -0.121543447509E+03   -0.25351E+01   -0.25161E+01 10936   0.141E+01
DAV:   5    -0.121604690685E+03   -0.61243E-01   -0.61171E-01 10008   0.218E+00    0.108E+01
DAV:   6    -0.118496783123E+03    0.31079E+01   -0.11623E+01  8944   0.936E+00    0.593E+00
DAV:   7    -0.118394824164E+03    0.10196E+00   -0.10476E+01  9000   0.716E+00    0.365E+00
DAV:   8    -0.118195579447E+03    0.19924E+00   -0.27849E+00  8952   0.442E+00    0.143E+00
DAV:   9    -0.118204231328E+03   -0.86519E-02   -0.57194E-01  9024   0.199E+00    0.792E-01
DAV:  10    -0.118179026463E+03    0.25205E-01   -0.10136E-01  8720   0.919E-01    0.350E-01
DAV:  11    -0.118167645806E+03    0.11381E-01   -0.28264E-02  9136   0.469E-01    0.128E-01
DAV:  12    -0.118162772038E+03    0.48738E-02   -0.68388E-03  8920   0.229E-01    0.678E-02
DAV:  13    -0.118157435135E+03    0.53369E-02   -0.14425E-03  9184   0.974E-02    0.300E-02
DAV:  14    -0.118154835911E+03    0.25992E-02   -0.22243E-04  9192   0.460E-02    0.186E-02
DAV:  15    -0.118153610758E+03    0.12252E-02   -0.12727E-04  9312   0.298E-02    0.120E-02
DAV:  16    -0.118153255537E+03    0.35522E-03   -0.48355E-05  8312   0.198E-02    0.779E-03
DAV:  17    -0.118153418082E+03   -0.16254E-03   -0.62344E-05  8112   0.206E-02    0.516E-03
DAV:  18    -0.118153939820E+03   -0.52174E-03   -0.12421E-04  8376   0.222E-02    0.298E-03
DAV:  19    -0.118154136270E+03   -0.19645E-03   -0.70563E-05  7672   0.147E-02    0.175E-03
DAV:  20    -0.118154213764E+03   -0.77494E-04   -0.23243E-05  7136   0.107E-02    0.115E-03
DAV:  21    -0.118154236582E+03   -0.22819E-04   -0.82915E-06  6696   0.668E-03    0.736E-04
DAV:  22    -0.118154213905E+03    0.22677E-04   -0.38088E-05  7252   0.115E-02    0.536E-04
DAV:  23    -0.118154182810E+03    0.31095E-04   -0.27880E-05  6852   0.135E-02    0.303E-04
DAV:  24    -0.118154100059E+03    0.82751E-04   -0.11128E-05  6476   0.893E-03    0.139E-04
DAV:  25    -0.118154090490E+03    0.95686E-05   -0.44855E-06  6304   0.762E-03    0.850E-05
DAV:  26    -0.118154073126E+03    0.17364E-04   -0.56810E-06  6844   0.813E-03    0.337E-05
DAV:  27    -0.118154077688E+03   -0.45615E-05   -0.32300E-06  6496   0.625E-03    0.205E-05
DAV:  28    -0.118154078951E+03   -0.12632E-05   -0.27713E-06  6360   0.589E-03    0.117E-05
DAV:  29    -0.118154079089E+03   -0.13818E-06   -0.11835E-06  5728   0.427E-03
   1 F= -.11815408E+03 E0= -.11813893E+03  d E =-.302980E-01
