<?xml version="1.0" encoding="ISO-8859-1"?>
<modeling>
 <generator>
  <i name="program" type="string">vasp </i>
  <i name="version" type="string">5.4.1  </i>
  <i name="subversion" type="string">24Jun15 (build May 10 2016 14:18:23) complex                          parallel </i>
  <i name="platform" type="string">IFC91_ompi </i>
  <i name="date" type="string">2016 12 09 </i>
  <i name="time" type="string">15:00:40 </i>
 </generator>
 <incar>
  <i type="string" name="PREC">accurate</i>
  <i type="string" name="ALGO"> Fast</i>
  <i type="int" name="ISPIN">     2</i>
  <i type="int" name="IBRION">     2</i>
  <i name="EDIFF">      0.00010000</i>
  <i type="int" name="NSW">     0</i>
  <i type="int" name="ISIF">     3</i>
  <i name="ENCUT">    500.00000000</i>
  <v name="MAGMOM">      6.00000000      0.50000000      0.50000000      6.00000000      0.50000000      0.50000000</v>
  <i type="string" name="LREAL"> Auto</i>
  <i type="int" name="ISMEAR">     1</i>
  <i name="SIGMA">      0.10000000</i>
  <i type="logical" name="LWAVE"> F  </i>
  <i type="logical" name="LCHARG"> F  </i>
  <i type="logical" name="LVTOT"> T  </i>
  <i type="logical" name="LVHAR"> T  </i>
  <i type="logical" name="LAECHG"> F  </i>
  <v type="int" name="KPOINT_BSE">    -1     0     0     0</v>
  <i type="string" name="GGA"> Bo</i>
  <i name="PARAM1">      0.18333333</i>
  <i name="PARAM2">      0.22000000</i>
  <i type="logical" name="LUSE_VDW"> T  </i>
  <i name="AGGAC">      0.00000000</i>
 </incar>
 <kpoints>
  <generation param="Gamma">
   <v type="int" name="divisions">      13       13        1 </v>
   <v name="usershift">      0.00000000       0.00000000       0.00000000 </v>
   <v name="genvec1">      0.07692308       0.00000000       0.00000000 </v>
   <v name="genvec2">      0.00000000       0.07692308       0.00000000 </v>
   <v name="genvec3">      0.00000000       0.00000000       1.00000000 </v>
   <v name="shift">      0.00000000       0.00000000       0.00000000 </v>
  </generation>
  <varray name="kpointlist" >
   <v>       0.00000000       0.00000000       0.00000000 </v>
   <v>       0.07692308      -0.00000000       0.00000000 </v>
   <v>       0.15384615       0.00000000       0.00000000 </v>
   <v>       0.23076923       0.00000000       0.00000000 </v>
   <v>       0.30769231      -0.00000000       0.00000000 </v>
   <v>       0.38461538       0.00000000       0.00000000 </v>
   <v>       0.46153846       0.00000000       0.00000000 </v>
   <v>       0.00000000       0.07692308       0.00000000 </v>
   <v>       0.07692308       0.07692308       0.00000000 </v>
   <v>       0.15384615       0.07692308       0.00000000 </v>
   <v>       0.23076923       0.07692308       0.00000000 </v>
   <v>       0.30769231       0.07692308       0.00000000 </v>
   <v>       0.38461538       0.07692308       0.00000000 </v>
   <v>       0.46153846       0.07692308       0.00000000 </v>
   <v>       0.00000000       0.15384615       0.00000000 </v>
   <v>       0.07692308       0.15384615       0.00000000 </v>
   <v>       0.15384615       0.15384615       0.00000000 </v>
   <v>       0.23076923       0.15384615       0.00000000 </v>
   <v>       0.30769231       0.15384615       0.00000000 </v>
   <v>       0.38461538       0.15384615       0.00000000 </v>
   <v>      -0.07692308       0.15384615       0.00000000 </v>
   <v>       0.00000000       0.23076923       0.00000000 </v>
   <v>       0.07692308       0.23076923       0.00000000 </v>
   <v>       0.15384615       0.23076923       0.00000000 </v>
   <v>       0.23076923       0.23076923       0.00000000 </v>
   <v>       0.30769231       0.23076923       0.00000000 </v>
   <v>       0.38461538       0.23076923       0.00000000 </v>
   <v>      -0.15384615       0.23076923       0.00000000 </v>
   <v>       0.00000000       0.30769231       0.00000000 </v>
   <v>       0.07692308       0.30769231       0.00000000 </v>
   <v>       0.15384615       0.30769231       0.00000000 </v>
   <v>       0.23076923       0.30769231       0.00000000 </v>
   <v>       0.30769231       0.30769231       0.00000000 </v>
   <v>      -0.23076923       0.30769231       0.00000000 </v>
   <v>      -0.15384615       0.30769231       0.00000000 </v>
   <v>       0.00000000       0.38461538       0.00000000 </v>
   <v>       0.07692308       0.38461538       0.00000000 </v>
   <v>       0.15384615       0.38461538       0.00000000 </v>
   <v>       0.23076923       0.38461538       0.00000000 </v>
   <v>       0.30769231       0.38461538       0.00000000 </v>
   <v>      -0.30769231       0.38461538       0.00000000 </v>
   <v>      -0.23076923       0.38461538       0.00000000 </v>
   <v>       0.00000000       0.46153846       0.00000000 </v>
   <v>       0.07692308       0.46153846       0.00000000 </v>
   <v>       0.15384615       0.46153846       0.00000000 </v>
   <v>       0.23076923       0.46153846       0.00000000 </v>
   <v>      -0.38461538       0.46153846       0.00000000 </v>
   <v>      -0.30769231       0.46153846       0.00000000 </v>
   <v>      -0.23076923       0.46153846       0.00000000 </v>
  </varray>
  <varray name="weights" >
   <v>       0.00591716 </v>
   <v>       0.01183432 </v>
   <v>       0.01183432 </v>
   <v>       0.01183432 </v>
   <v>       0.01183432 </v>
   <v>       0.01183432 </v>
   <v>       0.01183432 </v>
   <v>       0.02366864 </v>
   <v>       0.02366864 </v>
   <v>       0.02366864 </v>
   <v>       0.02366864 </v>
   <v>       0.02366864 </v>
   <v>       0.02366864 </v>
   <v>       0.01183432 </v>
   <v>       0.02366864 </v>
   <v>       0.02366864 </v>
   <v>       0.02366864 </v>
   <v>       0.02366864 </v>
   <v>       0.02366864 </v>
   <v>       0.02366864 </v>
   <v>       0.01183432 </v>
   <v>       0.02366864 </v>
   <v>       0.02366864 </v>
   <v>       0.02366864 </v>
   <v>       0.02366864 </v>
   <v>       0.02366864 </v>
   <v>       0.01183432 </v>
   <v>       0.02366864 </v>
   <v>       0.02366864 </v>
   <v>       0.02366864 </v>
   <v>       0.02366864 </v>
   <v>       0.02366864 </v>
   <v>       0.02366864 </v>
   <v>       0.02366864 </v>
   <v>       0.01183432 </v>
   <v>       0.02366864 </v>
   <v>       0.02366864 </v>
   <v>       0.02366864 </v>
   <v>       0.02366864 </v>
   <v>       0.01183432 </v>
   <v>       0.02366864 </v>
   <v>       0.02366864 </v>
   <v>       0.02366864 </v>
   <v>       0.02366864 </v>
   <v>       0.02366864 </v>
   <v>       0.02366864 </v>
   <v>       0.02366864 </v>
   <v>       0.02366864 </v>
   <v>       0.01183432 </v>
  </varray>
 </kpoints>
 <parameters>
  <separator name="general" >
   <i type="string" name="SYSTEM">unknown system</i>
   <i type="logical" name="LCOMPAT"> F  </i>
  </separator>
  <separator name="electronic" >
   <i type="string" name="PREC">accura</i>
   <i name="ENMAX">    500.00000000</i>
   <i name="ENAUG">    392.42700000</i>
   <i name="EDIFF">      0.00010000</i>
   <i type="int" name="IALGO">    68</i>
   <i type="int" name="IWAVPR">    10</i>
   <i type="int" name="NBANDS">    36</i>
   <i name="NELECT">     48.00000000</i>
   <i type="int" name="TURBO">     0</i>
   <i type="int" name="IRESTART">     0</i>
   <i type="int" name="NREBOOT">     0</i>
   <i type="int" name="NMIN">     0</i>
   <i name="EREF">      0.00000000</i>
   <separator name="electronic smearing" >
    <i type="int" name="ISMEAR">     1</i>
    <i name="SIGMA">      0.10000000</i>
    <i name="KSPACING">      0.50000000</i>
    <i type="logical" name="KGAMMA"> T  </i>
   </separator>
   <separator name="electronic projectors" >
    <i type="logical" name="LREAL"> T  </i>
    <v name="ROPT">     -0.00025000     -0.00025000     -0.00025000     -0.00025000</v>
    <i type="int" name="LMAXPAW">  -100</i>
    <i type="int" name="LMAXMIX">     2</i>
    <i type="logical" name="NLSPLINE"> F  </i>
   </separator>
   <separator name="electronic startup" >
    <i type="int" name="ISTART">     0</i>
    <i type="int" name="ICHARG">     2</i>
    <i type="int" name="INIWAV">     1</i>
   </separator>
   <separator name="electronic spin" >
    <i type="int" name="ISPIN">     2</i>
    <i type="logical" name="LNONCOLLINEAR"> F  </i>
    <v name="MAGMOM">      6.00000000      0.50000000      0.50000000      6.00000000      0.50000000      0.50000000</v>
    <i name="NUPDOWN">     -1.00000000</i>
    <i type="logical" name="LSORBIT"> F  </i>
    <v name="SAXIS">      0.00000000      0.00000000      1.00000000</v>
    <i type="logical" name="LSPIRAL"> F  </i>
    <v name="QSPIRAL">      0.00000000      0.00000000      0.00000000</v>
    <i type="logical" name="LZEROZ"> F  </i>
   </separator>
   <separator name="electronic exchange-correlation" >
    <i type="logical" name="LASPH"> F  </i>
    <i type="logical" name="LMETAGGA"> F  </i>
   </separator>
   <separator name="electronic convergence" >
    <i type="int" name="NELM">    60</i>
    <i type="int" name="NELMDL">     0</i>
    <i type="int" name="NELMIN">     2</i>
    <i name="ENINI">    500.00000000</i>
    <separator name="electronic convergence detail" >
     <i type="logical" name="LDIAG"> T  </i>
     <i type="logical" name="LSUBROT"> F  </i>
     <i name="WEIMIN">      0.00000000</i>
     <i name="EBREAK">      0.00000069</i>
     <i name="DEPER">      0.30000000</i>
     <i type="int" name="NRMM">     4</i>
     <i name="TIME">      0.40000000</i>
    </separator>
   </separator>
   <separator name="electronic mixer" >
    <i name="AMIX">      0.40000000</i>
    <i name="BMIX">      1.00000000</i>
    <i name="AMIN">      0.10000000</i>
    <i name="AMIX_MAG">      1.60000000</i>
    <i name="BMIX_MAG">      1.00000000</i>
    <separator name="electronic mixer details" >
     <i type="int" name="IMIX">     4</i>
     <i type="logical" name="MIXFIRST"> F  </i>
     <i type="int" name="MAXMIX">   -45</i>
     <i name="WC">    100.00000000</i>
     <i type="int" name="INIMIX">     1</i>
     <i type="int" name="MIXPRE">     1</i>
     <i type="int" name="MREMOVE">     5</i>
    </separator>
   </separator>
   <separator name="electronic dipolcorrection" >
    <i type="logical" name="LDIPOL"> F  </i>
    <i type="logical" name="LMONO"> F  </i>
    <i type="int" name="IDIPOL">     0</i>
    <i name="EPSILON">      1.00000000</i>
    <v name="DIPOL">   -100.00000000   -100.00000000   -100.00000000</v>
    <i name="EFIELD">      0.00000000</i>
   </separator>
  </separator>
  <separator name="grids" >
   <i type="int" name="NGX">    24</i>
   <i type="int" name="NGY">    24</i>
   <i type="int" name="NGZ">   180</i>
   <i type="int" name="NGXF">    48</i>
   <i type="int" name="NGYF">    48</i>
   <i type="int" name="NGZF">   360</i>
   <i type="logical" name="ADDGRID"> F  </i>
  </separator>
  <separator name="ionic" >
   <i type="int" name="NSW">     0</i>
   <i type="int" name="IBRION">    -1</i>
   <i type="int" name="ISIF">     3</i>
   <i name="PSTRESS">      0.00000000</i>
   <i name="EDIFFG">      0.00100000</i>
   <i type="int" name="NFREE">     1</i>
   <i name="POTIM">      0.50000000</i>
   <i name="SMASS">     -3.00000000</i>
   <i name="SCALEE">      1.00000000</i>
  </separator>
  <separator name="ionic md" >
   <i name="TEBEG">      0.00010000</i>
   <i name="TEEND">      0.00010000</i>
   <i type="int" name="NBLOCK">     1</i>
   <i type="int" name="KBLOCK">     1</i>
   <i type="int" name="NPACO">   256</i>
   <i name="APACO">     16.00000000</i>
  </separator>
  <separator name="symmetry" >
   <i type="int" name="ISYM">     2</i>
   <i name="SYMPREC">      0.00001000</i>
  </separator>
  <separator name="dos" >
   <i type="logical" name="LORBIT"> F  </i>
   <v name="RWIGS">     -1.00000000     -1.00000000     -1.00000000     -1.00000000</v>
   <i type="int" name="NEDOS">   301</i>
   <i name="EMIN">     10.00000000</i>
   <i name="EMAX">    -10.00000000</i>
   <i name="EFERMI">      0.00000000</i>
  </separator>
  <separator name="writing" >
   <i type="int" name="NWRITE">     2</i>
   <i type="logical" name="LWAVE"> F  </i>
   <i type="logical" name="LCHARG"> F  </i>
   <i type="logical" name="LPARD"> F  </i>
   <i type="logical" name="LVTOT"> F  </i>
   <i type="logical" name="LVHAR"> T  </i>
   <i type="logical" name="LELF"> F  </i>
   <i type="logical" name="LOPTICS"> F  </i>
   <v name="STM">      0.00000000      0.00000000      0.00000000      0.00000000      0.00000000      0.00000000      0.00000000</v>
  </separator>
  <separator name="performance" >
   <i type="int" name="NPAR">     4</i>
   <i type="int" name="NSIM">     4</i>
   <i type="int" name="NBLK">    -1</i>
   <i type="logical" name="LPLANE"> T  </i>
   <i type="logical" name="LSCALAPACK"> T  </i>
   <i type="logical" name="LSCAAWARE"> F  </i>
   <i type="logical" name="LSCALU"> F  </i>
   <i type="logical" name="LASYNC"> F  </i>
   <i type="logical" name="LORBITALREAL"> F  </i>
  </separator>
  <separator name="miscellaneous" >
   <i type="int" name="IDIOT">     3</i>
   <i type="logical" name="LMUSIC"> F  </i>
   <v name="POMASS">     95.94000000     32.06600000     95.94000000     32.06600000</v>
   <v name="DARWINR">      0.00000000      0.00000000      0.00000000      0.00000000</v>
   <v name="DARWINV">      1.00000000      1.00000000      1.00000000      1.00000000</v>
   <i type="logical" name="LCORR"> T  </i>
  </separator>
  <i type="logical" name="GGA_COMPAT"> T  </i>
  <i type="logical" name="LBERRY"> F  </i>
  <i type="int" name="ICORELEVEL">     0</i>
  <i type="logical" name="LDAU"> F  </i>
  <i type="int" name="I_CONSTRAINED_M">     0</i>
  <separator name="electronic exchange-correlation" >
   <i type="string" name="GGA">BO</i>
   <i type="int" name="VOSKOWN">     0</i>
   <i type="logical" name="LHFCALC"> F  </i>
   <i type="string" name="PRECFOCK"></i>
   <i type="logical" name="LSYMGRAD"> F  </i>
   <i type="logical" name="LHFONE"> F  </i>
   <i type="logical" name="LRHFCALC"> F  </i>
   <i type="logical" name="LTHOMAS"> F  </i>
   <i type="logical" name="LMODELHF"> F  </i>
   <i name="ENCUT4O">     -1.00000000</i>
   <i type="int" name="EXXOEP">     0</i>
   <i type="int" name="FOURORBIT">     0</i>
   <i name="AEXX">      0.00000000</i>
   <i name="HFALPHA">      0.00000000</i>
   <i name="MCALPHA">      0.00000000</i>
   <i name="ALDAX">      1.00000000</i>
   <i name="AGGAX">      1.00000000</i>
   <i name="ALDAC">      1.00000000</i>
   <i name="AGGAC">      0.00000000</i>
   <i type="int" name="NKREDX">     1</i>
   <i type="int" name="NKREDY">     1</i>
   <i type="int" name="NKREDZ">     1</i>
   <i type="logical" name="SHIFTRED"> F  </i>
   <i type="logical" name="ODDONLY"> F  </i>
   <i type="logical" name="EVENONLY"> F  </i>
   <i type="int" name="LMAXFOCK">     0</i>
   <i type="int" name="NMAXFOCKAE">     0</i>
   <i type="logical" name="LFOCKAEDFT"> F  </i>
   <i name="HFSCREEN">      0.00000000</i>
   <i name="HFSCREENC">      0.00000000</i>
   <i type="int" name="NBANDSGWLOW">     0</i>
  </separator>
  <separator name="vdW DFT" >
   <i type="logical" name="LUSE_VDW"> T  </i>
   <i name="Zab_VDW">     -0.84910000</i>
   <i name="PARAM1">      0.18333333</i>
   <i name="PARAM2">      0.22000000</i>
   <i name="PARAM3">      0.00000000</i>
  </separator>
  <separator name="model GW" >
   <i type="int" name="MODEL_GW">     0</i>
   <i name="MODEL_EPS0">     20.39722663</i>
   <i name="MODEL_ALPHA">      1.00000000</i>
  </separator>
  <separator name="linear response parameters" >
   <i type="logical" name="LEPSILON"> F  </i>
   <i type="logical" name="LRPA"> F  </i>
   <i type="logical" name="LNABLA"> F  </i>
   <i type="logical" name="LVEL"> F  </i>
   <i type="int" name="KINTER">     0</i>
   <i name="CSHIFT">      0.10000000</i>
   <i name="OMEGAMAX">     -1.00000000</i>
   <i name="DEG_THRESHOLD">      0.00200000</i>
  </separator>
  <separator name="orbital magnetization" >
   <i type="logical" name="NUCIND"> F  </i>
   <v name="MAGPOS">      0.00000000      0.00000000      0.00000000</v>
   <i type="logical" name="LNICSALL"> T  </i>
   <i type="logical" name="ORBITALMAG"> F  </i>
   <i type="logical" name="LMAGBLOCH"> F  </i>
   <i type="logical" name="LCHIMAG"> F  </i>
   <i type="logical" name="LGAUGE"> T  </i>
   <i type="int" name="MAGATOM">     0</i>
   <v name="MAGDIPOL">      0.00000000      0.00000000      0.00000000</v>
   <v name="AVECCONST">      0.00000000      0.00000000      0.00000000</v>
  </separator>
  <separator name="response functions" >
   <i type="logical" name="LADDER"> F  </i>
   <i type="logical" name="LFXC"> F  </i>
   <i type="logical" name="LHARTREE"> T  </i>
   <i type="int" name="IBSE">     0</i>
   <v type="int" name="KPOINT">    -1     0     0     0</v>
   <i type="logical" name="LTCTE"> F  </i>
   <i type="logical" name="LTETE"> F  </i>
   <i type="logical" name="LTRIPLET"> F  </i>
   <i type="logical" name="LFXCEPS"> F  </i>
   <i type="logical" name="LFXHEG"> F  </i>
   <i type="int" name="NATURALO">     0</i>
   <i type="logical" name="L2ORDER"> F  </i>
   <i type="logical" name="LUSEW"> F  </i>
   <i name="ENCUTGW">     -2.00000000</i>
   <i name="ENCUTGWSOFT">     -2.00000000</i>
   <i name="ENCUTLF">     -1.00000000</i>
   <i type="int" name="LMAXMP2">    -1</i>
   <i name="SCISSOR">      0.00000000</i>
   <i type="int" name="NOMEGA">     0</i>
   <i type="int" name="NOMEGAR">     0</i>
   <i type="int" name="NBANDSGW">    -1</i>
   <i type="int" name="NBANDSO">    -1</i>
   <i type="int" name="NBANDSV">    -1</i>
   <i type="int" name="NELM">     1</i>
   <i type="int" name="NELMHF">     1</i>
   <i type="int" name="DIM">     3</i>
   <i type="int" name="ANTIRES">     0</i>
   <i name="OMEGAMAX">    -30.00000000</i>
   <i name="OMEGAMIN">    -30.00000000</i>
   <i name="OMEGATL">   -200.00000000</i>
   <i type="int" name="OMEGAGRID">     0</i>
   <i name="CSHIFT">     -0.10000000</i>
   <i type="logical" name="SELFENERGY"> F  </i>
   <i type="logical" name="LSPECTRAL"> F  </i>
   <i type="logical" name="LSPECTRALGW"> F  </i>
   <i type="logical" name="LSINGLES"> F  </i>
   <i type="logical" name="LFERMIGW"> F  </i>
   <i type="logical" name="ODDONLYGW"> F  </i>
   <i type="logical" name="EVENONLYGW"> F  </i>
   <i type="int" name="NKREDLFX">     1</i>
   <i type="int" name="NKREDLFY">     1</i>
   <i type="int" name="NKREDLFZ">     1</i>
   <i type="int" name="MAXMEM">  1800</i>
   <i type="int" name="TELESCOPE">     0</i>
   <i type="int" name="TAUPAR">     1</i>
   <i type="int" name="OMEGAPAR">    -1</i>
   <i name="LAMBDA">      1.00000000</i>
  </separator>
  <separator name="External order field" >
   <i name="OFIELD_KAPPA">      0.00000000</i>
   <v name="OFIELD_K">      0.00000000      0.00000000      0.00000000</v>
   <i name="OFIELD_Q6_NEAR">      0.00000000</i>
   <i name="OFIELD_Q6_FAR">      0.00000000</i>
   <i name="OFIELD_A">      0.00000000</i>
  </separator>
 </parameters>
 <atominfo>
  <atoms>       6 </atoms>
  <types>       4 </types>
  <array name="atoms" >
   <dimension dim="1">ion</dimension>
   <field type="string">element</field>
   <field type="int">atomtype</field>
   <set>
    <rc><c>Mo</c><c>   1</c></rc>
    <rc><c>S </c><c>   2</c></rc>
    <rc><c>S </c><c>   2</c></rc>
    <rc><c>Mo</c><c>   3</c></rc>
    <rc><c>S </c><c>   4</c></rc>
    <rc><c>S </c><c>   4</c></rc>
   </set>
  </array>
  <array name="atomtypes" >
   <dimension dim="1">type</dimension>
   <field type="int">atomspertype</field>
   <field type="string">element</field>
   <field>mass</field>
   <field>valence</field>
   <field type="string">pseudopotential</field>
   <set>
    <rc><c>   1</c><c>Mo</c><c>     95.94000000</c><c>     12.00000000</c><c> PAW_PBE Mo_pv 08Apr2002                </c></rc>
    <rc><c>   2</c><c>S </c><c>     32.06600000</c><c>      6.00000000</c><c>  PAW_PBE S 17Jan2003                   </c></rc>
    <rc><c>   1</c><c>Mo</c><c>     95.94000000</c><c>     12.00000000</c><c> PAW_PBE Mo_pv 08Apr2002                </c></rc>
    <rc><c>   2</c><c>S </c><c>     32.06600000</c><c>      6.00000000</c><c>  PAW_PBE S 17Jan2003                   </c></rc>
   </set>
  </array>
 </atominfo>
 <structure name="initialpos" >
  <crystal>
   <varray name="basis" >
    <v>       3.19031700       0.00000000       0.00000000 </v>
    <v>      -1.59515800       2.76289700       0.00000000 </v>
    <v>       0.00000000       0.00000000      23.14049200 </v>
   </varray>
   <i name="volume">    203.97226633 </i>
   <varray name="rec_basis" >
    <v>       0.31344848       0.18096941       0.00000000 </v>
    <v>       0.00000000       0.36193894       0.00000000 </v>
    <v>       0.00000000       0.00000000       0.04321429 </v>
   </varray>
  </crystal>
  <varray name="positions" >
   <v>       0.66666700       0.33333300       0.06785900 </v>
   <v>       0.33333300       0.66666700       0.00000000 </v>
   <v>       0.33333300       0.66666700       0.13571500 </v>
   <v>       0.23809557       0.61904729       0.35482300 </v>
   <v>       0.90476157       0.95238129       0.28696500 </v>
   <v>       0.90476157       0.95238129       0.42267900 </v>
  </varray>
 </structure>
 <calculation>
  <scstep>
   <time name="dav">   62.78   62.83</time>
   <time name="total">   82.40   82.50</time>
   <energy>
    <i name="alphaZ">    104.15310261 </i>
    <i name="ewald">   7698.95526922 </i>
    <i name="hartreedc"> -11109.01428669 </i>
    <i name="XCdc">    128.46206147 </i>
    <i name="pawpsdc">   2252.92270536 </i>
    <i name="pawaedc">  -2205.68654582 </i>
    <i name="eentropy">      0.00065234 </i>
    <i name="bandstr">   -160.43449011 </i>
    <i name="atom">   3688.31848598 </i>
    <i name="e_fr_energy">    397.67695436 </i>
    <i name="e_wo_entrp">    397.67630202 </i>
    <i name="e_0_energy">    397.67673691 </i>
   </energy>
  </scstep>
  <scstep>
   <time name="dav">   68.03   68.08</time>
   <time name="total">   68.04   68.20</time>
   <energy>
    <i name="e_fr_energy">     -1.56916186 </i>
    <i name="e_wo_entrp">     -1.56870589 </i>
    <i name="e_0_energy">     -1.56900987 </i>
   </energy>
  </scstep>
  <scstep>
   <time name="dav">   70.15   70.20</time>
   <time name="total">   70.16   70.24</time>
   <energy>
    <i name="e_fr_energy">    -32.97525412 </i>
    <i name="e_wo_entrp">    -32.97657773 </i>
    <i name="e_0_energy">    -32.97569533 </i>
   </energy>
  </scstep>
  <scstep>
   <time name="dav">   66.62   66.67</time>
   <time name="total">   66.62   66.68</time>
   <energy>
    <i name="e_fr_energy">    -33.85117112 </i>
    <i name="e_wo_entrp">    -33.85262395 </i>
    <i name="e_0_energy">    -33.85165540 </i>
   </energy>
  </scstep>
  <scstep>
   <time name="dav">   70.28   70.33</time>
   <time name="total">   75.84   75.90</time>
   <energy>
    <i name="e_fr_energy">    -33.87808915 </i>
    <i name="e_wo_entrp">    -33.87954933 </i>
    <i name="e_0_energy">    -33.87857587 </i>
   </energy>
  </scstep>
  <scstep>
   <time name="diag">   12.95   12.96</time>
   <time name="diis">   45.11   45.15</time>
   <time name="orth">    0.40    0.40</time>
   <time name="total">   82.99   83.05</time>
   <energy>
    <i name="e_fr_energy">    -30.09945971 </i>
    <i name="e_wo_entrp">    -30.09898920 </i>
    <i name="e_0_energy">    -30.09930288 </i>
   </energy>
  </scstep>
  <scstep>
   <time name="diag">   12.96   12.97</time>
   <time name="diis">   45.67   45.70</time>
   <time name="orth">    0.42    0.42</time>
   <time name="total">   83.50   83.56</time>
   <energy>
    <i name="e_fr_energy">    -32.82074327 </i>
    <i name="e_wo_entrp">    -32.82129392 </i>
    <i name="e_0_energy">    -32.82092682 </i>
   </energy>
  </scstep>
  <scstep>
   <time name="diag">   13.00   13.01</time>
   <time name="diis">   48.73   48.76</time>
   <time name="orth">    0.43    0.43</time>
   <time name="total">   86.50   86.58</time>
   <energy>
    <i name="e_fr_energy">    -34.37095472 </i>
    <i name="e_wo_entrp">    -34.37112150 </i>
    <i name="e_0_energy">    -34.37101032 </i>
   </energy>
  </scstep>
  <scstep>
   <time name="diag">   13.01   13.02</time>
   <time name="diis">   45.19   45.23</time>
   <time name="orth">    0.42    0.42</time>
   <time name="total">   83.11   83.18</time>
   <energy>
    <i name="e_fr_energy">    -37.07484428 </i>
    <i name="e_wo_entrp">    -37.07501256 </i>
    <i name="e_0_energy">    -37.07490037 </i>
   </energy>
  </scstep>
  <scstep>
   <time name="diag">   12.96   12.97</time>
   <time name="diis">   54.72   54.77</time>
   <time name="orth">    0.41    0.41</time>
   <time name="total">   92.52   92.59</time>
   <energy>
    <i name="e_fr_energy">    -40.05643670 </i>
    <i name="e_wo_entrp">    -40.05661438 </i>
    <i name="e_0_energy">    -40.05649593 </i>
   </energy>
  </scstep>
  <scstep>
   <time name="diag">   12.96   12.97</time>
   <time name="diis">   44.41   44.44</time>
   <time name="orth">    0.41    0.41</time>
   <time name="total">   82.05   82.11</time>
   <energy>
    <i name="e_fr_energy">    -39.43174752 </i>
    <i name="e_wo_entrp">    -39.43201555 </i>
    <i name="e_0_energy">    -39.43183686 </i>
   </energy>
  </scstep>
  <scstep>
   <time name="diag">   12.97   12.98</time>
   <time name="diis">   42.94   42.97</time>
   <time name="orth">    0.40    0.40</time>
   <time name="total">   80.59   80.69</time>
   <energy>
    <i name="e_fr_energy">    -39.39429568 </i>
    <i name="e_wo_entrp">    -39.39463078 </i>
    <i name="e_0_energy">    -39.39440738 </i>
   </energy>
  </scstep>
  <scstep>
   <time name="diag">   12.96   12.97</time>
   <time name="diis">   50.21   50.25</time>
   <time name="orth">    0.41    0.41</time>
   <time name="total">   87.85   87.92</time>
   <energy>
    <i name="e_fr_energy">    -39.40316534 </i>
    <i name="e_wo_entrp">    -39.40349982 </i>
    <i name="e_0_energy">    -39.40327683 </i>
   </energy>
  </scstep>
  <scstep>
   <time name="diag">   12.95   12.95</time>
   <time name="diis">   47.07   47.10</time>
   <time name="orth">    0.41    0.42</time>
   <time name="total">   84.83   84.90</time>
   <energy>
    <i name="e_fr_energy">    -39.42257868 </i>
    <i name="e_wo_entrp">    -39.42291425 </i>
    <i name="e_0_energy">    -39.42269054 </i>
   </energy>
  </scstep>
  <scstep>
   <time name="diag">   12.93   12.94</time>
   <time name="diis">   43.50   43.53</time>
   <time name="orth">    0.41    0.41</time>
   <time name="total">   81.20   81.26</time>
   <energy>
    <i name="e_fr_energy">    -39.42811381 </i>
    <i name="e_wo_entrp">    -39.42844955 </i>
    <i name="e_0_energy">    -39.42822572 </i>
   </energy>
  </scstep>
  <scstep>
   <time name="diag">   12.90   12.90</time>
   <time name="diis">   43.00   43.03</time>
   <time name="orth">    0.41    0.41</time>
   <time name="total">   80.70   80.76</time>
   <energy>
    <i name="e_fr_energy">    -39.42895356 </i>
    <i name="e_wo_entrp">    -39.42928944 </i>
    <i name="e_0_energy">    -39.42906552 </i>
   </energy>
  </scstep>
  <scstep>
   <time name="diag">   12.95   12.96</time>
   <time name="diis">   36.09   36.11</time>
   <time name="orth">    0.43    0.43</time>
   <time name="total">   73.76   73.81</time>
   <energy>
    <i name="e_fr_energy">    -39.42876650 </i>
    <i name="e_wo_entrp">    -39.42910247 </i>
    <i name="e_0_energy">    -39.42887849 </i>
   </energy>
  </scstep>
  <scstep>
   <time name="diag">   13.06   13.07</time>
   <time name="diis">   33.26   33.29</time>
   <time name="orth">    0.43    0.43</time>
   <time name="total">   65.44   65.49</time>
   <energy>
    <i name="alphaZ">    104.15310261 </i>
    <i name="ewald">   7698.95526922 </i>
    <i name="hartreedc"> -11093.07820364 </i>
    <i name="XCdc">    122.65828541 </i>
    <i name="pawpsdc">   2399.13854478 </i>
    <i name="pawaedc">  -2361.32369734 </i>
    <i name="eentropy">      0.00033599 </i>
    <i name="bandstr">   -598.25094735 </i>
    <i name="atom">   3688.31848598 </i>
    <i name="e_fr_energy">    -39.42882435 </i>
    <i name="e_wo_entrp">    -39.42916034 </i>
    <i name="e_0_energy">    -39.42893634 </i>
   </energy>
  </scstep>
  <structure>
   <crystal>
    <varray name="basis" >
     <v>       3.19031700       0.00000000       0.00000000 </v>
     <v>      -1.59515800       2.76289700       0.00000000 </v>
     <v>       0.00000000       0.00000000      23.14049200 </v>
    </varray>
    <i name="volume">    203.97226633 </i>
    <varray name="rec_basis" >
     <v>       0.31344848       0.18096941       0.00000000 </v>
     <v>       0.00000000       0.36193894       0.00000000 </v>
     <v>       0.00000000       0.00000000       0.04321429 </v>
    </varray>
   </crystal>
   <varray name="positions" >
    <v>       0.66666700       0.33333300       0.06785900 </v>
    <v>       0.33333300       0.66666700       0.00000000 </v>
    <v>       0.33333300       0.66666700       0.13571500 </v>
    <v>       0.23809557       0.61904729       0.35482300 </v>
    <v>       0.90476157       0.95238129       0.28696500 </v>
    <v>       0.90476157       0.95238129       0.42267900 </v>
   </varray>
  </structure>
  <varray name="forces" >
   <v>      -0.00111431      -0.00064335       0.00273925 </v>
   <v>      -0.00000638      -0.00000368      -0.05679100 </v>
   <v>      -0.00868232      -0.00501274       0.12790703 </v>
   <v>       0.00265912       0.00153524       0.00303196 </v>
   <v>       0.00759502       0.00438499      -0.13432249 </v>
   <v>      -0.00045113      -0.00026046       0.05743525 </v>
  </varray>
  <varray name="stress" >
   <v>       3.55394448       0.11182568       0.32689638 </v>
   <v>       0.11182568       3.42482360       0.18873379 </v>
   <v>       0.32689654       0.18873388      -0.49328310 </v>
  </varray>
  <energy>
   <i name="e_fr_energy">    -39.42882435 </i>
   <i name="e_wo_entrp">    -39.42893634 </i>
   <i name="e_0_energy">      0.00033599 </i>
  </energy>
  <time name="totalsc"> 1557.25 1558.84</time>
  <eigenvalues>
   <array>
    <dimension dim="1">band</dimension>
    <dimension dim="2">kpoint</dimension>
    <dimension dim="3">spin</dimension>
    <field>eigene</field>
    <field>occ</field>
    <set>
     <set comment="spin 1">
      <set comment="kpoint 1">
       <r>  -34.9997    1.0000 </r>
       <r>  -34.9640    1.0000 </r>
       <r>  -34.8094    1.0000 </r>
       <r>  -34.8094    1.0000 </r>
       <r>  -34.7737    1.0000 </r>
       <r>  -34.7737    1.0000 </r>
       <r>  -13.9702    1.0000 </r>
       <r>  -13.9048    1.0000 </r>
       <r>  -12.7017    1.0000 </r>
       <r>  -12.6036    1.0000 </r>
       <r>   -5.6744    1.0000 </r>
       <r>   -5.3894    1.0000 </r>
       <r>   -2.6294    1.0000 </r>
       <r>   -2.6294    1.0000 </r>
       <r>   -2.5930    1.0000 </r>
       <r>   -2.5929    1.0000 </r>
       <r>   -2.1605    1.0000 </r>
       <r>   -1.5358    1.0000 </r>
       <r>   -1.5354    1.0000 </r>
       <r>   -1.4989    1.0000 </r>
       <r>   -1.4987    1.0000 </r>
       <r>   -1.4689    1.0000 </r>
       <r>   -0.2110    1.0000 </r>
       <r>    0.2174    0.7930 </r>
       <r>    2.6916   -0.0000 </r>
       <r>    2.6957   -0.0000 </r>
       <r>    2.7325   -0.0000 </r>
       <r>    2.7348   -0.0000 </r>
       <r>    2.8739   -0.0000 </r>
       <r>    2.8785   -0.0000 </r>
       <r>    2.9157   -0.0000 </r>
       <r>    2.9223   -0.0000 </r>
       <r>    5.3582    0.0000 </r>
       <r>    5.6494    0.0000 </r>
       <r>    6.2488    0.0000 </r>
       <r>    6.5761    0.0000 </r>
      </set>
      <set comment="kpoint 2">
       <r>  -34.9956    1.0000 </r>
       <r>  -34.9599    1.0000 </r>
       <r>  -34.8307    1.0000 </r>
       <r>  -34.8142    1.0000 </r>
       <r>  -34.7950    1.0000 </r>
       <r>  -34.7786    1.0000 </r>
       <r>  -13.8834    1.0000 </r>
       <r>  -13.8184    1.0000 </r>
       <r>  -12.6650    1.0000 </r>
       <r>  -12.5693    1.0000 </r>
       <r>   -5.5749    1.0000 </r>
       <r>   -5.2908    1.0000 </r>
       <r>   -2.8163    1.0000 </r>
       <r>   -2.7797    1.0000 </r>
       <r>   -2.5387    1.0000 </r>
       <r>   -2.5022    1.0000 </r>
       <r>   -2.4495    1.0000 </r>
       <r>   -2.0645    1.0000 </r>
       <r>   -1.6730    1.0000 </r>
       <r>   -1.6362    1.0000 </r>
       <r>   -1.3434    1.0000 </r>
       <r>   -1.0686    1.0000 </r>
       <r>   -0.2316    1.0000 </r>
       <r>    0.1383    1.0348 </r>
       <r>    2.5900   -0.0000 </r>
       <r>    2.6269   -0.0000 </r>
       <r>    2.6536   -0.0000 </r>
       <r>    2.7095   -0.0000 </r>
       <r>    2.7795   -0.0000 </r>
       <r>    2.8220   -0.0000 </r>
       <r>    2.8445   -0.0000 </r>
       <r>    2.8821   -0.0000 </r>
       <r>    5.4915    0.0000 </r>
       <r>    5.7935    0.0000 </r>
       <r>    6.5606    0.0000 </r>
       <r>    6.9515    0.0000 </r>
      </set>
      <set comment="kpoint 3">
       <r>  -34.9842    1.0000 </r>
       <r>  -34.9485    1.0000 </r>
       <r>  -34.8892    1.0000 </r>
       <r>  -34.8534    1.0000 </r>
       <r>  -34.8276    1.0000 </r>
       <r>  -34.7920    1.0000 </r>
       <r>  -13.6347    1.0000 </r>
       <r>  -13.5708    1.0000 </r>
       <r>  -12.5600    1.0000 </r>
       <r>  -12.4711    1.0000 </r>
       <r>   -5.3140    1.0000 </r>
       <r>   -5.0372    1.0000 </r>
       <r>   -3.2649    1.0000 </r>
       <r>   -3.2287    1.0000 </r>
       <r>   -2.9511    1.0000 </r>
       <r>   -2.6798    1.0000 </r>
       <r>   -2.2832    1.0000 </r>
       <r>   -2.2464    1.0000 </r>
       <r>   -2.0084    1.0000 </r>
       <r>   -1.9709    1.0000 </r>
       <r>   -1.2453    1.0000 </r>
       <r>   -0.9476    1.0000 </r>
       <r>   -0.3598    1.0000 </r>
       <r>   -0.1477    1.0000 </r>
       <r>    2.1964   -0.0000 </r>
       <r>    2.3668   -0.0000 </r>
       <r>    2.5087   -0.0000 </r>
       <r>    2.5483   -0.0000 </r>
       <r>    2.5993   -0.0000 </r>
       <r>    2.6188   -0.0000 </r>
       <r>    3.1885    0.0000 </r>
       <r>    3.2330    0.0000 </r>
       <r>    5.8447    0.0000 </r>
       <r>    6.1431    0.0000 </r>
       <r>    6.9127    0.0000 </r>
       <r>    7.7649    0.0000 </r>
      </set>
      <set comment="kpoint 4">
       <r>  -34.9706    1.0000 </r>
       <r>  -34.9681    1.0000 </r>
       <r>  -34.9350    1.0000 </r>
       <r>  -34.9324    1.0000 </r>
       <r>  -34.8464    1.0000 </r>
       <r>  -34.8108    1.0000 </r>
       <r>  -13.2590    1.0000 </r>
       <r>  -13.1978    1.0000 </r>
       <r>  -12.4022    1.0000 </r>
       <r>  -12.3242    1.0000 </r>
       <r>   -5.0510    1.0000 </r>
       <r>   -4.8198    1.0000 </r>
       <r>   -3.7127    1.0000 </r>
       <r>   -3.6727    1.0000 </r>
       <r>   -3.4810    1.0000 </r>
       <r>   -3.3002    1.0000 </r>
       <r>   -2.4038    1.0000 </r>
       <r>   -2.3657    1.0000 </r>
       <r>   -1.9141    1.0000 </r>
       <r>   -1.8763    1.0000 </r>
       <r>   -1.4022    1.0000 </r>
       <r>   -1.1506    1.0000 </r>
       <r>   -0.6753    1.0000 </r>
       <r>   -0.6007    1.0000 </r>
       <r>    1.9617   -0.0000 </r>
       <r>    2.2433   -0.0000 </r>
       <r>    2.2974   -0.0000 </r>
       <r>    2.3510   -0.0000 </r>
       <r>    2.7057   -0.0000 </r>
       <r>    2.9017   -0.0000 </r>
       <r>    3.5665    0.0000 </r>
       <r>    3.6228    0.0000 </r>
       <r>    6.3779    0.0000 </r>
       <r>    6.6345    0.0000 </r>
       <r>    7.3924    0.0000 </r>
       <r>    8.1897    0.0000 </r>
      </set>
      <set comment="kpoint 5">
       <r>  -35.0559    1.0000 </r>
       <r>  -35.0202    1.0000 </r>
       <r>  -34.9510    1.0000 </r>
       <r>  -34.9153    1.0000 </r>
       <r>  -34.8664    1.0000 </r>
       <r>  -34.8307    1.0000 </r>
       <r>  -12.8179    1.0000 </r>
       <r>  -12.7620    1.0000 </r>
       <r>  -12.2197    1.0000 </r>
       <r>  -12.1555    1.0000 </r>
       <r>   -5.1084    1.0000 </r>
       <r>   -4.9887    1.0000 </r>
       <r>   -4.0436    1.0000 </r>
       <r>   -3.9283    1.0000 </r>
       <r>   -3.8377    1.0000 </r>
       <r>   -3.7583    1.0000 </r>
       <r>   -2.7593    1.0000 </r>
       <r>   -2.7207    1.0000 </r>
       <r>   -1.6590    1.0000 </r>
       <r>   -1.5192    1.0000 </r>
       <r>   -1.4787    1.0000 </r>
       <r>   -1.4665    1.0000 </r>
       <r>   -0.9703    1.0000 </r>
       <r>   -0.9189    1.0000 </r>
       <r>    2.0527   -0.0000 </r>
       <r>    2.1302   -0.0000 </r>
       <r>    2.1797   -0.0000 </r>
       <r>    2.3250   -0.0000 </r>
       <r>    3.1202    0.0000 </r>
       <r>    3.3423    0.0000 </r>
       <r>    3.8637    0.0000 </r>
       <r>    3.9362    0.0000 </r>
       <r>    7.0299    0.0000 </r>
       <r>    7.1965    0.0000 </r>
       <r>    7.8894    0.0000 </r>
       <r>    7.9715    0.0000 </r>
      </set>
      <set comment="kpoint 6">
       <r>  -35.1257    1.0000 </r>
       <r>  -35.0899    1.0000 </r>
       <r>  -34.9367    1.0000 </r>
       <r>  -34.9010    1.0000 </r>
       <r>  -34.8828    1.0000 </r>
       <r>  -34.8472    1.0000 </r>
       <r>  -12.4051    1.0000 </r>
       <r>  -12.3577    1.0000 </r>
       <r>  -12.0535    1.0000 </r>
       <r>  -12.0040    1.0000 </r>
       <r>   -5.4235    1.0000 </r>
       <r>   -5.3631    1.0000 </r>
       <r>   -4.4611    1.0000 </r>
       <r>   -4.3869    1.0000 </r>
       <r>   -3.9111    1.0000 </r>
       <r>   -3.8460    1.0000 </r>
       <r>   -3.0193    1.0000 </r>
       <r>   -2.9804    1.0000 </r>
       <r>   -1.8502    1.0000 </r>
       <r>   -1.7184    1.0000 </r>
       <r>   -1.2037    1.0000 </r>
       <r>   -1.1578    1.0000 </r>
       <r>   -0.9267    1.0000 </r>
       <r>   -0.8553    1.0000 </r>
       <r>    2.0879   -0.0000 </r>
       <r>    2.1300   -0.0000 </r>
       <r>    2.3151   -0.0000 </r>
       <r>    2.5000   -0.0000 </r>
       <r>    3.5321    0.0000 </r>
       <r>    3.7082    0.0000 </r>
       <r>    4.0470    0.0000 </r>
       <r>    4.1347    0.0000 </r>
       <r>    6.9347    0.0000 </r>
       <r>    7.0832    0.0000 </r>
       <r>    7.6688    0.0000 </r>
       <r>    7.9161    0.0000 </r>
      </set>
      <set comment="kpoint 7">
       <r>  -35.1647    1.0000 </r>
       <r>  -35.1290    1.0000 </r>
       <r>  -34.9287    1.0000 </r>
       <r>  -34.8930    1.0000 </r>
       <r>  -34.8921    1.0000 </r>
       <r>  -34.8564    1.0000 </r>
       <r>  -12.1447    1.0000 </r>
       <r>  -12.1061    1.0000 </r>
       <r>  -11.9524    1.0000 </r>
       <r>  -11.9137    1.0000 </r>
       <r>   -5.6601    1.0000 </r>
       <r>   -5.6188    1.0000 </r>
       <r>   -4.7066    1.0000 </r>
       <r>   -4.6592    1.0000 </r>
       <r>   -4.0109    1.0000 </r>
       <r>   -3.9602    1.0000 </r>
       <r>   -3.1553    1.0000 </r>
       <r>   -3.1162    1.0000 </r>
       <r>   -1.9304    1.0000 </r>
       <r>   -1.8553    1.0000 </r>
       <r>   -1.0383    1.0000 </r>
       <r>   -0.9874    1.0000 </r>
       <r>   -0.6935    1.0000 </r>
       <r>   -0.6423    1.0000 </r>
       <r>    2.1152   -0.0000 </r>
       <r>    2.1529   -0.0000 </r>
       <r>    2.5689   -0.0000 </r>
       <r>    2.6451   -0.0000 </r>
       <r>    3.7791    0.0000 </r>
       <r>    3.8736    0.0000 </r>
       <r>    4.1296    0.0000 </r>
       <r>    4.2262    0.0000 </r>
       <r>    6.2059    0.0000 </r>
       <r>    6.3464    0.0000 </r>
       <r>    7.8887    0.0000 </r>
       <r>    8.1387    0.0000 </r>
      </set>
      <set comment="kpoint 8">
       <r>  -34.9956    1.0000 </r>
       <r>  -34.9599    1.0000 </r>
       <r>  -34.8306    1.0000 </r>
       <r>  -34.8143    1.0000 </r>
       <r>  -34.7950    1.0000 </r>
       <r>  -34.7786    1.0000 </r>
       <r>  -13.8835    1.0000 </r>
       <r>  -13.8183    1.0000 </r>
       <r>  -12.6651    1.0000 </r>
       <r>  -12.5692    1.0000 </r>
       <r>   -5.5750    1.0000 </r>
       <r>   -5.2906    1.0000 </r>
       <r>   -2.8163    1.0000 </r>
       <r>   -2.7797    1.0000 </r>
       <r>   -2.5388    1.0000 </r>
       <r>   -2.5022    1.0000 </r>
       <r>   -2.4490    1.0000 </r>
       <r>   -2.0645    1.0000 </r>
       <r>   -1.6732    1.0000 </r>
       <r>   -1.6361    1.0000 </r>
       <r>   -1.3479    1.0000 </r>
       <r>   -1.0649    1.0000 </r>
       <r>   -0.2322    1.0000 </r>
       <r>    0.1412    1.0341 </r>
       <r>    2.5870   -0.0000 </r>
       <r>    2.6228   -0.0000 </r>
       <r>    2.6484   -0.0000 </r>
       <r>    2.7186   -0.0000 </r>
       <r>    2.7760   -0.0000 </r>
       <r>    2.8229   -0.0000 </r>
       <r>    2.8447   -0.0000 </r>
       <r>    2.8856   -0.0000 </r>
       <r>    5.4915    0.0000 </r>
       <r>    5.7936    0.0000 </r>
       <r>    6.5598    0.0000 </r>
       <r>    6.9509    0.0000 </r>
      </set>
      <set comment="kpoint 9">
       <r>  -34.9879    1.0000 </r>
       <r>  -34.9521    1.0000 </r>
       <r>  -34.8696    1.0000 </r>
       <r>  -34.8339    1.0000 </r>
       <r>  -34.8243    1.0000 </r>
       <r>  -34.7886    1.0000 </r>
       <r>  -13.7157    1.0000 </r>
       <r>  -13.6512    1.0000 </r>
       <r>  -12.5942    1.0000 </r>
       <r>  -12.5029    1.0000 </r>
       <r>   -5.3929    1.0000 </r>
       <r>   -5.1120    1.0000 </r>
       <r>   -3.1295    1.0000 </r>
       <r>   -3.0929    1.0000 </r>
       <r>   -2.7889    1.0000 </r>
       <r>   -2.4773    1.0000 </r>
       <r>   -2.3706    1.0000 </r>
       <r>   -2.3340    1.0000 </r>
       <r>   -1.9860    1.0000 </r>
       <r>   -1.9491    1.0000 </r>
       <r>   -1.1818    1.0000 </r>
       <r>   -0.8875    1.0000 </r>
       <r>   -0.3060    1.0000 </r>
       <r>   -0.0418    1.0001 </r>
       <r>    2.3086   -0.0000 </r>
       <r>    2.4238   -0.0000 </r>
       <r>    2.4719   -0.0000 </r>
       <r>    2.5467   -0.0000 </r>
       <r>    2.6169   -0.0000 </r>
       <r>    2.6601   -0.0000 </r>
       <r>    3.1229    0.0000 </r>
       <r>    3.1612    0.0000 </r>
       <r>    5.7332    0.0000 </r>
       <r>    6.0370    0.0000 </r>
       <r>    6.9188    0.0000 </r>
       <r>    7.6100    0.0000 </r>
      </set>
      <set comment="kpoint 10">
       <r>  -34.9741    1.0000 </r>
       <r>  -34.9384    1.0000 </r>
       <r>  -34.9372    1.0000 </r>
       <r>  -34.9015    1.0000 </r>
       <r>  -34.8428    1.0000 </r>
       <r>  -34.8071    1.0000 </r>
       <r>  -13.4029    1.0000 </r>
       <r>  -13.3403    1.0000 </r>
       <r>  -12.4621    1.0000 </r>
       <r>  -12.3797    1.0000 </r>
       <r>   -5.1134    1.0000 </r>
       <r>   -4.8536    1.0000 </r>
       <r>   -3.5656    1.0000 </r>
       <r>   -3.5296    1.0000 </r>
       <r>   -3.2249    1.0000 </r>
       <r>   -2.9981    1.0000 </r>
       <r>   -2.4673    1.0000 </r>
       <r>   -2.4267    1.0000 </r>
       <r>   -2.0864    1.0000 </r>
       <r>   -2.0492    1.0000 </r>
       <r>   -1.1478    1.0000 </r>
       <r>   -0.9031    1.0000 </r>
       <r>   -0.5349    1.0000 </r>
       <r>   -0.4226    1.0000 </r>
       <r>    1.9683   -0.0000 </r>
       <r>    2.1906   -0.0000 </r>
       <r>    2.3961   -0.0000 </r>
       <r>    2.4252   -0.0000 </r>
       <r>    2.4815   -0.0000 </r>
       <r>    2.6315   -0.0000 </r>
       <r>    3.5317    0.0000 </r>
       <r>    3.5745    0.0000 </r>
       <r>    6.1767    0.0000 </r>
       <r>    6.4602    0.0000 </r>
       <r>    7.2276    0.0000 </r>
       <r>    8.1888    0.0000 </r>
      </set>
      <set comment="kpoint 11">
       <r>  -35.0175    1.0000 </r>
       <r>  -34.9818    1.0000 </r>
       <r>  -34.9575    1.0000 </r>
       <r>  -34.9218    1.0000 </r>
       <r>  -34.8652    1.0000 </r>
       <r>  -34.8295    1.0000 </r>
       <r>  -12.9924    1.0000 </r>
       <r>  -12.9338    1.0000 </r>
       <r>  -12.2901    1.0000 </r>
       <r>  -12.2199    1.0000 </r>
       <r>   -4.9923    1.0000 </r>
       <r>   -4.8218    1.0000 </r>
       <r>   -3.8523    1.0000 </r>
       <r>   -3.7812    1.0000 </r>
       <r>   -3.7051    1.0000 </r>
       <r>   -3.5935    1.0000 </r>
       <r>   -2.8573    1.0000 </r>
       <r>   -2.7943    1.0000 </r>
       <r>   -1.8036    1.0000 </r>
       <r>   -1.7645    1.0000 </r>
       <r>   -1.3432    1.0000 </r>
       <r>   -1.1690    1.0000 </r>
       <r>   -0.8410    1.0000 </r>
       <r>   -0.7989    1.0000 </r>
       <r>    1.8590   -0.0000 </r>
       <r>    2.0679   -0.0000 </r>
       <r>    2.2866   -0.0000 </r>
       <r>    2.3777   -0.0000 </r>
       <r>    2.7552   -0.0000 </r>
       <r>    2.9547   -0.0000 </r>
       <r>    3.8860    0.0000 </r>
       <r>    3.9355    0.0000 </r>
       <r>    6.7900    0.0000 </r>
       <r>    7.0090    0.0000 </r>
       <r>    7.8051    0.0000 </r>
       <r>    8.3965    0.0000 </r>
      </set>
      <set comment="kpoint 12">
       <r>  -35.0922    1.0000 </r>
       <r>  -35.0564    1.0000 </r>
       <r>  -34.9418    1.0000 </r>
       <r>  -34.9061    1.0000 </r>
       <r>  -34.8862    1.0000 </r>
       <r>  -34.8505    1.0000 </r>
       <r>  -12.5604    1.0000 </r>
       <r>  -12.5088    1.0000 </r>
       <r>  -12.1121    1.0000 </r>
       <r>  -12.0561    1.0000 </r>
       <r>   -5.2152    1.0000 </r>
       <r>   -5.1324    1.0000 </r>
       <r>   -4.2821    1.0000 </r>
       <r>   -4.2052    1.0000 </r>
       <r>   -3.8347    1.0000 </r>
       <r>   -3.7591    1.0000 </r>
       <r>   -3.0726    1.0000 </r>
       <r>   -3.0076    1.0000 </r>
       <r>   -1.6600    1.0000 </r>
       <r>   -1.6241    1.0000 </r>
       <r>   -1.5873    1.0000 </r>
       <r>   -1.5016    1.0000 </r>
       <r>   -0.8657    1.0000 </r>
       <r>   -0.8268    1.0000 </r>
       <r>    1.9610   -0.0000 </r>
       <r>    2.1027   -0.0000 </r>
       <r>    2.3284   -0.0000 </r>
       <r>    2.4410   -0.0000 </r>
       <r>    3.1824    0.0000 </r>
       <r>    3.3752    0.0000 </r>
       <r>    4.0946    0.0000 </r>
       <r>    4.1403    0.0000 </r>
       <r>    7.3770    0.0000 </r>
       <r>    7.5061    0.0000 </r>
       <r>    7.6675    0.0000 </r>
       <r>    8.0322    0.0000 </r>
      </set>
      <set comment="kpoint 13">
       <r>  -35.1445    1.0000 </r>
       <r>  -35.1088    1.0000 </r>
       <r>  -34.9306    1.0000 </r>
       <r>  -34.9010    1.0000 </r>
       <r>  -34.8949    1.0000 </r>
       <r>  -34.8654    1.0000 </r>
       <r>  -12.2157    1.0000 </r>
       <r>  -12.1734    1.0000 </r>
       <r>  -11.9739    1.0000 </r>
       <r>  -11.9311    1.0000 </r>
       <r>   -5.4932    1.0000 </r>
       <r>   -5.4443    1.0000 </r>
       <r>   -4.6644    1.0000 </r>
       <r>   -4.6154    1.0000 </r>
       <r>   -3.9294    1.0000 </r>
       <r>   -3.8763    1.0000 </r>
       <r>   -3.1617    1.0000 </r>
       <r>   -3.1130    1.0000 </r>
       <r>   -1.8413    1.0000 </r>
       <r>   -1.7676    1.0000 </r>
       <r>   -1.5040    1.0000 </r>
       <r>   -1.4459    1.0000 </r>
       <r>   -0.6471    1.0000 </r>
       <r>   -0.6051    1.0000 </r>
       <r>    2.1047   -0.0000 </r>
       <r>    2.1696   -0.0000 </r>
       <r>    2.5027   -0.0000 </r>
       <r>    2.5978   -0.0000 </r>
       <r>    3.5877    0.0000 </r>
       <r>    3.7358    0.0000 </r>
       <r>    4.1084    0.0000 </r>
       <r>    4.1589    0.0000 </r>
       <r>    6.5970    0.0000 </r>
       <r>    6.7727    0.0000 </r>
       <r>    8.0579    0.0000 </r>
       <r>    8.2163    0.0000 </r>
      </set>
      <set comment="kpoint 14">
       <r>  -35.1633    1.0000 </r>
       <r>  -35.1276    1.0000 </r>
       <r>  -34.9266    1.0000 </r>
       <r>  -34.9064    1.0000 </r>
       <r>  -34.8909    1.0000 </r>
       <r>  -34.8708    1.0000 </r>
       <r>  -12.0805    1.0000 </r>
       <r>  -12.0435    1.0000 </r>
       <r>  -11.9213    1.0000 </r>
       <r>  -11.8842    1.0000 </r>
       <r>   -5.6081    1.0000 </r>
       <r>   -5.5687    1.0000 </r>
       <r>   -4.8051    1.0000 </r>
       <r>   -4.7642    1.0000 </r>
       <r>   -3.9992    1.0000 </r>
       <r>   -3.9505    1.0000 </r>
       <r>   -3.1818    1.0000 </r>
       <r>   -3.1443    1.0000 </r>
       <r>   -1.9174    1.0000 </r>
       <r>   -1.8635    1.0000 </r>
       <r>   -1.4375    1.0000 </r>
       <r>   -1.3773    1.0000 </r>
       <r>   -0.5080    1.0000 </r>
       <r>   -0.4699    1.0000 </r>
       <r>    2.1386   -0.0000 </r>
       <r>    2.1732   -0.0000 </r>
       <r>    2.6584   -0.0000 </r>
       <r>    2.7008   -0.0000 </r>
       <r>    3.8610    0.0000 </r>
       <r>    3.8936    0.0000 </r>
       <r>    4.0299    0.0000 </r>
       <r>    4.0567    0.0000 </r>
       <r>    6.2023    0.0000 </r>
       <r>    6.3357    0.0000 </r>
       <r>    8.3192    0.0000 </r>
       <r>    8.4142    0.0000 </r>
      </set>
      <set comment="kpoint 15">
       <r>  -34.9842    1.0000 </r>
       <r>  -34.9485    1.0000 </r>
       <r>  -34.8891    1.0000 </r>
       <r>  -34.8535    1.0000 </r>
       <r>  -34.8277    1.0000 </r>
       <r>  -34.7920    1.0000 </r>
       <r>  -13.6349    1.0000 </r>
       <r>  -13.5706    1.0000 </r>
       <r>  -12.5603    1.0000 </r>
       <r>  -12.4708    1.0000 </r>
       <r>   -5.3145    1.0000 </r>
       <r>   -5.0368    1.0000 </r>
       <r>   -3.2654    1.0000 </r>
       <r>   -3.2283    1.0000 </r>
       <r>   -2.9507    1.0000 </r>
       <r>   -2.6796    1.0000 </r>
       <r>   -2.2832    1.0000 </r>
       <r>   -2.2464    1.0000 </r>
       <r>   -2.0085    1.0000 </r>
       <r>   -1.9709    1.0000 </r>
       <r>   -1.2577    1.0000 </r>
       <r>   -0.9377    1.0000 </r>
       <r>   -0.3627    1.0000 </r>
       <r>   -0.1368    1.0000 </r>
       <r>    2.1842   -0.0000 </r>
       <r>    2.3682   -0.0000 </r>
       <r>    2.5041   -0.0000 </r>
       <r>    2.5478   -0.0000 </r>
       <r>    2.5997   -0.0000 </r>
       <r>    2.6275   -0.0000 </r>
       <r>    3.1870    0.0000 </r>
       <r>    3.2347    0.0000 </r>
       <r>    5.8450    0.0000 </r>
       <r>    6.1438    0.0000 </r>
       <r>    7.0166    0.0000 </r>
       <r>    7.8473    0.0000 </r>
      </set>
      <set comment="kpoint 16">
       <r>  -34.9741    1.0000 </r>
       <r>  -34.9384    1.0000 </r>
       <r>  -34.9372    1.0000 </r>
       <r>  -34.9015    1.0000 </r>
       <r>  -34.8428    1.0000 </r>
       <r>  -34.8071    1.0000 </r>
       <r>  -13.4031    1.0000 </r>
       <r>  -13.3402    1.0000 </r>
       <r>  -12.4624    1.0000 </r>
       <r>  -12.3794    1.0000 </r>
       <r>   -5.1136    1.0000 </r>
       <r>   -4.8534    1.0000 </r>
       <r>   -3.5671    1.0000 </r>
       <r>   -3.5280    1.0000 </r>
       <r>   -3.2251    1.0000 </r>
       <r>   -2.9975    1.0000 </r>
       <r>   -2.4671    1.0000 </r>
       <r>   -2.4273    1.0000 </r>
       <r>   -2.0864    1.0000 </r>
       <r>   -2.0493    1.0000 </r>
       <r>   -1.1571    1.0000 </r>
       <r>   -0.8958    1.0000 </r>
       <r>   -0.5375    1.0000 </r>
       <r>   -0.4143    1.0000 </r>
       <r>    1.9640   -0.0000 </r>
       <r>    2.1906   -0.0000 </r>
       <r>    2.3988   -0.0000 </r>
       <r>    2.4188   -0.0000 </r>
       <r>    2.4835   -0.0000 </r>
       <r>    2.6331   -0.0000 </r>
       <r>    3.5342    0.0000 </r>
       <r>    3.5725    0.0000 </r>
       <r>    6.1762    0.0000 </r>
       <r>    6.4610    0.0000 </r>
       <r>    7.2335    0.0000 </r>
       <r>    8.2695    0.0000 </r>
      </set>
      <set comment="kpoint 17">
       <r>  -34.9993    1.0000 </r>
       <r>  -34.9636    1.0000 </r>
       <r>  -34.9598    1.0000 </r>
       <r>  -34.9241    1.0000 </r>
       <r>  -34.8691    1.0000 </r>
       <r>  -34.8335    1.0000 </r>
       <r>  -13.0540    1.0000 </r>
       <r>  -12.9942    1.0000 </r>
       <r>  -12.3147    1.0000 </r>
       <r>  -12.2418    1.0000 </r>
       <r>   -4.9431    1.0000 </r>
       <r>   -4.7461    1.0000 </r>
       <r>   -3.7992    1.0000 </r>
       <r>   -3.7348    1.0000 </r>
       <r>   -3.5165    1.0000 </r>
       <r>   -3.3905    1.0000 </r>
       <r>   -3.0869    1.0000 </r>
       <r>   -2.9914    1.0000 </r>
       <r>   -1.9555    1.0000 </r>
       <r>   -1.9167    1.0000 </r>
       <r>   -1.1176    1.0000 </r>
       <r>   -0.9453    1.0000 </r>
       <r>   -0.7777    1.0000 </r>
       <r>   -0.7343    1.0000 </r>
       <r>    1.7677   -0.0000 </r>
       <r>    1.9924   -0.0000 </r>
       <r>    2.3299   -0.0000 </r>
       <r>    2.4022   -0.0000 </r>
       <r>    2.5299   -0.0000 </r>
       <r>    2.7159   -0.0000 </r>
       <r>    3.9370    0.0000 </r>
       <r>    3.9847    0.0000 </r>
       <r>    6.7084    0.0000 </r>
       <r>    6.9533    0.0000 </r>
       <r>    7.7428    0.0000 </r>
       <r>    8.5765    0.0000 </r>
      </set>
      <set comment="kpoint 18">
       <r>  -35.0621    1.0000 </r>
       <r>  -35.0264    1.0000 </r>
       <r>  -34.9447    1.0000 </r>
       <r>  -34.9090    1.0000 </r>
       <r>  -34.8994    1.0000 </r>
       <r>  -34.8638    1.0000 </r>
       <r>  -12.6471    1.0000 </r>
       <r>  -12.5928    1.0000 </r>
       <r>  -12.1426    1.0000 </r>
       <r>  -12.0823    1.0000 </r>
       <r>   -5.0223    1.0000 </r>
       <r>   -4.9132    1.0000 </r>
       <r>   -4.0982    1.0000 </r>
       <r>   -4.0489    1.0000 </r>
       <r>   -3.7497    1.0000 </r>
       <r>   -3.6645    1.0000 </r>
       <r>   -3.3066    1.0000 </r>
       <r>   -3.1633    1.0000 </r>
       <r>   -2.0812    1.0000 </r>
       <r>   -2.0383    1.0000 </r>
       <r>   -1.3140    1.0000 </r>
       <r>   -1.2226    1.0000 </r>
       <r>   -0.8433    1.0000 </r>
       <r>   -0.8037    1.0000 </r>
       <r>    1.7916   -0.0000 </r>
       <r>    2.0466   -0.0000 </r>
       <r>    2.3963   -0.0000 </r>
       <r>    2.4520   -0.0000 </r>
       <r>    2.7861   -0.0000 </r>
       <r>    2.9731   -0.0000 </r>
       <r>    4.2054    0.0000 </r>
       <r>    4.2522    0.0000 </r>
       <r>    7.3730    0.0000 </r>
       <r>    7.5439    0.0000 </r>
       <r>    8.2242    0.0000 </r>
       <r>    8.4419    0.0000 </r>
      </set>
      <set comment="kpoint 19">
       <r>  -35.1127    1.0000 </r>
       <r>  -35.0770    1.0000 </r>
       <r>  -34.9320    1.0000 </r>
       <r>  -34.9254    1.0000 </r>
       <r>  -34.8963    1.0000 </r>
       <r>  -34.8898    1.0000 </r>
       <r>  -12.2712    1.0000 </r>
       <r>  -12.2253    1.0000 </r>
       <r>  -11.9849    1.0000 </r>
       <r>  -11.9377    1.0000 </r>
       <r>   -5.2207    1.0000 </r>
       <r>   -5.1543    1.0000 </r>
       <r>   -4.6380    1.0000 </r>
       <r>   -4.5992    1.0000 </r>
       <r>   -3.7573    1.0000 </r>
       <r>   -3.7048    1.0000 </r>
       <r>   -3.2770    1.0000 </r>
       <r>   -3.1628    1.0000 </r>
       <r>   -2.2185    1.0000 </r>
       <r>   -2.1566    1.0000 </r>
       <r>   -1.6303    1.0000 </r>
       <r>   -1.5847    1.0000 </r>
       <r>   -0.6667    1.0000 </r>
       <r>   -0.6290    1.0000 </r>
       <r>    2.0130   -0.0000 </r>
       <r>    2.2174   -0.0000 </r>
       <r>    2.5123   -0.0000 </r>
       <r>    2.5611   -0.0000 </r>
       <r>    3.1362    0.0000 </r>
       <r>    3.2888    0.0000 </r>
       <r>    4.3028    0.0000 </r>
       <r>    4.3290    0.0000 </r>
       <r>    7.2286    0.0000 </r>
       <r>    7.3926    0.0000 </r>
       <r>    8.2210    0.0000 </r>
       <r>    8.4051    0.0000 </r>
      </set>
      <set comment="kpoint 20">
       <r>  -35.1409    1.0000 </r>
       <r>  -35.1052    1.0000 </r>
       <r>  -34.9403    1.0000 </r>
       <r>  -34.9249    1.0000 </r>
       <r>  -34.9046    1.0000 </r>
       <r>  -34.8892    1.0000 </r>
       <r>  -12.0377    1.0000 </r>
       <r>  -11.9997    1.0000 </r>
       <r>  -11.8885    1.0000 </r>
       <r>  -11.8505    1.0000 </r>
       <r>   -5.3465    1.0000 </r>
       <r>   -5.3029    1.0000 </r>
       <r>   -4.9454    1.0000 </r>
       <r>   -4.9078    1.0000 </r>
       <r>   -3.8983    1.0000 </r>
       <r>   -3.8522    1.0000 </r>
       <r>   -3.1776    1.0000 </r>
       <r>   -3.1182    1.0000 </r>
       <r>   -2.2195    1.0000 </r>
       <r>   -2.1453    1.0000 </r>
       <r>   -1.8770    1.0000 </r>
       <r>   -1.8427    1.0000 </r>
       <r>   -0.4331    1.0000 </r>
       <r>   -0.3948    1.0000 </r>
       <r>    2.0630   -0.0000 </r>
       <r>    2.1174   -0.0000 </r>
       <r>    2.7755   -0.0000 </r>
       <r>    2.8469   -0.0000 </r>
       <r>    3.4005    0.0000 </r>
       <r>    3.5016    0.0000 </r>
       <r>    4.2631    0.0000 </r>
       <r>    4.3053    0.0000 </r>
       <r>    6.5492    0.0000 </r>
       <r>    6.7177    0.0000 </r>
       <r>    8.7912    0.0000 </r>
       <r>    8.8557    0.0000 </r>
      </set>
      <set comment="kpoint 21">
       <r>  -34.9879    1.0000 </r>
       <r>  -34.9521    1.0000 </r>
       <r>  -34.8696    1.0000 </r>
       <r>  -34.8339    1.0000 </r>
       <r>  -34.8243    1.0000 </r>
       <r>  -34.7886    1.0000 </r>
       <r>  -13.7158    1.0000 </r>
       <r>  -13.6511    1.0000 </r>
       <r>  -12.5944    1.0000 </r>
       <r>  -12.5026    1.0000 </r>
       <r>   -5.3932    1.0000 </r>
       <r>   -5.1117    1.0000 </r>
       <r>   -3.1294    1.0000 </r>
       <r>   -3.0931    1.0000 </r>
       <r>   -2.7880    1.0000 </r>
       <r>   -2.4779    1.0000 </r>
       <r>   -2.3706    1.0000 </r>
       <r>   -2.3340    1.0000 </r>
       <r>   -1.9862    1.0000 </r>
       <r>   -1.9491    1.0000 </r>
       <r>   -1.1883    1.0000 </r>
       <r>   -0.8823    1.0000 </r>
       <r>   -0.3077    1.0000 </r>
       <r>   -0.0346    1.0002 </r>
       <r>    2.2995   -0.0000 </r>
       <r>    2.4221   -0.0000 </r>
       <r>    2.4692   -0.0000 </r>
       <r>    2.5546   -0.0000 </r>
       <r>    2.6165   -0.0000 </r>
       <r>    2.6612   -0.0000 </r>
       <r>    3.1218    0.0000 </r>
       <r>    3.1624    0.0000 </r>
       <r>    5.7336    0.0000 </r>
       <r>    6.0371    0.0000 </r>
       <r>    6.8475    0.0000 </r>
       <r>    7.5877    0.0000 </r>
      </set>
      <set comment="kpoint 22">
       <r>  -34.9706    1.0000 </r>
       <r>  -34.9681    1.0000 </r>
       <r>  -34.9349    1.0000 </r>
       <r>  -34.9324    1.0000 </r>
       <r>  -34.8465    1.0000 </r>
       <r>  -34.8108    1.0000 </r>
       <r>  -13.2595    1.0000 </r>
       <r>  -13.1974    1.0000 </r>
       <r>  -12.4029    1.0000 </r>
       <r>  -12.3234    1.0000 </r>
       <r>   -5.0513    1.0000 </r>
       <r>   -4.8197    1.0000 </r>
       <r>   -3.7204    1.0000 </r>
       <r>   -3.6654    1.0000 </r>
       <r>   -3.4816    1.0000 </r>
       <r>   -3.2984    1.0000 </r>
       <r>   -2.4038    1.0000 </r>
       <r>   -2.3657    1.0000 </r>
       <r>   -1.9140    1.0000 </r>
       <r>   -1.8763    1.0000 </r>
       <r>   -1.4264    1.0000 </r>
       <r>   -1.1301    1.0000 </r>
       <r>   -0.6826    1.0000 </r>
       <r>   -0.5832    1.0000 </r>
       <r>    1.9535   -0.0000 </r>
       <r>    2.2438   -0.0000 </r>
       <r>    2.2979   -0.0000 </r>
       <r>    2.3505   -0.0000 </r>
       <r>    2.7012   -0.0000 </r>
       <r>    2.9061   -0.0000 </r>
       <r>    3.5661    0.0000 </r>
       <r>    3.6232    0.0000 </r>
       <r>    6.3770    0.0000 </r>
       <r>    6.6369    0.0000 </r>
       <r>    7.3910    0.0000 </r>
       <r>    8.1519    0.0000 </r>
      </set>
      <set comment="kpoint 23">
       <r>  -35.0175    1.0000 </r>
       <r>  -34.9818    1.0000 </r>
       <r>  -34.9575    1.0000 </r>
       <r>  -34.9218    1.0000 </r>
       <r>  -34.8652    1.0000 </r>
       <r>  -34.8295    1.0000 </r>
       <r>  -12.9930    1.0000 </r>
       <r>  -12.9334    1.0000 </r>
       <r>  -12.2908    1.0000 </r>
       <r>  -12.2190    1.0000 </r>
       <r>   -4.9920    1.0000 </r>
       <r>   -4.8220    1.0000 </r>
       <r>   -3.8615    1.0000 </r>
       <r>   -3.7731    1.0000 </r>
       <r>   -3.7057    1.0000 </r>
       <r>   -3.5919    1.0000 </r>
       <r>   -2.8570    1.0000 </r>
       <r>   -2.7947    1.0000 </r>
       <r>   -1.8030    1.0000 </r>
       <r>   -1.7646    1.0000 </r>
       <r>   -1.3664    1.0000 </r>
       <r>   -1.1486    1.0000 </r>
       <r>   -0.8460    1.0000 </r>
       <r>   -0.7868    1.0000 </r>
       <r>    1.8590   -0.0000 </r>
       <r>    2.0647   -0.0000 </r>
       <r>    2.2878   -0.0000 </r>
       <r>    2.3741   -0.0000 </r>
       <r>    2.7589   -0.0000 </r>
       <r>    2.9502   -0.0000 </r>
       <r>    3.8926    0.0000 </r>
       <r>    3.9307    0.0000 </r>
       <r>    6.7881    0.0000 </r>
       <r>    7.0124    0.0000 </r>
       <r>    7.7855    0.0000 </r>
       <r>    8.3370    0.0000 </r>
      </set>
      <set comment="kpoint 24">
       <r>  -35.0621    1.0000 </r>
       <r>  -35.0264    1.0000 </r>
       <r>  -34.9447    1.0000 </r>
       <r>  -34.9090    1.0000 </r>
       <r>  -34.8995    1.0000 </r>
       <r>  -34.8638    1.0000 </r>
       <r>  -12.6475    1.0000 </r>
       <r>  -12.5925    1.0000 </r>
       <r>  -12.1432    1.0000 </r>
       <r>  -12.0817    1.0000 </r>
       <r>   -5.0221    1.0000 </r>
       <r>   -4.9130    1.0000 </r>
       <r>   -4.0991    1.0000 </r>
       <r>   -4.0443    1.0000 </r>
       <r>   -3.7676    1.0000 </r>
       <r>   -3.6536    1.0000 </r>
       <r>   -3.3054    1.0000 </r>
       <r>   -3.1611    1.0000 </r>
       <r>   -2.0805    1.0000 </r>
       <r>   -2.0387    1.0000 </r>
       <r>   -1.3320    1.0000 </r>
       <r>   -1.2058    1.0000 </r>
       <r>   -0.8435    1.0000 </r>
       <r>   -0.8014    1.0000 </r>
       <r>    1.7934   -0.0000 </r>
       <r>    2.0465   -0.0000 </r>
       <r>    2.3953   -0.0000 </r>
       <r>    2.4500   -0.0000 </r>
       <r>    2.7934   -0.0000 </r>
       <r>    2.9651   -0.0000 </r>
       <r>    4.2018    0.0000 </r>
       <r>    4.2570    0.0000 </r>
       <r>    7.3734    0.0000 </r>
       <r>    7.5450    0.0000 </r>
       <r>    8.1787    0.0000 </r>
       <r>    8.4744    0.0000 </r>
      </set>
      <set comment="kpoint 25">
       <r>  -35.0946    1.0000 </r>
       <r>  -35.0589    1.0000 </r>
       <r>  -34.9410    1.0000 </r>
       <r>  -34.9326    1.0000 </r>
       <r>  -34.9054    1.0000 </r>
       <r>  -34.8968    1.0000 </r>
       <r>  -12.2925    1.0000 </r>
       <r>  -12.2444    1.0000 </r>
       <r>  -11.9885    1.0000 </r>
       <r>  -11.9383    1.0000 </r>
       <r>   -5.0776    1.0000 </r>
       <r>   -4.9975    1.0000 </r>
       <r>   -4.6254    1.0000 </r>
       <r>   -4.5901    1.0000 </r>
       <r>   -3.6280    1.0000 </r>
       <r>   -3.5453    1.0000 </r>
       <r>   -3.3355    1.0000 </r>
       <r>   -3.1887    1.0000 </r>
       <r>   -2.6098    1.0000 </r>
       <r>   -2.5667    1.0000 </r>
       <r>   -1.5358    1.0000 </r>
       <r>   -1.4667    1.0000 </r>
       <r>   -0.6972    1.0000 </r>
       <r>   -0.6537    1.0000 </r>
       <r>    1.9588   -0.0000 </r>
       <r>    2.2292   -0.0000 </r>
       <r>    2.5219   -0.0000 </r>
       <r>    2.5601   -0.0000 </r>
       <r>    2.9313   -0.0000 </r>
       <r>    3.0639    0.0000 </r>
       <r>    4.3904    0.0000 </r>
       <r>    4.4505    0.0000 </r>
       <r>    7.6477    0.0000 </r>
       <r>    7.7585    0.0000 </r>
       <r>    8.1942    0.0000 </r>
       <r>    8.3664    0.0000 </r>
      </set>
      <set comment="kpoint 26">
       <r>  -35.1114    1.0000 </r>
       <r>  -35.0757    1.0000 </r>
       <r>  -34.9766    1.0000 </r>
       <r>  -34.9409    1.0000 </r>
       <r>  -34.9240    1.0000 </r>
       <r>  -34.8883    1.0000 </r>
       <r>  -12.0186    1.0000 </r>
       <r>  -11.9783    1.0000 </r>
       <r>  -11.8673    1.0000 </r>
       <r>  -11.8269    1.0000 </r>
       <r>   -5.0592    1.0000 </r>
       <r>   -5.0399    1.0000 </r>
       <r>   -5.0081    1.0000 </r>
       <r>   -4.9861    1.0000 </r>
       <r>   -3.6868    1.0000 </r>
       <r>   -3.6537    1.0000 </r>
       <r>   -3.1811    1.0000 </r>
       <r>   -3.0683    1.0000 </r>
       <r>   -2.9706    1.0000 </r>
       <r>   -2.8930    1.0000 </r>
       <r>   -1.8627    1.0000 </r>
       <r>   -1.8000    1.0000 </r>
       <r>   -0.4256    1.0000 </r>
       <r>   -0.3878    1.0000 </r>
       <r>    1.9468   -0.0000 </r>
       <r>    2.0304   -0.0000 </r>
       <r>    2.8456   -0.0000 </r>
       <r>    2.9661   -0.0000 </r>
       <r>    3.0753    0.0000 </r>
       <r>    3.1718    0.0000 </r>
       <r>    4.5119    0.0000 </r>
       <r>    4.5521    0.0000 </r>
       <r>    7.1048    0.0000 </r>
       <r>    7.2459    0.0000 </r>
       <r>    8.2999    0.0000 </r>
       <r>    8.6159    0.0000 </r>
      </set>
      <set comment="kpoint 27">
       <r>  -35.1158    1.0000 </r>
       <r>  -35.0801    1.0000 </r>
       <r>  -34.9910    1.0000 </r>
       <r>  -34.9554    1.0000 </r>
       <r>  -34.9209    1.0000 </r>
       <r>  -34.8852    1.0000 </r>
       <r>  -11.9140    1.0000 </r>
       <r>  -11.8775    1.0000 </r>
       <r>  -11.8211    1.0000 </r>
       <r>  -11.7845    1.0000 </r>
       <r>   -5.2002    1.0000 </r>
       <r>   -5.1651    1.0000 </r>
       <r>   -4.9887    1.0000 </r>
       <r>   -4.9507    1.0000 </r>
       <r>   -3.8560    1.0000 </r>
       <r>   -3.8098    1.0000 </r>
       <r>   -3.0563    1.0000 </r>
       <r>   -3.0218    1.0000 </r>
       <r>   -2.9904    1.0000 </r>
       <r>   -2.9367    1.0000 </r>
       <r>   -2.0386    1.0000 </r>
       <r>   -1.9805    1.0000 </r>
       <r>   -0.2511    1.0000 </r>
       <r>   -0.2131    1.0000 </r>
       <r>    1.8240   -0.0000 </r>
       <r>    1.8602   -0.0000 </r>
       <r>    3.0560    0.0000 </r>
       <r>    3.1110    0.0000 </r>
       <r>    3.1900    0.0000 </r>
       <r>    3.2527    0.0000 </r>
       <r>    4.5573    0.0000 </r>
       <r>    4.5847    0.0000 </r>
       <r>    6.7855    0.0000 </r>
       <r>    6.9489    0.0000 </r>
       <r>    8.1800    0.0000 </r>
       <r>    8.7059    0.0000 </r>
      </set>
      <set comment="kpoint 28">
       <r>  -34.9741    1.0000 </r>
       <r>  -34.9384    1.0000 </r>
       <r>  -34.9371    1.0000 </r>
       <r>  -34.9015    1.0000 </r>
       <r>  -34.8428    1.0000 </r>
       <r>  -34.8071    1.0000 </r>
       <r>  -13.4033    1.0000 </r>
       <r>  -13.3400    1.0000 </r>
       <r>  -12.4627    1.0000 </r>
       <r>  -12.3790    1.0000 </r>
       <r>   -5.1140    1.0000 </r>
       <r>   -4.8532    1.0000 </r>
       <r>   -3.5675    1.0000 </r>
       <r>   -3.5278    1.0000 </r>
       <r>   -3.2243    1.0000 </r>
       <r>   -2.9981    1.0000 </r>
       <r>   -2.4681    1.0000 </r>
       <r>   -2.4267    1.0000 </r>
       <r>   -2.0864    1.0000 </r>
       <r>   -2.0492    1.0000 </r>
       <r>   -1.1638    1.0000 </r>
       <r>   -0.8907    1.0000 </r>
       <r>   -0.5394    1.0000 </r>
       <r>   -0.4070    1.0000 </r>
       <r>    1.9607   -0.0000 </r>
       <r>    2.1900   -0.0000 </r>
       <r>    2.4005   -0.0000 </r>
       <r>    2.4192   -0.0000 </r>
       <r>    2.4796   -0.0000 </r>
       <r>    2.6359   -0.0000 </r>
       <r>    3.5345    0.0000 </r>
       <r>    3.5716    0.0000 </r>
       <r>    6.1763    0.0000 </r>
       <r>    6.4612    0.0000 </r>
       <r>    7.2285    0.0000 </r>
       <r>    8.2852    0.0000 </r>
      </set>
      <set comment="kpoint 29">
       <r>  -35.0559    1.0000 </r>
       <r>  -35.0202    1.0000 </r>
       <r>  -34.9510    1.0000 </r>
       <r>  -34.9153    1.0000 </r>
       <r>  -34.8664    1.0000 </r>
       <r>  -34.8307    1.0000 </r>
       <r>  -12.8190    1.0000 </r>
       <r>  -12.7611    1.0000 </r>
       <r>  -12.2211    1.0000 </r>
       <r>  -12.1538    1.0000 </r>
       <r>   -5.1085    1.0000 </r>
       <r>   -4.9878    1.0000 </r>
       <r>   -4.0507    1.0000 </r>
       <r>   -3.9195    1.0000 </r>
       <r>   -3.8587    1.0000 </r>
       <r>   -3.7391    1.0000 </r>
       <r>   -2.7592    1.0000 </r>
       <r>   -2.7208    1.0000 </r>
       <r>   -1.6964    1.0000 </r>
       <r>   -1.5190    1.0000 </r>
       <r>   -1.4792    1.0000 </r>
       <r>   -1.4306    1.0000 </r>
       <r>   -0.9781    1.0000 </r>
       <r>   -0.9030    1.0000 </r>
       <r>    2.0478   -0.0000 </r>
       <r>    2.1311   -0.0000 </r>
       <r>    2.1790   -0.0000 </r>
       <r>    2.3243   -0.0000 </r>
       <r>    3.1111    0.0000 </r>
       <r>    3.3510    0.0000 </r>
       <r>    3.8648    0.0000 </r>
       <r>    3.9351    0.0000 </r>
       <r>    7.0295    0.0000 </r>
       <r>    7.2024    0.0000 </r>
       <r>    7.8752    0.0000 </r>
       <r>    8.1242    0.0000 </r>
      </set>
      <set comment="kpoint 30">
       <r>  -35.0921    1.0000 </r>
       <r>  -35.0564    1.0000 </r>
       <r>  -34.9418    1.0000 </r>
       <r>  -34.9061    1.0000 </r>
       <r>  -34.8862    1.0000 </r>
       <r>  -34.8505    1.0000 </r>
       <r>  -12.5618    1.0000 </r>
       <r>  -12.5077    1.0000 </r>
       <r>  -12.1137    1.0000 </r>
       <r>  -12.0542    1.0000 </r>
       <r>   -5.2162    1.0000 </r>
       <r>   -5.1303    1.0000 </r>
       <r>   -4.2877    1.0000 </r>
       <r>   -4.1968    1.0000 </r>
       <r>   -3.8651    1.0000 </r>
       <r>   -3.7336    1.0000 </r>
       <r>   -3.0719    1.0000 </r>
       <r>   -3.0072    1.0000 </r>
       <r>   -1.6709    1.0000 </r>
       <r>   -1.6394    1.0000 </r>
       <r>   -1.5964    1.0000 </r>
       <r>   -1.4665    1.0000 </r>
       <r>   -0.8699    1.0000 </r>
       <r>   -0.8175    1.0000 </r>
       <r>    1.9642   -0.0000 </r>
       <r>    2.1007   -0.0000 </r>
       <r>    2.3262   -0.0000 </r>
       <r>    2.4392   -0.0000 </r>
       <r>    3.1876    0.0000 </r>
       <r>    3.3656    0.0000 </r>
       <r>    4.1021    0.0000 </r>
       <r>    4.1369    0.0000 </r>
       <r>    7.3603    0.0000 </r>
       <r>    7.4996    0.0000 </r>
       <r>    7.6167    0.0000 </r>
       <r>    8.0837    0.0000 </r>
      </set>
      <set comment="kpoint 31">
       <r>  -35.1127    1.0000 </r>
       <r>  -35.0770    1.0000 </r>
       <r>  -34.9321    1.0000 </r>
       <r>  -34.9254    1.0000 </r>
       <r>  -34.8964    1.0000 </r>
       <r>  -34.8898    1.0000 </r>
       <r>  -12.2728    1.0000 </r>
       <r>  -12.2242    1.0000 </r>
       <r>  -11.9864    1.0000 </r>
       <r>  -11.9357    1.0000 </r>
       <r>   -5.2223    1.0000 </r>
       <r>   -5.1518    1.0000 </r>
       <r>   -4.6408    1.0000 </r>
       <r>   -4.5942    1.0000 </r>
       <r>   -3.7961    1.0000 </r>
       <r>   -3.6735    1.0000 </r>
       <r>   -3.2767    1.0000 </r>
       <r>   -3.1579    1.0000 </r>
       <r>   -2.2106    1.0000 </r>
       <r>   -2.1623    1.0000 </r>
       <r>   -1.6702    1.0000 </r>
       <r>   -1.5475    1.0000 </r>
       <r>   -0.6684    1.0000 </r>
       <r>   -0.6251    1.0000 </r>
       <r>    2.0137   -0.0000 </r>
       <r>    2.2203   -0.0000 </r>
       <r>    2.5104   -0.0000 </r>
       <r>    2.5609   -0.0000 </r>
       <r>    3.1555    0.0000 </r>
       <r>    3.2675    0.0000 </r>
       <r>    4.2724    0.0000 </r>
       <r>    4.3604    0.0000 </r>
       <r>    7.1307    0.0000 </r>
       <r>    7.4699    0.0000 </r>
       <r>    8.1946    0.0000 </r>
       <r>    8.5666    0.0000 </r>
      </set>
      <set comment="kpoint 32">
       <r>  -35.1114    1.0000 </r>
       <r>  -35.0757    1.0000 </r>
       <r>  -34.9766    1.0000 </r>
       <r>  -34.9409    1.0000 </r>
       <r>  -34.9240    1.0000 </r>
       <r>  -34.8883    1.0000 </r>
       <r>  -12.0198    1.0000 </r>
       <r>  -11.9777    1.0000 </r>
       <r>  -11.8680    1.0000 </r>
       <r>  -11.8256    1.0000 </r>
       <r>   -5.0640    1.0000 </r>
       <r>   -5.0396    1.0000 </r>
       <r>   -5.0053    1.0000 </r>
       <r>   -4.9827    1.0000 </r>
       <r>   -3.7245    1.0000 </r>
       <r>   -3.6208    1.0000 </r>
       <r>   -3.1824    1.0000 </r>
       <r>   -3.0648    1.0000 </r>
       <r>   -2.9603    1.0000 </r>
       <r>   -2.9009    1.0000 </r>
       <r>   -1.8780    1.0000 </r>
       <r>   -1.7862    1.0000 </r>
       <r>   -0.4269    1.0000 </r>
       <r>   -0.3860    1.0000 </r>
       <r>    1.9466   -0.0000 </r>
       <r>    2.0310   -0.0000 </r>
       <r>    2.8421   -0.0000 </r>
       <r>    2.9699   -0.0000 </r>
       <r>    3.0873    0.0000 </r>
       <r>    3.1626    0.0000 </r>
       <r>    4.4863    0.0000 </r>
       <r>    4.5776    0.0000 </r>
       <r>    6.9850    0.0000 </r>
       <r>    7.3451    0.0000 </r>
       <r>    8.3495    0.0000 </r>
       <r>    8.6162    0.0000 </r>
      </set>
      <set comment="kpoint 33">
       <r>  -35.0913    1.0000 </r>
       <r>  -35.0556    1.0000 </r>
       <r>  -35.0249    1.0000 </r>
       <r>  -34.9892    1.0000 </r>
       <r>  -34.9194    1.0000 </r>
       <r>  -34.8837    1.0000 </r>
       <r>  -11.8712    1.0000 </r>
       <r>  -11.8337    1.0000 </r>
       <r>  -11.7952    1.0000 </r>
       <r>  -11.7577    1.0000 </r>
       <r>   -5.3002    1.0000 </r>
       <r>   -5.2639    1.0000 </r>
       <r>   -4.7059    1.0000 </r>
       <r>   -4.6529    1.0000 </r>
       <r>   -3.8376    1.0000 </r>
       <r>   -3.8034    1.0000 </r>
       <r>   -3.4777    1.0000 </r>
       <r>   -3.4207    1.0000 </r>
       <r>   -2.9463    1.0000 </r>
       <r>   -2.8759    1.0000 </r>
       <r>   -2.1510    1.0000 </r>
       <r>   -2.0623    1.0000 </r>
       <r>   -0.1559    1.0000 </r>
       <r>   -0.1175    1.0000 </r>
       <r>    1.6726   -0.0000 </r>
       <r>    1.7106   -0.0000 </r>
       <r>    2.9680   -0.0000 </r>
       <r>    3.0106    0.0000 </r>
       <r>    3.3079    0.0000 </r>
       <r>    3.3775    0.0000 </r>
       <r>    4.6859    0.0000 </r>
       <r>    4.7325    0.0000 </r>
       <r>    7.0229    0.0000 </r>
       <r>    7.2570    0.0000 </r>
       <r>    7.7311    0.0000 </r>
       <r>    8.0484    0.0000 </r>
      </set>
      <set comment="kpoint 34">
       <r>  -35.0175    1.0000 </r>
       <r>  -34.9818    1.0000 </r>
       <r>  -34.9575    1.0000 </r>
       <r>  -34.9218    1.0000 </r>
       <r>  -34.8652    1.0000 </r>
       <r>  -34.8295    1.0000 </r>
       <r>  -12.9933    1.0000 </r>
       <r>  -12.9331    1.0000 </r>
       <r>  -12.2912    1.0000 </r>
       <r>  -12.2185    1.0000 </r>
       <r>   -4.9920    1.0000 </r>
       <r>   -4.8220    1.0000 </r>
       <r>   -3.8638    1.0000 </r>
       <r>   -3.7710    1.0000 </r>
       <r>   -3.7062    1.0000 </r>
       <r>   -3.5909    1.0000 </r>
       <r>   -2.8582    1.0000 </r>
       <r>   -2.7942    1.0000 </r>
       <r>   -1.8032    1.0000 </r>
       <r>   -1.7653    1.0000 </r>
       <r>   -1.3712    1.0000 </r>
       <r>   -1.1431    1.0000 </r>
       <r>   -0.8457    1.0000 </r>
       <r>   -0.7844    1.0000 </r>
       <r>    1.8564   -0.0000 </r>
       <r>    2.0662   -0.0000 </r>
       <r>    2.2881   -0.0000 </r>
       <r>    2.3747   -0.0000 </r>
       <r>    2.7518   -0.0000 </r>
       <r>    2.9568   -0.0000 </r>
       <r>    3.8928    0.0000 </r>
       <r>    3.9294    0.0000 </r>
       <r>    6.7894    0.0000 </r>
       <r>    7.0123    0.0000 </r>
       <r>    7.8213    0.0000 </r>
       <r>    8.3718    0.0000 </r>
      </set>
      <set comment="kpoint 35">
       <r>  -34.9992    1.0000 </r>
       <r>  -34.9636    1.0000 </r>
       <r>  -34.9598    1.0000 </r>
       <r>  -34.9241    1.0000 </r>
       <r>  -34.8692    1.0000 </r>
       <r>  -34.8335    1.0000 </r>
       <r>  -13.0546    1.0000 </r>
       <r>  -12.9937    1.0000 </r>
       <r>  -12.3155    1.0000 </r>
       <r>  -12.2409    1.0000 </r>
       <r>   -4.9430    1.0000 </r>
       <r>   -4.7465    1.0000 </r>
       <r>   -3.8050    1.0000 </r>
       <r>   -3.7278    1.0000 </r>
       <r>   -3.5173    1.0000 </r>
       <r>   -3.3909    1.0000 </r>
       <r>   -3.0896    1.0000 </r>
       <r>   -2.9890    1.0000 </r>
       <r>   -1.9551    1.0000 </r>
       <r>   -1.9173    1.0000 </r>
       <r>   -1.1331    1.0000 </r>
       <r>   -0.9333    1.0000 </r>
       <r>   -0.7771    1.0000 </r>
       <r>   -0.7259    1.0000 </r>
       <r>    1.7650   -0.0000 </r>
       <r>    1.9930   -0.0000 </r>
       <r>    2.3296   -0.0000 </r>
       <r>    2.4028   -0.0000 </r>
       <r>    2.5259   -0.0000 </r>
       <r>    2.7180   -0.0000 </r>
       <r>    3.9381    0.0000 </r>
       <r>    3.9831    0.0000 </r>
       <r>    6.7081    0.0000 </r>
       <r>    6.9544    0.0000 </r>
       <r>    7.7422    0.0000 </r>
       <r>    8.5475    0.0000 </r>
      </set>
      <set comment="kpoint 36">
       <r>  -35.1256    1.0000 </r>
       <r>  -35.0900    1.0000 </r>
       <r>  -34.9367    1.0000 </r>
       <r>  -34.9010    1.0000 </r>
       <r>  -34.8828    1.0000 </r>
       <r>  -34.8471    1.0000 </r>
       <r>  -12.4076    1.0000 </r>
       <r>  -12.3559    1.0000 </r>
       <r>  -12.0560    1.0000 </r>
       <r>  -12.0009    1.0000 </r>
       <r>   -5.4265    1.0000 </r>
       <r>   -5.3586    1.0000 </r>
       <r>   -4.4710    1.0000 </r>
       <r>   -4.3756    1.0000 </r>
       <r>   -3.9452    1.0000 </r>
       <r>   -3.8142    1.0000 </r>
       <r>   -3.0191    1.0000 </r>
       <r>   -2.9805    1.0000 </r>
       <r>   -1.9034    1.0000 </r>
       <r>   -1.6662    1.0000 </r>
       <r>   -1.2030    1.0000 </r>
       <r>   -1.1584    1.0000 </r>
       <r>   -0.9335    1.0000 </r>
       <r>   -0.8404    1.0000 </r>
       <r>    2.0884   -0.0000 </r>
       <r>    2.1296   -0.0000 </r>
       <r>    2.3116   -0.0000 </r>
       <r>    2.4996   -0.0000 </r>
       <r>    3.5071    0.0000 </r>
       <r>    3.7334    0.0000 </r>
       <r>    4.0494    0.0000 </r>
       <r>    4.1322    0.0000 </r>
       <r>    6.8524    0.0000 </r>
       <r>    7.1446    0.0000 </r>
       <r>    7.6594    0.0000 </r>
       <r>    7.9665    0.0000 </r>
      </set>
      <set comment="kpoint 37">
       <r>  -35.1445    1.0000 </r>
       <r>  -35.1088    1.0000 </r>
       <r>  -34.9306    1.0000 </r>
       <r>  -34.9011    1.0000 </r>
       <r>  -34.8949    1.0000 </r>
       <r>  -34.8654    1.0000 </r>
       <r>  -12.2188    1.0000 </r>
       <r>  -12.1714    1.0000 </r>
       <r>  -11.9766    1.0000 </r>
       <r>  -11.9274    1.0000 </r>
       <r>   -5.4977    1.0000 </r>
       <r>   -5.4384    1.0000 </r>
       <r>   -4.6738    1.0000 </r>
       <r>   -4.6042    1.0000 </r>
       <r>   -3.9675    1.0000 </r>
       <r>   -3.8426    1.0000 </r>
       <r>   -3.1616    1.0000 </r>
       <r>   -3.1118    1.0000 </r>
       <r>   -1.8979    1.0000 </r>
       <r>   -1.7093    1.0000 </r>
       <r>   -1.4962    1.0000 </r>
       <r>   -1.4550    1.0000 </r>
       <r>   -0.6553    1.0000 </r>
       <r>   -0.5911    1.0000 </r>
       <r>    2.1057   -0.0000 </r>
       <r>    2.1706   -0.0000 </r>
       <r>    2.4994   -0.0000 </r>
       <r>    2.5992   -0.0000 </r>
       <r>    3.5910    0.0000 </r>
       <r>    3.7224    0.0000 </r>
       <r>    4.1065    0.0000 </r>
       <r>    4.1688    0.0000 </r>
       <r>    6.4887    0.0000 </r>
       <r>    6.8697    0.0000 </r>
       <r>    8.2173    0.0000 </r>
       <r>    8.2330    0.0000 </r>
      </set>
      <set comment="kpoint 38">
       <r>  -35.1409    1.0000 </r>
       <r>  -35.1052    1.0000 </r>
       <r>  -34.9403    1.0000 </r>
[...]
       <r>    -2.1935     1.5190    18.4233 </r>
       <r>    -2.0314     3.2585    18.9516 </r>
       <r>    -1.8693     3.8082    19.5690 </r>
       <r>    -1.7071     3.3976    20.1199 </r>
       <r>    -1.5450     2.9691    20.6013 </r>
       <r>    -1.3829     3.1756    21.1161 </r>
       <r>    -1.2208     1.6329    21.3808 </r>
       <r>    -1.0586     2.2489    21.7454 </r>
       <r>    -0.8965     1.8985    22.0533 </r>
       <r>    -0.7344     3.5795    22.6336 </r>
       <r>    -0.5722     2.9117    23.1057 </r>
       <r>    -0.4101     2.1858    23.4600 </r>
       <r>    -0.2480     1.7774    23.7482 </r>
       <r>    -0.0859     1.0453    23.9177 </r>
       <r>     0.0763     0.2762    23.9625 </r>
       <r>     0.2384     0.2247    23.9989 </r>
       <r>     0.4005     0.0074    24.0001 </r>
       <r>     0.5627    -0.0006    24.0000 </r>
       <r>     0.7248    -0.0000    24.0000 </r>
       <r>     0.8869    -0.0000    24.0000 </r>
       <r>     1.0490    -0.0000    24.0000 </r>
       <r>     1.2112    -0.0000    24.0000 </r>
       <r>     1.3733    -0.0000    24.0000 </r>
       <r>     1.5354    -0.0117    23.9981 </r>
       <r>     1.6976     0.2287    24.0352 </r>
       <r>     1.8597     1.2914    24.2445 </r>
       <r>     2.0218     2.9871    24.7288 </r>
       <r>     2.1840     5.2729    25.5837 </r>
       <r>     2.3461     3.5406    26.1578 </r>
       <r>     2.5082     5.0176    26.9713 </r>
       <r>     2.6703     4.8140    27.7518 </r>
       <r>     2.8325     3.2899    28.2852 </r>
       <r>     2.9946     2.8922    28.7541 </r>
       <r>     3.1567     2.7076    29.1930 </r>
       <r>     3.3189     2.3873    29.5801 </r>
       <r>     3.4810     1.6083    29.8408 </r>
       <r>     3.6431     2.0446    30.1723 </r>
       <r>     3.8052     0.9676    30.3292 </r>
       <r>     3.9674     2.0248    30.6575 </r>
       <r>     4.1295     2.1320    31.0032 </r>
       <r>     4.2916     2.9103    31.4750 </r>
       <r>     4.4538     1.4756    31.7142 </r>
       <r>     4.6159     1.1700    31.9039 </r>
       <r>     4.7780     0.5646    31.9955 </r>
       <r>     4.9401     0.0297    32.0003 </r>
       <r>     5.1023    -0.0018    32.0000 </r>
       <r>     5.2644    -0.0013    31.9998 </r>
       <r>     5.4265     0.0489    32.0077 </r>
       <r>     5.5887     0.2073    32.0413 </r>
       <r>     5.7508     0.2132    32.0759 </r>
       <r>     5.9129     0.4658    32.1514 </r>
       <r>     6.0750     0.3377    32.2062 </r>
       <r>     6.2372     0.9302    32.3570 </r>
       <r>     6.3993     0.5416    32.4448 </r>
       <r>     6.5614     1.4997    32.6879 </r>
       <r>     6.7236     0.9027    32.8343 </r>
       <r>     6.8857     1.4393    33.0676 </r>
       <r>     7.0478     2.0660    33.4026 </r>
       <r>     7.2100     1.3434    33.6204 </r>
       <r>     7.3721     1.6166    33.8825 </r>
       <r>     7.5342     1.5223    34.1293 </r>
       <r>     7.6963     1.4299    34.3612 </r>
       <r>     7.8585     1.3188    34.5750 </r>
       <r>     8.0206     1.0516    34.7455 </r>
       <r>     8.1827     1.5990    35.0047 </r>
       <r>     8.3449     2.6817    35.4395 </r>
       <r>     8.5070     1.4663    35.6772 </r>
       <r>     8.6691     0.9139    35.8254 </r>
       <r>     8.8312     0.6366    35.9286 </r>
       <r>     8.9934     0.4211    35.9969 </r>
       <r>     9.1555     0.0205    36.0002 </r>
       <r>     9.3176    -0.0013    36.0000 </r>
       <r>     9.4798    -0.0000    36.0000 </r>
       <r>     9.6419    -0.0000    36.0000 </r>
       <r>     9.8040     0.0000    36.0000 </r>
       <r>     9.9661     0.0000    36.0000 </r>
       <r>    10.1283     0.0000    36.0000 </r>
       <r>    10.2904     0.0000    36.0000 </r>
       <r>    10.4525     0.0000    36.0000 </r>
       <r>    10.6147     0.0000    36.0000 </r>
       <r>    10.7768     0.0000    36.0000 </r>
       <r>    10.9389     0.0000    36.0000 </r>
       <r>    11.1011     0.0000    36.0000 </r>
       <r>    11.2632     0.0000    36.0000 </r>
      </set>
      <set comment="spin 2">
       <r>   -37.3756     0.0000     0.0000 </r>
       <r>   -37.2134     0.0000     0.0000 </r>
       <r>   -37.0513     0.0000     0.0000 </r>
       <r>   -36.8892     0.0000     0.0000 </r>
       <r>   -36.7270     0.0000     0.0000 </r>
       <r>   -36.5649     0.0000     0.0000 </r>
       <r>   -36.4028     0.0000     0.0000 </r>
       <r>   -36.2407     0.0000     0.0000 </r>
       <r>   -36.0785    -0.0000    -0.0000 </r>
       <r>   -35.9164    -0.0000    -0.0000 </r>
       <r>   -35.7543    -0.0000    -0.0000 </r>
       <r>   -35.5921    -0.0000    -0.0000 </r>
       <r>   -35.4300    -0.0005    -0.0001 </r>
       <r>   -35.2679    -0.1524    -0.0248 </r>
       <r>   -35.1057     3.3475     0.5179 </r>
       <r>   -34.9436    13.7467     2.7467 </r>
       <r>   -34.7815    19.5801     5.9212 </r>
       <r>   -34.6194     0.5355     6.0080 </r>
       <r>   -34.4572    -0.0493     6.0000 </r>
       <r>   -34.2951    -0.0000     6.0000 </r>
       <r>   -34.1330    -0.0000     6.0000 </r>
       <r>   -33.9708     0.0000     6.0000 </r>
       <r>   -33.8087     0.0000     6.0000 </r>
       <r>   -33.6466     0.0000     6.0000 </r>
       <r>   -33.4845     0.0000     6.0000 </r>
       <r>   -33.3223     0.0000     6.0000 </r>
       <r>   -33.1602     0.0000     6.0000 </r>
       <r>   -32.9981     0.0000     6.0000 </r>
       <r>   -32.8359     0.0000     6.0000 </r>
       <r>   -32.6738     0.0000     6.0000 </r>
       <r>   -32.5117     0.0000     6.0000 </r>
       <r>   -32.3496     0.0000     6.0000 </r>
       <r>   -32.1874     0.0000     6.0000 </r>
       <r>   -32.0253     0.0000     6.0000 </r>
       <r>   -31.8632     0.0000     6.0000 </r>
       <r>   -31.7010     0.0000     6.0000 </r>
       <r>   -31.5389     0.0000     6.0000 </r>
       <r>   -31.3768     0.0000     6.0000 </r>
       <r>   -31.2146     0.0000     6.0000 </r>
       <r>   -31.0525     0.0000     6.0000 </r>
       <r>   -30.8904     0.0000     6.0000 </r>
       <r>   -30.7283     0.0000     6.0000 </r>
       <r>   -30.5661     0.0000     6.0000 </r>
       <r>   -30.4040     0.0000     6.0000 </r>
       <r>   -30.2419     0.0000     6.0000 </r>
       <r>   -30.0797     0.0000     6.0000 </r>
       <r>   -29.9176     0.0000     6.0000 </r>
       <r>   -29.7555     0.0000     6.0000 </r>
       <r>   -29.5934     0.0000     6.0000 </r>
       <r>   -29.4312     0.0000     6.0000 </r>
       <r>   -29.2691     0.0000     6.0000 </r>
       <r>   -29.1070     0.0000     6.0000 </r>
       <r>   -28.9448     0.0000     6.0000 </r>
       <r>   -28.7827     0.0000     6.0000 </r>
       <r>   -28.6206     0.0000     6.0000 </r>
       <r>   -28.4585     0.0000     6.0000 </r>
       <r>   -28.2963     0.0000     6.0000 </r>
       <r>   -28.1342     0.0000     6.0000 </r>
       <r>   -27.9721     0.0000     6.0000 </r>
       <r>   -27.8099     0.0000     6.0000 </r>
       <r>   -27.6478     0.0000     6.0000 </r>
       <r>   -27.4857     0.0000     6.0000 </r>
       <r>   -27.3235     0.0000     6.0000 </r>
       <r>   -27.1614     0.0000     6.0000 </r>
       <r>   -26.9993     0.0000     6.0000 </r>
       <r>   -26.8372     0.0000     6.0000 </r>
       <r>   -26.6750     0.0000     6.0000 </r>
       <r>   -26.5129     0.0000     6.0000 </r>
       <r>   -26.3508     0.0000     6.0000 </r>
       <r>   -26.1886     0.0000     6.0000 </r>
       <r>   -26.0265     0.0000     6.0000 </r>
       <r>   -25.8644     0.0000     6.0000 </r>
       <r>   -25.7023     0.0000     6.0000 </r>
       <r>   -25.5401     0.0000     6.0000 </r>
       <r>   -25.3780     0.0000     6.0000 </r>
       <r>   -25.2159     0.0000     6.0000 </r>
       <r>   -25.0537     0.0000     6.0000 </r>
       <r>   -24.8916     0.0000     6.0000 </r>
       <r>   -24.7295     0.0000     6.0000 </r>
       <r>   -24.5674     0.0000     6.0000 </r>
       <r>   -24.4052     0.0000     6.0000 </r>
       <r>   -24.2431     0.0000     6.0000 </r>
       <r>   -24.0810     0.0000     6.0000 </r>
       <r>   -23.9188     0.0000     6.0000 </r>
       <r>   -23.7567     0.0000     6.0000 </r>
       <r>   -23.5946     0.0000     6.0000 </r>
       <r>   -23.4325     0.0000     6.0000 </r>
       <r>   -23.2703     0.0000     6.0000 </r>
       <r>   -23.1082     0.0000     6.0000 </r>
       <r>   -22.9461     0.0000     6.0000 </r>
       <r>   -22.7839     0.0000     6.0000 </r>
       <r>   -22.6218     0.0000     6.0000 </r>
       <r>   -22.4597     0.0000     6.0000 </r>
       <r>   -22.2975     0.0000     6.0000 </r>
       <r>   -22.1354     0.0000     6.0000 </r>
       <r>   -21.9733     0.0000     6.0000 </r>
       <r>   -21.8112     0.0000     6.0000 </r>
       <r>   -21.6490     0.0000     6.0000 </r>
       <r>   -21.4869     0.0000     6.0000 </r>
       <r>   -21.3248     0.0000     6.0000 </r>
       <r>   -21.1626     0.0000     6.0000 </r>
       <r>   -21.0005     0.0000     6.0000 </r>
       <r>   -20.8384     0.0000     6.0000 </r>
       <r>   -20.6763     0.0000     6.0000 </r>
       <r>   -20.5141     0.0000     6.0000 </r>
       <r>   -20.3520     0.0000     6.0000 </r>
       <r>   -20.1899     0.0000     6.0000 </r>
       <r>   -20.0277     0.0000     6.0000 </r>
       <r>   -19.8656     0.0000     6.0000 </r>
       <r>   -19.7035     0.0000     6.0000 </r>
       <r>   -19.5414     0.0000     6.0000 </r>
       <r>   -19.3792     0.0000     6.0000 </r>
       <r>   -19.2171     0.0000     6.0000 </r>
       <r>   -19.0550     0.0000     6.0000 </r>
       <r>   -18.8928     0.0000     6.0000 </r>
       <r>   -18.7307     0.0000     6.0000 </r>
       <r>   -18.5686     0.0000     6.0000 </r>
       <r>   -18.4064     0.0000     6.0000 </r>
       <r>   -18.2443     0.0000     6.0000 </r>
       <r>   -18.0822     0.0000     6.0000 </r>
       <r>   -17.9201     0.0000     6.0000 </r>
       <r>   -17.7579     0.0000     6.0000 </r>
       <r>   -17.5958     0.0000     6.0000 </r>
       <r>   -17.4337     0.0000     6.0000 </r>
       <r>   -17.2715     0.0000     6.0000 </r>
       <r>   -17.1094     0.0000     6.0000 </r>
       <r>   -16.9473     0.0000     6.0000 </r>
       <r>   -16.7852     0.0000     6.0000 </r>
       <r>   -16.6230     0.0000     6.0000 </r>
       <r>   -16.4609     0.0000     6.0000 </r>
       <r>   -16.2988     0.0000     6.0000 </r>
       <r>   -16.1366     0.0000     6.0000 </r>
       <r>   -15.9745     0.0000     6.0000 </r>
       <r>   -15.8124     0.0000     6.0000 </r>
       <r>   -15.6503     0.0000     6.0000 </r>
       <r>   -15.4881     0.0000     6.0000 </r>
       <r>   -15.3260     0.0000     6.0000 </r>
       <r>   -15.1639     0.0000     6.0000 </r>
       <r>   -15.0017     0.0000     6.0000 </r>
       <r>   -14.8396    -0.0000     6.0000 </r>
       <r>   -14.6775    -0.0000     6.0000 </r>
       <r>   -14.5153    -0.0000     6.0000 </r>
       <r>   -14.3532    -0.0000     6.0000 </r>
       <r>   -14.1911    -0.0002     6.0000 </r>
       <r>   -14.0290    -0.0057     5.9990 </r>
       <r>   -13.8668     0.2354     6.0372 </r>
       <r>   -13.7047     0.4483     6.1099 </r>
       <r>   -13.5426     0.6466     6.2147 </r>
       <r>   -13.3804     0.4379     6.2857 </r>
       <r>   -13.2183     0.7658     6.4099 </r>
       <r>   -13.0562     0.3154     6.4610 </r>
       <r>   -12.8941     1.1038     6.6400 </r>
       <r>   -12.7319     0.4321     6.7100 </r>
       <r>   -12.5698     1.6481     6.9772 </r>
       <r>   -12.4077     2.2736     7.3459 </r>
       <r>   -12.2455     2.7619     7.7936 </r>
       <r>   -12.0834     3.9075     8.4271 </r>
       <r>   -11.9213     5.5468     9.3265 </r>
       <r>   -11.7592     3.9840     9.9724 </r>
       <r>   -11.5970     0.1833    10.0021 </r>
       <r>   -11.4349    -0.0129    10.0000 </r>
       <r>   -11.2728    -0.0000    10.0000 </r>
       <r>   -11.1106    -0.0000    10.0000 </r>
       <r>   -10.9485     0.0000    10.0000 </r>
       <r>   -10.7864     0.0000    10.0000 </r>
       <r>   -10.6243     0.0000    10.0000 </r>
       <r>   -10.4621     0.0000    10.0000 </r>
       <r>   -10.3000     0.0000    10.0000 </r>
       <r>   -10.1379     0.0000    10.0000 </r>
       <r>    -9.9757     0.0000    10.0000 </r>
       <r>    -9.8136     0.0000    10.0000 </r>
       <r>    -9.6515     0.0000    10.0000 </r>
       <r>    -9.4893     0.0000    10.0000 </r>
       <r>    -9.3272     0.0000    10.0000 </r>
       <r>    -9.1651     0.0000    10.0000 </r>
       <r>    -9.0030     0.0000    10.0000 </r>
       <r>    -8.8408     0.0000    10.0000 </r>
       <r>    -8.6787     0.0000    10.0000 </r>
       <r>    -8.5166     0.0000    10.0000 </r>
       <r>    -8.3544     0.0000    10.0000 </r>
       <r>    -8.1923     0.0000    10.0000 </r>
       <r>    -8.0302     0.0000    10.0000 </r>
       <r>    -7.8681     0.0000    10.0000 </r>
       <r>    -7.7059     0.0000    10.0000 </r>
       <r>    -7.5438     0.0000    10.0000 </r>
       <r>    -7.3817     0.0000    10.0000 </r>
       <r>    -7.2195     0.0000    10.0000 </r>
       <r>    -7.0574     0.0000    10.0000 </r>
       <r>    -6.8953     0.0000    10.0000 </r>
       <r>    -6.7332     0.0000    10.0000 </r>
       <r>    -6.5710    -0.0000    10.0000 </r>
       <r>    -6.4089    -0.0000    10.0000 </r>
       <r>    -6.2468    -0.0000    10.0000 </r>
       <r>    -6.0846    -0.0000    10.0000 </r>
       <r>    -5.9225    -0.0002    10.0000 </r>
       <r>    -5.7604    -0.0220     9.9964 </r>
       <r>    -5.5982     0.6261    10.0979 </r>
       <r>    -5.4361     1.2790    10.3053 </r>
       <r>    -5.2740     2.1797    10.6587 </r>
       <r>    -5.1119     2.8594    11.1222 </r>
       <r>    -4.9497     4.7851    11.8981 </r>
       <r>    -4.7876     2.6886    12.3339 </r>
       <r>    -4.6255     2.4034    12.7236 </r>
       <r>    -4.4633     1.3973    12.9502 </r>
       <r>    -4.3012     0.4203    13.0183 </r>
       <r>    -4.1391     0.7517    13.1402 </r>
       <r>    -3.9770     1.6829    13.4130 </r>
       <r>    -3.8148     4.0808    14.0746 </r>
       <r>    -3.6527     4.9623    14.8792 </r>
       <r>    -3.4906     2.6353    15.3064 </r>
       <r>    -3.3284     1.1460    15.4922 </r>
       <r>    -3.1663     3.5878    16.0739 </r>
       <r>    -3.0042     5.2877    16.9312 </r>
       <r>    -2.8421     3.0616    17.4276 </r>
       <r>    -2.6799     1.6668    17.6978 </r>
       <r>    -2.5178     0.9857    17.8576 </r>
       <r>    -2.3557     1.9707    18.1771 </r>
       <r>    -2.1935     1.5198    18.4235 </r>
       <r>    -2.0314     3.2595    18.9520 </r>
       <r>    -1.8693     3.8091    19.5696 </r>
       <r>    -1.7071     3.3968    20.1203 </r>
       <r>    -1.5450     2.9693    20.6017 </r>
       <r>    -1.3829     3.1753    21.1165 </r>
       <r>    -1.2208     1.6325    21.3812 </r>
       <r>    -1.0586     2.2482    21.7457 </r>
       <r>    -0.8965     1.9007    22.0538 </r>
       <r>    -0.7344     3.5765    22.6337 </r>
       <r>    -0.5722     2.9127    23.1059 </r>
       <r>    -0.4101     2.1851    23.4602 </r>
       <r>    -0.2480     1.7772    23.7483 </r>
       <r>    -0.0859     1.0447    23.9177 </r>
       <r>     0.0763     0.2761    23.9625 </r>
       <r>     0.2384     0.2247    23.9989 </r>
       <r>     0.4005     0.0074    24.0001 </r>
       <r>     0.5627    -0.0006    24.0000 </r>
       <r>     0.7248    -0.0000    24.0000 </r>
       <r>     0.8869    -0.0000    24.0000 </r>
       <r>     1.0490    -0.0000    24.0000 </r>
       <r>     1.2112    -0.0000    24.0000 </r>
       <r>     1.3733    -0.0000    24.0000 </r>
       <r>     1.5354    -0.0117    23.9981 </r>
       <r>     1.6976     0.2287    24.0352 </r>
       <r>     1.8597     1.2912    24.2445 </r>
       <r>     2.0218     2.9888    24.7291 </r>
       <r>     2.1840     5.2740    25.5842 </r>
       <r>     2.3461     3.5395    26.1580 </r>
       <r>     2.5082     5.0181    26.9716 </r>
       <r>     2.6703     4.8131    27.7519 </r>
       <r>     2.8325     3.2898    28.2853 </r>
       <r>     2.9946     2.8929    28.7543 </r>
       <r>     3.1567     2.7075    29.1933 </r>
       <r>     3.3189     2.3871    29.5803 </r>
       <r>     3.4810     1.6076    29.8410 </r>
       <r>     3.6431     2.0448    30.1725 </r>
       <r>     3.8052     0.9671    30.3293 </r>
       <r>     3.9674     2.0256    30.6577 </r>
       <r>     4.1295     2.1326    31.0034 </r>
       <r>     4.2916     2.9101    31.4752 </r>
       <r>     4.4538     1.4749    31.7144 </r>
       <r>     4.6159     1.1702    31.9041 </r>
       <r>     4.7780     0.5639    31.9955 </r>
       <r>     4.9401     0.0295    32.0003 </r>
       <r>     5.1023    -0.0018    32.0000 </r>
       <r>     5.2644    -0.0015    31.9998 </r>
       <r>     5.4265     0.0269    32.0041 </r>
       <r>     5.5887     0.2150    32.0390 </r>
       <r>     5.7508     0.1199    32.0584 </r>
       <r>     5.9129     0.5091    32.1410 </r>
       <r>     6.0750     0.2525    32.1819 </r>
       <r>     6.2372     0.9471    32.3354 </r>
       <r>     6.3993     0.6368    32.4387 </r>
       <r>     6.5614     1.4976    32.6815 </r>
       <r>     6.7236     0.8646    32.8217 </r>
       <r>     6.8857     1.7682    33.1083 </r>
       <r>     7.0478     1.4817    33.3486 </r>
       <r>     7.2100     1.8141    33.6427 </r>
       <r>     7.3721     1.3637    33.8638 </r>
       <r>     7.5342     1.4543    34.0996 </r>
       <r>     7.6963     1.8402    34.3979 </r>
       <r>     7.8585     1.2621    34.6025 </r>
       <r>     8.0206     0.8857    34.7461 </r>
       <r>     8.1827     1.6965    35.0212 </r>
       <r>     8.3449     2.5792    35.4393 </r>
       <r>     8.5070     1.6122    35.7007 </r>
       <r>     8.6691     0.5669    35.7926 </r>
       <r>     8.8312     0.6722    35.9016 </r>
       <r>     8.9934     0.4693    35.9777 </r>
       <r>     9.1555     0.1425    36.0008 </r>
       <r>     9.3176    -0.0048    36.0000 </r>
       <r>     9.4798    -0.0001    36.0000 </r>
       <r>     9.6419    -0.0000    36.0000 </r>
       <r>     9.8040    -0.0000    36.0000 </r>
       <r>     9.9661     0.0000    36.0000 </r>
       <r>    10.1283     0.0000    36.0000 </r>
       <r>    10.2904     0.0000    36.0000 </r>
       <r>    10.4525     0.0000    36.0000 </r>
       <r>    10.6147     0.0000    36.0000 </r>
       <r>    10.7768     0.0000    36.0000 </r>
       <r>    10.9389     0.0000    36.0000 </r>
       <r>    11.1011     0.0000    36.0000 </r>
       <r>    11.2632     0.0000    36.0000 </r>
      </set>
     </set>
    </array>
   </total>
  </dos>
 </calculation>
 <structure name="finalpos" >
  <crystal>
   <varray name="basis" >
    <v>       3.19031700       0.00000000       0.00000000 </v>
    <v>      -1.59515800       2.76289700       0.00000000 </v>
    <v>       0.00000000       0.00000000      23.14049200 </v>
   </varray>
   <i name="volume">    203.97226633 </i>
   <varray name="rec_basis" >
    <v>       0.31344848       0.18096941       0.00000000 </v>
    <v>       0.00000000       0.36193894       0.00000000 </v>
    <v>       0.00000000       0.00000000       0.04321429 </v>
   </varray>
  </crystal>
  <varray name="positions" >
   <v>       0.66666700       0.33333300       0.06785900 </v>
   <v>       0.33333300       0.66666700       0.00000000 </v>
   <v>       0.33333300       0.66666700       0.13571500 </v>
   <v>       0.23809557       0.61904729       0.35482300 </v>
   <v>       0.90476157       0.95238129       0.28696500 </v>
   <v>       0.90476157       0.95238129       0.42267900 </v>
  </varray>
 </structure>
</modeling>
