       N       E                     dE             d eps       ncg     rms          rms(c)
DAV:   1     0.498739806287E+03    0.49874E+03   -0.28668E+04  7352   0.790E+02
DAV:   2    -0.617936358446E+02   -0.56053E+03   -0.54602E+03  9792   0.189E+02
DAV:   3    -0.118403377393E+03   -0.56610E+02   -0.55753E+02  8856   0.622E+01
DAV:   4    -0.120956259578E+03   -0.25529E+01   -0.25355E+01 11112   0.142E+01
DAV:   5    -0.121016243001E+03   -0.59983E-01   -0.59906E-01 10080   0.208E+00    0.113E+01
DAV:   6    -0.117561680902E+03    0.34546E+01   -0.81609E+00  8508   0.840E+00    0.596E+00
DAV:   7    -0.117503576158E+03    0.58105E-01   -0.66514E+00  8864   0.624E+00    0.234E+00
DAV:   8    -0.117480420427E+03    0.23156E-01   -0.65371E-01  9104   0.244E+00    0.123E+00
DAV:   9    -0.117477275603E+03    0.31448E-02   -0.16916E-01  9160   0.122E+00    0.413E-01
DAV:  10    -0.117473461939E+03    0.38137E-02   -0.40504E-02  8800   0.616E-01    0.171E-01
DAV:  11    -0.117463822440E+03    0.96395E-02   -0.79480E-03  9360   0.249E-01    0.784E-02
DAV:  12    -0.117458185011E+03    0.56374E-02   -0.11775E-03  9104   0.115E-01    0.378E-02
DAV:  13    -0.117454236924E+03    0.39481E-02   -0.41566E-04  9272   0.591E-02    0.224E-02
DAV:  14    -0.117452363839E+03    0.18731E-02   -0.12091E-04  9304   0.365E-02    0.131E-02
DAV:  15    -0.117451550236E+03    0.81360E-03   -0.93537E-05  8712   0.281E-02    0.821E-03
DAV:  16    -0.117451749344E+03   -0.19911E-03   -0.71201E-05  8184   0.225E-02    0.503E-03
DAV:  17    -0.117452336256E+03   -0.58691E-03   -0.14668E-04  8416   0.244E-02    0.266E-03
DAV:  18    -0.117452555053E+03   -0.21880E-03   -0.86105E-05  7680   0.160E-02    0.170E-03
DAV:  19    -0.117452609976E+03   -0.54923E-04   -0.25970E-05  6688   0.121E-02    0.110E-03
DAV:  20    -0.117452615626E+03   -0.56491E-05   -0.16336E-05  6960   0.935E-03    0.747E-04
DAV:  21    -0.117452572999E+03    0.42626E-04   -0.16286E-05  6960   0.976E-03    0.527E-04
DAV:  22    -0.117452542045E+03    0.30954E-04   -0.97287E-06  6264   0.967E-03    0.299E-04
DAV:  23    -0.117452486158E+03    0.55888E-04   -0.78575E-06  6488   0.843E-03    0.136E-04
DAV:  24    -0.117452469103E+03    0.17055E-04   -0.29087E-06  6384   0.597E-03    0.840E-05
DAV:  25    -0.117452456967E+03    0.12136E-04   -0.59873E-06  6688   0.764E-03    0.307E-05
DAV:  26    -0.117452454856E+03    0.21107E-05   -0.24073E-06  6000   0.587E-03    0.187E-05
