 vasp.5.3.5 31Mar14 (build Oct 29 2014 16:16:03) complex                        
  
 executed on          Linux-UFHPC date 2016.02.09  17:25:16
 running on    8 total cores
 distrk:  each k-point on    8 cores,    1 groups
 distr:  one band on NCORES_PER_BAND=   2 cores,    4 groups


--------------------------------------------------------------------------------------------------------


 INCAR:
 POTCAR:    PAW_PBE P 17Jan2003                   
 POTCAR:   PAW_PBE Si 05Jan2001                   

 ----------------------------------------------------------------------------- 
|                                                                             |
|  ADVICE TO THIS USER RUNNING 'VASP/VAMP'   (HEAR YOUR MASTER'S VOICE ...):  |
|                                                                             |
|      You have switched on vdW-DFT.                                          |
|      This routine was written and supplied by Jiri Klimes.                  |
|      We recommed that you carefully read and cite the following             |
|      publication                                                            |
|      J. Klimes, D.R. Bowler, A. Michelides                                  |
|        J. Phys.: Cond Matt. 22 022201 (2010)                                |
|      J. Klimes, D.R. Bowler, A. Michelides                                  |
|        Phys. Rev. B. 83, 195131 (2011)                                      |
|      and references therein.                                                |
|                                                                             |
 ----------------------------------------------------------------------------- 

 POTCAR:    PAW_PBE P 17Jan2003                   
   VRHFIN =P : s2p3                                                             
   LEXCH  = PE                                                                  
   EATOM  =   176.0430 eV,   12.9388 Ry                                         
                                                                                
   TITEL  = PAW_PBE P 17Jan2003                                                 
   LULTRA =        F    use ultrasoft PP ?                                      
   IUNSCR =        1    unscreen: 0-lin 1-nonlin 2-no                           
   RPACOR =    1.500    partial core radius                                     
   POMASS =   30.974; ZVAL   =    5.000    mass and valenz                      
   RCORE  =    1.900    outmost cutoff radius                                   
   RWIGS  =    2.330; RWIGS  =    1.233    wigner-seitz radius (au A)           
   ENMAX  =  270.000; ENMIN  =  191.280 eV                                      
   ICORE  =        2    local potential                                         
   LCOR   =        T    correct aug charges                                     
   LPAW   =        T    paw PP                                                  
   EAUG   =  342.924                                                            
   DEXC   =    -.002                                                            
   RMAX   =    2.887    core radius for proj-oper                               
   RAUG   =    1.300    factor for augmentation sphere                          
   RDEP   =    1.931    radius for radial grids                                 
   QCUT   =   -4.330; QGAM   =    8.659    optimization parameters              
                                                                                
   Description                                                                  
     l     E      TYP  RCUT    TYP  RCUT                                        
     0   .000     23  1.900                                                     
     0   .000     23  1.900                                                     
     1   .000     23  1.900                                                     
     1   .000     23  1.900                                                     
     2   .000     23  1.900                                                     
  local pseudopotential read in
  partial core-charges read in
  atomic valenz-charges read in
  non local Contribution for L=           0  read in
    real space projection operators read in
  non local Contribution for L=           0  read in
    real space projection operators read in
  non local Contribution for L=           1  read in
    real space projection operators read in
  non local Contribution for L=           1  read in
    real space projection operators read in
    PAW grid and wavefunctions read in
 
   number of l-projection  operators is LMAX  =           4
   number of lm-projection operators is LMMAX =           8
 
 POTCAR:   PAW_PBE Si 05Jan2001                   
   VRHFIN =Si: s2p2                                                             
   LEXCH  = PE                                                                  
   EATOM  =   103.0669 eV,    7.5752 Ry                                         
                                                                                
   TITEL  = PAW_PBE Si 05Jan2001                                                
   LULTRA =        F    use ultrasoft PP ?                                      
   IUNSCR =        1    unscreen: 0-lin 1-nonlin 2-no                           
   RPACOR =    1.500    partial core radius                                     
   POMASS =   28.085; ZVAL   =    4.000    mass and valenz                      
   RCORE  =    1.900    outmost cutoff radius                                   
   RWIGS  =    2.480; RWIGS  =    1.312    wigner-seitz radius (au A)           
   ENMAX  =  245.345; ENMIN  =  184.009 eV                                      
   ICORE  =        2    local potential                                         
   LCOR   =        T    correct aug charges                                     
   LPAW   =        T    paw PP                                                  
   EAUG   =  322.069                                                            
   DEXC   =    -.007                                                            
   RMAX   =    2.944    core radius for proj-oper                               
   RAUG   =    1.300    factor for augmentation sphere                          
   RDEP   =    1.993    radius for radial grids                                 
   QCUT   =   -4.246; QGAM   =    8.493    optimization parameters              
                                                                                
   Description                                                                  
     l     E      TYP  RCUT    TYP  RCUT                                        
     0   .000     23  1.900                                                     
     0   .000     23  1.900                                                     
     1   .000     23  1.900                                                     
     1   .000     23  1.900                                                     
     2   .000      7  1.900                                                     
  local pseudopotential read in
  partial core-charges read in
  atomic valenz-charges read in
  non local Contribution for L=           0  read in
    real space projection operators read in
  non local Contribution for L=           0  read in
    real space projection operators read in
  non local Contribution for L=           1  read in
    real space projection operators read in
  non local Contribution for L=           1  read in
    real space projection operators read in
    PAW grid and wavefunctions read in
 
   number of l-projection  operators is LMAX  =           4
   number of lm-projection operators is LMMAX =           8
 
 Optimization of the real space projectors (new method)

 maximal supplied QI-value         = 19.84
 optimisation between [QCUT,QGAM] = [  8.73, 17.66] = [ 21.34, 87.33] Ry 
 Optimized for a Real-space Cutoff    1.50 Angstroem

   l    n(q)    QCUT    max X(q) W(low)/X(q) W(high)/X(q)  e(spline) 
   0      8     8.731     6.651    0.16E-04    0.15E-04    0.77E-08
   0      8     8.731    90.285    0.16E-03    0.90E-04    0.16E-06
   1      7     8.731     4.328    0.47E-04    0.36E-04    0.45E-07
   1      7     8.731    54.583    0.13E-03    0.39E-03    0.20E-06
 Optimization of the real space projectors (new method)

 maximal supplied QI-value         = 19.84
 optimisation between [QCUT,QGAM] = [  8.73, 17.66] = [ 21.34, 87.33] Ry 
 Optimized for a Real-space Cutoff    1.46 Angstroem

   l    n(q)    QCUT    max X(q) W(low)/X(q) W(high)/X(q)  e(spline) 
   0      8     8.731     8.708    0.16E-04    0.11E-04    0.68E-08
   0      8     8.731   106.241    0.24E-03    0.77E-04    0.13E-06
   1      7     8.731     5.901    0.34E-04    0.38E-04    0.36E-07
   1      7     8.731    73.241    0.12E-03    0.39E-03    0.15E-06

 ----------------------------------------------------------------------------- 
|                                                                             |
|  ADVICE TO THIS USER RUNNING 'VASP/VAMP'   (HEAR YOUR MASTER'S VOICE ...):  |
|                                                                             |
|      You enforced a specific xc-type in the INCAR file,                     |
|      a different type was found on the POTCAR file                          |
|          I HOPE YOU KNOW, WHAT YOU ARE  DOING                               |
|                                                                             |
 ----------------------------------------------------------------------------- 

  PAW_PBE P 17Jan2003                   :
 energy of atom  1       EATOM= -176.0430
 kinetic energy error for atom=    0.0040 (will be added to EATOM!!)
 PAW_PBE Si 05Jan2001                   :
 energy of atom  2       EATOM= -103.0669
 kinetic energy error for atom=    0.0021 (will be added to EATOM!!)
 
 
 POSCAR: Si12                                    
  positions in direct lattice
  No initial velocities read in
 exchange correlation table for  LEXCH =       42
   RHO(1)=    0.500       N(1)  =     2000
   RHO(2)=  100.500       N(2)  =     4000
 


--------------------------------------------------------------------------------------------------------


 ion  position               nearest neighbor table
   1  0.114  0.228  0.233-  15 2.28  21 2.29  21 2.29
   2  0.214  0.028  0.515-  16 2.28  22 2.29  22 2.29
   3  0.458  0.916  0.209-  21 2.28  13 2.30  13 2.30
   4  0.558  0.716  0.491-  22 2.28  14 2.30  14 2.30
   5  0.311  0.622  0.084-  17 2.28  23 2.30  23 2.30
   6  0.311  0.622  0.366-  18 2.28  14 2.36  24 2.44
   7  0.999  0.998  0.086-  19 2.29  19 2.29  13 2.32
   8  0.999  0.998  0.368-  20 2.29  20 2.29
   9  0.655  0.310  0.060-  19 2.28  17 2.29  17 2.29
  10  0.655  0.310  0.342-  20 2.28  18 2.29  18 2.29  24 2.67
  11  0.770  0.539  0.207-  15 2.29  15 2.29  23 2.32
  12  0.870  0.339  0.489-  16 2.29  16 2.29  24 2.32
  13  0.940  0.879  0.158-   3 2.30   3 2.30   7 2.32  23 2.35
  14  0.040  0.679  0.440-   4 2.30   4 2.30  24 2.35   6 2.36
  15  0.205  0.410  0.186-   1 2.28  11 2.29  11 2.29  17 2.37
  16  0.305  0.210  0.468-   2 2.28  12 2.29  12 2.29  20 2.54
  17  0.202  0.404  0.100-   5 2.28   9 2.29   9 2.29  15 2.37
  18  0.202  0.404  0.382-  24 1.56   6 2.28  10 2.29  10 2.29  24 2.73
  19  0.564  0.128  0.108-   9 2.28   7 2.29   7 2.29  21 2.37
  20  0.564  0.128  0.390-  10 2.28   8 2.29   8 2.29  16 2.54
  21  0.567  0.134  0.194-   3 2.28   1 2.29   1 2.29  19 2.37
  22  0.667  0.934  0.476-   4 2.28   2 2.29   2 2.29
  23  0.829  0.658  0.136-   5 2.30   5 2.30  11 2.32  13 2.35
  24  0.929  0.458  0.418-  18 1.56  12 2.32  14 2.35   6 2.44  10 2.67  18 2.73
 
  LATTYP: Found a base centered orthorhombic cell.
 ALAT       =     3.5404000000
 B/A-ratio  =     5.8153587165
 C/A-ratio  =     7.7678875268
  
  Lattice vectors:
  
 A1 = (   1.7702000000,  10.2943480000,   0.0000000000)
 A2 = (   1.7702000000, -10.2943480000,   0.0000000000)
 A3 = (   0.0000000000,   0.0000000000, -27.5014290000)


Analysis of symmetry for initial positions (statically):
=====================================================================
 Subroutine PRICEL returns:
 Original cell was already a primitive cell.
 

 Routine SETGRP: Setting up the symmetry group for a 
 base centered orthorhombic supercell.


 Subroutine GETGRP returns: Found  1 space group operations
 (whereof  1 operations were pure point group operations)
 out of a pool of  8 trial point group operations.


The static configuration has the point symmetry C_1 .


Analysis of symmetry for dynamics (positions and initial velocities):
=====================================================================
 Subroutine PRICEL returns:
 Original cell was already a primitive cell.
 

 Routine SETGRP: Setting up the symmetry group for a 
 base centered orthorhombic supercell.


 Subroutine GETGRP returns: Found  1 space group operations
 (whereof  1 operations were pure point group operations)
 out of a pool of  8 trial point group operations.


The dynamic configuration has the point symmetry C_1 .
 
 
 KPOINTS: pymatgen generated KPOINTS with grid den

Automatic generation of k-mesh.
Space group operators:
 irot       det(A)        alpha          n_x          n_y          n_z        tau_x        tau_y        tau_z
    1     1.000000     0.000000     1.000000     0.000000     0.000000     0.000000     0.000000     0.000000
 
 Subroutine IBZKPT returns following result:
 ===========================================
 
 Found     54 irreducible k-points:
 
 Following reciprocal coordinates:
            Coordinates               Weight
  0.000000  0.000000  0.000000      1.000000
  0.076923 -0.000000  0.000000      2.000000
  0.153846 -0.000000  0.000000      2.000000
  0.230769 -0.000000  0.000000      2.000000
  0.307692 -0.000000  0.000000      2.000000
  0.384615 -0.000000  0.000000      2.000000
  0.461538 -0.000000  0.000000      2.000000
  0.000000  0.250000  0.000000      2.000000
  0.076923  0.250000  0.000000      2.000000
  0.153846  0.250000  0.000000      2.000000
  0.230769  0.250000  0.000000      2.000000
  0.307692  0.250000  0.000000      2.000000
  0.384615  0.250000  0.000000      2.000000
  0.461538  0.250000  0.000000      2.000000
 -0.461538  0.250000  0.000000      2.000000
 -0.384615  0.250000  0.000000      2.000000
 -0.307692  0.250000  0.000000      2.000000
 -0.230769  0.250000  0.000000      2.000000
 -0.153846  0.250000  0.000000      2.000000
 -0.076923  0.250000  0.000000      2.000000
  0.000000  0.500000  0.000000      1.000000
  0.076923  0.500000  0.000000      2.000000
  0.153846  0.500000  0.000000      2.000000
  0.230769  0.500000  0.000000      2.000000
  0.307692  0.500000  0.000000      2.000000
  0.384615  0.500000  0.000000      2.000000
  0.461538  0.500000  0.000000      2.000000
  0.000000  0.000000  0.500000      1.000000
  0.076923 -0.000000  0.500000      2.000000
  0.153846 -0.000000  0.500000      2.000000
  0.230769 -0.000000  0.500000      2.000000
  0.307692 -0.000000  0.500000      2.000000
  0.384615 -0.000000  0.500000      2.000000
  0.461538 -0.000000  0.500000      2.000000
  0.000000  0.250000  0.500000      2.000000
  0.076923  0.250000  0.500000      2.000000
  0.153846  0.250000  0.500000      2.000000
  0.230769  0.250000  0.500000      2.000000
  0.307692  0.250000  0.500000      2.000000
  0.384615  0.250000  0.500000      2.000000
  0.461538  0.250000  0.500000      2.000000
 -0.461538  0.250000  0.500000      2.000000
 -0.384615  0.250000  0.500000      2.000000
 -0.307692  0.250000  0.500000      2.000000
 -0.230769  0.250000  0.500000      2.000000
 -0.153846  0.250000  0.500000      2.000000
 -0.076923  0.250000  0.500000      2.000000
  0.000000  0.500000  0.500000      1.000000
  0.076923  0.500000  0.500000      2.000000
  0.153846  0.500000  0.500000      2.000000
  0.230769  0.500000  0.500000      2.000000
  0.307692  0.500000  0.500000      2.000000
  0.384615  0.500000  0.500000      2.000000
  0.461538  0.500000  0.500000      2.000000
 
 Following cartesian coordinates:
            Coordinates               Weight
  0.000000  0.000000  0.000000      1.000000
  0.021727  0.003736  0.000000      2.000000
  0.043454  0.007472  0.000000      2.000000
  0.065182  0.011209  0.000000      2.000000
  0.086909  0.014945  0.000000      2.000000
  0.108636  0.018681  0.000000      2.000000
  0.130363  0.022417  0.000000      2.000000
  0.000000  0.024285  0.000000      2.000000
  0.021727  0.028021  0.000000      2.000000
  0.043454  0.031758  0.000000      2.000000
  0.065182  0.035494  0.000000      2.000000
  0.086909  0.039230  0.000000      2.000000
  0.108636  0.042966  0.000000      2.000000
  0.130363  0.046702  0.000000      2.000000
 -0.130363  0.001868  0.000000      2.000000
 -0.108636  0.005604  0.000000      2.000000
 -0.086909  0.009340  0.000000      2.000000
 -0.065182  0.013077  0.000000      2.000000
 -0.043454  0.016813  0.000000      2.000000
 -0.021727  0.020549  0.000000      2.000000
  0.000000  0.048570  0.000000      1.000000
  0.021727  0.052307  0.000000      2.000000
  0.043454  0.056043  0.000000      2.000000
  0.065182  0.059779  0.000000      2.000000
  0.086909  0.063515  0.000000      2.000000
  0.108636  0.067251  0.000000      2.000000
  0.130363  0.070987  0.000000      2.000000
  0.000000  0.000000  0.018181      1.000000
  0.021727  0.003736  0.018181      2.000000
  0.043454  0.007472  0.018181      2.000000
  0.065182  0.011209  0.018181      2.000000
  0.086909  0.014945  0.018181      2.000000
  0.108636  0.018681  0.018181      2.000000
  0.130363  0.022417  0.018181      2.000000
  0.000000  0.024285  0.018181      2.000000
  0.021727  0.028021  0.018181      2.000000
  0.043454  0.031758  0.018181      2.000000
  0.065182  0.035494  0.018181      2.000000
  0.086909  0.039230  0.018181      2.000000
  0.108636  0.042966  0.018181      2.000000
  0.130363  0.046702  0.018181      2.000000
 -0.130363  0.001868  0.018181      2.000000
 -0.108636  0.005604  0.018181      2.000000
 -0.086909  0.009340  0.018181      2.000000
 -0.065182  0.013077  0.018181      2.000000
 -0.043454  0.016813  0.018181      2.000000
 -0.021727  0.020549  0.018181      2.000000
  0.000000  0.048570  0.018181      1.000000
  0.021727  0.052307  0.018181      2.000000
  0.043454  0.056043  0.018181      2.000000
  0.065182  0.059779  0.018181      2.000000
  0.086909  0.063515  0.018181      2.000000
  0.108636  0.067251  0.018181      2.000000
  0.130363  0.070987  0.018181      2.000000
 


--------------------------------------------------------------------------------------------------------




 Dimension of arrays:
   k-points           NKPTS =     54   k-points in BZ     NKDIM =     54   number of bands    NBANDS=     68
   number of dos      NEDOS =    301   number of ions     NIONS =     24
   non local maximal  LDIM  =      4   non local SUM 2l+1 LMDIM =      8
   total plane-waves  NPLWV = 192000
   max r-space proj   IRMAX =   2772   max aug-charges    IRDMAX=   6603
   dimension x,y,z NGX =    20 NGY =   60 NGZ =  160
   dimension x,y,z NGXF=    40 NGYF=  120 NGZF=  320
   support grid    NGXF=    40 NGYF=  120 NGZF=  320
   ions per type =              12  12
 NGX,Y,Z   is equivalent  to a cutoff of   9.39,  9.55,  9.67 a.u.
 NGXF,Y,Z  is equivalent  to a cutoff of  18.78, 19.10, 19.34 a.u.


 I would recommend the setting:
   dimension x,y,z NGX =    20 NGY =   59 NGZ =  155
 SYSTEM =  unknown system                          
 POSCAR =  Si12                                    

 Startparameter for this run:
   NWRITE =      2    write-flag & timer
   PREC   = accura    normal or accurate (medium, high low for compatibility)
   ISTART =      0    job   : 0-new  1-cont  2-samecut
   ICHARG =      2    charge: 1-file 2-atom 10-const
   ISPIN  =      1    spin polarized calculation?
   LNONCOLLINEAR =      F non collinear calculations
   LSORBIT =      F    spin-orbit coupling
   INIWAV =      1    electr: 0-lowe 1-rand  2-diag
   LASPH  =      F    aspherical Exc in radial PAW
   METAGGA=      F    non-selfconsistent MetaGGA calc.

 Electronic Relaxation 1
   ENCUT  =  300.0 eV  22.05 Ry    4.70 a.u.   5.00 14.75 38.84*2*pi/ulx,y,z
   ENINI  =  300.0     initial cutoff
   ENAUG  =  342.9 eV  augmentation charge cutoff
   NELM   =     60;   NELMIN=  2; NELMDL= -5     # of ELM steps 
   EDIFF  = 0.1E-05   stopping-criterion for ELM
   LREAL  =      T    real-space projection
   NLSPLINE    = F    spline interpolate recip. space projectors
   LCOMPAT=      F    compatible to vasp.4.4
   GGA_COMPAT  = T    GGA compatible to vasp.4.4-vasp.4.6
   LMAXPAW     = -100 max onsite density
   LMAXMIX     =    2 max onsite mixed and CHGCAR
   VOSKOWN=      0    Vosko Wilk Nusair interpolation
   ROPT   =   -0.00025  -0.00025
 Ionic relaxation
   EDIFFG = 0.1E-04   stopping-criterion for IOM
   NSW    =      0    number of steps for IOM
   NBLOCK =      1;   KBLOCK =      1    inner block; outer block 
   IBRION =     -1    ionic relax: 0-MD 1-quasi-New 2-CG
   NFREE  =      1    steps in history (QN), initial steepest desc. (CG)
   ISIF   =      3    stress and relaxation
   IWAVPR =     10    prediction:  0-non 1-charg 2-wave 3-comb
   ISYM   =      2    0-nonsym 1-usesym 2-fastsym
   LCORR  =      T    Harris-Foulkes like correction to forces

   POTIM  = 0.5000    time-step for ionic-motion
   TEIN   =    0.0    initial temperature
   TEBEG  =    0.0;   TEEND  =   0.0 temperature during run
   SMASS  =  -3.00    Nose mass-parameter (am)
   estimated Nose-frequenzy (Omega)   =  0.10E-29 period in steps =****** mass=  -0.286E-27a.u.
   SCALEE = 1.0000    scale energy and forces
   NPACO  =    256;   APACO  = 16.0  distance and # of slots for P.C.
   PSTRESS=    0.0 pullay stress

  Mass of Ions in am
   POMASS =  30.97 28.09
  Ionic Valenz
   ZVAL   =   5.00  4.00
  Atomic Wigner-Seitz radii
   RWIGS  =  -1.00 -1.00
  virtual crystal weights 
   VCA    =   1.00  1.00
   NELECT =     108.0000    total number of electrons
   NUPDOWN=      -1.0000    fix difference up-down

 DOS related values:
   EMIN   =  10.00;   EMAX   =-10.00  energy-range for DOS
   EFERMI =   0.00
   ISMEAR =     0;   SIGMA  =   0.10  broadening in eV -4-tet -1-fermi 0-gaus

 Electronic relaxation 2 (details)
   IALGO  =     38    algorithm
   LDIAG  =      T    sub-space diagonalisation (order eigenvalues)
   LSUBROT=      F    optimize rotation matrix (better conditioning)
   TURBO    =      0    0=normal 1=particle mesh
   IRESTART =      0    0=no restart 2=restart with 2 vectors
   NREBOOT  =      0    no. of reboots
   NMIN     =      0    reboot dimension
   EREF     =   0.00    reference energy to select bands
   IMIX   =      4    mixing-type and parameters
     AMIX     =   0.40;   BMIX     =  1.00
     AMIX_MAG =   1.60;   BMIX_MAG =  1.00
     AMIN     =   0.10
     WC   =   100.;   INIMIX=   1;  MIXPRE=   1;  MAXMIX= -45

 Intra band minimization:
   WEIMIN = 0.0000     energy-eigenvalue tresh-hold
   EBREAK =  0.37E-08  absolut break condition
   DEPER  =   0.30     relativ break condition  

   TIME   =   0.40     timestep for ELM

  volume/ion in A,a.u.               =      41.76       281.83
  Fermi-wavevector in a.u.,A,eV,Ry     =   0.779018  1.472130  8.256946  0.606868
  Thomas-Fermi vector in A             =   1.882034
 
 Write flags
   LWAVE  =      F    write WAVECAR
   LCHARG =      F    write CHGCAR
   LVTOT  =      F    write LOCPOT, total local potential
   LVHAR  =      F    write LOCPOT, Hartree potential only
   LELF   =      F    write electronic localiz. function (ELF)
   LORBIT =      0    0 simple, 1 ext, 2 COOP (PROOUT)


 Dipole corrections
   LMONO  =      F    monopole corrections only (constant potential shift)
   LDIPOL =      F    correct potential (dipole corrections)
   IDIPOL =      0    1-x, 2-y, 3-z, 4-all directions 
   EPSILON=  1.0000000 bulk dielectric constant

 Exchange correlation treatment:
   GGA     =    BO    GGA type
   LEXCH   =    42    internal setting for exchange type
   VOSKOWN=      0    Vosko Wilk Nusair interpolation
   LHFCALC =     F    Hartree Fock is set to
   LHFONE  =     F    Hartree Fock one center treatment
   AEXX    =    0.0000 exact exchange contribution

 vdW DFT:
   LUSE_VDW   =     T    switch on vdW DFT
   Zab_VDW    =-.8491    correlation parameter
   PARAM1     =0.1833
   PARAM2     =0.2200
   PARAM3     =0.0000

 Linear response parameters
   LEPSILON=     F    determine dielectric tensor
   LRPA    =     F    only Hartree local field effects (RPA)
   LNABLA  =     F    use nabla operator in PAW spheres
   LVEL    =     F    velocity operator in full k-point grid
   LINTERFAST=   F  fast interpolation
   KINTER  =     0    interpolate to denser k-point grid
   CSHIFT  =0.1000    complex shift for real part using Kramers Kronig
   OMEGAMAX=  -1.0    maximum frequency
   DEG_THRESHOLD= 0.2000000E-02 threshold for treating states as degnerate
   RTIME   =    0.100 relaxation time in fs

 Orbital magnetization related:
   ORBITALMAG=     F  switch on orbital magnetization
   LCHIMAG   =     F  perturbation theory with respect to B field
   DQ        =  0.001000  dq finite difference perturbation B field



--------------------------------------------------------------------------------------------------------


 Static calculation
 charge density and potential will be updated during run
 non-spin polarized calculation
 Variant of blocked Davidson
 Davidson routine will perform the subspace rotation
 perform sub-space diagonalisation
    after iterative eigenvector-optimisation
 modified Broyden-mixing scheme, WC =      100.0
 initial mixing is a Kerker type mixing with AMIX =  0.4000 and BMIX =      1.0000
 Hartree-type preconditioning will be used
 using additional bands           14
 real space projection scheme for non local part
 use partial core corrections
 calculate Harris-corrections to forces 
   (improved forces if not selfconsistent)
 use gradient corrections 
 use of overlap-Matrix (Vanderbilt PP)
 Gauss-broadening in eV      SIGMA  =   0.10


--------------------------------------------------------------------------------------------------------


  energy-cutoff  :      300.00
  volume of cell :     1002.32
      direct lattice vectors                 reciprocal lattice vectors
     3.540400000  0.000000000  0.000000000     0.282453960  0.048570342  0.000000000
    -1.770200000 10.294348000  0.000000000     0.000000000  0.097140683  0.000000000
     0.000000000  0.000000000 27.501429000     0.000000000  0.000000000  0.036361747

  length of vectors
     3.540400000 10.445439617 27.501429000     0.286599577  0.097140683  0.036361747


 
 k-points in units of 2pi/SCALE and weight: pymatgen generated KPOINTS with grid den
   0.00000000  0.00000000  0.00000000       0.010
   0.02172723  0.00373618  0.00000000       0.019
   0.04345446  0.00747236  0.00000000       0.019
   0.06518168  0.01120854  0.00000000       0.019
   0.08690891  0.01494472  0.00000000       0.019
   0.10863614  0.01868090  0.00000000       0.019
   0.13036337  0.02241708  0.00000000       0.019
   0.00000000  0.02428517  0.00000000       0.019
   0.02172723  0.02802135  0.00000000       0.019
   0.04345446  0.03175753  0.00000000       0.019
   0.06518168  0.03549371  0.00000000       0.019
   0.08690891  0.03922989  0.00000000       0.019
   0.10863614  0.04296607  0.00000000       0.019
   0.13036337  0.04670225  0.00000000       0.019
  -0.13036337  0.00186809  0.00000000       0.019
  -0.10863614  0.00560427  0.00000000       0.019
  -0.08690891  0.00934045  0.00000000       0.019
  -0.06518168  0.01307663  0.00000000       0.019
  -0.04345446  0.01681281  0.00000000       0.019
  -0.02172723  0.02054899  0.00000000       0.019
   0.00000000  0.04857034  0.00000000       0.010
   0.02172723  0.05230652  0.00000000       0.019
   0.04345446  0.05604270  0.00000000       0.019
   0.06518168  0.05977888  0.00000000       0.019
   0.08690891  0.06351506  0.00000000       0.019
   0.10863614  0.06725124  0.00000000       0.019
   0.13036337  0.07098742  0.00000000       0.019
   0.00000000  0.00000000  0.01818087       0.010
   0.02172723  0.00373618  0.01818087       0.019
   0.04345446  0.00747236  0.01818087       0.019
   0.06518168  0.01120854  0.01818087       0.019
   0.08690891  0.01494472  0.01818087       0.019
   0.10863614  0.01868090  0.01818087       0.019
   0.13036337  0.02241708  0.01818087       0.019
   0.00000000  0.02428517  0.01818087       0.019
   0.02172723  0.02802135  0.01818087       0.019
   0.04345446  0.03175753  0.01818087       0.019
   0.06518168  0.03549371  0.01818087       0.019
   0.08690891  0.03922989  0.01818087       0.019
   0.10863614  0.04296607  0.01818087       0.019
   0.13036337  0.04670225  0.01818087       0.019
  -0.13036337  0.00186809  0.01818087       0.019
  -0.10863614  0.00560427  0.01818087       0.019
  -0.08690891  0.00934045  0.01818087       0.019
  -0.06518168  0.01307663  0.01818087       0.019
  -0.04345446  0.01681281  0.01818087       0.019
  -0.02172723  0.02054899  0.01818087       0.019
   0.00000000  0.04857034  0.01818087       0.010
   0.02172723  0.05230652  0.01818087       0.019
   0.04345446  0.05604270  0.01818087       0.019
   0.06518168  0.05977888  0.01818087       0.019
   0.08690891  0.06351506  0.01818087       0.019
   0.10863614  0.06725124  0.01818087       0.019
   0.13036337  0.07098742  0.01818087       0.019
 
 k-points in reciprocal lattice and weights: pymatgen generated KPOINTS with grid den
   0.00000000  0.00000000  0.00000000       0.010
   0.07692308 -0.00000000  0.00000000       0.019
   0.15384615 -0.00000000  0.00000000       0.019
   0.23076923 -0.00000000  0.00000000       0.019
   0.30769231 -0.00000000  0.00000000       0.019
   0.38461538 -0.00000000  0.00000000       0.019
   0.46153846 -0.00000000  0.00000000       0.019
   0.00000000  0.25000000  0.00000000       0.019
   0.07692308  0.25000000  0.00000000       0.019
   0.15384615  0.25000000  0.00000000       0.019
   0.23076923  0.25000000  0.00000000       0.019
   0.30769231  0.25000000  0.00000000       0.019
   0.38461538  0.25000000  0.00000000       0.019
   0.46153846  0.25000000  0.00000000       0.019
  -0.46153846  0.25000000  0.00000000       0.019
  -0.38461538  0.25000000  0.00000000       0.019
  -0.30769231  0.25000000  0.00000000       0.019
  -0.23076923  0.25000000  0.00000000       0.019
  -0.15384615  0.25000000  0.00000000       0.019
  -0.07692308  0.25000000  0.00000000       0.019
   0.00000000  0.50000000  0.00000000       0.010
   0.07692308  0.50000000  0.00000000       0.019
   0.15384615  0.50000000  0.00000000       0.019
   0.23076923  0.50000000  0.00000000       0.019
   0.30769231  0.50000000  0.00000000       0.019
   0.38461538  0.50000000  0.00000000       0.019
   0.46153846  0.50000000  0.00000000       0.019
   0.00000000  0.00000000  0.50000000       0.010
   0.07692308 -0.00000000  0.50000000       0.019
   0.15384615 -0.00000000  0.50000000       0.019
   0.23076923 -0.00000000  0.50000000       0.019
   0.30769231 -0.00000000  0.50000000       0.019
   0.38461538 -0.00000000  0.50000000       0.019
   0.46153846 -0.00000000  0.50000000       0.019
   0.00000000  0.25000000  0.50000000       0.019
   0.07692308  0.25000000  0.50000000       0.019
   0.15384615  0.25000000  0.50000000       0.019
   0.23076923  0.25000000  0.50000000       0.019
   0.30769231  0.25000000  0.50000000       0.019
   0.38461538  0.25000000  0.50000000       0.019
   0.46153846  0.25000000  0.50000000       0.019
  -0.46153846  0.25000000  0.50000000       0.019
  -0.38461538  0.25000000  0.50000000       0.019
  -0.30769231  0.25000000  0.50000000       0.019
  -0.23076923  0.25000000  0.50000000       0.019
  -0.15384615  0.25000000  0.50000000       0.019
  -0.07692308  0.25000000  0.50000000       0.019
   0.00000000  0.50000000  0.50000000       0.010
   0.07692308  0.50000000  0.50000000       0.019
   0.15384615  0.50000000  0.50000000       0.019
   0.23076923  0.50000000  0.50000000       0.019
   0.30769231  0.50000000  0.50000000       0.019
   0.38461538  0.50000000  0.50000000       0.019
   0.46153846  0.50000000  0.50000000       0.019
 
 position of ions in fractional coordinates (direct lattice) 
   0.11402300  0.22804500  0.23316207
   0.21402300  0.02804500  0.51499159
   0.45808900  0.91617900  0.20939482
   0.55808900  0.71617900  0.49122434
   0.31085400  0.62170900  0.08414979
   0.31085400  0.62170900  0.36597930
   0.99923000  0.99846000  0.08631254
   0.99923000  0.99846000  0.36814206
   0.65492700  0.30985400  0.06041748
   0.65492700  0.30985400  0.34224700
   0.76973800  0.53947500  0.20725292
   0.86973800  0.33947500  0.48908244
   0.93971600  0.87943300  0.15783749
   0.03971600  0.67943300  0.43966701
   0.20515200  0.41030300  0.18578822
   0.30515200  0.21030300  0.46761774
   0.20184900  0.40369900  0.09969156
   0.20184900  0.40369900  0.38152107
   0.56380500  0.12761000  0.10779021
   0.56380500  0.12761000  0.38961973
   0.56710600  0.13421200  0.19387616
   0.66710600  0.93421200  0.47570568
   0.82923400  0.65846800  0.13571444
   0.92923400  0.45846800  0.41754396
 
 position of ions in cartesian coordinates  (Angst):
   0.00000177  2.34757459  6.41229012
   0.70808177  0.28870499 14.16300462
  -0.00000177  9.43146546  5.75865686
   0.70807823  7.37259586 13.50937136
  -0.00000177  6.40008880  2.31423934
  -0.00000177  6.40008880 10.06495384
   1.77020000 10.27849470  2.37371832
   1.77020000 10.27849470 10.12443282
   1.77020000  3.18974491  1.66156717
   1.77020000  3.18974491  9.41228167
   1.77020177  5.55354339  5.69975143
   2.47828177  3.49467379 13.45046593
   1.77019823  9.05318934  4.34075665
  -1.06212177  6.99431974 12.09147115
   0.00000177  4.22380187  5.10944151
   0.70808177  2.16493227 12.86015601
  -0.00000177  4.15581799  2.74166024
  -0.00000177  4.15581799 10.49237474
   1.77020000  1.31366175  2.96438477
   1.77020000  1.31366175 10.71509927
   1.77020000  1.38162503  5.33187152
   0.70808000  9.61710343 13.08258602
   1.77020000  6.77849874  3.73234107
   2.47828000  4.71962914 11.48305557
 


--------------------------------------------------------------------------------------------------------


 k-point  1 :   0.0000 0.0000 0.0000  plane waves:   11717
 k-point  2 :   0.0769-0.0000 0.0000  plane waves:   11762
 k-point  3 :   0.1538-0.0000 0.0000  plane waves:   11805
 k-point  4 :   0.2308-0.0000 0.0000  plane waves:   11824
 k-point  5 :   0.3077-0.0000 0.0000  plane waves:   11875
 k-point  6 :   0.3846-0.0000 0.0000  plane waves:   11864
 k-point  7 :   0.4615-0.0000 0.0000  plane waves:   11883
 k-point  8 :   0.0000 0.2500 0.0000  plane waves:   11683
 k-point  9 :   0.0769 0.2500 0.0000  plane waves:   11756
 k-point 10 :   0.1538 0.2500 0.0000  plane waves:   11807
 k-point 11 :   0.2308 0.2500 0.0000  plane waves:   11853
 k-point 12 :   0.3077 0.2500 0.0000  plane waves:   11866
 k-point 13 :   0.3846 0.2500 0.0000  plane waves:   11889
 k-point 14 :   0.4615 0.2500 0.0000  plane waves:   11885
 k-point 15 :  -0.4615 0.2500 0.0000  plane waves:   11886
 k-point 16 :  -0.3846 0.2500 0.0000  plane waves:   11867
 k-point 17 :  -0.3077 0.2500 0.0000  plane waves:   11849
 k-point 18 :  -0.2308 0.2500 0.0000  plane waves:   11827
 k-point 19 :  -0.1538 0.2500 0.0000  plane waves:   11801
 k-point 20 :  -0.0769 0.2500 0.0000  plane waves:   11757
 k-point 21 :   0.0000 0.5000 0.0000  plane waves:   11710
 k-point 22 :   0.0769 0.5000 0.0000  plane waves:   11762
 k-point 23 :   0.1538 0.5000 0.0000  plane waves:   11782
 k-point 24 :   0.2308 0.5000 0.0000  plane waves:   11841
 k-point 25 :   0.3077 0.5000 0.0000  plane waves:   11876
 k-point 26 :   0.3846 0.5000 0.0000  plane waves:   11889
 k-point 27 :   0.4615 0.5000 0.0000  plane waves:   11881
 k-point 28 :   0.0000 0.0000 0.5000  plane waves:   11698
 k-point 29 :   0.0769-0.0000 0.5000  plane waves:   11752
 k-point 30 :   0.1538-0.0000 0.5000  plane waves:   11800
 k-point 31 :   0.2308-0.0000 0.5000  plane waves:   11834
 k-point 32 :   0.3077-0.0000 0.5000  plane waves:   11850
 k-point 33 :   0.3846-0.0000 0.5000  plane waves:   11888
 k-point 34 :   0.4615-0.0000 0.5000  plane waves:   11896
 k-point 35 :   0.0000 0.2500 0.5000  plane waves:   11714
 k-point 36 :   0.0769 0.2500 0.5000  plane waves:   11754
 k-point 37 :   0.1538 0.2500 0.5000  plane waves:   11802
 k-point 38 :   0.2308 0.2500 0.5000  plane waves:   11840
 k-point 39 :   0.3077 0.2500 0.5000  plane waves:   11858
 k-point 40 :   0.3846 0.2500 0.5000  plane waves:   11896
 k-point 41 :   0.4615 0.2500 0.5000  plane waves:   11886
 k-point 42 :  -0.4615 0.2500 0.5000  plane waves:   11852
 k-point 43 :  -0.3846 0.2500 0.5000  plane waves:   11838
 k-point 44 :  -0.3077 0.2500 0.5000  plane waves:   11842
 k-point 45 :  -0.2308 0.2500 0.5000  plane waves:   11840
 k-point 46 :  -0.1538 0.2500 0.5000  plane waves:   11804
 k-point 47 :  -0.0769 0.2500 0.5000  plane waves:   11748
 k-point 48 :   0.0000 0.5000 0.5000  plane waves:   11724
 k-point 49 :   0.0769 0.5000 0.5000  plane waves:   11748
 k-point 50 :   0.1538 0.5000 0.5000  plane waves:   11814
 k-point 51 :   0.2308 0.5000 0.5000  plane waves:   11832
 k-point 52 :   0.3077 0.5000 0.5000  plane waves:   11868
 k-point 53 :   0.3846 0.5000 0.5000  plane waves:   11892
 k-point 54 :   0.4615 0.5000 0.5000  plane waves:   11878

 maximum and minimum number of plane-waves per node :      5964     5832

 maximum number of plane-waves:     11896
 maximum index in each direction: 
   IXMAX=    5   IYMAX=   14   IZMAX=   38
   IXMIN=   -5   IYMIN=  -15   IZMIN=  -39

 WARNING: aliasing errors must be expected set NGX to  22 to avoid them
 NGY is ok and might be reduce to  60
 NGZ is ok and might be reduce to 156
 aliasing errors are usually negligible using standard VASP settings
 and one can safely disregard these warnings

 real space projection operators:
  total allocation   :       3793.25 KBytes
  max/ min on nodes  :       1899.38       1893.88


 parallel 3D FFT for wavefunctions:
    minimum data exchange during FFTs selected (reduces bandwidth)
 parallel 3D FFT for charge:
    minimum data exchange during FFTs selected (reduces bandwidth)


 total amount of memory used by VASP on root node   146493. kBytes
========================================================================

   base      :      30000. kBytes
   nonlr-proj:       3452. kBytes
   fftplans  :       9347. kBytes
   grid      :      14649. kBytes
   one-center:         36. kBytes
   wavefun   :      89009. kBytes
 
     INWAV:  cpu time    0.00: real time    0.00
 Broyden mixing: mesh for mixing (old mesh)
   NGX =  9   NGY = 29   NGZ = 77
  (NGX  = 40   NGY  =120   NGZ  =320)
  gives a total of  20097 points

 initial charge density was supplied:
 charge density of overlapping atoms calculated
 number of electron     108.0000000 magnetization 
 keeping initial charge density in first step


--------------------------------------------------------------------------------------------------------


 Maximum index for non-local projection operator         1333
 Maximum index for augmentation-charges          822 (set IRDMAX)


--------------------------------------------------------------------------------------------------------


 First call to EWALD:  gamma=   0.177
 Maximum number of real-space cells 7x 3x 1
 Maximum number of reciprocal cells 1x 3x 7

 FEWALD executed in parallel
    FEWALD:  cpu time    0.00: real time    0.00


----------------------------------------- Iteration    1(   1)  ---------------------------------------


vdW kernel read from vdw_kernel.bindat
  0.0000  0.2424  0.5071  0.7962  1.1119  1.4567  1.8333  2.2446  2.6937  3.1842
  3.7199  4.3049  4.9438  5.6415  6.4036  7.2358  8.1446  9.1372 10.2212 11.4050
 12.6979 14.1099 15.6519 17.3360 19.1751 21.1837 23.3773 25.7729 28.3892 31.2465
 34.3669 37.7748 41.4965 45.5611 50.0000
 
    POTLOK:  cpu time   16.63: real time   16.65
    SETDIJ:  cpu time    0.01: real time    0.01
     EDDAV:  cpu time   76.88: real time   76.96
       DOS:  cpu time    0.01: real time    0.01
    --------------------------------------------
      LOOP:  cpu time   93.54: real time   93.65

 eigenvalue-minimisations  :  7352
 total energy-change (2. order) : 0.4987398E+03  (-0.2866838E+04)
 number of electron     108.0000000 magnetization 
 augmentation part      108.0000000 magnetization 

 Free energy of the ion-electron system (eV)
  ---------------------------------------------------
  alpha Z        PSCENC =        36.80884744
  Ewald energy   TEWEN  =     11958.38019596
  -Hartree energ DENC   =    -14997.20784742
  -exchange      EXHF   =         0.00000000
  -V(xc)+E(xc)   XCENC  =       -87.79048926
  PAW double counting   =      1056.43050070     -732.41190547
  entropy T*S    EENTRO =        -0.04302382
  eigenvalues    EBANDS =       -89.46773228
  atomic energy  EATOM  =      3354.04126044
  ---------------------------------------------------
  free energy    TOTEN  =       498.73980629 eV

  energy without entropy =      498.78283011  energy(sigma->0) =      498.76131820


--------------------------------------------------------------------------------------------------------




----------------------------------------- Iteration    1(   2)  ---------------------------------------


     EDDAV:  cpu time  133.82: real time  133.90
       DOS:  cpu time    0.01: real time    0.01
    --------------------------------------------
      LOOP:  cpu time  133.83: real time  133.91

 eigenvalue-minimisations  :  9792
 total energy-change (2. order) :-0.5605334E+03  (-0.5460178E+03)
 number of electron     108.0000000 magnetization 
 augmentation part      108.0000000 magnetization 

 Free energy of the ion-electron system (eV)
  ---------------------------------------------------
  alpha Z        PSCENC =        36.80884744
  Ewald energy   TEWEN  =     11958.38019596
  -Hartree energ DENC   =    -14997.20784742
  -exchange      EXHF   =         0.00000000
  -V(xc)+E(xc)   XCENC  =       -87.79048926
  PAW double counting   =      1056.43050070     -732.41190547
  entropy T*S    EENTRO =        -0.02296450
  eigenvalues    EBANDS =      -650.02123374
  atomic energy  EATOM  =      3354.04126044
  ---------------------------------------------------
  free energy    TOTEN  =       -61.79363584 eV

  energy without entropy =      -61.77067135  energy(sigma->0) =      -61.78215360


--------------------------------------------------------------------------------------------------------




----------------------------------------- Iteration    1(   3)  ---------------------------------------


     EDDAV:  cpu time  127.48: real time  127.67
       DOS:  cpu time    0.01: real time    0.01
    --------------------------------------------
      LOOP:  cpu time  127.49: real time  127.68

 eigenvalue-minimisations  :  8856
 total energy-change (2. order) :-0.5660974E+02  (-0.5575287E+02)
 number of electron     108.0000000 magnetization 
 augmentation part      108.0000000 magnetization 

 Free energy of the ion-electron system (eV)
  ---------------------------------------------------
  alpha Z        PSCENC =        36.80884744
  Ewald energy   TEWEN  =     11958.38019596
  -Hartree energ DENC   =    -14997.20784742
  -exchange      EXHF   =         0.00000000
  -V(xc)+E(xc)   XCENC  =       -87.79048926
  PAW double counting   =      1056.43050070     -732.41190547
  entropy T*S    EENTRO =        -0.01394729
  eigenvalues    EBANDS =      -706.63999250
  atomic energy  EATOM  =      3354.04126044
  ---------------------------------------------------
  free energy    TOTEN  =      -118.40337739 eV

  energy without entropy =     -118.38943010  energy(sigma->0) =     -118.39640375


--------------------------------------------------------------------------------------------------------




----------------------------------------- Iteration    1(   4)  ---------------------------------------


     EDDAV:  cpu time  149.26: real time  149.43
       DOS:  cpu time    0.01: real time    0.01
    --------------------------------------------
      LOOP:  cpu time  149.27: real time  149.45

 eigenvalue-minimisations  : 11112
 total energy-change (2. order) :-0.2552882E+01  (-0.2535534E+01)
 number of electron     108.0000000 magnetization 
 augmentation part      108.0000000 magnetization 

 Free energy of the ion-electron system (eV)
  ---------------------------------------------------
  alpha Z        PSCENC =        36.80884744
  Ewald energy   TEWEN  =     11958.38019596
  -Hartree energ DENC   =    -14997.20784742
  -exchange      EXHF   =         0.00000000
  -V(xc)+E(xc)   XCENC  =       -87.79048926
  PAW double counting   =      1056.43050070     -732.41190547
  entropy T*S    EENTRO =        -0.01573993
  eigenvalues    EBANDS =      -709.19108204
  atomic energy  EATOM  =      3354.04126044
  ---------------------------------------------------
  free energy    TOTEN  =      -120.95625958 eV

  energy without entropy =     -120.94051965  energy(sigma->0) =     -120.94838961


--------------------------------------------------------------------------------------------------------




----------------------------------------- Iteration    1(   5)  ---------------------------------------


     EDDAV:  cpu time  142.29: real time  142.32
       DOS:  cpu time    0.01: real time    0.01
    CHARGE:  cpu time    7.26: real time    7.26
    MIXING:  cpu time    0.02: real time    0.02
    --------------------------------------------
      LOOP:  cpu time  149.58: real time  149.62

 eigenvalue-minimisations  : 10080
 total energy-change (2. order) :-0.5998342E-01  (-0.5990593E-01)
 number of electron     107.9999994 magnetization 
 augmentation part       -9.6304137 magnetization 

 Broyden mixing:
  rms(total) = 0.11325E+01    rms(broyden)= 0.11323E+01
  rms(prec ) = 0.12179E+01
  weight for this iteration     100.00

 Free energy of the ion-electron system (eV)
  ---------------------------------------------------
  alpha Z        PSCENC =        36.80884744
  Ewald energy   TEWEN  =     11958.38019596
  -Hartree energ DENC   =    -14997.20784742
  -exchange      EXHF   =         0.00000000
  -V(xc)+E(xc)   XCENC  =       -87.79048926
  PAW double counting   =      1056.43050070     -732.41190547
  entropy T*S    EENTRO =        -0.01572315
  eigenvalues    EBANDS =      -709.25108225
  atomic energy  EATOM  =      3354.04126044
  ---------------------------------------------------
  free energy    TOTEN  =      -121.01624300 eV

  energy without entropy =     -121.00051985  energy(sigma->0) =     -121.00838143


--------------------------------------------------------------------------------------------------------




----------------------------------------- Iteration    1(   6)  ---------------------------------------


    POTLOK:  cpu time   16.56: real time   16.57
    SETDIJ:  cpu time    0.02: real time    0.02
     EDDAV:  cpu time  123.34: real time  123.42
       DOS:  cpu time    0.01: real time    0.01
    CHARGE:  cpu time    7.87: real time    7.87
    MIXING:  cpu time    0.02: real time    0.02
    --------------------------------------------
      LOOP:  cpu time  147.82: real time  147.92

 eigenvalue-minimisations  :  8508
 total energy-change (2. order) : 0.3454562E+01  (-0.8160931E+00)
 number of electron     107.9999995 magnetization 
 augmentation part       -9.4756932 magnetization 

 Broyden mixing:
  rms(total) = 0.59646E+00    rms(broyden)= 0.59644E+00
  rms(prec ) = 0.62809E+00
  weight for this iteration     100.00

 eigenvalues of (default mixing * dielectric matrix)
  average eigenvalue GAMMA=   1.7732
  1.7732

 Free energy of the ion-electron system (eV)
  ---------------------------------------------------
  alpha Z        PSCENC =        36.80884744
  Ewald energy   TEWEN  =     11958.38019596
  -Hartree energ DENC   =    -15040.24118867
  -exchange      EXHF   =         0.00000000
  -V(xc)+E(xc)   XCENC  =       -84.66612010
  PAW double counting   =      1119.46833708     -797.30135919
  entropy T*S    EENTRO =        -0.03211725
  eigenvalues    EBANDS =      -664.01953661
  atomic energy  EATOM  =      3354.04126044
  ---------------------------------------------------
  free energy    TOTEN  =      -117.56168090 eV

  energy without entropy =     -117.52956365  energy(sigma->0) =     -117.54562228


--------------------------------------------------------------------------------------------------------




----------------------------------------- Iteration    1(   7)  ---------------------------------------


    POTLOK:  cpu time   16.67: real time   16.68
    SETDIJ:  cpu time    0.02: real time    0.02
     EDDAV:  cpu time  136.88: real time  136.99
       DOS:  cpu time    0.01: real time    0.01
    CHARGE:  cpu time    7.99: real time    7.99
    MIXING:  cpu time    0.02: real time    0.02
    --------------------------------------------
      LOOP:  cpu time  161.60: real time  161.72

 eigenvalue-minimisations  :  8864
 total energy-change (2. order) : 0.5810474E-01  (-0.6651392E+00)
 number of electron     107.9999995 magnetization 
 augmentation part       -9.3712550 magnetization 

 Broyden mixing:
  rms(total) = 0.23369E+00    rms(broyden)= 0.23364E+00
  rms(prec ) = 0.24795E+00
  weight for this iteration     100.00

 eigenvalues of (default mixing * dielectric matrix)
  average eigenvalue GAMMA=   1.4179
  1.0405  1.7953

 Free energy of the ion-electron system (eV)
  ---------------------------------------------------
  alpha Z        PSCENC =        36.80884744
  Ewald energy   TEWEN  =     11958.38019596
  -Hartree energ DENC   =    -15068.38779350
  -exchange      EXHF   =         0.00000000
  -V(xc)+E(xc)   XCENC  =       -81.73124794
  PAW double counting   =      1166.53091043     -845.73858302
  entropy T*S    EENTRO =        -0.03308640
  eigenvalues    EBANDS =      -637.37407957
  atomic energy  EATOM  =      3354.04126044
  ---------------------------------------------------
  free energy    TOTEN  =      -117.50357616 eV

  energy without entropy =     -117.47048976  energy(sigma->0) =     -117.48703296


--------------------------------------------------------------------------------------------------------




----------------------------------------- Iteration    1(   8)  ---------------------------------------


    POTLOK:  cpu time   16.56: real time   16.59
    SETDIJ:  cpu time    0.02: real time    0.02
     EDDAV:  cpu time  133.59: real time  133.70
       DOS:  cpu time    0.01: real time    0.01
    CHARGE:  cpu time    7.26: real time    7.27
    MIXING:  cpu time    0.02: real time    0.02
    --------------------------------------------
      LOOP:  cpu time  157.47: real time  157.62

 eigenvalue-minimisations  :  9104
 total energy-change (2. order) : 0.2315573E-01  (-0.6537147E-01)
 number of electron     107.9999995 magnetization 
 augmentation part       -9.3733604 magnetization 

 Broyden mixing:
  rms(total) = 0.12269E+00    rms(broyden)= 0.12268E+00
  rms(prec ) = 0.12932E+00
  weight for this iteration     100.00

 eigenvalues of (default mixing * dielectric matrix)
  average eigenvalue GAMMA=   1.5112
  2.2512  0.9291  1.3533

 Free energy of the ion-electron system (eV)
  ---------------------------------------------------
  alpha Z        PSCENC =        36.80884744
  Ewald energy   TEWEN  =     11958.38019596
  -Hartree energ DENC   =    -15078.29001527
  -exchange      EXHF   =         0.00000000
  -V(xc)+E(xc)   XCENC  =       -80.93187472
  PAW double counting   =      1172.42995943     -851.81180937
  entropy T*S    EENTRO =        -0.03653572
  eigenvalues    EBANDS =      -628.07044862
  atomic energy  EATOM  =      3354.04126044
  ---------------------------------------------------
  free energy    TOTEN  =      -117.48042043 eV

  energy without entropy =     -117.44388471  energy(sigma->0) =     -117.46215257


--------------------------------------------------------------------------------------------------------




----------------------------------------- Iteration    1(   9)  ---------------------------------------


    POTLOK:  cpu time   16.46: real time   16.49
    SETDIJ:  cpu time    0.02: real time    0.02
     EDDAV:  cpu time  134.02: real time  134.08
       DOS:  cpu time    0.01: real time    0.01
    CHARGE:  cpu time    7.50: real time    7.50
    MIXING:  cpu time    0.02: real time    0.02
    --------------------------------------------
      LOOP:  cpu time  158.03: real time  158.11

 eigenvalue-minimisations  :  9160
 total energy-change (2. order) : 0.3144824E-02  (-0.1691561E-01)
 number of electron     107.9999995 magnetization 
 augmentation part       -9.3711992 magnetization 

 Broyden mixing:
  rms(total) = 0.41334E-01    rms(broyden)= 0.41331E-01
  rms(prec ) = 0.46569E-01
  weight for this iteration     100.00

 eigenvalues of (default mixing * dielectric matrix)
  average eigenvalue GAMMA=   1.4395
  2.5496  1.2149  1.2149  0.7785

 Free energy of the ion-electron system (eV)
  ---------------------------------------------------
  alpha Z        PSCENC =        36.80884744
  Ewald energy   TEWEN  =     11958.38019596
  -Hartree energ DENC   =    -15083.56454790
  -exchange      EXHF   =         0.00000000
  -V(xc)+E(xc)   XCENC  =       -80.35075655
  PAW double counting   =      1174.44912719     -853.90290807
  entropy T*S    EENTRO =        -0.03395478
  eigenvalues    EBANDS =      -623.30453934
  atomic energy  EATOM  =      3354.04126044
  ---------------------------------------------------
  free energy    TOTEN  =      -117.47727560 eV

  energy without entropy =     -117.44332082  energy(sigma->0) =     -117.46029821


--------------------------------------------------------------------------------------------------------




----------------------------------------- Iteration    1(  10)  ---------------------------------------


    POTLOK:  cpu time   16.54: real time   16.57
    SETDIJ:  cpu time    0.02: real time    0.02
     EDDAV:  cpu time  129.03: real time  129.10
       DOS:  cpu time    0.01: real time    0.01
    CHARGE:  cpu time    6.91: real time    6.91
    MIXING:  cpu time    0.02: real time    0.02
    --------------------------------------------
      LOOP:  cpu time  152.52: real time  152.63

 eigenvalue-minimisations  :  8800
 total energy-change (2. order) : 0.3813664E-02  (-0.4050421E-02)
 number of electron     107.9999995 magnetization 
 augmentation part       -9.3686830 magnetization 

 Broyden mixing:
  rms(total) = 0.17064E-01    rms(broyden)= 0.17063E-01
  rms(prec ) = 0.19078E-01
  weight for this iteration     100.00

 eigenvalues of (default mixing * dielectric matrix)
  average eigenvalue GAMMA=   1.4233
  2.5812  1.4030  1.2133  1.2133  0.7055

 Free energy of the ion-electron system (eV)
  ---------------------------------------------------
  alpha Z        PSCENC =        36.80884744
  Ewald energy   TEWEN  =     11958.38019596
  -Hartree energ DENC   =    -15087.02689590
  -exchange      EXHF   =         0.00000000
  -V(xc)+E(xc)   XCENC  =       -80.13717067
  PAW double counting   =      1174.61121071     -854.07676296
  entropy T*S    EENTRO =        -0.03579343
  eigenvalues    EBANDS =      -620.03835354
  atomic energy  EATOM  =      3354.04126044
  ---------------------------------------------------
  free energy    TOTEN  =      -117.47346194 eV

  energy without entropy =     -117.43766851  energy(sigma->0) =     -117.45556522


--------------------------------------------------------------------------------------------------------




----------------------------------------- Iteration    1(  11)  ---------------------------------------


    POTLOK:  cpu time   16.42: real time   16.43
    SETDIJ:  cpu time    0.02: real time    0.02
     EDDAV:  cpu time  130.96: real time  131.06
       DOS:  cpu time    0.01: real time    0.01
    CHARGE:  cpu time    6.85: real time    6.85
    MIXING:  cpu time    0.02: real time    0.02
    --------------------------------------------
      LOOP:  cpu time  154.29: real time  154.40

 eigenvalue-minimisations  :  9360
 total energy-change (2. order) : 0.9639499E-02  (-0.7948006E-03)
 number of electron     107.9999995 magnetization 
 augmentation part       -9.3701776 magnetization 

 Broyden mixing:
  rms(total) = 0.78412E-02    rms(broyden)= 0.78403E-02
  rms(prec ) = 0.93902E-02
  weight for this iteration     100.00

 eigenvalues of (default mixing * dielectric matrix)
  average eigenvalue GAMMA=   1.4119
  2.6714  1.7537  1.2082  1.2082  0.9155  0.7142

 Free energy of the ion-electron system (eV)
  ---------------------------------------------------
  alpha Z        PSCENC =        36.80884744
  Ewald energy   TEWEN  =     11958.38019596
  -Hartree energ DENC   =    -15088.38868714
  -exchange      EXHF   =         0.00000000
  -V(xc)+E(xc)   XCENC  =       -80.11761009
  PAW double counting   =      1172.89914732     -852.31978273
  entropy T*S    EENTRO =        -0.03525582
  eigenvalues    EBANDS =      -618.73193783
  atomic energy  EATOM  =      3354.04126044
  ---------------------------------------------------
  free energy    TOTEN  =      -117.46382244 eV

  energy without entropy =     -117.42856662  energy(sigma->0) =     -117.44619453


--------------------------------------------------------------------------------------------------------




----------------------------------------- Iteration    1(  12)  ---------------------------------------


    POTLOK:  cpu time   16.45: real time   16.46
    SETDIJ:  cpu time    0.02: real time    0.02
     EDDAV:  cpu time  133.95: real time  134.05
       DOS:  cpu time    0.01: real time    0.01
    CHARGE:  cpu time    6.94: real time    6.95
    MIXING:  cpu time    0.02: real time    0.02
    --------------------------------------------
      LOOP:  cpu time  157.39: real time  157.51

 eigenvalue-minimisations  :  9104
 total energy-change (2. order) : 0.5637430E-02  (-0.1177487E-03)
 number of electron     107.9999995 magnetization 
 augmentation part       -9.3707314 magnetization 

 Broyden mixing:
  rms(total) = 0.37837E-02    rms(broyden)= 0.37834E-02
  rms(prec ) = 0.53240E-02
  weight for this iteration     100.00

 eigenvalues of (default mixing * dielectric matrix)
  average eigenvalue GAMMA=   1.3974
  2.6793  2.0166  1.2451  1.2451  1.0056  0.8716  0.7187

 Free energy of the ion-electron system (eV)
  ---------------------------------------------------
  alpha Z        PSCENC =        36.80884744
  Ewald energy   TEWEN  =     11958.38019596
  -Hartree energ DENC   =    -15089.20983881
  -exchange      EXHF   =         0.00000000
  -V(xc)+E(xc)   XCENC  =       -80.10332943
  PAW double counting   =      1172.08483793     -851.48366516
  entropy T*S    EENTRO =        -0.03522456
  eigenvalues    EBANDS =      -617.94126882
  atomic energy  EATOM  =      3354.04126044
  ---------------------------------------------------
  free energy    TOTEN  =      -117.45818501 eV

  energy without entropy =     -117.42296045  energy(sigma->0) =     -117.44057273


--------------------------------------------------------------------------------------------------------




----------------------------------------- Iteration    1(  13)  ---------------------------------------


    POTLOK:  cpu time   16.45: real time   16.46
    SETDIJ:  cpu time    0.02: real time    0.02
     EDDAV:  cpu time  137.27: real time  137.39
       DOS:  cpu time    0.01: real time    0.01
    CHARGE:  cpu time    8.20: real time    8.21
    MIXING:  cpu time    0.03: real time    0.03
    --------------------------------------------
      LOOP:  cpu time  161.98: real time  162.12

 eigenvalue-minimisations  :  9272
 total energy-change (2. order) : 0.3948087E-02  (-0.4156558E-04)
 number of electron     107.9999995 magnetization 
 augmentation part       -9.3707459 magnetization 

 Broyden mixing:
  rms(total) = 0.22389E-02    rms(broyden)= 0.22387E-02
  rms(prec ) = 0.35447E-02
  weight for this iteration     100.00

 eigenvalues of (default mixing * dielectric matrix)
  average eigenvalue GAMMA=   1.3948
  2.7155  2.2675  1.4368  1.1625  1.1625  0.8919  0.7361  0.7851

 Free energy of the ion-electron system (eV)
  ---------------------------------------------------
  alpha Z        PSCENC =        36.80884744
  Ewald energy   TEWEN  =     11958.38019596
  -Hartree energ DENC   =    -15090.20049005
  -exchange      EXHF   =         0.00000000
  -V(xc)+E(xc)   XCENC  =       -80.09865422
  PAW double counting   =      1171.56209932     -850.94686957
  entropy T*S    EENTRO =        -0.03519442
  eigenvalues    EBANDS =      -616.96543184
  atomic energy  EATOM  =      3354.04126044
  ---------------------------------------------------
  free energy    TOTEN  =      -117.45423692 eV

  energy without entropy =     -117.41904250  energy(sigma->0) =     -117.43663971


--------------------------------------------------------------------------------------------------------




----------------------------------------- Iteration    1(  14)  ---------------------------------------


    POTLOK:  cpu time   16.88: real time   16.89
    SETDIJ:  cpu time    0.02: real time    0.02
     EDDAV:  cpu time  144.02: real time  144.15
       DOS:  cpu time    0.01: real time    0.01
    CHARGE:  cpu time    7.31: real time    7.32
    MIXING:  cpu time    0.02: real time    0.02
    --------------------------------------------
      LOOP:  cpu time  168.27: real time  168.42

 eigenvalue-minimisations  :  9304
 total energy-change (2. order) : 0.1873085E-02  (-0.1209134E-04)
 number of electron     107.9999995 magnetization 
 augmentation part       -9.3704947 magnetization 

 Broyden mixing:
  rms(total) = 0.13140E-02    rms(broyden)= 0.13139E-02
  rms(prec ) = 0.23527E-02
  weight for this iteration     100.00

 eigenvalues of (default mixing * dielectric matrix)
  average eigenvalue GAMMA=   1.4493
  2.9124  2.5437  1.7159  1.1532  1.1532  1.0492  1.0492  0.7098  0.7571

 Free energy of the ion-electron system (eV)
  ---------------------------------------------------
  alpha Z        PSCENC =        36.80884744
  Ewald energy   TEWEN  =     11958.38019596
  -Hartree energ DENC   =    -15091.03996401
  -exchange      EXHF   =         0.00000000
  -V(xc)+E(xc)   XCENC  =       -80.09399672
  PAW double counting   =      1171.31510923     -850.69380656
  entropy T*S    EENTRO =        -0.03526176
  eigenvalues    EBANDS =      -616.13474788
  atomic energy  EATOM  =      3354.04126044
  ---------------------------------------------------
  free energy    TOTEN  =      -117.45236384 eV

  energy without entropy =     -117.41710208  energy(sigma->0) =     -117.43473296


--------------------------------------------------------------------------------------------------------




----------------------------------------- Iteration    1(  15)  ---------------------------------------


    POTLOK:  cpu time   16.67: real time   16.74
    SETDIJ:  cpu time    0.02: real time    0.02
     EDDAV:  cpu time  132.95: real time  133.02
       DOS:  cpu time    0.01: real time    0.01
    CHARGE:  cpu time    7.55: real time    7.55
    MIXING:  cpu time    0.03: real time    0.03
    --------------------------------------------
      LOOP:  cpu time  157.24: real time  157.37

 eigenvalue-minimisations  :  8712
 total energy-change (2. order) : 0.8136025E-03  (-0.9353711E-05)
 number of electron     107.9999995 magnetization 
 augmentation part       -9.3702185 magnetization 

 Broyden mixing:
  rms(total) = 0.82115E-03    rms(broyden)= 0.82112E-03
  rms(prec ) = 0.14435E-02
  weight for this iteration     100.00

 eigenvalues of (default mixing * dielectric matrix)
  average eigenvalue GAMMA=   1.5141
  3.4003  2.6482  1.7384  1.7384  1.1481  1.1481  0.9324  0.9324  0.7164  0.7379

 Free energy of the ion-electron system (eV)
  ---------------------------------------------------
  alpha Z        PSCENC =        36.80884744
  Ewald energy   TEWEN  =     11958.38019596
  -Hartree energ DENC   =    -15092.03918889
  -exchange      EXHF   =         0.00000000
  -V(xc)+E(xc)   XCENC  =       -80.08796183
  PAW double counting   =      1171.18788311     -850.56365862
  entropy T*S    EENTRO =        -0.03524491
  eigenvalues    EBANDS =      -615.14368294
  atomic energy  EATOM  =      3354.04126044
  ---------------------------------------------------
  free energy    TOTEN  =      -117.45155024 eV

  energy without entropy =     -117.41630533  energy(sigma->0) =     -117.43392778


--------------------------------------------------------------------------------------------------------




----------------------------------------- Iteration    1(  16)  ---------------------------------------


    POTLOK:  cpu time   16.77: real time   16.79
    SETDIJ:  cpu time    0.02: real time    0.02
     EDDAV:  cpu time  126.87: real time  127.03
       DOS:  cpu time    0.01: real time    0.01
    CHARGE:  cpu time    7.47: real time    7.48
    MIXING:  cpu time    0.03: real time    0.03
    --------------------------------------------
      LOOP:  cpu time  151.18: real time  151.36

 eigenvalue-minimisations  :  8184
 total energy-change (2. order) :-0.1991076E-03  (-0.7120070E-05)
 number of electron     107.9999995 magnetization 
 augmentation part       -9.3702136 magnetization 

 Broyden mixing:
  rms(total) = 0.50346E-03    rms(broyden)= 0.50342E-03
  rms(prec ) = 0.85614E-03
  weight for this iteration     100.00

 eigenvalues of (default mixing * dielectric matrix)
  average eigenvalue GAMMA=   1.6166
  4.2295  2.7023  2.2803  1.5137  1.5137  1.1272  1.1272  0.9123  0.9123  0.7206
  0.7438

 Free energy of the ion-electron system (eV)
  ---------------------------------------------------
  alpha Z        PSCENC =        36.80884744
  Ewald energy   TEWEN  =     11958.38019596
  -Hartree energ DENC   =    -15092.75662351
  -exchange      EXHF   =         0.00000000
  -V(xc)+E(xc)   XCENC  =       -80.08434431
  PAW double counting   =      1171.17349749     -850.54893296
  entropy T*S    EENTRO =        -0.03523808
  eigenvalues    EBANDS =      -614.43041182
  atomic energy  EATOM  =      3354.04126044
  ---------------------------------------------------
  free energy    TOTEN  =      -117.45174934 eV

  energy without entropy =     -117.41651126  energy(sigma->0) =     -117.43413030


--------------------------------------------------------------------------------------------------------




----------------------------------------- Iteration    1(  17)  ---------------------------------------


    POTLOK:  cpu time   16.80: real time   16.81
    SETDIJ:  cpu time    0.02: real time    0.02
     EDDAV:  cpu time  123.14: real time  123.24
       DOS:  cpu time    0.01: real time    0.01
    CHARGE:  cpu time    6.91: real time    6.91
    MIXING:  cpu time    0.03: real time    0.03
    --------------------------------------------
      LOOP:  cpu time  146.91: real time  147.02

 eigenvalue-minimisations  :  8416
 total energy-change (2. order) :-0.5869117E-03  (-0.1466843E-04)
 number of electron     107.9999995 magnetization 
 augmentation part       -9.3701044 magnetization 

 Broyden mixing:
  rms(total) = 0.26632E-03    rms(broyden)= 0.26630E-03
  rms(prec ) = 0.47749E-03
  weight for this iteration     100.00

 eigenvalues of (default mixing * dielectric matrix)
  average eigenvalue GAMMA=   1.7164
  5.4653  2.8105  2.4094  1.7561  1.4218  1.1275  1.1275  1.2199  0.9019  0.9019
  0.7276  0.7276

 Free energy of the ion-electron system (eV)
  ---------------------------------------------------
  alpha Z        PSCENC =        36.80884744
  Ewald energy   TEWEN  =     11958.38019596
  -Hartree energ DENC   =    -15093.27087657
  -exchange      EXHF   =         0.00000000
  -V(xc)+E(xc)   XCENC  =       -80.08119117
  PAW double counting   =      1171.22681319     -850.60361257
  entropy T*S    EENTRO =        -0.03524685
  eigenvalues    EBANDS =      -613.91852613
  atomic energy  EATOM  =      3354.04126044
  ---------------------------------------------------
  free energy    TOTEN  =      -117.45233626 eV

  energy without entropy =     -117.41708940  energy(sigma->0) =     -117.43471283


--------------------------------------------------------------------------------------------------------




----------------------------------------- Iteration    1(  18)  ---------------------------------------


    POTLOK:  cpu time   16.40: real time   16.41
    SETDIJ:  cpu time    0.02: real time    0.02
     EDDAV:  cpu time  114.00: real time  114.09
       DOS:  cpu time    0.01: real time    0.01
    CHARGE:  cpu time    7.40: real time    7.41
    MIXING:  cpu time    0.03: real time    0.03
    --------------------------------------------
      LOOP:  cpu time  137.87: real time  137.97

 eigenvalue-minimisations  :  7680
 total energy-change (2. order) :-0.2187977E-03  (-0.8610481E-05)
 number of electron     107.9999995 magnetization 
 augmentation part       -9.3700808 magnetization 

 Broyden mixing:
  rms(total) = 0.16991E-03    rms(broyden)= 0.16990E-03
  rms(prec ) = 0.30534E-03
  weight for this iteration     100.00

 eigenvalues of (default mixing * dielectric matrix)
  average eigenvalue GAMMA=   1.7884
  6.1479  2.9470  2.6318  1.9640  1.4890  1.4890  1.1144  1.1144  1.0652  0.9144
  0.9144  0.7286  0.7286

 Free energy of the ion-electron system (eV)
  ---------------------------------------------------
  alpha Z        PSCENC =        36.80884744
  Ewald energy   TEWEN  =     11958.38019596
  -Hartree energ DENC   =    -15093.53513563
  -exchange      EXHF   =         0.00000000
  -V(xc)+E(xc)   XCENC  =       -80.08035160
  PAW double counting   =      1171.23856560     -850.61558833
  entropy T*S    EENTRO =        -0.03524040
  eigenvalues    EBANDS =      -613.65510854
  atomic energy  EATOM  =      3354.04126044
  ---------------------------------------------------
  free energy    TOTEN  =      -117.45255505 eV

  energy without entropy =     -117.41731465  energy(sigma->0) =     -117.43493485


--------------------------------------------------------------------------------------------------------




----------------------------------------- Iteration    1(  19)  ---------------------------------------


    POTLOK:  cpu time   16.62: real time   16.63
    SETDIJ:  cpu time    0.02: real time    0.02
     EDDAV:  cpu time  105.96: real time  106.09
       DOS:  cpu time    0.01: real time    0.01
    CHARGE:  cpu time    6.73: real time    6.73
    MIXING:  cpu time    0.03: real time    0.03
    --------------------------------------------
      LOOP:  cpu time  129.37: real time  129.52

 eigenvalue-minimisations  :  6688
 total energy-change (2. order) :-0.5492292E-04  (-0.2597042E-05)
 number of electron     107.9999995 magnetization 
 augmentation part       -9.3700759 magnetization 

 Broyden mixing:
  rms(total) = 0.11015E-03    rms(broyden)= 0.11014E-03
  rms(prec ) = 0.19211E-03
  weight for this iteration     100.00

 eigenvalues of (default mixing * dielectric matrix)
  average eigenvalue GAMMA=   1.8083
  6.4570  3.1424  2.6611  2.1142  1.7675  1.3600  1.3600  1.1218  1.1218  0.9127
  0.9127  0.9300  0.7277  0.7277

 Free energy of the ion-electron system (eV)
  ---------------------------------------------------
  alpha Z        PSCENC =        36.80884744
  Ewald energy   TEWEN  =     11958.38019596
  -Hartree energ DENC   =    -15093.68952669
  -exchange      EXHF   =         0.00000000
  -V(xc)+E(xc)   XCENC  =       -80.07979899
  PAW double counting   =      1171.24010845     -850.61708642
  entropy T*S    EENTRO =        -0.03524504
  eigenvalues    EBANDS =      -613.50136513
  atomic energy  EATOM  =      3354.04126044
  ---------------------------------------------------
  free energy    TOTEN  =      -117.45260998 eV

  energy without entropy =     -117.41736494  energy(sigma->0) =     -117.43498746


--------------------------------------------------------------------------------------------------------




----------------------------------------- Iteration    1(  20)  ---------------------------------------


    POTLOK:  cpu time   16.42: real time   16.43
    SETDIJ:  cpu time    0.02: real time    0.02
     EDDAV:  cpu time  109.55: real time  109.61
       DOS:  cpu time    0.01: real time    0.01
    CHARGE:  cpu time    5.30: real time    5.30
    MIXING:  cpu time    0.02: real time    0.02
    --------------------------------------------
      LOOP:  cpu time  131.33: real time  131.40

 eigenvalue-minimisations  :  6960
 total energy-change (2. order) :-0.5649147E-05  (-0.1633642E-05)
 number of electron     107.9999995 magnetization 
 augmentation part       -9.3700782 magnetization 

 Broyden mixing:
  rms(total) = 0.74652E-04    rms(broyden)= 0.74646E-04
  rms(prec ) = 0.12672E-03
  weight for this iteration     100.00

 eigenvalues of (default mixing * dielectric matrix)
  average eigenvalue GAMMA=   1.8560
  6.7871  3.5736  2.7470  2.3887  1.6854  1.5341  1.5341  1.1179  1.1179  1.0444
  1.0444  0.9053  0.9053  0.7273  0.7273

 Free energy of the ion-electron system (eV)
  ---------------------------------------------------
  alpha Z        PSCENC =        36.80884744
  Ewald energy   TEWEN  =     11958.38019596
  -Hartree energ DENC   =    -15093.72962414
  -exchange      EXHF   =         0.00000000
  -V(xc)+E(xc)   XCENC  =       -80.07983429
  PAW double counting   =      1171.23607458     -850.61292583
  entropy T*S    EENTRO =        -0.03524260
  eigenvalues    EBANDS =      -613.46136720
  atomic energy  EATOM  =      3354.04126044
  ---------------------------------------------------
  free energy    TOTEN  =      -117.45261563 eV

  energy without entropy =     -117.41737303  energy(sigma->0) =     -117.43499433


--------------------------------------------------------------------------------------------------------




----------------------------------------- Iteration    1(  21)  ---------------------------------------


    POTLOK:  cpu time   15.44: real time   15.45
    SETDIJ:  cpu time    0.02: real time    0.02
     EDDAV:  cpu time   90.36: real time   90.41
       DOS:  cpu time    0.01: real time    0.01
    CHARGE:  cpu time    5.23: real time    5.24
    MIXING:  cpu time    0.03: real time    0.03
    --------------------------------------------
      LOOP:  cpu time  111.09: real time  111.16

 eigenvalue-minimisations  :  6960
 total energy-change (2. order) : 0.4262608E-04  (-0.1628614E-05)
 number of electron     107.9999995 magnetization 
 augmentation part       -9.3700769 magnetization 

 Broyden mixing:
  rms(total) = 0.52678E-04    rms(broyden)= 0.52674E-04
  rms(prec ) = 0.77272E-04
  weight for this iteration     100.00

 eigenvalues of (default mixing * dielectric matrix)
  average eigenvalue GAMMA=   1.9147
  7.1096  4.2357  2.8001  2.5540  1.8143  1.8143  1.4169  1.4169  1.1284  1.1284
  0.7271  0.7271  0.9121  0.9121  0.9689  0.9689

 Free energy of the ion-electron system (eV)
  ---------------------------------------------------
  alpha Z        PSCENC =        36.80884744
  Ewald energy   TEWEN  =     11958.38019596
  -Hartree energ DENC   =    -15093.77003286
  -exchange      EXHF   =         0.00000000
  -V(xc)+E(xc)   XCENC  =       -80.07984432
  PAW double counting   =      1171.23100035     -850.60773022
  entropy T*S    EENTRO =        -0.03524101
  eigenvalues    EBANDS =      -613.42102879
  atomic energy  EATOM  =      3354.04126044
  ---------------------------------------------------
  free energy    TOTEN  =      -117.45257300 eV

  energy without entropy =     -117.41733199  energy(sigma->0) =     -117.43495249


--------------------------------------------------------------------------------------------------------




----------------------------------------- Iteration    1(  22)  ---------------------------------------


    POTLOK:  cpu time   15.45: real time   15.45
    SETDIJ:  cpu time    0.02: real time    0.02
     EDDAV:  cpu time   80.84: real time   80.90
       DOS:  cpu time    0.01: real time    0.01
    CHARGE:  cpu time    5.04: real time    5.05
    MIXING:  cpu time    0.02: real time    0.02
    --------------------------------------------
      LOOP:  cpu time  101.37: real time  101.45

 eigenvalue-minimisations  :  6264
 total energy-change (2. order) : 0.3095406E-04  (-0.9728723E-06)
 number of electron     107.9999995 magnetization 
 augmentation part       -9.3700777 magnetization 

 Broyden mixing:
  rms(total) = 0.29893E-04    rms(broyden)= 0.29891E-04
  rms(prec ) = 0.41778E-04
  weight for this iteration     100.00

 eigenvalues of (default mixing * dielectric matrix)
  average eigenvalue GAMMA=   2.0422
  7.7665  5.6045  3.0274  2.6519  2.2906  1.5237  1.5237  1.4282  1.4282  1.1270
  1.1270  0.7270  0.7270  0.9114  0.9114  0.9713  0.9713

 Free energy of the ion-electron system (eV)
  ---------------------------------------------------
  alpha Z        PSCENC =        36.80884744
  Ewald energy   TEWEN  =     11958.38019596
  -Hartree energ DENC   =    -15093.78098675
  -exchange      EXHF   =         0.00000000
  -V(xc)+E(xc)   XCENC  =       -80.07995707
  PAW double counting   =      1171.22892527     -850.60562843
  entropy T*S    EENTRO =        -0.03524197
  eigenvalues    EBANDS =      -613.40995694
  atomic energy  EATOM  =      3354.04126044
  ---------------------------------------------------
  free energy    TOTEN  =      -117.45254205 eV

  energy without entropy =     -117.41730008  energy(sigma->0) =     -117.43492106


--------------------------------------------------------------------------------------------------------




----------------------------------------- Iteration    1(  23)  ---------------------------------------


    POTLOK:  cpu time   15.55: real time   15.55
    SETDIJ:  cpu time    0.02: real time    0.02
     EDDAV:  cpu time   82.13: real time   82.29
       DOS:  cpu time    0.01: real time    0.01
    CHARGE:  cpu time    5.14: real time    5.15
    MIXING:  cpu time    0.03: real time    0.03
    --------------------------------------------
      LOOP:  cpu time  102.88: real time  103.05

 eigenvalue-minimisations  :  6488
 total energy-change (2. order) : 0.5588755E-04  (-0.7857492E-06)
 number of electron     107.9999995 magnetization 
 augmentation part       -9.3700784 magnetization 

 Broyden mixing:
  rms(total) = 0.13567E-04    rms(broyden)= 0.13565E-04
  rms(prec ) = 0.16966E-04
  weight for this iteration     100.00

 eigenvalues of (default mixing * dielectric matrix)
  average eigenvalue GAMMA=   2.0837
  8.0646  6.4624  3.0802  2.7098  2.3194  1.7328  1.7328  1.4421  1.4421  1.1288
  1.1288  0.7270  0.7270  0.9100  0.9100  1.0262  1.0262  0.9368

 Free energy of the ion-electron system (eV)
  ---------------------------------------------------
  alpha Z        PSCENC =        36.80884744
  Ewald energy   TEWEN  =     11958.38019596
  -Hartree energ DENC   =    -15093.79086294
  -exchange      EXHF   =         0.00000000
  -V(xc)+E(xc)   XCENC  =       -80.07995283
  PAW double counting   =      1171.22951039     -850.60624588
  entropy T*S    EENTRO =        -0.03524217
  eigenvalues    EBANDS =      -613.39999659
  atomic energy  EATOM  =      3354.04126044
  ---------------------------------------------------
  free energy    TOTEN  =      -117.45248616 eV

  energy without entropy =     -117.41724399  energy(sigma->0) =     -117.43486507


--------------------------------------------------------------------------------------------------------




----------------------------------------- Iteration    1(  24)  ---------------------------------------


    POTLOK:  cpu time   15.61: real time   15.64
    SETDIJ:  cpu time    0.02: real time    0.02
     EDDAV:  cpu time   81.47: real time   81.55
       DOS:  cpu time    0.01: real time    0.01
    CHARGE:  cpu time    5.11: real time    5.11
    MIXING:  cpu time    0.02: real time    0.02
    --------------------------------------------
      LOOP:  cpu time  102.25: real time  102.47

 eigenvalue-minimisations  :  6384
 total energy-change (2. order) : 0.1705468E-04  (-0.2908655E-06)
 number of electron     107.9999995 magnetization 
 augmentation part       -9.3700786 magnetization 

 Broyden mixing:
  rms(total) = 0.84007E-05    rms(broyden)= 0.83992E-05
  rms(prec ) = 0.10082E-04
  weight for this iteration     100.00

 eigenvalues of (default mixing * dielectric matrix)
  average eigenvalue GAMMA=   2.1430
  8.9485  6.5265  3.4562  2.7347  2.4511  1.9794  1.6063  1.6063  1.4455  1.4455
  1.1260  1.1260  0.7270  0.7270  0.9122  0.9122  1.0355  0.9752  0.9752

 Free energy of the ion-electron system (eV)
  ---------------------------------------------------
  alpha Z        PSCENC =        36.80884744
  Ewald energy   TEWEN  =     11958.38019596
  -Hartree energ DENC   =    -15093.79116186
  -exchange      EXHF   =         0.00000000
  -V(xc)+E(xc)   XCENC  =       -80.07995193
  PAW double counting   =      1171.23016196     -850.60691019
  entropy T*S    EENTRO =        -0.03524200
  eigenvalues    EBANDS =      -613.39966893
  atomic energy  EATOM  =      3354.04126044
  ---------------------------------------------------
  free energy    TOTEN  =      -117.45246910 eV

  energy without entropy =     -117.41722711  energy(sigma->0) =     -117.43484810


--------------------------------------------------------------------------------------------------------




----------------------------------------- Iteration    1(  25)  ---------------------------------------


    POTLOK:  cpu time   15.62: real time   15.65
    SETDIJ:  cpu time    0.02: real time    0.02
     EDDAV:  cpu time   83.40: real time   83.46
       DOS:  cpu time    0.01: real time    0.01
    CHARGE:  cpu time    4.93: real time    4.93
    MIXING:  cpu time    0.02: real time    0.02
    --------------------------------------------
      LOOP:  cpu time  104.01: real time  104.10

 eigenvalue-minimisations  :  6688
 total energy-change (2. order) : 0.1213608E-04  (-0.5987250E-06)
 number of electron     107.9999995 magnetization 
 augmentation part       -9.3700793 magnetization 

 Broyden mixing:
  rms(total) = 0.30706E-05    rms(broyden)= 0.30665E-05
  rms(prec ) = 0.38187E-05
  weight for this iteration     100.00

 eigenvalues of (default mixing * dielectric matrix)
  average eigenvalue GAMMA=   2.1276
  9.0478  6.8331  3.4916  2.8178  2.5101  1.8619  1.8619  1.6017  1.4395  1.4395
  1.1255  1.1255  0.7270  0.7270  0.9135  0.9135  1.1333  1.0743  0.9538  0.9538

 Free energy of the ion-electron system (eV)
  ---------------------------------------------------
  alpha Z        PSCENC =        36.80884744
  Ewald energy   TEWEN  =     11958.38019596
  -Hartree energ DENC   =    -15093.79117517
  -exchange      EXHF   =         0.00000000
  -V(xc)+E(xc)   XCENC  =       -80.07996280
  PAW double counting   =      1171.23029800     -850.60704779
  entropy T*S    EENTRO =        -0.03524199
  eigenvalues    EBANDS =      -613.39963106
  atomic energy  EATOM  =      3354.04126044
  ---------------------------------------------------
  free energy    TOTEN  =      -117.45245697 eV

  energy without entropy =     -117.41721498  energy(sigma->0) =     -117.43483597


--------------------------------------------------------------------------------------------------------




----------------------------------------- Iteration    1(  26)  ---------------------------------------


    POTLOK:  cpu time   15.59: real time   15.60
    SETDIJ:  cpu time    0.02: real time    0.02
     EDDAV:  cpu time   75.35: real time   75.40
       DOS:  cpu time    0.01: real time    0.01
    CHARGE:  cpu time    4.91: real time    4.92
    MIXING:  cpu time    0.02: real time    0.02
    --------------------------------------------
      LOOP:  cpu time   95.91: real time   95.98

 eigenvalue-minimisations  :  6000
 total energy-change (2. order) : 0.2110683E-05  (-0.2407281E-06)
 number of electron     107.9999995 magnetization 
 augmentation part       -9.3700794 magnetization 

 Broyden mixing:
  rms(total) = 0.18671E-05    rms(broyden)= 0.18654E-05
  rms(prec ) = 0.24351E-05
  weight for this iteration     100.00

 eigenvalues of (default mixing * dielectric matrix)
  average eigenvalue GAMMA=   2.1165
  9.1101  6.8274  3.7016  2.8536  2.5778  2.0503  2.0290  1.4491  1.4491  1.4890
  1.4890  1.1249  1.1249  0.7270  0.7270  0.9120  0.9120  1.0252  1.0252  0.9213
  0.9213

 Free energy of the ion-electron system (eV)
  ---------------------------------------------------
  alpha Z        PSCENC =        36.80884744
  Ewald energy   TEWEN  =     11958.38019596
  -Hartree energ DENC   =    -15093.79136338
  -exchange      EXHF   =         0.00000000
  -V(xc)+E(xc)   XCENC  =       -80.07996953
  PAW double counting   =      1171.23031770     -850.60706774
  entropy T*S    EENTRO =        -0.03524201
  eigenvalues    EBANDS =      -613.39943374
  atomic energy  EATOM  =      3354.04126044
  ---------------------------------------------------
  free energy    TOTEN  =      -117.45245486 eV

  energy without entropy =     -117.41721285  energy(sigma->0) =     -117.43483385


--------------------------------------------------------------------------------------------------------




----------------------------------------- Iteration    1(  27)  ---------------------------------------


    POTLOK:  cpu time   15.59: real time   15.60
    SETDIJ:  cpu time    0.02: real time    0.02
