<?xml version="1.0" encoding="ISO-8859-1"?>
<modeling>
 <generator>
  <i name="program" type="string">vasp </i>
  <i name="version" type="string">5.3.5  </i>
  <i name="subversion" type="string">31Mar14 (build Oct 29 2014 16:16:03) complex                          parallel </i>
  <i name="platform" type="string">Linux-UFHPC </i>
  <i name="date" type="string">2016 02 09 </i>
  <i name="time" type="string">17:31:03 </i>
 </generator>
 <incar>
  <i type="string" name="PREC">accurate</i>
  <i type="int" name="IBRION">     2</i>
  <i name="EDIFF">      0.00000100</i>
  <i type="int" name="NSW">     0</i>
  <i type="int" name="ISIF">     3</i>
  <i name="ENCUT">    300.00000000</i>
  <i type="string" name="LREAL"> Auto</i>
  <i type="int" name="ISMEAR">     0</i>
  <i name="SIGMA">      0.10000000</i>
  <i type="logical" name="LWAVE"> F  </i>
  <i type="logical" name="LCHARG"> F  </i>
  <i type="logical" name="LAECHG"> F  </i>
  <i type="string" name="GGA"> Bo</i>
  <i name="PARAM1">      0.18333333</i>
  <i name="PARAM2">      0.22000000</i>
  <i type="logical" name="LUSE_VDW"> T  </i>
  <i name="AGGAC">      0.00000000</i>
 </incar>
 <kpoints>
  <generation param="Gamma">
   <v type="int" name="divisions">      13        4        2 </v>
   <v name="usershift">      0.00000000       0.00000000       0.00000000 </v>
   <v name="genvec1">      0.07692308      -0.00000000       0.00000000 </v>
   <v name="genvec2">      0.00000000       0.25000000       0.00000000 </v>
   <v name="genvec3">      0.00000000       0.00000000       0.50000000 </v>
   <v name="shift">      0.00000000       0.00000000       0.00000000 </v>
  </generation>
  <varray name="kpointlist" >
   <v>       0.00000000       0.00000000       0.00000000 </v>
   <v>       0.07692308      -0.00000000       0.00000000 </v>
   <v>       0.15384615      -0.00000000       0.00000000 </v>
   <v>       0.23076923      -0.00000000       0.00000000 </v>
   <v>       0.30769231      -0.00000000       0.00000000 </v>
   <v>       0.38461538      -0.00000000       0.00000000 </v>
   <v>       0.46153846      -0.00000000       0.00000000 </v>
   <v>       0.00000000       0.25000000       0.00000000 </v>
   <v>       0.07692308       0.25000000       0.00000000 </v>
   <v>       0.15384615       0.25000000       0.00000000 </v>
   <v>       0.23076923       0.25000000       0.00000000 </v>
   <v>       0.30769231       0.25000000       0.00000000 </v>
   <v>       0.38461538       0.25000000       0.00000000 </v>
   <v>       0.46153846       0.25000000       0.00000000 </v>
   <v>      -0.46153846       0.25000000       0.00000000 </v>
   <v>      -0.38461538       0.25000000       0.00000000 </v>
   <v>      -0.30769231       0.25000000       0.00000000 </v>
   <v>      -0.23076923       0.25000000       0.00000000 </v>
   <v>      -0.15384615       0.25000000       0.00000000 </v>
   <v>      -0.07692308       0.25000000       0.00000000 </v>
   <v>       0.00000000       0.50000000       0.00000000 </v>
   <v>       0.07692308       0.50000000       0.00000000 </v>
   <v>       0.15384615       0.50000000       0.00000000 </v>
   <v>       0.23076923       0.50000000       0.00000000 </v>
   <v>       0.30769231       0.50000000       0.00000000 </v>
   <v>       0.38461538       0.50000000       0.00000000 </v>
   <v>       0.46153846       0.50000000       0.00000000 </v>
   <v>       0.00000000       0.00000000       0.50000000 </v>
   <v>       0.07692308      -0.00000000       0.50000000 </v>
   <v>       0.15384615      -0.00000000       0.50000000 </v>
   <v>       0.23076923      -0.00000000       0.50000000 </v>
   <v>       0.30769231      -0.00000000       0.50000000 </v>
   <v>       0.38461538      -0.00000000       0.50000000 </v>
   <v>       0.46153846      -0.00000000       0.50000000 </v>
   <v>       0.00000000       0.25000000       0.50000000 </v>
   <v>       0.07692308       0.25000000       0.50000000 </v>
   <v>       0.15384615       0.25000000       0.50000000 </v>
   <v>       0.23076923       0.25000000       0.50000000 </v>
   <v>       0.30769231       0.25000000       0.50000000 </v>
   <v>       0.38461538       0.25000000       0.50000000 </v>
   <v>       0.46153846       0.25000000       0.50000000 </v>
   <v>      -0.46153846       0.25000000       0.50000000 </v>
   <v>      -0.38461538       0.25000000       0.50000000 </v>
   <v>      -0.30769231       0.25000000       0.50000000 </v>
   <v>      -0.23076923       0.25000000       0.50000000 </v>
   <v>      -0.15384615       0.25000000       0.50000000 </v>
   <v>      -0.07692308       0.25000000       0.50000000 </v>
   <v>       0.00000000       0.50000000       0.50000000 </v>
   <v>       0.07692308       0.50000000       0.50000000 </v>
   <v>       0.15384615       0.50000000       0.50000000 </v>
   <v>       0.23076923       0.50000000       0.50000000 </v>
   <v>       0.30769231       0.50000000       0.50000000 </v>
   <v>       0.38461538       0.50000000       0.50000000 </v>
   <v>       0.46153846       0.50000000       0.50000000 </v>
  </varray>
  <varray name="weights" >
   <v>       0.00961538 </v>
   <v>       0.01923077 </v>
   <v>       0.01923077 </v>
   <v>       0.01923077 </v>
   <v>       0.01923077 </v>
   <v>       0.01923077 </v>
   <v>       0.01923077 </v>
   <v>       0.01923077 </v>
   <v>       0.01923077 </v>
   <v>       0.01923077 </v>
   <v>       0.01923077 </v>
   <v>       0.01923077 </v>
   <v>       0.01923077 </v>
   <v>       0.01923077 </v>
   <v>       0.01923077 </v>
   <v>       0.01923077 </v>
   <v>       0.01923077 </v>
   <v>       0.01923077 </v>
   <v>       0.01923077 </v>
   <v>       0.01923077 </v>
   <v>       0.00961538 </v>
   <v>       0.01923077 </v>
   <v>       0.01923077 </v>
   <v>       0.01923077 </v>
   <v>       0.01923077 </v>
   <v>       0.01923077 </v>
   <v>       0.01923077 </v>
   <v>       0.00961538 </v>
   <v>       0.01923077 </v>
   <v>       0.01923077 </v>
   <v>       0.01923077 </v>
   <v>       0.01923077 </v>
   <v>       0.01923077 </v>
   <v>       0.01923077 </v>
   <v>       0.01923077 </v>
   <v>       0.01923077 </v>
   <v>       0.01923077 </v>
   <v>       0.01923077 </v>
   <v>       0.01923077 </v>
   <v>       0.01923077 </v>
   <v>       0.01923077 </v>
   <v>       0.01923077 </v>
   <v>       0.01923077 </v>
   <v>       0.01923077 </v>
   <v>       0.01923077 </v>
   <v>       0.01923077 </v>
   <v>       0.01923077 </v>
   <v>       0.00961538 </v>
   <v>       0.01923077 </v>
   <v>       0.01923077 </v>
   <v>       0.01923077 </v>
   <v>       0.01923077 </v>
   <v>       0.01923077 </v>
   <v>       0.01923077 </v>
  </varray>
 </kpoints>
 <parameters>
  <separator name="general" >
   <i type="string" name="SYSTEM">unknown system</i>
   <i type="logical" name="LCOMPAT"> F  </i>
  </separator>
  <separator name="electronic" >
   <i type="string" name="PREC">accura</i>
   <i name="ENMAX">    300.00000000</i>
   <i name="ENAUG">    342.92400000</i>
   <i name="EDIFF">      0.00000100</i>
   <i type="int" name="IALGO">    38</i>
   <i type="int" name="IWAVPR">    10</i>
   <i type="int" name="NBANDS">    68</i>
   <i name="NELECT">    108.00000000</i>
   <i type="int" name="TURBO">     0</i>
   <i type="int" name="IRESTART">     0</i>
   <i type="int" name="NREBOOT">     0</i>
   <i type="int" name="NMIN">     0</i>
   <i name="EREF">      0.00000000</i>
   <separator name="electronic smearing" >
    <i type="int" name="ISMEAR">     0</i>
    <i name="SIGMA">      0.10000000</i>
    <i name="KSPACING">      0.50000000</i>
    <i type="logical" name="KGAMMA"> T  </i>
   </separator>
   <separator name="electronic projectors" >
    <i type="logical" name="LREAL"> T  </i>
    <v name="ROPT">     -0.00025000     -0.00025000</v>
    <i type="int" name="LMAXPAW">  -100</i>
    <i type="int" name="LMAXMIX">     2</i>
    <i type="logical" name="NLSPLINE"> F  </i>
   </separator>
   <separator name="electronic startup" >
    <i type="int" name="ISTART">     0</i>
    <i type="int" name="ICHARG">     2</i>
    <i type="int" name="INIWAV">     1</i>
   </separator>
   <separator name="electronic spin" >
    <i type="int" name="ISPIN">     1</i>
    <i type="logical" name="LNONCOLLINEAR"> F  </i>
    <v name="MAGMOM">      1.00000000      1.00000000      1.00000000      1.00000000      1.00000000      1.00000000      1.00000000      1.00000000      1.00000000      1.00000000      1.00000000      1.00000000      1.00000000      1.00000000      1.00000000      1.00000000      1.00000000      1.00000000      1.00000000      1.00000000
      1.00000000      1.00000000      1.00000000      1.00000000</v>
    <i name="NUPDOWN">     -1.00000000</i>
    <i type="logical" name="LSORBIT"> F  </i>
    <v name="SAXIS">      0.00000000      0.00000000      1.00000000</v>
    <i type="logical" name="LSPIRAL"> F  </i>
    <v name="QSPIRAL">      0.00000000      0.00000000      0.00000000</v>
    <i type="logical" name="LZEROZ"> F  </i>
   </separator>
   <separator name="electronic exchange-correlation" >
    <i type="logical" name="LASPH"> F  </i>
    <i type="logical" name="LMETAGGA"> F  </i>
   </separator>
   <separator name="electronic convergence" >
    <i type="int" name="NELM">    60</i>
    <i type="int" name="NELMDL">    -5</i>
    <i type="int" name="NELMIN">     2</i>
    <i name="ENINI">    300.00000000</i>
    <separator name="electronic convergence detail" >
     <i type="logical" name="LDIAG"> T  </i>
     <i type="logical" name="LSUBROT"> F  </i>
     <i name="WEIMIN">      0.00000000</i>
     <i name="EBREAK">      0.00000000</i>
     <i name="DEPER">      0.30000000</i>
     <i type="int" name="NRMM">     4</i>
     <i name="TIME">      0.40000000</i>
    </separator>
   </separator>
   <separator name="electronic mixer" >
    <i name="AMIX">      0.40000000</i>
    <i name="BMIX">      1.00000000</i>
    <i name="AMIN">      0.10000000</i>
    <i name="AMIX_MAG">      1.60000000</i>
    <i name="BMIX_MAG">      1.00000000</i>
    <separator name="electronic mixer details" >
     <i type="int" name="IMIX">     4</i>
     <i type="int" name="MAXMIX">   -45</i>
     <i name="WC">    100.00000000</i>
     <i type="int" name="INIMIX">     1</i>
     <i type="int" name="MIXPRE">     1</i>
     <i type="int" name="MREMOVE">     5</i>
    </separator>
   </separator>
   <separator name="electronic dipolcorrection" >
    <i type="logical" name="LDIPOL"> F  </i>
    <i type="logical" name="LMONO"> F  </i>
    <i type="int" name="IDIPOL">     0</i>
    <i name="EPSILON">      1.00000000</i>
    <v name="DIPOL">   -100.00000000   -100.00000000   -100.00000000</v>
    <i name="EFIELD">      0.00000000</i>
   </separator>
  </separator>
  <separator name="grids" >
   <i type="int" name="NGX">    20</i>
   <i type="int" name="NGY">    60</i>
   <i type="int" name="NGZ">   160</i>
   <i type="int" name="NGXF">    40</i>
   <i type="int" name="NGYF">   120</i>
   <i type="int" name="NGZF">   320</i>
   <i type="logical" name="ADDGRID"> F  </i>
  </separator>
  <separator name="ionic" >
   <i type="int" name="NSW">     0</i>
   <i type="int" name="IBRION">    -1</i>
   <i type="int" name="ISIF">     3</i>
   <i name="PSTRESS">      0.00000000</i>
   <i name="EDIFFG">      0.00001000</i>
   <i type="int" name="NFREE">     1</i>
   <i name="POTIM">      0.50000000</i>
   <i name="SMASS">     -3.00000000</i>
   <i name="SCALEE">      1.00000000</i>
  </separator>
  <separator name="ionic md" >
   <i name="TEBEG">      0.00010000</i>
   <i name="TEEND">      0.00010000</i>
   <i type="int" name="NBLOCK">     1</i>
   <i type="int" name="KBLOCK">     1</i>
   <i type="int" name="NPACO">   256</i>
   <i name="APACO">     16.00000000</i>
  </separator>
  <separator name="symmetry" >
   <i type="int" name="ISYM">     2</i>
   <i name="SYMPREC">      0.00001000</i>
  </separator>
  <separator name="dos" >
   <i type="logical" name="LORBIT"> F  </i>
   <v name="RWIGS">     -1.00000000     -1.00000000</v>
   <i type="int" name="NEDOS">   301</i>
   <i name="EMIN">     10.00000000</i>
   <i name="EMAX">    -10.00000000</i>
   <i name="EFERMI">      0.00000000</i>
  </separator>
  <separator name="writing" >
   <i type="int" name="NWRITE">     2</i>
   <i type="logical" name="LWAVE"> F  </i>
   <i type="logical" name="LCHARG"> F  </i>
   <i type="logical" name="LPARD"> F  </i>
   <i type="logical" name="LVTOT"> F  </i>
   <i type="logical" name="LVHAR"> F  </i>
   <i type="logical" name="LELF"> F  </i>
   <i type="logical" name="LOPTICS"> F  </i>
   <v name="STM">      0.00000000      0.00000000      0.00000000      0.00000000      0.00000000      0.00000000      0.00000000</v>
  </separator>
  <separator name="performance" >
   <i type="int" name="NPAR">     4</i>
   <i type="int" name="NSIM">     4</i>
   <i type="int" name="NBLK">    -1</i>
   <i type="logical" name="LPLANE"> T  </i>
   <i type="logical" name="LSCALAPACK"> T  </i>
   <i type="logical" name="LSCAAWARE"> F  </i>
   <i type="logical" name="LSCALU"> F  </i>
   <i type="logical" name="LASYNC"> F  </i>
   <i type="logical" name="LORBITALREAL"> F  </i>
  </separator>
  <separator name="miscellaneous" >
   <i type="int" name="IDIOT">     3</i>
   <i type="logical" name="LMUSIC"> F  </i>
   <v name="POMASS">     30.97400000     28.08500000</v>
   <v name="DARWINR">      0.00000000      0.00000000</v>
   <v name="DARWINV">      1.00000000      1.00000000</v>
   <i type="logical" name="LCORR"> T  </i>
  </separator>
  <i type="logical" name="GGA_COMPAT"> T  </i>
  <i type="logical" name="LBERRY"> F  </i>
  <i type="int" name="ICORELEVEL">     0</i>
  <i type="logical" name="LDAU"> F  </i>
  <i type="int" name="I_CONSTRAINED_M">     0</i>
  <separator name="electronic exchange-correlation" >
   <i type="string" name="GGA">BO</i>
   <i type="int" name="VOSKOWN">     0</i>
   <i type="logical" name="LHFCALC"> F  </i>
   <i type="string" name="PRECFOCK"></i>
   <i type="logical" name="LSYMGRAD"> F  </i>
   <i type="logical" name="LHFONE"> F  </i>
   <i type="logical" name="LRHFCALC"> F  </i>
   <i type="logical" name="LTHOMAS"> F  </i>
   <i type="logical" name="LMODELHF"> F  </i>
   <i name="ENCUT4O">     -1.00000000</i>
   <i type="int" name="EXXOEP">     0</i>
   <i type="int" name="FOURORBIT">     0</i>
   <i name="AEXX">      0.00000000</i>
   <i name="HFALPHA">      0.00000000</i>
   <i name="MCALPHA">      0.00000000</i>
   <i name="ALDAX">      1.00000000</i>
   <i name="AGGAX">      1.00000000</i>
   <i name="ALDAC">      1.00000000</i>
   <i name="AGGAC">      0.00000000</i>
   <i type="int" name="NKREDX">     1</i>
   <i type="int" name="NKREDY">     1</i>
   <i type="int" name="NKREDZ">     1</i>
   <i type="logical" name="SHIFTRED"> F  </i>
   <i type="logical" name="ODDONLY"> F  </i>
   <i type="logical" name="EVENONLY"> F  </i>
   <i type="int" name="LMAXFOCK">     0</i>
   <i type="int" name="NMAXFOCKAE">     0</i>
   <i type="logical" name="LFOCKAEDFT"> F  </i>
   <i name="HFSCREEN">      0.00000000</i>
   <i name="HFSCREENC">      0.00000000</i>
   <i type="int" name="NBANDSGWLOW">     0</i>
  </separator>
  <separator name="vdW DFT" >
   <i type="logical" name="LUSE_VDW"> T  </i>
   <i name="Zab_VDW">     -0.84910000</i>
   <i name="PARAM1">      0.18333333</i>
   <i name="PARAM2">      0.22000000</i>
   <i name="PARAM3">      0.00000000</i>
  </separator>
  <separator name="model GW" >
   <i type="int" name="MODEL_GW">     0</i>
   <i name="MODEL_EPS0">     25.05800243</i>
   <i name="MODEL_ALPHA">      1.00000000</i>
  </separator>
  <separator name="linear response parameters" >
   <i type="logical" name="LEPSILON"> F  </i>
   <i type="logical" name="LRPA"> F  </i>
   <i type="logical" name="LNABLA"> F  </i>
   <i type="logical" name="LVEL"> F  </i>
   <i type="int" name="KINTER">     0</i>
   <i name="CSHIFT">      0.10000000</i>
   <i name="OMEGAMAX">     -1.00000000</i>
   <i name="DEG_THRESHOLD">      0.00200000</i>
  </separator>
  <separator name="orbital magnetization" >
   <i type="logical" name="NUCIND"> F  </i>
   <v name="MAGPOS">      0.00000000      0.00000000      0.00000000</v>
   <i type="logical" name="LNICSALL"> T  </i>
   <i type="logical" name="ORBITALMAG"> F  </i>
   <i type="logical" name="LMAGBLOCH"> F  </i>
   <i type="logical" name="LCHIMAG"> F  </i>
   <i type="logical" name="LGAUGE"> T  </i>
   <i type="int" name="MAGATOM">     0</i>
   <v name="MAGDIPOL">      0.00000000      0.00000000      0.00000000</v>
   <v name="AVECCONST">      0.00000000      0.00000000      0.00000000</v>
  </separator>
  <separator name="response functions" >
   <i type="logical" name="LADDER"> F  </i>
   <i type="logical" name="LFXC"> F  </i>
   <i type="logical" name="LHARTREE"> T  </i>
   <i type="int" name="IBSE">     0</i>
   <i type="logical" name="LTCTE"> F  </i>
   <i type="logical" name="LTETE"> F  </i>
   <i type="logical" name="LTRIPLET"> F  </i>
   <i type="logical" name="LFXCEPS"> F  </i>
   <i type="logical" name="LFXHEG"> F  </i>
   <i type="logical" name="L2ORDER"> F  </i>
   <i type="logical" name="LUSEW"> F  </i>
   <i name="ENCUTGW">     -2.00000000</i>
   <i name="ENCUTGWSOFT">     -2.00000000</i>
   <i name="ENCUTLF">     -1.00000000</i>
   <i type="int" name="LMAXMP2">    -1</i>
   <i name="SCISSOR">      0.00000000</i>
   <i type="int" name="NOMEGA">     0</i>
   <i type="int" name="NOMEGAR">     0</i>
   <i type="int" name="NBANDSGW">    -1</i>
   <i type="int" name="NBANDSO">    -1</i>
   <i type="int" name="NBANDSV">    -1</i>
   <i type="int" name="NELM">     1</i>
   <i type="int" name="DIM">     3</i>
   <i type="int" name="ANTIRES">     0</i>
   <i name="OMEGAMAX">    -30.00000000</i>
   <i name="OMEGAMIN">    -30.00000000</i>
   <i name="OMEGATL">   -200.00000000</i>
   <i type="int" name="OMEGAGRID">     0</i>
   <i name="CSHIFT">     -0.10000000</i>
   <i type="logical" name="SELFENERGY"> F  </i>
   <i type="logical" name="LSPECTRAL"> F  </i>
   <i type="logical" name="ODDONLYGW"> F  </i>
   <i type="logical" name="EVENONLYGW"> F  </i>
   <i type="int" name="NKREDLFX">     1</i>
   <i type="int" name="NKREDLFY">     1</i>
   <i type="int" name="NKREDLFZ">     1</i>
   <i type="int" name="MAXMEM">  1800</i>
   <i type="int" name="TELESCOPE">     0</i>
   <i type="int" name="TAUPAR">     1</i>
  </separator>
  <separator name="External order field" >
   <i name="OFIELD_KAPPA">      0.00000000</i>
   <v name="OFIELD_K">      0.00000000      0.00000000      0.00000000</v>
   <i name="OFIELD_Q6_NEAR">      0.00000000</i>
   <i name="OFIELD_Q6_FAR">      0.00000000</i>
   <i name="OFIELD_A">      0.00000000</i>
  </separator>
 </parameters>
 <atominfo>
  <atoms>      24 </atoms>
  <types>       2 </types>
  <array name="atoms" >
   <dimension dim="1">ion</dimension>
   <field type="string">element</field>
   <field type="int">atomtype</field>
   <set>
    <rc><c>P </c><c>   1</c></rc>
    <rc><c>P </c><c>   1</c></rc>
    <rc><c>P </c><c>   1</c></rc>
    <rc><c>P </c><c>   1</c></rc>
    <rc><c>P </c><c>   1</c></rc>
    <rc><c>P </c><c>   1</c></rc>
    <rc><c>P </c><c>   1</c></rc>
    <rc><c>P </c><c>   1</c></rc>
    <rc><c>P </c><c>   1</c></rc>
    <rc><c>P </c><c>   1</c></rc>
    <rc><c>P </c><c>   1</c></rc>
    <rc><c>P </c><c>   1</c></rc>
    <rc><c>Si</c><c>   2</c></rc>
    <rc><c>Si</c><c>   2</c></rc>
    <rc><c>Si</c><c>   2</c></rc>
    <rc><c>Si</c><c>   2</c></rc>
    <rc><c>Si</c><c>   2</c></rc>
    <rc><c>Si</c><c>   2</c></rc>
    <rc><c>Si</c><c>   2</c></rc>
    <rc><c>Si</c><c>   2</c></rc>
    <rc><c>Si</c><c>   2</c></rc>
    <rc><c>Si</c><c>   2</c></rc>
    <rc><c>Si</c><c>   2</c></rc>
    <rc><c>Si</c><c>   2</c></rc>
   </set>
  </array>
  <array name="atomtypes" >
   <dimension dim="1">type</dimension>
   <field type="int">atomspertype</field>
   <field type="string">element</field>
   <field>mass</field>
   <field>valence</field>
   <field type="string">pseudopotential</field>
   <set>
    <rc><c>  12</c><c>P </c><c>     30.97400000</c><c>      5.00000000</c><c>  PAW_PBE P 17Jan2003                   </c></rc>
    <rc><c>  12</c><c>Si</c><c>     28.08500000</c><c>      4.00000000</c><c> PAW_PBE Si 05Jan2001                   </c></rc>
   </set>
  </array>
 </atominfo>
 <structure name="initialpos" >
  <crystal>
   <varray name="basis" >
    <v>       3.54040000       0.00000000       0.00000000 </v>
    <v>      -1.77020000      10.29434800       0.00000000 </v>
    <v>       0.00000000       0.00000000      27.50142900 </v>
   </varray>
   <i name="volume">   1002.32009712 </i>
   <varray name="rec_basis" >
    <v>       0.28245396       0.04857034       0.00000000 </v>
    <v>       0.00000000       0.09714068       0.00000000 </v>
    <v>       0.00000000       0.00000000       0.03636175 </v>
   </varray>
  </crystal>
  <varray name="positions" >
   <v>       0.11402300       0.22804500       0.23316207 </v>
   <v>       0.41402300       0.32804500       0.51499159 </v>
   <v>       0.45808900       0.91617900       0.20939482 </v>
   <v>       0.75808900       0.01617900       0.49122434 </v>
   <v>       0.31085400       0.62170900       0.08414979 </v>
   <v>       0.31085400       0.62170900       0.36597930 </v>
   <v>       0.99923000       0.99846000       0.08631254 </v>
   <v>       0.99923000       0.99846000       0.36814206 </v>
   <v>       0.65492700       0.30985400       0.06041748 </v>
   <v>       0.65492700       0.30985400       0.34224700 </v>
   <v>       0.76973800       0.53947500       0.20725292 </v>
   <v>       0.06973800       0.63947500       0.48908244 </v>
   <v>       0.93971600       0.87943300       0.15783749 </v>
   <v>       0.23971600       0.97943300       0.43966701 </v>
   <v>       0.20515200       0.41030300       0.18578822 </v>
   <v>       0.50515200       0.51030300       0.46761774 </v>
   <v>       0.20184900       0.40369900       0.09969156 </v>
   <v>       0.20184900       0.40369900       0.38152107 </v>
   <v>       0.56380500       0.12761000       0.10779021 </v>
   <v>       0.56380500       0.12761000       0.38961973 </v>
   <v>       0.56710600       0.13421200       0.19387616 </v>
   <v>       0.86710600       0.23421200       0.47570568 </v>
   <v>       0.82923400       0.65846800       0.13571444 </v>
   <v>       0.12923400       0.75846800       0.41754396 </v>
  </varray>
 </structure>
 <calculation>
  <scstep>
   <time name="dav">   53.63   53.67</time>
   <time name="total">   66.70   66.76</time>
   <energy>
    <i name="alphaZ">     36.80884744 </i>
    <i name="ewald">  11893.33395568 </i>
    <i name="hartreedc"> -14950.53981450 </i>
    <i name="XCdc">    -88.24415342 </i>
    <i name="pawpsdc">   1056.43050070 </i>
    <i name="pawaedc">   -732.41190547 </i>
    <i name="eentropy">     -0.04028618 </i>
    <i name="bandstr">    -85.17772861 </i>
    <i name="atom">   3354.04126044 </i>
    <i name="e_fr_energy">    484.20067609 </i>
    <i name="e_wo_entrp">    484.24096227 </i>
    <i name="e_0_energy">    484.22081918 </i>
   </energy>
  </scstep>
  <scstep>
   <time name="dav">   67.22   67.25</time>
   <time name="total">   67.23   67.27</time>
   <energy>
    <i name="e_fr_energy">    -70.66244306 </i>
    <i name="e_wo_entrp">    -70.63876146 </i>
    <i name="e_0_energy">    -70.65060226 </i>
   </energy>
  </scstep>
  <scstep>
   <time name="dav">   61.49   61.58</time>
   <time name="total">   61.50   61.59</time>
   <energy>
    <i name="e_fr_energy">   -125.46614139 </i>
    <i name="e_wo_entrp">   -125.43831436 </i>
    <i name="e_0_energy">   -125.45222788 </i>
   </energy>
  </scstep>
  <scstep>
   <time name="dav">   73.86   73.91</time>
   <time name="total">   73.87   73.92</time>
   <energy>
    <i name="e_fr_energy">   -127.84958770 </i>
    <i name="e_wo_entrp">   -127.82033681 </i>
    <i name="e_0_energy">   -127.83496226 </i>
   </energy>
  </scstep>
  <scstep>
   <time name="dav">   69.10   69.15</time>
   <time name="total">   72.75   72.79</time>
   <energy>
    <i name="e_fr_energy">   -127.90757965 </i>
    <i name="e_wo_entrp">   -127.87812416 </i>
    <i name="e_0_energy">   -127.89285191 </i>
   </energy>
  </scstep>
  <scstep>
   <time name="dav">   62.81   62.87</time>
   <time name="total">   78.11   78.18</time>
   <energy>
    <i name="e_fr_energy">   -126.24078404 </i>
    <i name="e_wo_entrp">   -126.20945348 </i>
    <i name="e_0_energy">   -126.22511876 </i>
   </energy>
  </scstep>
  <scstep>
   <time name="dav">   63.21   63.26</time>
   <time name="total">   78.49   78.54</time>
   <energy>
    <i name="e_fr_energy">   -126.01741798 </i>
    <i name="e_wo_entrp">   -125.98426896 </i>
    <i name="e_0_energy">   -126.00084347 </i>
   </energy>
  </scstep>
  <scstep>
   <time name="dav">   63.93   63.96</time>
   <time name="total">   79.26   79.30</time>
   <energy>
    <i name="e_fr_energy">   -126.01156206 </i>
    <i name="e_wo_entrp">   -125.97998977 </i>
    <i name="e_0_energy">   -125.99577592 </i>
   </energy>
  </scstep>
  <scstep>
   <time name="dav">   64.63   64.67</time>
   <time name="total">   79.89   79.94</time>
   <energy>
    <i name="e_fr_energy">   -125.99056447 </i>
    <i name="e_wo_entrp">   -125.95792489 </i>
    <i name="e_0_energy">   -125.97424468 </i>
   </energy>
  </scstep>
  <scstep>
   <time name="dav">   64.01   64.05</time>
   <time name="total">   79.32   79.38</time>
   <energy>
    <i name="e_fr_energy">   -125.97952914 </i>
    <i name="e_wo_entrp">   -125.94767547 </i>
    <i name="e_0_energy">   -125.96360231 </i>
   </energy>
  </scstep>
  <scstep>
   <time name="dav">   62.97   63.01</time>
   <time name="total">   78.18   78.22</time>
   <energy>
    <i name="e_fr_energy">   -125.97362562 </i>
    <i name="e_wo_entrp">   -125.94135252 </i>
    <i name="e_0_energy">   -125.95748907 </i>
   </energy>
  </scstep>
  <scstep>
   <time name="dav">   61.54   61.57</time>
   <time name="total">   76.78   76.85</time>
   <energy>
    <i name="e_fr_energy">   -125.96998409 </i>
    <i name="e_wo_entrp">   -125.93784689 </i>
    <i name="e_0_energy">   -125.95391549 </i>
   </energy>
  </scstep>
  <scstep>
   <time name="dav">   69.20   69.24</time>
   <time name="total">   84.44   84.50</time>
   <energy>
    <i name="e_fr_energy">   -125.96809882 </i>
    <i name="e_wo_entrp">   -125.93599983 </i>
    <i name="e_0_energy">   -125.95204933 </i>
   </energy>
  </scstep>
  <scstep>
   <time name="dav">   61.16   61.21</time>
   <time name="total">   76.42   76.48</time>
   <energy>
    <i name="e_fr_energy">   -125.96704935 </i>
    <i name="e_wo_entrp">   -125.93492045 </i>
    <i name="e_0_energy">   -125.95098490 </i>
   </energy>
  </scstep>
  <scstep>
   <time name="dav">   58.89   58.92</time>
   <time name="total">   74.12   74.16</time>
   <energy>
    <i name="e_fr_energy">   -125.96712130 </i>
    <i name="e_wo_entrp">   -125.93501511 </i>
    <i name="e_0_energy">   -125.95106820 </i>
   </energy>
  </scstep>
  <scstep>
   <time name="dav">   59.49   59.52</time>
   <time name="total">   74.78   74.82</time>
   <energy>
    <i name="e_fr_energy">   -125.96778420 </i>
    <i name="e_wo_entrp">   -125.93567083 </i>
    <i name="e_0_energy">   -125.95172752 </i>
   </energy>
  </scstep>
  <scstep>
   <time name="dav">   55.98   56.01</time>
   <time name="total">   71.25   71.29</time>
   <energy>
    <i name="e_fr_energy">   -125.96799432 </i>
    <i name="e_wo_entrp">   -125.93588114 </i>
    <i name="e_0_energy">   -125.95193773 </i>
   </energy>
  </scstep>
  <scstep>
   <time name="dav">   49.24   49.26</time>
   <time name="total">   64.57   64.61</time>
   <energy>
    <i name="e_fr_energy">   -125.96799098 </i>
    <i name="e_wo_entrp">   -125.93587650 </i>
    <i name="e_0_energy">   -125.95193374 </i>
   </energy>
  </scstep>
  <scstep>
   <time name="dav">   53.40   53.44</time>
   <time name="total">   68.99   69.04</time>
   <energy>
    <i name="e_fr_energy">   -125.96801759 </i>
    <i name="e_wo_entrp">   -125.93590406 </i>
    <i name="e_0_energy">   -125.95196083 </i>
   </energy>
  </scstep>
  <scstep>
   <time name="dav">   54.27   54.30</time>
   <time name="total">   69.84   69.88</time>
   <energy>
    <i name="e_fr_energy">   -125.96801535 </i>
    <i name="e_wo_entrp">   -125.93590160 </i>
    <i name="e_0_energy">   -125.95195848 </i>
   </energy>
  </scstep>
  <scstep>
   <time name="dav">   52.90   52.94</time>
   <time name="total">   68.52   68.56</time>
   <energy>
    <i name="e_fr_energy">   -125.96794521 </i>
    <i name="e_wo_entrp">   -125.93583102 </i>
    <i name="e_0_energy">   -125.95188811 </i>
   </energy>
  </scstep>
  <scstep>
   <time name="dav">   52.08   52.11</time>
   <time name="total">   67.73   67.77</time>
   <energy>
    <i name="e_fr_energy">   -125.96789688 </i>
    <i name="e_wo_entrp">   -125.93578288 </i>
    <i name="e_0_energy">   -125.95183988 </i>
   </energy>
  </scstep>
  <scstep>
   <time name="dav">   50.08   50.11</time>
   <time name="total">   65.43   65.46</time>
   <energy>
    <i name="e_fr_energy">   -125.96788676 </i>
    <i name="e_wo_entrp">   -125.93577279 </i>
    <i name="e_0_energy">   -125.95182977 </i>
   </energy>
  </scstep>
  <scstep>
   <time name="dav">   51.01   51.04</time>
   <time name="total">   66.38   66.43</time>
   <energy>
    <i name="e_fr_energy">   -125.96787527 </i>
    <i name="e_wo_entrp">   -125.93576130 </i>
    <i name="e_0_energy">   -125.95181829 </i>
   </energy>
  </scstep>
  <scstep>
   <time name="dav">   47.66   47.71</time>
   <time name="total">   59.54   59.59</time>
   <energy>
    <i name="alphaZ">     36.80884744 </i>
    <i name="ewald">  11893.33395568 </i>
    <i name="hartreedc"> -15034.76362135 </i>
    <i name="XCdc">    -80.83377481 </i>
    <i name="pawpsdc">   1154.08723664 </i>
    <i name="pawaedc">   -832.75286163 </i>
    <i name="eentropy">     -0.03211399 </i>
    <i name="bandstr">   -615.85680317 </i>
    <i name="atom">   3354.04126044 </i>
    <i name="e_fr_energy">   -125.96787475 </i>
    <i name="e_wo_entrp">   -125.93576075 </i>
    <i name="e_0_energy">   -125.95181775 </i>
   </energy>
  </scstep>
  <structure>
   <crystal>
    <varray name="basis" >
     <v>       3.54040000       0.00000000       0.00000000 </v>
     <v>      -1.77020000      10.29434800       0.00000000 </v>
     <v>       0.00000000       0.00000000      27.50142900 </v>
    </varray>
    <i name="volume">   1002.32009712 </i>
    <varray name="rec_basis" >
     <v>       0.28245396       0.04857034       0.00000000 </v>
     <v>       0.00000000       0.09714068       0.00000000 </v>
     <v>       0.00000000       0.00000000       0.03636175 </v>
    </varray>
   </crystal>
   <varray name="positions" >
    <v>       0.11402300       0.22804500       0.23316207 </v>
    <v>       0.41402300       0.32804500       0.51499159 </v>
    <v>       0.45808900       0.91617900       0.20939482 </v>
    <v>       0.75808900       0.01617900       0.49122434 </v>
    <v>       0.31085400       0.62170900       0.08414979 </v>
    <v>       0.31085400       0.62170900       0.36597930 </v>
    <v>       0.99923000       0.99846000       0.08631254 </v>
    <v>       0.99923000       0.99846000       0.36814206 </v>
    <v>       0.65492700       0.30985400       0.06041748 </v>
    <v>       0.65492700       0.30985400       0.34224700 </v>
    <v>       0.76973800       0.53947500       0.20725292 </v>
    <v>       0.06973800       0.63947500       0.48908244 </v>
    <v>       0.93971600       0.87943300       0.15783749 </v>
    <v>       0.23971600       0.97943300       0.43966701 </v>
    <v>       0.20515200       0.41030300       0.18578822 </v>
    <v>       0.50515200       0.51030300       0.46761774 </v>
    <v>       0.20184900       0.40369900       0.09969156 </v>
    <v>       0.20184900       0.40369900       0.38152107 </v>
    <v>       0.56380500       0.12761000       0.10779021 </v>
    <v>       0.56380500       0.12761000       0.38961973 </v>
    <v>       0.56710600       0.13421200       0.19387616 </v>
    <v>       0.86710600       0.23421200       0.47570568 </v>
    <v>       0.82923400       0.65846800       0.13571444 </v>
    <v>       0.12923400       0.75846800       0.41754396 </v>
   </varray>
  </structure>
  <varray name="forces" >
   <v>       0.00766790      -0.03608355       0.01966742 </v>
   <v>       0.23854044      -0.24535323       0.28065830 </v>
   <v>       0.00038662      -0.01340150       0.08774291 </v>
   <v>       0.56080398      -0.54849026       1.26385853 </v>
   <v>       0.00119775      -0.00516027       0.00618647 </v>
   <v>       0.72155716       0.60231874      -1.51948903 </v>
   <v>      -0.00197566       0.00284644       0.00594476 </v>
   <v>      -0.88588894       0.36431957      -2.56626477 </v>
   <v>       0.00115854      -0.00102211       0.01877360 </v>
   <v>      -0.34485102       0.41651209      -0.47641590 </v>
   <v>       0.00159226       0.00510695       0.09575514 </v>
   <v>      -0.30424264      -0.23199796       0.16336821 </v>
   <v>       0.00246277      -0.00322887       0.01259666 </v>
   <v>      -0.88093376      -1.93964141       2.86536786 </v>
   <v>      -0.00276904       0.02981409       0.06189915 </v>
   <v>      -0.28701469      -0.33005365      -0.32484258 </v>
   <v>      -0.00117887      -0.00262535      -0.02999610 </v>
   <v>       0.14389672       0.57168351       1.12693600 </v>
   <v>      -0.00211864      -0.00542705      -0.03431947 </v>
   <v>       1.23610288       2.77719168      -1.54700890 </v>
   <v>      -0.00285265      -0.03453631       0.02169838 </v>
   <v>      -0.02718551      -0.06401040      -0.66205938 </v>
   <v>       0.00126242       0.00429802       0.00042320 </v>
   <v>      -0.17561801      -1.31305917       1.12951954 </v>
  </varray>
  <varray name="stress" >
   <v>      -6.48869377       0.68269154      -0.04651796 </v>
   <v>       0.68269131       4.67480798     -13.62959229 </v>
   <v>      -0.04651801     -13.62959225      12.89623042 </v>
  </varray>
  <energy>
   <i name="e_fr_energy">   -125.96787475 </i>
   <i name="e_wo_entrp">   -125.95181775 </i>
   <i name="e_0_energy">     -0.03211399 </i>
  </energy>
  <time name="totalsc"> 1896.86 1898.18</time>
  <eigenvalues>
   <array>
    <dimension dim="1">band</dimension>
    <dimension dim="2">kpoint</dimension>
    <dimension dim="3">spin</dimension>
    <field>eigene</field>
    <field>occ</field>
    <set>
     <set comment="spin 1">
      <set comment="kpoint 1">
       <r>  -14.0317    1.0000 </r>
       <r>  -13.6079    1.0000 </r>
       <r>  -12.8672    1.0000 </r>
       <r>  -12.7351    1.0000 </r>
       <r>  -12.5638    1.0000 </r>
       <r>  -12.3979    1.0000 </r>
       <r>  -12.1513    1.0000 </r>
       <r>  -11.9454    1.0000 </r>
       <r>  -11.4991    1.0000 </r>
       <r>  -11.3396    1.0000 </r>
       <r>  -11.0574    1.0000 </r>
       <r>  -10.6174    1.0000 </r>
       <r>   -8.2282    1.0000 </r>
       <r>   -8.0929    1.0000 </r>
       <r>   -7.8960    1.0000 </r>
       <r>   -7.7178    1.0000 </r>
       <r>   -6.9337    1.0000 </r>
       <r>   -6.7130    1.0000 </r>
       <r>   -6.5602    1.0000 </r>
       <r>   -6.2877    1.0000 </r>
       <r>   -5.8924    1.0000 </r>
       <r>   -5.7426    1.0000 </r>
       <r>   -4.9600    1.0000 </r>
       <r>   -4.7818    1.0000 </r>
       <r>   -4.1318    1.0000 </r>
       <r>   -3.8580    1.0000 </r>
       <r>   -3.7521    1.0000 </r>
       <r>   -3.4055    1.0000 </r>
       <r>   -3.3039    1.0000 </r>
       <r>   -3.1242    1.0000 </r>
       <r>   -3.0231    1.0000 </r>
       <r>   -2.9426    1.0000 </r>
       <r>   -2.9094    1.0000 </r>
       <r>   -2.8595    1.0000 </r>
       <r>   -2.5123    1.0000 </r>
       <r>   -2.4630    1.0000 </r>
       <r>   -2.4448    1.0000 </r>
       <r>   -2.3782    1.0000 </r>
       <r>   -2.2366    1.0000 </r>
       <r>   -2.1486    1.0000 </r>
       <r>   -1.9386    1.0000 </r>
       <r>   -1.7950    1.0000 </r>
       <r>   -1.7518    1.0000 </r>
       <r>   -1.7092    1.0000 </r>
       <r>   -1.6370    1.0000 </r>
       <r>   -1.6122    1.0000 </r>
       <r>   -1.4986    1.0000 </r>
       <r>   -1.4164    1.0000 </r>
       <r>   -1.2210    1.0000 </r>
       <r>   -1.1652    1.0000 </r>
       <r>   -1.0761    1.0000 </r>
       <r>   -0.6370    1.0000 </r>
       <r>   -0.3346    0.9988 </r>
       <r>    0.2101    0.0000 </r>
       <r>    0.2755    0.0000 </r>
       <r>    0.9282    0.0000 </r>
       <r>    1.0953    0.0000 </r>
       <r>    1.2500    0.0000 </r>
       <r>    1.3387    0.0000 </r>
       <r>    1.4689    0.0000 </r>
       <r>    1.6554    0.0000 </r>
       <r>    1.9103    0.0000 </r>
       <r>    1.9341    0.0000 </r>
       <r>    2.0429    0.0000 </r>
       <r>    2.3620    0.0000 </r>
       <r>    2.3985    0.0000 </r>
       <r>    2.5745    0.0000 </r>
       <r>    2.7159    0.0000 </r>
      </set>
      <set comment="kpoint 2">
       <r>  -13.9716    1.0000 </r>
       <r>  -13.5465    1.0000 </r>
       <r>  -12.8151    1.0000 </r>
       <r>  -12.6813    1.0000 </r>
       <r>  -12.5081    1.0000 </r>
       <r>  -12.3426    1.0000 </r>
       <r>  -12.0893    1.0000 </r>
       <r>  -11.8927    1.0000 </r>
       <r>  -11.4502    1.0000 </r>
       <r>  -11.2933    1.0000 </r>
       <r>  -11.0090    1.0000 </r>
       <r>  -10.5777    1.0000 </r>
       <r>   -8.2196    1.0000 </r>
       <r>   -8.1280    1.0000 </r>
       <r>   -7.8595    1.0000 </r>
       <r>   -7.6862    1.0000 </r>
       <r>   -6.9032    1.0000 </r>
       <r>   -6.7089    1.0000 </r>
       <r>   -6.5544    1.0000 </r>
       <r>   -6.3100    1.0000 </r>
       <r>   -5.8593    1.0000 </r>
       <r>   -5.7322    1.0000 </r>
       <r>   -4.9471    1.0000 </r>
       <r>   -4.7857    1.0000 </r>
       <r>   -4.1439    1.0000 </r>
       <r>   -3.8995    1.0000 </r>
       <r>   -3.7720    1.0000 </r>
       <r>   -3.7151    1.0000 </r>
       <r>   -3.5800    1.0000 </r>
       <r>   -3.3815    1.0000 </r>
       <r>   -3.3074    1.0000 </r>
       <r>   -3.2378    1.0000 </r>
       <r>   -3.0511    1.0000 </r>
       <r>   -2.8975    1.0000 </r>
       <r>   -2.7979    1.0000 </r>
       <r>   -2.7701    1.0000 </r>
       <r>   -2.5720    1.0000 </r>
       <r>   -2.5285    1.0000 </r>
       <r>   -2.3401    1.0000 </r>
       <r>   -2.2680    1.0000 </r>
       <r>   -2.1366    1.0000 </r>
       <r>   -2.0314    1.0000 </r>
       <r>   -2.0125    1.0000 </r>
       <r>   -1.9194    1.0000 </r>
       <r>   -1.8189    1.0000 </r>
       <r>   -1.7107    1.0000 </r>
       <r>   -1.5625    1.0000 </r>
       <r>   -1.3784    1.0000 </r>
       <r>   -1.1602    1.0000 </r>
       <r>   -1.1234    1.0000 </r>
       <r>   -1.0424    1.0000 </r>
       <r>   -0.6477    1.0000 </r>
       <r>   -0.3483    0.9994 </r>
       <r>   -0.0355    0.1165 </r>
       <r>    0.3819    0.0000 </r>
       <r>    1.0453    0.0000 </r>
       <r>    1.4751    0.0000 </r>
       <r>    1.5233    0.0000 </r>
       <r>    1.6928    0.0000 </r>
       <r>    1.7861    0.0000 </r>
       <r>    2.0620    0.0000 </r>
       <r>    2.1383    0.0000 </r>
       <r>    2.1833    0.0000 </r>
       <r>    2.2577    0.0000 </r>
       <r>    2.5404    0.0000 </r>
       <r>    2.5779    0.0000 </r>
       <r>    2.6989    0.0000 </r>
       <r>    2.9219    0.0000 </r>
      </set>
      <set comment="kpoint 3">
       <r>  -13.7924    1.0000 </r>
       <r>  -13.3635    1.0000 </r>
       <r>  -12.6593    1.0000 </r>
       <r>  -12.5221    1.0000 </r>
       <r>  -12.3429    1.0000 </r>
       <r>  -12.1792    1.0000 </r>
       <r>  -11.9079    1.0000 </r>
       <r>  -11.7393    1.0000 </r>
       <r>  -11.3082    1.0000 </r>
       <r>  -11.1603    1.0000 </r>
       <r>  -10.8702    1.0000 </r>
       <r>  -10.4653    1.0000 </r>
       <r>   -8.2421    1.0000 </r>
       <r>   -8.1731    1.0000 </r>
       <r>   -7.8180    1.0000 </r>
       <r>   -7.6524    1.0000 </r>
       <r>   -6.8650    1.0000 </r>
       <r>   -6.7458    1.0000 </r>
       <r>   -6.5666    1.0000 </r>
       <r>   -6.3738    1.0000 </r>
       <r>   -5.7867    1.0000 </r>
       <r>   -5.7253    1.0000 </r>
       <r>   -4.9743    1.0000 </r>
       <r>   -4.9039    1.0000 </r>
       <r>   -4.5214    1.0000 </r>
       <r>   -4.2837    1.0000 </r>
       <r>   -4.1583    1.0000 </r>
       <r>   -4.0613    1.0000 </r>
       <r>   -4.0000    1.0000 </r>
       <r>   -3.8444    1.0000 </r>
       <r>   -3.7679    1.0000 </r>
       <r>   -3.6178    1.0000 </r>
       <r>   -3.6064    1.0000 </r>
       <r>   -3.2926    1.0000 </r>
       <r>   -3.2669    1.0000 </r>
       <r>   -3.1041    1.0000 </r>
       <r>   -3.0288    1.0000 </r>
       <r>   -2.9693    1.0000 </r>
       <r>   -2.7590    1.0000 </r>
       <r>   -2.5869    1.0000 </r>
       <r>   -2.4519    1.0000 </r>
       <r>   -2.4391    1.0000 </r>
       <r>   -2.2183    1.0000 </r>
       <r>   -2.0383    1.0000 </r>
       <r>   -1.8553    1.0000 </r>
       <r>   -1.7788    1.0000 </r>
       <r>   -1.6681    1.0000 </r>
       <r>   -1.3966    1.0000 </r>
       <r>   -1.2504    1.0000 </r>
       <r>   -1.1230    1.0000 </r>
       <r>   -1.0536    1.0000 </r>
       <r>   -0.8271    1.0000 </r>
       <r>   -0.6026    1.0000 </r>
       <r>   -0.2130    0.9063 </r>
       <r>    0.5260    0.0000 </r>
       <r>    1.0696    0.0000 </r>
       <r>    1.6881    0.0000 </r>
       <r>    1.8815    0.0000 </r>
       <r>    2.1370    0.0000 </r>
       <r>    2.1986    0.0000 </r>
       <r>    2.2762    0.0000 </r>
       <r>    2.3744    0.0000 </r>
       <r>    2.5550    0.0000 </r>
       <r>    2.5982    0.0000 </r>
       <r>    2.8442    0.0000 </r>
       <r>    2.9260    0.0000 </r>
       <r>    2.9874    0.0000 </r>
       <r>    3.0509    0.0000 </r>
      </set>
      <set comment="kpoint 4">
       <r>  -13.4986    1.0000 </r>
       <r>  -13.0625    1.0000 </r>
       <r>  -12.4030    1.0000 </r>
       <r>  -12.2646    1.0000 </r>
       <r>  -12.0754    1.0000 </r>
       <r>  -11.9156    1.0000 </r>
       <r>  -11.6222    1.0000 </r>
       <r>  -11.5030    1.0000 </r>
       <r>  -11.0912    1.0000 </r>
       <r>  -10.9637    1.0000 </r>
       <r>  -10.6671    1.0000 </r>
       <r>  -10.3042    1.0000 </r>
       <r>   -8.4269    1.0000 </r>
       <r>   -8.1807    1.0000 </r>
       <r>   -7.8917    1.0000 </r>
       <r>   -7.8085    1.0000 </r>
       <r>   -7.0585    1.0000 </r>
       <r>   -6.7619    1.0000 </r>
       <r>   -6.7006    1.0000 </r>
       <r>   -6.4537    1.0000 </r>
       <r>   -5.8097    1.0000 </r>
       <r>   -5.7940    1.0000 </r>
       <r>   -5.4053    1.0000 </r>
       <r>   -5.2348    1.0000 </r>
       <r>   -4.8960    1.0000 </r>
       <r>   -4.8569    1.0000 </r>
       <r>   -4.6729    1.0000 </r>
       <r>   -4.5798    1.0000 </r>
       <r>   -4.4243    1.0000 </r>
       <r>   -4.3384    1.0000 </r>
       <r>   -4.2533    1.0000 </r>
       <r>   -4.1102    1.0000 </r>
       <r>   -3.8503    1.0000 </r>
       <r>   -3.6969    1.0000 </r>
       <r>   -3.5436    1.0000 </r>
       <r>   -3.5179    1.0000 </r>
       <r>   -3.2305    1.0000 </r>
       <r>   -3.0569    1.0000 </r>
       <r>   -2.8567    1.0000 </r>
       <r>   -2.7561    1.0000 </r>
       <r>   -2.7006    1.0000 </r>
       <r>   -2.5774    1.0000 </r>
       <r>   -2.4634    1.0000 </r>
       <r>   -1.9831    1.0000 </r>
       <r>   -1.9170    1.0000 </r>
       <r>   -1.8619    1.0000 </r>
       <r>   -1.8306    1.0000 </r>
       <r>   -1.7038    1.0000 </r>
       <r>   -1.5275    1.0000 </r>
       <r>   -1.2264    1.0000 </r>
       <r>   -1.1842    1.0000 </r>
       <r>   -0.9892    1.0000 </r>
       <r>   -0.6634    1.0000 </r>
       <r>   -0.2176    0.9166 </r>
       <r>    0.1171    0.0004 </r>
       <r>    0.9081    0.0000 </r>
       <r>    1.5721    0.0000 </r>
       <r>    1.7936    0.0000 </r>
       <r>    1.8522    0.0000 </r>
       <r>    1.9561    0.0000 </r>
       <r>    2.0849    0.0000 </r>
       <r>    2.2069    0.0000 </r>
       <r>    2.3129    0.0000 </r>
       <r>    2.6064    0.0000 </r>
       <r>    2.7647    0.0000 </r>
       <r>    2.8306    0.0000 </r>
       <r>    2.9012    0.0000 </r>
       <r>    3.1658    0.0000 </r>
      </set>
      <set comment="kpoint 5">
       <r>  -13.1002    1.0000 </r>
       <r>  -12.6507    1.0000 </r>
       <r>  -12.0547    1.0000 </r>
       <r>  -11.9253    1.0000 </r>
       <r>  -11.7223    1.0000 </r>
       <r>  -11.5723    1.0000 </r>
       <r>  -11.2745    1.0000 </r>
       <r>  -11.2223    1.0000 </r>
       <r>  -10.8468    1.0000 </r>
       <r>  -10.7632    1.0000 </r>
       <r>  -10.4812    1.0000 </r>
       <r>  -10.1468    1.0000 </r>
       <r>   -8.7213    1.0000 </r>
       <r>   -8.4885    1.0000 </r>
       <r>   -8.1521    1.0000 </r>
       <r>   -7.9841    1.0000 </r>
       <r>   -7.3860    1.0000 </r>
       <r>   -7.0636    1.0000 </r>
       <r>   -6.9672    1.0000 </r>
       <r>   -6.6569    1.0000 </r>
       <r>   -6.2277    1.0000 </r>
       <r>   -6.1679    1.0000 </r>
       <r>   -6.0316    1.0000 </r>
       <r>   -5.6088    1.0000 </r>
       <r>   -5.2912    1.0000 </r>
       <r>   -5.2727    1.0000 </r>
       <r>   -4.8719    1.0000 </r>
       <r>   -4.7712    1.0000 </r>
       <r>   -4.6860    1.0000 </r>
       <r>   -4.4756    1.0000 </r>
       <r>   -4.3840    1.0000 </r>
       <r>   -4.2909    1.0000 </r>
       <r>   -4.2686    1.0000 </r>
       <r>   -3.7264    1.0000 </r>
       <r>   -3.5302    1.0000 </r>
       <r>   -3.4599    1.0000 </r>
       <r>   -3.2425    1.0000 </r>
       <r>   -3.1429    1.0000 </r>
       <r>   -3.0510    1.0000 </r>
       <r>   -2.9434    1.0000 </r>
       <r>   -2.8144    1.0000 </r>
       <r>   -2.6912    1.0000 </r>
       <r>   -2.4802    1.0000 </r>
       <r>   -2.2528    1.0000 </r>
       <r>   -2.1243    1.0000 </r>
       <r>   -1.9600    1.0000 </r>
       <r>   -1.9384    1.0000 </r>
       <r>   -1.9116    1.0000 </r>
       <r>   -1.7639    1.0000 </r>
       <r>   -1.4749    1.0000 </r>
       <r>   -1.3614    1.0000 </r>
       <r>   -1.1482    1.0000 </r>
       <r>   -0.6362    1.0000 </r>
       <r>   -0.3370    0.9989 </r>
       <r>   -0.1345    0.5824 </r>
       <r>    0.5421    0.0000 </r>
       <r>    1.2892    0.0000 </r>
       <r>    1.3722    0.0000 </r>
       <r>    1.5257    0.0000 </r>
       <r>    1.7135    0.0000 </r>
       <r>    1.8742    0.0000 </r>
       <r>    1.9736    0.0000 </r>
       <r>    2.1615    0.0000 </r>
       <r>    2.2875    0.0000 </r>
       <r>    2.4909    0.0000 </r>
       <r>    2.6644    0.0000 </r>
       <r>    2.7490    0.0000 </r>
       <r>    2.8523    0.0000 </r>
      </set>
      <set comment="kpoint 6">
       <r>  -12.6219    1.0000 </r>
       <r>  -12.1424    1.0000 </r>
       <r>  -11.6355    1.0000 </r>
       <r>  -11.5424    1.0000 </r>
       <r>  -11.3225    1.0000 </r>
       <r>  -11.2290    1.0000 </r>
       <r>  -11.0291    1.0000 </r>
       <r>  -10.9138    1.0000 </r>
       <r>  -10.6921    1.0000 </r>
       <r>  -10.6799    1.0000 </r>
       <r>  -10.5214    1.0000 </r>
       <r>  -10.0563    1.0000 </r>
       <r>   -8.8984    1.0000 </r>
       <r>   -8.8890    1.0000 </r>
       <r>   -8.4445    1.0000 </r>
       <r>   -8.0559    1.0000 </r>
       <r>   -7.7499    1.0000 </r>
       <r>   -7.5252    1.0000 </r>
       <r>   -7.4823    1.0000 </r>
       <r>   -7.0932    1.0000 </r>
       <r>   -6.8247    1.0000 </r>
       <r>   -6.7294    1.0000 </r>
       <r>   -6.6549    1.0000 </r>
       <r>   -6.1196    1.0000 </r>
       <r>   -5.2794    1.0000 </r>
       <r>   -5.2756    1.0000 </r>
       <r>   -4.7645    1.0000 </r>
       <r>   -4.6088    1.0000 </r>
       <r>   -4.5879    1.0000 </r>
       <r>   -4.3361    1.0000 </r>
       <r>   -4.2944    1.0000 </r>
       <r>   -4.1456    1.0000 </r>
       <r>   -4.0982    1.0000 </r>
       <r>   -3.9557    1.0000 </r>
       <r>   -3.7220    1.0000 </r>
       <r>   -3.5661    1.0000 </r>
       <r>   -3.3360    1.0000 </r>
       <r>   -3.2411    1.0000 </r>
       <r>   -3.2134    1.0000 </r>
       <r>   -3.0362    1.0000 </r>
       <r>   -2.8684    1.0000 </r>
       <r>   -2.6981    1.0000 </r>
       <r>   -2.5327    1.0000 </r>
       <r>   -2.4446    1.0000 </r>
       <r>   -2.3536    1.0000 </r>
       <r>   -2.2158    1.0000 </r>
       <r>   -2.1077    1.0000 </r>
       <r>   -2.0730    1.0000 </r>
       <r>   -1.8955    1.0000 </r>
       <r>   -1.6411    1.0000 </r>
       <r>   -1.4648    1.0000 </r>
       <r>   -1.3381    1.0000 </r>
       <r>   -0.7894    1.0000 </r>
       <r>   -0.4147    1.0000 </r>
       <r>   -0.1784    0.7966 </r>
       <r>    0.2892    0.0000 </r>
       <r>    0.8537    0.0000 </r>
       <r>    1.2177    0.0000 </r>
       <r>    1.3452    0.0000 </r>
       <r>    1.6372    0.0000 </r>
       <r>    1.6556    0.0000 </r>
       <r>    1.9137    0.0000 </r>
       <r>    1.9948    0.0000 </r>
       <r>    2.1902    0.0000 </r>
       <r>    2.2079    0.0000 </r>
       <r>    2.3029    0.0000 </r>
       <r>    2.5436    0.0000 </r>
       <r>    2.7242    0.0000 </r>
      </set>
      <set comment="kpoint 7">
       <r>  -12.1538    1.0000 </r>
       <r>  -11.5690    1.0000 </r>
       <r>  -11.3057    1.0000 </r>
       <r>  -11.2132    1.0000 </r>
       <r>  -11.2000    1.0000 </r>
       <r>  -11.0170    1.0000 </r>
       <r>  -10.9097    1.0000 </r>
       <r>  -10.8216    1.0000 </r>
       <r>  -10.7958    1.0000 </r>
       <r>  -10.7017    1.0000 </r>
       <r>  -10.6801    1.0000 </r>
       <r>  -10.0606    1.0000 </r>
       <r>   -9.0392    1.0000 </r>
       <r>   -8.7539    1.0000 </r>
       <r>   -8.5075    1.0000 </r>
       <r>   -8.2463    1.0000 </r>
       <r>   -8.1443    1.0000 </r>
       <r>   -7.7112    1.0000 </r>
       <r>   -7.6376    1.0000 </r>
       <r>   -7.4984    1.0000 </r>
       <r>   -7.3526    1.0000 </r>
       <r>   -7.2452    1.0000 </r>
       <r>   -7.1703    1.0000 </r>
       <r>   -6.3343    1.0000 </r>
       <r>   -5.0967    1.0000 </r>
       <r>   -4.9831    1.0000 </r>
       <r>   -4.6444    1.0000 </r>
       <r>   -4.5686    1.0000 </r>
       <r>   -4.3802    1.0000 </r>
       <r>   -4.2237    1.0000 </r>
       <r>   -4.1185    1.0000 </r>
       <r>   -4.0132    1.0000 </r>
       <r>   -3.9701    1.0000 </r>
       <r>   -3.8985    1.0000 </r>
       <r>   -3.8113    1.0000 </r>
       <r>   -3.6461    1.0000 </r>
       <r>   -3.5664    1.0000 </r>
       <r>   -3.4054    1.0000 </r>
       <r>   -3.3200    1.0000 </r>
       <r>   -3.1188    1.0000 </r>
       <r>   -3.0567    1.0000 </r>
       <r>   -2.8629    1.0000 </r>
       <r>   -2.7534    1.0000 </r>
       <r>   -2.5405    1.0000 </r>
       <r>   -2.4302    1.0000 </r>
       <r>   -2.3098    1.0000 </r>
       <r>   -2.2400    1.0000 </r>
       <r>   -2.1320    1.0000 </r>
       <r>   -1.7958    1.0000 </r>
       <r>   -1.6237    1.0000 </r>
       <r>   -1.5928    1.0000 </r>
       <r>   -1.3930    1.0000 </r>
       <r>   -1.0073    1.0000 </r>
       <r>   -0.4553    1.0000 </r>
       <r>   -0.2506    0.9678 </r>
       <r>    0.2984    0.0000 </r>
       <r>    0.6057    0.0000 </r>
       <r>    1.1445    0.0000 </r>
       <r>    1.3105    0.0000 </r>
       <r>    1.5136    0.0000 </r>
       <r>    1.5869    0.0000 </r>
       <r>    1.7574    0.0000 </r>
       <r>    1.9533    0.0000 </r>
       <r>    2.0061    0.0000 </r>
       <r>    2.1271    0.0000 </r>
       <r>    2.3090    0.0000 </r>
       <r>    2.3989    0.0000 </r>
       <r>    2.4835    0.0000 </r>
      </set>
      <set comment="kpoint 8">
       <r>  -14.0206    1.0000 </r>
       <r>  -13.5527    1.0000 </r>
       <r>  -13.0409    1.0000 </r>
       <r>  -12.8138    1.0000 </r>
       <r>  -12.5617    1.0000 </r>
       <r>  -12.3983    1.0000 </r>
       <r>  -11.9428    1.0000 </r>
       <r>  -11.8355    1.0000 </r>
       <r>  -11.5442    1.0000 </r>
       <r>  -11.3527    1.0000 </r>
       <r>  -11.0662    1.0000 </r>
       <r>  -10.5583    1.0000 </r>
       <r>   -8.7303    1.0000 </r>
       <r>   -8.5820    1.0000 </r>
       <r>   -7.4661    1.0000 </r>
       <r>   -7.1454    1.0000 </r>
       <r>   -6.7408    1.0000 </r>
       <r>   -6.7004    1.0000 </r>
       <r>   -6.6135    1.0000 </r>
       <r>   -6.4662    1.0000 </r>
       <r>   -5.8210    1.0000 </r>
       <r>   -5.7187    1.0000 </r>
       <r>   -4.7606    1.0000 </r>
       <r>   -4.6289    1.0000 </r>
       <r>   -4.2944    1.0000 </r>
       <r>   -4.0842    1.0000 </r>
       <r>   -3.8497    1.0000 </r>
       <r>   -3.5692    1.0000 </r>
       <r>   -3.4388    1.0000 </r>
       <r>   -3.1962    1.0000 </r>
       <r>   -3.1495    1.0000 </r>
       <r>   -2.9643    1.0000 </r>
       <r>   -2.9085    1.0000 </r>
       <r>   -2.7751    1.0000 </r>
       <r>   -2.4648    1.0000 </r>
       <r>   -2.4417    1.0000 </r>
       <r>   -2.3778    1.0000 </r>
       <r>   -2.3226    1.0000 </r>
       <r>   -2.2118    1.0000 </r>
       <r>   -2.1838    1.0000 </r>
       <r>   -2.0467    1.0000 </r>
       <r>   -1.9477    1.0000 </r>
       <r>   -1.7355    1.0000 </r>
       <r>   -1.6944    1.0000 </r>
       <r>   -1.6518    1.0000 </r>
       <r>   -1.5336    1.0000 </r>
       <r>   -1.4290    1.0000 </r>
       <r>   -1.3412    1.0000 </r>
       <r>   -1.1625    1.0000 </r>
       <r>   -1.1266    1.0000 </r>
       <r>   -1.0288    1.0000 </r>
       <r>   -0.8020    1.0000 </r>
       <r>   -0.2108    0.9009 </r>
       <r>    0.2068    0.0000 </r>
       <r>    0.3286    0.0000 </r>
       <r>    0.9357    0.0000 </r>
       <r>    1.1313    0.0000 </r>
       <r>    1.2973    0.0000 </r>
       <r>    1.4462    0.0000 </r>
       <r>    1.5140    0.0000 </r>
       <r>    1.6697    0.0000 </r>
       <r>    1.7518    0.0000 </r>
       <r>    2.0100    0.0000 </r>
       <r>    2.1862    0.0000 </r>
       <r>    2.4018    0.0000 </r>
       <r>    2.4988    0.0000 </r>
       <r>    2.5852    0.0000 </r>
       <r>    2.7836    0.0000 </r>
      </set>
      <set comment="kpoint 9">
       <r>  -13.9582    1.0000 </r>
       <r>  -13.4759    1.0000 </r>
       <r>  -13.0217    1.0000 </r>
       <r>  -12.7738    1.0000 </r>
       <r>  -12.5045    1.0000 </r>
       <r>  -12.3420    1.0000 </r>
       <r>  -11.8449    1.0000 </r>
       <r>  -11.7647    1.0000 </r>
       <r>  -11.5029    1.0000 </r>
       <r>  -11.3066    1.0000 </r>
       <r>  -11.0219    1.0000 </r>
       <r>  -10.5090    1.0000 </r>
       <r>   -8.7583    1.0000 </r>
       <r>   -8.6406    1.0000 </r>
       <r>   -7.4158    1.0000 </r>
       <r>   -7.0777    1.0000 </r>
       <r>   -6.7476    1.0000 </r>
       <r>   -6.7030    1.0000 </r>
       <r>   -6.5883    1.0000 </r>
       <r>   -6.4504    1.0000 </r>
       <r>   -5.7712    1.0000 </r>
       <r>   -5.6630    1.0000 </r>
       <r>   -4.7789    1.0000 </r>
       <r>   -4.6566    1.0000 </r>
       <r>   -4.3599    1.0000 </r>
       <r>   -4.1453    1.0000 </r>
       <r>   -3.9423    1.0000 </r>
       <r>   -3.7424    1.0000 </r>
       <r>   -3.6453    1.0000 </r>
       <r>   -3.4583    1.0000 </r>
       <r>   -3.3800    1.0000 </r>
       <r>   -3.1303    1.0000 </r>
       <r>   -3.0698    1.0000 </r>
       <r>   -2.9787    1.0000 </r>
       <r>   -2.7905    1.0000 </r>
       <r>   -2.7228    1.0000 </r>
       <r>   -2.5627    1.0000 </r>
       <r>   -2.5082    1.0000 </r>
       <r>   -2.3730    1.0000 </r>
       <r>   -2.3124    1.0000 </r>
       <r>   -2.2196    1.0000 </r>
       <r>   -2.0814    1.0000 </r>
       <r>   -2.0234    1.0000 </r>
       <r>   -1.9110    1.0000 </r>
       <r>   -1.8327    1.0000 </r>
       <r>   -1.6928    1.0000 </r>
       <r>   -1.4744    1.0000 </r>
       <r>   -1.2980    1.0000 </r>
       <r>   -1.1227    1.0000 </r>
       <r>   -1.0408    1.0000 </r>
       <r>   -0.9932    1.0000 </r>
       <r>   -0.7756    1.0000 </r>
       <r>   -0.2700    0.9832 </r>
       <r>   -0.0099    0.0601 </r>
       <r>    0.4277    0.0000 </r>
       <r>    1.0438    0.0000 </r>
       <r>    1.5028    0.0000 </r>
       <r>    1.6861    0.0000 </r>
       <r>    1.7532    0.0000 </r>
       <r>    1.8412    0.0000 </r>
       <r>    1.8774    0.0000 </r>
       <r>    2.1402    0.0000 </r>
       <r>    2.2490    0.0000 </r>
       <r>    2.4427    0.0000 </r>
       <r>    2.5419    0.0000 </r>
       <r>    2.5869    0.0000 </r>
       <r>    2.8606    0.0000 </r>
       <r>    2.9076    0.0000 </r>
      </set>
      <set comment="kpoint 10">
       <r>  -13.7773    1.0000 </r>
       <r>  -13.2794    1.0000 </r>
       <r>  -12.8851    1.0000 </r>
       <r>  -12.6239    1.0000 </r>
       <r>  -12.3379    1.0000 </r>
       <r>  -12.1774    1.0000 </r>
       <r>  -11.6517    1.0000 </r>
       <r>  -11.5962    1.0000 </r>
       <r>  -11.3635    1.0000 </r>
       <r>  -11.1748    1.0000 </r>
       <r>  -10.8806    1.0000 </r>
       <r>  -10.3924    1.0000 </r>
       <r>   -8.7241    1.0000 </r>
       <r>   -8.7033    1.0000 </r>
       <r>   -7.3813    1.0000 </r>
       <r>   -7.1120    1.0000 </r>
       <r>   -6.8266    1.0000 </r>
       <r>   -6.7237    1.0000 </r>
       <r>   -6.5653    1.0000 </r>
       <r>   -6.3935    1.0000 </r>
       <r>   -5.7217    1.0000 </r>
       <r>   -5.5996    1.0000 </r>
       <r>   -4.9170    1.0000 </r>
       <r>   -4.8622    1.0000 </r>
       <r>   -4.5817    1.0000 </r>
       <r>   -4.4484    1.0000 </r>
       <r>   -4.3853    1.0000 </r>
       <r>   -4.2940    1.0000 </r>
       <r>   -4.0460    1.0000 </r>
       <r>   -3.8509    1.0000 </r>
       <r>   -3.7114    1.0000 </r>
       <r>   -3.6037    1.0000 </r>
       <r>   -3.5154    1.0000 </r>
       <r>   -3.3130    1.0000 </r>
       <r>   -3.1853    1.0000 </r>
       <r>   -3.0278    1.0000 </r>
       <r>   -2.9801    1.0000 </r>
       <r>   -2.8666    1.0000 </r>
       <r>   -2.8293    1.0000 </r>
       <r>   -2.6743    1.0000 </r>
       <r>   -2.6037    1.0000 </r>
       <r>   -2.3820    1.0000 </r>
       <r>   -2.3199    1.0000 </r>
       <r>   -2.0598    1.0000 </r>
       <r>   -1.9611    1.0000 </r>
       <r>   -1.7436    1.0000 </r>
       <r>   -1.5645    1.0000 </r>
       <r>   -1.3675    1.0000 </r>
       <r>   -1.2075    1.0000 </r>
       <r>   -1.1340    1.0000 </r>
       <r>   -0.9997    1.0000 </r>
       <r>   -0.8635    1.0000 </r>
       <r>   -0.5517    1.0000 </r>
       <r>   -0.1959    0.8592 </r>
       <r>    0.5488    0.0000 </r>
       <r>    1.1286    0.0000 </r>
       <r>    1.5710    0.0000 </r>
       <r>    1.6445    0.0000 </r>
       <r>    2.0236    0.0000 </r>
       <r>    2.0734    0.0000 </r>
       <r>    2.2780    0.0000 </r>
       <r>    2.4152    0.0000 </r>
       <r>    2.6658    0.0000 </r>
       <r>    2.7283    0.0000 </r>
       <r>    2.8415    0.0000 </r>
       <r>    2.9326    0.0000 </r>
       <r>    3.0013    0.0000 </r>
       <r>    3.1186    0.0000 </r>
      </set>
      <set comment="kpoint 11">
       <r>  -13.4824    1.0000 </r>
       <r>  -12.9682    1.0000 </r>
       <r>  -12.6336    1.0000 </r>
       <r>  -12.3713    1.0000 </r>
       <r>  -12.0696    1.0000 </r>
       <r>  -11.9128    1.0000 </r>
       <r>  -11.3878    1.0000 </r>
       <r>  -11.3423    1.0000 </r>
       <r>  -11.1417    1.0000 </r>
       <r>  -10.9809    1.0000 </r>
       <r>  -10.6633    1.0000 </r>
       <r>  -10.2382    1.0000 </r>
       <r>   -8.8387    1.0000 </r>
       <r>   -8.6500    1.0000 </r>
       <r>   -7.5392    1.0000 </r>
       <r>   -7.4602    1.0000 </r>
       <r>   -6.9486    1.0000 </r>
       <r>   -6.7638    1.0000 </r>
       <r>   -6.7105    1.0000 </r>
       <r>   -6.3756    1.0000 </r>
       <r>   -5.8880    1.0000 </r>
       <r>   -5.7169    1.0000 </r>
       <r>   -5.2788    1.0000 </r>
       <r>   -5.2207    1.0000 </r>
       <r>   -5.0953    1.0000 </r>
       <r>   -4.9751    1.0000 </r>
       <r>   -4.7314    1.0000 </r>
       <r>   -4.6310    1.0000 </r>
       <r>   -4.5063    1.0000 </r>
       <r>   -4.4110    1.0000 </r>
       <r>   -4.1503    1.0000 </r>
       <r>   -4.0637    1.0000 </r>
       <r>   -3.8079    1.0000 </r>
       <r>   -3.7439    1.0000 </r>
       <r>   -3.3922    1.0000 </r>
       <r>   -3.2771    1.0000 </r>
       <r>   -3.2057    1.0000 </r>
       <r>   -3.1579    1.0000 </r>
       <r>   -2.8797    1.0000 </r>
       <r>   -2.7415    1.0000 </r>
       <r>   -2.6046    1.0000 </r>
       <r>   -2.5915    1.0000 </r>
       <r>   -2.4990    1.0000 </r>
       <r>   -2.0672    1.0000 </r>
       <r>   -2.0104    1.0000 </r>
       <r>   -1.9090    1.0000 </r>
       <r>   -1.8335    1.0000 </r>
       <r>   -1.7159    1.0000 </r>
       <r>   -1.4611    1.0000 </r>
       <r>   -1.3210    1.0000 </r>
       <r>   -1.1370    1.0000 </r>
       <r>   -0.9418    1.0000 </r>
       <r>   -0.6379    1.0000 </r>
       <r>   -0.2581    0.9748 </r>
       <r>    0.1700    0.0000 </r>
       <r>    0.7408    0.0000 </r>
       <r>    1.2151    0.0000 </r>
       <r>    1.3873    0.0000 </r>
       <r>    1.5310    0.0000 </r>
       <r>    1.7669    0.0000 </r>
       <r>    2.1345    0.0000 </r>
       <r>    2.3965    0.0000 </r>
       <r>    2.4964    0.0000 </r>
       <r>    2.6562    0.0000 </r>
       <r>    2.6926    0.0000 </r>
       <r>    2.9849    0.0000 </r>
       <r>    3.1703    0.0000 </r>
       <r>    3.2256    0.0000 </r>
      </set>
      <set comment="kpoint 12">
       <r>  -13.0838    1.0000 </r>
       <r>  -12.5516    1.0000 </r>
       <r>  -12.2743    1.0000 </r>
       <r>  -12.0331    1.0000 </r>
       <r>  -11.7172    1.0000 </r>
       <r>  -11.5682    1.0000 </r>
       <r>  -11.1033    1.0000 </r>
       <r>  -11.0409    1.0000 </r>
       <r>  -10.8780    1.0000 </r>
       <r>  -10.7822    1.0000 </r>
       <r>  -10.4577    1.0000 </r>
       <r>  -10.1117    1.0000 </r>
       <r>   -9.0378    1.0000 </r>
       <r>   -8.6502    1.0000 </r>
       <r>   -8.0341    1.0000 </r>
       <r>   -7.7753    1.0000 </r>
       <r>   -7.2858    1.0000 </r>
       <r>   -7.1780    1.0000 </r>
       <r>   -7.0287    1.0000 </r>
       <r>   -6.5214    1.0000 </r>
       <r>   -6.2597    1.0000 </r>
       <r>   -6.2380    1.0000 </r>
       <r>   -5.9853    1.0000 </r>
       <r>   -5.7621    1.0000 </r>
       <r>   -5.4465    1.0000 </r>
       <r>   -5.0741    1.0000 </r>
       <r>   -4.9957    1.0000 </r>
       <r>   -4.7108    1.0000 </r>
       <r>   -4.5937    1.0000 </r>
       <r>   -4.4760    1.0000 </r>
       <r>   -4.4275    1.0000 </r>
       <r>   -4.3020    1.0000 </r>
       <r>   -4.0753    1.0000 </r>
       <r>   -3.8348    1.0000 </r>
       <r>   -3.4082    1.0000 </r>
       <r>   -3.2991    1.0000 </r>
       <r>   -3.1669    1.0000 </r>
       <r>   -3.0592    1.0000 </r>
       <r>   -3.0107    1.0000 </r>
       <r>   -2.9300    1.0000 </r>
       <r>   -2.7375    1.0000 </r>
       <r>   -2.5929    1.0000 </r>
       <r>   -2.5128    1.0000 </r>
       <r>   -2.3832    1.0000 </r>
       <r>   -2.3042    1.0000 </r>
       <r>   -2.0203    1.0000 </r>
       <r>   -1.9808    1.0000 </r>
       <r>   -1.9164    1.0000 </r>
       <r>   -1.8016    1.0000 </r>
       <r>   -1.4919    1.0000 </r>
       <r>   -1.3727    1.0000 </r>
       <r>   -1.1240    1.0000 </r>
       <r>   -0.6755    1.0000 </r>
       <r>   -0.3276    0.9984 </r>
       <r>   -0.1590    0.7105 </r>
       <r>    0.2615    0.0000 </r>
       <r>    0.9094    0.0000 </r>
       <r>    1.1636    0.0000 </r>
       <r>    1.2172    0.0000 </r>
       <r>    1.3490    0.0000 </r>
       <r>    2.0644    0.0000 </r>
       <r>    2.1386    0.0000 </r>
       <r>    2.2482    0.0000 </r>
       <r>    2.3711    0.0000 </r>
       <r>    2.4636    0.0000 </r>
       <r>    2.5830    0.0000 </r>
       <r>    2.8911    0.0000 </r>
       <r>    3.0617    0.0000 </r>
      </set>
      <set comment="kpoint 13">
       <r>  -12.6062    1.0000 </r>
       <r>  -12.0483    1.0000 </r>
       <r>  -11.8240    1.0000 </r>
       <r>  -11.6492    1.0000 </r>
       <r>  -11.3209    1.0000 </r>
       <r>  -11.2089    1.0000 </r>
       <r>  -10.9286    1.0000 </r>
       <r>  -10.7901    1.0000 </r>
       <r>  -10.6795    1.0000 </r>
       <r>  -10.6651    1.0000 </r>
       <r>  -10.5341    1.0000 </r>
       <r>  -10.0644    1.0000 </r>
       <r>   -9.0277    1.0000 </r>
       <r>   -8.8522    1.0000 </r>
       <r>   -8.1895    1.0000 </r>
       <r>   -8.1663    1.0000 </r>
       <r>   -7.8458    1.0000 </r>
       <r>   -7.7139    1.0000 </r>
       <r>   -7.4246    1.0000 </r>
       <r>   -7.0279    1.0000 </r>
       <r>   -6.7693    1.0000 </r>
       <r>   -6.7255    1.0000 </r>
       <r>   -6.7125    1.0000 </r>
       <r>   -6.2692    1.0000 </r>
       <r>   -5.4103    1.0000 </r>
       <r>   -5.0297    1.0000 </r>
       <r>   -4.8527    1.0000 </r>
       <r>   -4.6782    1.0000 </r>
       <r>   -4.5069    1.0000 </r>
       <r>   -4.4051    1.0000 </r>
       <r>   -4.2016    1.0000 </r>
       <r>   -4.1360    1.0000 </r>
       <r>   -3.9283    1.0000 </r>
       <r>   -3.8843    1.0000 </r>
       <r>   -3.4390    1.0000 </r>
       <r>   -3.4140    1.0000 </r>
       <r>   -3.3429    1.0000 </r>
       <r>   -3.2751    1.0000 </r>
       <r>   -3.1909    1.0000 </r>
       <r>   -3.0082    1.0000 </r>
       <r>   -2.9428    1.0000 </r>
       <r>   -2.7772    1.0000 </r>
       <r>   -2.6286    1.0000 </r>
       <r>   -2.5086    1.0000 </r>
       <r>   -2.3787    1.0000 </r>
       <r>   -2.2334    1.0000 </r>
       <r>   -2.1340    1.0000 </r>
       <r>   -2.0764    1.0000 </r>
       <r>   -1.9024    1.0000 </r>
       <r>   -1.6483    1.0000 </r>
       <r>   -1.5298    1.0000 </r>
       <r>   -1.3457    1.0000 </r>
       <r>   -0.7940    1.0000 </r>
       <r>   -0.4460    1.0000 </r>
       <r>   -0.3531    0.9995 </r>
       <r>    0.2213    0.0000 </r>
       <r>    0.8003    0.0000 </r>
       <r>    0.9739    0.0000 </r>
       <r>    1.1414    0.0000 </r>
       <r>    1.2883    0.0000 </r>
       <r>    1.7430    0.0000 </r>
       <r>    1.8841    0.0000 </r>
       <r>    1.9735    0.0000 </r>
       <r>    2.1554    0.0000 </r>
       <r>    2.2107    0.0000 </r>
       <r>    2.5410    0.0000 </r>
       <r>    2.6102    0.0000 </r>
       <r>    2.8341    0.0000 </r>
      </set>
      <set comment="kpoint 14">
       <r>  -12.1430    1.0000 </r>
       <r>  -11.4993    1.0000 </r>
       <r>  -11.3572    1.0000 </r>
       <r>  -11.3287    1.0000 </r>
       <r>  -11.1963    1.0000 </r>
       <r>  -11.0287    1.0000 </r>
       <r>  -10.9307    1.0000 </r>
       <r>  -10.8055    1.0000 </r>
       <r>  -10.7661    1.0000 </r>
       <r>  -10.6538    1.0000 </r>
       <r>  -10.6462    1.0000 </r>
       <r>  -10.0620    1.0000 </r>
       <r>   -9.0138    1.0000 </r>
       <r>   -8.6207    1.0000 </r>
       <r>   -8.4660    1.0000 </r>
       <r>   -8.3969    1.0000 </r>
       <r>   -8.2463    1.0000 </r>
       <r>   -7.7325    1.0000 </r>
       <r>   -7.5844    1.0000 </r>
       <r>   -7.4907    1.0000 </r>
       <r>   -7.3826    1.0000 </r>
       <r>   -7.2097    1.0000 </r>
       <r>   -7.2002    1.0000 </r>
       <r>   -6.4292    1.0000 </r>
       <r>   -5.0868    1.0000 </r>
       <r>   -4.9033    1.0000 </r>
       <r>   -4.5980    1.0000 </r>
       <r>   -4.5354    1.0000 </r>
       <r>   -4.3048    1.0000 </r>
       <r>   -4.2216    1.0000 </r>
       <r>   -4.1293    1.0000 </r>
       <r>   -4.0514    1.0000 </r>
       <r>   -3.9934    1.0000 </r>
       <r>   -3.8609    1.0000 </r>
       <r>   -3.7266    1.0000 </r>
       <r>   -3.6548    1.0000 </r>
       <r>   -3.5595    1.0000 </r>
       <r>   -3.4302    1.0000 </r>
       <r>   -3.3274    1.0000 </r>
       <r>   -3.0827    1.0000 </r>
       <r>   -3.0283    1.0000 </r>
       <r>   -2.9068    1.0000 </r>
       <r>   -2.7074    1.0000 </r>
       <r>   -2.6669    1.0000 </r>
       <r>   -2.4176    1.0000 </r>
       <r>   -2.3232    1.0000 </r>
       <r>   -2.1950    1.0000 </r>
       <r>   -2.1532    1.0000 </r>
       <r>   -1.7794    1.0000 </r>
       <r>   -1.7476    1.0000 </r>
       <r>   -1.6162    1.0000 </r>
       <r>   -1.4028    1.0000 </r>
       <r>   -1.0052    1.0000 </r>
       <r>   -0.5118    1.0000 </r>
       <r>   -0.2806    0.9885 </r>
       <r>    0.3539    0.0000 </r>
       <r>    0.6827    0.0000 </r>
       <r>    0.9529    0.0000 </r>
       <r>    1.3603    0.0000 </r>
       <r>    1.4423    0.0000 </r>
       <r>    1.5015    0.0000 </r>
       <r>    1.6787    0.0000 </r>
       <r>    1.9014    0.0000 </r>
       <r>    2.0442    0.0000 </r>
       <r>    2.1398    0.0000 </r>
       <r>    2.3742    0.0000 </r>
       <r>    2.4268    0.0000 </r>
       <r>    2.5147    0.0000 </r>
      </set>
      <set comment="kpoint 15">
       <r>  -12.1553    1.0000 </r>
       <r>  -11.6025    1.0000 </r>
       <r>  -11.3346    1.0000 </r>
       <r>  -11.1504    1.0000 </r>
       <r>  -11.1361    1.0000 </r>
       <r>  -11.0039    1.0000 </r>
       <r>  -10.8729    1.0000 </r>
       <r>  -10.8260    1.0000 </r>
       <r>  -10.8084    1.0000 </r>
       <r>  -10.7681    1.0000 </r>
       <r>  -10.7163    1.0000 </r>
       <r>  -10.0593    1.0000 </r>
       <r>   -9.0560    1.0000 </r>
       <r>   -8.8225    1.0000 </r>
       <r>   -8.5015    1.0000 </r>
       <r>   -8.2095    1.0000 </r>
       <r>   -8.0104    1.0000 </r>
       <r>   -7.6813    1.0000 </r>
       <r>   -7.6622    1.0000 </r>
       <r>   -7.5029    1.0000 </r>
       <r>   -7.3461    1.0000 </r>
       <r>   -7.2846    1.0000 </r>
       <r>   -7.2459    1.0000 </r>
       <r>   -6.3614    1.0000 </r>
       <r>   -4.9300    1.0000 </r>
       <r>   -4.8066    1.0000 </r>
       <r>   -4.6453    1.0000 </r>
       <r>   -4.5504    1.0000 </r>
       <r>   -4.4570    1.0000 </r>
       <r>   -4.3774    1.0000 </r>
       <r>   -4.0792    1.0000 </r>
       <r>   -4.0695    1.0000 </r>
       <r>   -3.9713    1.0000 </r>
       <r>   -3.9469    1.0000 </r>
       <r>   -3.7904    1.0000 </r>
       <r>   -3.7025    1.0000 </r>
       <r>   -3.6947    1.0000 </r>
       <r>   -3.4209    1.0000 </r>
       <r>   -3.3274    1.0000 </r>
       <r>   -3.2141    1.0000 </r>
       <r>   -2.9069    1.0000 </r>
       <r>   -2.8631    1.0000 </r>
       <r>   -2.7454    1.0000 </r>
       <r>   -2.4601    1.0000 </r>
       <r>   -2.3671    1.0000 </r>
       <r>   -2.3373    1.0000 </r>
       <r>   -2.2311    1.0000 </r>
       <r>   -2.1583    1.0000 </r>
       <r>   -1.8152    1.0000 </r>
       <r>   -1.6850    1.0000 </r>
       <r>   -1.5794    1.0000 </r>
       <r>   -1.4318    1.0000 </r>
       <r>   -1.0280    1.0000 </r>
       <r>   -0.4119    1.0000 </r>
       <r>   -0.1819    0.8101 </r>
       <r>    0.4259    0.0000 </r>
       <r>    0.6607    0.0000 </r>
       <r>    1.1112    0.0000 </r>
       <r>    1.3112    0.0000 </r>
       <r>    1.5821    0.0000 </r>
       <r>    1.6813    0.0000 </r>
       <r>    1.7046    0.0000 </r>
       <r>    1.8259    0.0000 </r>
       <r>    2.0959    0.0000 </r>
       <r>    2.2068    0.0000 </r>
       <r>    2.3225    0.0000 </r>
       <r>    2.4539    0.0000 </r>
       <r>    2.5229    0.0000 </r>
      </set>
      <set comment="kpoint 16">
       <r>  -12.6245    1.0000 </r>
       <r>  -12.1689    1.0000 </r>
       <r>  -11.5509    1.0000 </r>
       <r>  -11.5389    1.0000 </r>
       <r>  -11.3208    1.0000 </r>
       <r>  -11.2267    1.0000 </r>
       <r>  -11.0196    1.0000 </r>
       <r>  -10.9759    1.0000 </r>
       <r>  -10.7029    1.0000 </r>
       <r>  -10.6940    1.0000 </r>
       <r>  -10.5169    1.0000 </r>
       <r>  -10.0727    1.0000 </r>
       <r>   -8.9513    1.0000 </r>
       <r>   -8.8083    1.0000 </r>
       <r>   -8.5589    1.0000 </r>
       <r>   -7.9574    1.0000 </r>
       <r>   -7.6142    1.0000 </r>
       <r>   -7.5048    1.0000 </r>
       <r>   -7.3971    1.0000 </r>
       <r>   -7.2491    1.0000 </r>
       <r>   -6.8737    1.0000 </r>
       <r>   -6.7383    1.0000 </r>
       <r>   -6.7253    1.0000 </r>
       <r>   -6.0946    1.0000 </r>
       <r>   -5.1657    1.0000 </r>
       <r>   -5.1185    1.0000 </r>
       <r>   -4.9201    1.0000 </r>
       <r>   -4.6947    1.0000 </r>
       <r>   -4.4654    1.0000 </r>
       <r>   -4.3558    1.0000 </r>
       <r>   -4.2961    1.0000 </r>
       <r>   -4.1623    1.0000 </r>
       <r>   -4.1115    1.0000 </r>
       <r>   -3.9171    1.0000 </r>
       <r>   -3.7889    1.0000 </r>
       <r>   -3.6037    1.0000 </r>
       <r>   -3.4703    1.0000 </r>
       <r>   -3.3447    1.0000 </r>
       <r>   -3.2444    1.0000 </r>
       <r>   -2.9998    1.0000 </r>
       <r>   -2.8299    1.0000 </r>
       <r>   -2.6942    1.0000 </r>
       <r>   -2.5475    1.0000 </r>
       <r>   -2.3904    1.0000 </r>
       <r>   -2.3271    1.0000 </r>
       <r>   -2.2410    1.0000 </r>
       <r>   -2.0727    1.0000 </r>
       <r>   -2.0050    1.0000 </r>
       <r>   -1.8734    1.0000 </r>
       <r>   -1.6611    1.0000 </r>
       <r>   -1.4661    1.0000 </r>
       <r>   -1.4134    1.0000 </r>
       <r>   -0.7627    1.0000 </r>
       <r>   -0.4737    1.0000 </r>
       <r>   -0.0678    0.2312 </r>
       <r>    0.5075    0.0000 </r>
       <r>    0.8860    0.0000 </r>
       <r>    1.2086    0.0000 </r>
       <r>    1.3298    0.0000 </r>
       <r>    1.7027    0.0000 </r>
       <r>    1.8187    0.0000 </r>
       <r>    1.8749    0.0000 </r>
       <r>    2.0417    0.0000 </r>
       <r>    2.1530    0.0000 </r>
       <r>    2.2167    0.0000 </r>
       <r>    2.3950    0.0000 </r>
       <r>    2.4970    0.0000 </r>
       <r>    2.6258    0.0000 </r>
      </set>
      <set comment="kpoint 17">
       <r>  -13.1008    1.0000 </r>
       <r>  -12.6630    1.0000 </r>
       <r>  -12.0131    1.0000 </r>
       <r>  -11.9254    1.0000 </r>
       <r>  -11.7220    1.0000 </r>
       <r>  -11.5779    1.0000 </r>
       <r>  -11.3120    1.0000 </r>
       <r>  -11.2148    1.0000 </r>
       <r>  -10.8384    1.0000 </r>
       <r>  -10.7613    1.0000 </r>
       <r>  -10.4873    1.0000 </r>
       <r>  -10.1571    1.0000 </r>
       <r>   -8.6449    1.0000 </r>
       <r>   -8.6214    1.0000 </r>
       <r>   -8.2550    1.0000 </r>
       <r>   -7.7004    1.0000 </r>
       <r>   -7.3194    1.0000 </r>
       <r>   -7.0687    1.0000 </r>
       <r>   -6.9408    1.0000 </r>
       <r>   -6.8796    1.0000 </r>
       <r>   -6.2206    1.0000 </r>
       <r>   -6.1845    1.0000 </r>
       <r>   -6.0403    1.0000 </r>
       <r>   -5.7270    1.0000 </r>
       <r>   -5.2168    1.0000 </r>
       <r>   -5.0666    1.0000 </r>
       <r>   -4.9589    1.0000 </r>
       <r>   -4.7448    1.0000 </r>
       <r>   -4.6869    1.0000 </r>
       <r>   -4.4668    1.0000 </r>
       <r>   -4.3725    1.0000 </r>
       <r>   -4.3266    1.0000 </r>
       <r>   -4.2741    1.0000 </r>
       <r>   -3.7904    1.0000 </r>
       <r>   -3.5241    1.0000 </r>
       <r>   -3.5119    1.0000 </r>
       <r>   -3.2334    1.0000 </r>
       <r>   -3.1372    1.0000 </r>
       <r>   -3.1008    1.0000 </r>
       <r>   -2.9343    1.0000 </r>
       <r>   -2.7623    1.0000 </r>
       <r>   -2.7018    1.0000 </r>
       <r>   -2.4603    1.0000 </r>
       <r>   -2.2355    1.0000 </r>
       <r>   -2.0871    1.0000 </r>
       <r>   -1.9514    1.0000 </r>
       <r>   -1.9332    1.0000 </r>
       <r>   -1.8859    1.0000 </r>
       <r>   -1.7653    1.0000 </r>
       <r>   -1.4856    1.0000 </r>
       <r>   -1.3587    1.0000 </r>
       <r>   -1.2845    1.0000 </r>
       <r>   -0.6649    1.0000 </r>
       <r>   -0.3486    0.9994 </r>
       <r>   -0.0360    0.1180 </r>
       <r>    0.6538    0.0000 </r>
       <r>    1.1807    0.0000 </r>
       <r>    1.3703    0.0000 </r>
       <r>    1.5716    0.0000 </r>
       <r>    1.8442    0.0000 </r>
       <r>    1.9154    0.0000 </r>
       <r>    2.1514    0.0000 </r>
       <r>    2.2500    0.0000 </r>
       <r>    2.3005    0.0000 </r>
       <r>    2.3910    0.0000 </r>
       <r>    2.6127    0.0000 </r>
       <r>    2.6822    0.0000 </r>
       <r>    2.7619    0.0000 </r>
      </set>
      <set comment="kpoint 18">
       <r>  -13.4963    1.0000 </r>
       <r>  -13.0583    1.0000 </r>
       <r>  -12.4177    1.0000 </r>
       <r>  -12.2834    1.0000 </r>
       <r>  -12.0754    1.0000 </r>
       <r>  -11.9194    1.0000 </r>
       <r>  -11.6044    1.0000 </r>
       <r>  -11.4700    1.0000 </r>
       <r>  -11.0949    1.0000 </r>
       <r>  -10.9670    1.0000 </r>
       <r>  -10.6657    1.0000 </r>
       <r>  -10.2943    1.0000 </r>
       <r>   -8.4691    1.0000 </r>
       <r>   -8.4406    1.0000 </r>
       <r>   -7.8514    1.0000 </r>
       <r>   -7.4299    1.0000 </r>
       <r>   -7.0333    1.0000 </r>
       <r>   -6.7622    1.0000 </r>
       <r>   -6.7043    1.0000 </r>
       <r>   -6.5656    1.0000 </r>
       <r>   -5.8865    1.0000 </r>
       <r>   -5.8020    1.0000 </r>
       <r>   -5.4009    1.0000 </r>
       <r>   -5.3221    1.0000 </r>
       <r>   -4.8991    1.0000 </r>
       <r>   -4.7611    1.0000 </r>
       <r>   -4.6653    1.0000 </r>
       <r>   -4.5841    1.0000 </r>
       <r>   -4.4271    1.0000 </r>
       <r>   -4.3087    1.0000 </r>
       <r>   -4.2524    1.0000 </r>
       <r>   -4.1083    1.0000 </r>
       <r>   -3.8562    1.0000 </r>
       <r>   -3.7304    1.0000 </r>
       <r>   -3.5290    1.0000 </r>
       <r>   -3.5081    1.0000 </r>
       <r>   -3.2779    1.0000 </r>
       <r>   -3.0578    1.0000 </r>
       <r>   -2.8765    1.0000 </r>
       <r>   -2.7693    1.0000 </r>
       <r>   -2.6066    1.0000 </r>
       <r>   -2.5059    1.0000 </r>
       <r>   -2.4372    1.0000 </r>
       <r>   -1.9865    1.0000 </r>
       <r>   -1.9283    1.0000 </r>
       <r>   -1.8787    1.0000 </r>
       <r>   -1.8135    1.0000 </r>
       <r>   -1.6738    1.0000 </r>
       <r>   -1.5250    1.0000 </r>
       <r>   -1.3052    1.0000 </r>
       <r>   -1.1613    1.0000 </r>
       <r>   -1.0833    1.0000 </r>
       <r>   -0.7248    1.0000 </r>
       <r>   -0.1652    0.7397 </r>
       <r>    0.2495    0.0000 </r>
       <r>    0.7276    0.0000 </r>
       <r>    1.4556    0.0000 </r>
       <r>    1.7235    0.0000 </r>
       <r>    1.8131    0.0000 </r>
       <r>    1.9374    0.0000 </r>
       <r>    2.1623    0.0000 </r>
       <r>    2.3050    0.0000 </r>
       <r>    2.6214    0.0000 </r>
       <r>    2.6484    0.0000 </r>
       <r>    2.7134    0.0000 </r>
       <r>    2.8484    0.0000 </r>
       <r>    2.9142    0.0000 </r>
       <r>    3.0321    0.0000 </r>
      </set>
      <set comment="kpoint 19">
       <r>  -13.7870    1.0000 </r>
       <r>  -13.3421    1.0000 </r>
       <r>  -12.7329    1.0000 </r>
       <r>  -12.5624    1.0000 </r>
       <r>  -12.3426    1.0000 </r>
       <r>  -12.1817    1.0000 </r>
       <r>  -11.8200    1.0000 </r>
       <r>  -11.6787    1.0000 </r>
       <r>  -11.3275    1.0000 </r>
       <r>  -11.1697    1.0000 </r>
       <r>  -10.8682    1.0000 </r>
       <r>  -10.4359    1.0000 </r>
       <r>   -8.5081    1.0000 </r>
[...]
       <r>    2.7942    0.0000 </r>
      </set>
      <set comment="kpoint 54">
       <r>  -12.1446    1.0000 </r>
       <r>  -11.5578    1.0000 </r>
       <r>  -11.3749    1.0000 </r>
       <r>  -11.2350    1.0000 </r>
       <r>  -11.1607    1.0000 </r>
       <r>  -11.0195    1.0000 </r>
       <r>  -10.9154    1.0000 </r>
       <r>  -10.7954    1.0000 </r>
       <r>  -10.7845    1.0000 </r>
       <r>  -10.6913    1.0000 </r>
       <r>  -10.6832    1.0000 </r>
       <r>  -10.0606    1.0000 </r>
       <r>   -9.0332    1.0000 </r>
       <r>   -8.7310    1.0000 </r>
       <r>   -8.5082    1.0000 </r>
       <r>   -8.2037    1.0000 </r>
       <r>   -8.1775    1.0000 </r>
       <r>   -7.7253    1.0000 </r>
       <r>   -7.6279    1.0000 </r>
       <r>   -7.4794    1.0000 </r>
       <r>   -7.3573    1.0000 </r>
       <r>   -7.2873    1.0000 </r>
       <r>   -7.2324    1.0000 </r>
       <r>   -6.4277    1.0000 </r>
       <r>   -5.0149    1.0000 </r>
       <r>   -4.8000    1.0000 </r>
       <r>   -4.5802    1.0000 </r>
       <r>   -4.5264    1.0000 </r>
       <r>   -4.3437    1.0000 </r>
       <r>   -4.1784    1.0000 </r>
       <r>   -4.1239    1.0000 </r>
       <r>   -4.0726    1.0000 </r>
       <r>   -3.9995    1.0000 </r>
       <r>   -3.8557    1.0000 </r>
       <r>   -3.8291    1.0000 </r>
       <r>   -3.7118    1.0000 </r>
       <r>   -3.6158    1.0000 </r>
       <r>   -3.4179    1.0000 </r>
       <r>   -3.3243    1.0000 </r>
       <r>   -3.2434    1.0000 </r>
       <r>   -3.0861    1.0000 </r>
       <r>   -2.9065    1.0000 </r>
       <r>   -2.7563    1.0000 </r>
       <r>   -2.4523    1.0000 </r>
       <r>   -2.3736    1.0000 </r>
       <r>   -2.2905    1.0000 </r>
       <r>   -2.2234    1.0000 </r>
       <r>   -2.1428    1.0000 </r>
       <r>   -1.8187    1.0000 </r>
       <r>   -1.7462    1.0000 </r>
       <r>   -1.5982    1.0000 </r>
       <r>   -1.4425    1.0000 </r>
       <r>   -1.0359    1.0000 </r>
       <r>   -0.5143    1.0000 </r>
       <r>   -0.1320    0.5684 </r>
       <r>    0.4985    0.0000 </r>
       <r>    0.7531    0.0000 </r>
       <r>    0.8366    0.0000 </r>
       <r>    1.2904    0.0000 </r>
       <r>    1.5231    0.0000 </r>
       <r>    1.5474    0.0000 </r>
       <r>    1.6466    0.0000 </r>
       <r>    1.8037    0.0000 </r>
       <r>    1.9637    0.0000 </r>
       <r>    2.1185    0.0000 </r>
       <r>    2.3470    0.0000 </r>
       <r>    2.4278    0.0000 </r>
       <r>    2.6955    0.0000 </r>
      </set>
     </set>
    </set>
   </array>
  </eigenvalues>
  <separator name="orbital magnetization" >
   <v name="MAGDIPOLOUT">      0.00000000      0.00000000      0.00000000</v>
  </separator>
  <dos>
   <i name="efermi">     -0.11978513 </i>
   <total>
    <array>
     <dimension dim="1">gridpoints</dimension>
     <dimension dim="2">spin</dimension>
     <field>energy</field>
     <field>total</field>
     <field>integrated</field>
     <set>
      <set comment="spin 1">
       <r>   -15.0317     0.0000     0.0000 </r>
       <r>   -14.9676     0.0000     0.0000 </r>
       <r>   -14.9034     0.0000     0.0000 </r>
       <r>   -14.8392     0.0000     0.0000 </r>
       <r>   -14.7750     0.0000     0.0000 </r>
       <r>   -14.7108     0.0000     0.0000 </r>
       <r>   -14.6466     0.0000     0.0000 </r>
       <r>   -14.5824     0.0000     0.0000 </r>
       <r>   -14.5182     0.0000     0.0000 </r>
       <r>   -14.4540     0.0000     0.0000 </r>
       <r>   -14.3898     0.0000     0.0000 </r>
       <r>   -14.3256     0.0000     0.0000 </r>
       <r>   -14.2615     0.0009     0.0001 </r>
       <r>   -14.1973     0.0168     0.0011 </r>
       <r>   -14.1331     0.1553     0.0111 </r>
       <r>   -14.0689     0.7289     0.0579 </r>
       <r>   -14.0047     1.7939     0.1730 </r>
       <r>   -13.9405     2.3790     0.3258 </r>
       <r>   -13.8763     1.9415     0.4504 </r>
       <r>   -13.8121     1.6945     0.5592 </r>
       <r>   -13.7479     1.7732     0.6730 </r>
       <r>   -13.6837     1.2781     0.7550 </r>
       <r>   -13.6195     1.0781     0.8242 </r>
       <r>   -13.5553     2.0997     0.9590 </r>
       <r>   -13.4912     3.4510     1.1805 </r>
       <r>   -13.4270     3.5333     1.4073 </r>
       <r>   -13.3628     2.6254     1.5759 </r>
       <r>   -13.2986     1.9682     1.7022 </r>
       <r>   -13.2344     1.7554     1.8149 </r>
       <r>   -13.1702     2.0185     1.9445 </r>
       <r>   -13.1060     2.9975     2.1369 </r>
       <r>   -13.0418     3.9572     2.3909 </r>
       <r>   -12.9776     3.9363     2.6436 </r>
       <r>   -12.9134     3.4265     2.8635 </r>
       <r>   -12.8492     3.1655     3.0667 </r>
       <r>   -12.7851     3.3831     3.2839 </r>
       <r>   -12.7209     4.1976     3.5533 </r>
       <r>   -12.6567     5.8567     3.9293 </r>
       <r>   -12.5925     7.2087     4.3920 </r>
       <r>   -12.5283     6.8311     4.8305 </r>
       <r>   -12.4641     5.6359     5.1923 </r>
       <r>   -12.3999     5.6439     5.5546 </r>
       <r>   -12.3357     6.5689     5.9762 </r>
       <r>   -12.2715     6.3014     6.3807 </r>
       <r>   -12.2073     5.9099     6.7601 </r>
       <r>   -12.1431     6.8193     7.1978 </r>
       <r>   -12.0789     7.3617     7.6704 </r>
       <r>   -12.0148     6.6936     8.1001 </r>
       <r>   -11.9506     6.1720     8.4963 </r>
       <r>   -11.8864     6.3066     8.9011 </r>
       <r>   -11.8222     6.0749     9.2910 </r>
       <r>   -11.7580     6.1852     9.6881 </r>
       <r>   -11.6938     7.1658    10.1481 </r>
       <r>   -11.6296     8.5369    10.6960 </r>
       <r>   -11.5654     9.8948    11.3312 </r>
       <r>   -11.5012     9.4830    11.9399 </r>
       <r>   -11.4370     7.7757    12.4391 </r>
       <r>   -11.3728     8.5994    12.9911 </r>
       <r>   -11.3087    11.3528    13.7198 </r>
       <r>   -11.2445    11.9040    14.4839 </r>
       <r>   -11.1803    10.9941    15.1897 </r>
       <r>   -11.1161    10.3745    15.8556 </r>
       <r>   -11.0519    10.2521    16.5137 </r>
       <r>   -10.9877    10.4680    17.1857 </r>
       <r>   -10.9235    10.4604    17.8571 </r>
       <r>   -10.8593    10.8298    18.5523 </r>
       <r>   -10.7951    11.4052    19.2844 </r>
       <r>   -10.7309    11.6379    20.0315 </r>
       <r>   -10.6667    11.1474    20.7471 </r>
       <r>   -10.6026     8.9649    21.3225 </r>
       <r>   -10.5384     7.0058    21.7722 </r>
       <r>   -10.4742     6.5004    22.1895 </r>
       <r>   -10.4100     5.2165    22.5244 </r>
       <r>   -10.3458     3.3190    22.7374 </r>
       <r>   -10.2816     2.3764    22.8900 </r>
       <r>   -10.2174     2.3677    23.0419 </r>
       <r>   -10.1532     3.1311    23.2429 </r>
       <r>   -10.0890     4.3977    23.5252 </r>
       <r>   -10.0248     4.3238    23.8028 </r>
       <r>    -9.9606     2.3458    23.9534 </r>
       <r>    -9.8964     0.6381    23.9943 </r>
       <r>    -9.8323     0.0832    23.9997 </r>
       <r>    -9.7681     0.0051    24.0000 </r>
       <r>    -9.7039     0.0001    24.0000 </r>
       <r>    -9.6397     0.0000    24.0000 </r>
       <r>    -9.5755     0.0000    24.0000 </r>
       <r>    -9.5113     0.0000    24.0000 </r>
       <r>    -9.4471     0.0000    24.0000 </r>
       <r>    -9.3829     0.0000    24.0000 </r>
       <r>    -9.3187     0.0003    24.0000 </r>
       <r>    -9.2545     0.0082    24.0005 </r>
       <r>    -9.1903     0.1121    24.0077 </r>
       <r>    -9.1262     0.7408    24.0553 </r>
       <r>    -9.0620     2.4507    24.2126 </r>
       <r>    -8.9978     4.3776    24.4936 </r>
       <r>    -8.9336     5.0830    24.8199 </r>
       <r>    -8.8694     5.3831    25.1654 </r>
       <r>    -8.8052     6.2005    25.5635 </r>
       <r>    -8.7410     6.7369    25.9959 </r>
       <r>    -8.6768     6.4011    26.4068 </r>
       <r>    -8.6126     5.7214    26.7741 </r>
       <r>    -8.5484     5.3841    27.1197 </r>
       <r>    -8.4842     5.6648    27.4833 </r>
       <r>    -8.4200     5.2198    27.8184 </r>
       <r>    -8.3559     3.6282    28.0513 </r>
       <r>    -8.2917     3.2103    28.2573 </r>
       <r>    -8.2275     4.8363    28.5678 </r>
       <r>    -8.1633     6.0721    28.9576 </r>
       <r>    -8.0991     5.2146    29.2923 </r>
       <r>    -8.0349     3.8259    29.5379 </r>
       <r>    -7.9707     3.1687    29.7413 </r>
       <r>    -7.9065     3.2728    29.9514 </r>
       <r>    -7.8423     4.2177    30.2221 </r>
       <r>    -7.7781     5.2817    30.5612 </r>
       <r>    -7.7139     6.2766    30.9641 </r>
       <r>    -7.6498     6.8730    31.4052 </r>
       <r>    -7.5856     6.4751    31.8209 </r>
       <r>    -7.5214     6.5556    32.2417 </r>
       <r>    -7.4572     7.7310    32.7380 </r>
       <r>    -7.3930     8.4395    33.2797 </r>
       <r>    -7.3288     8.3222    33.8139 </r>
       <r>    -7.2646     7.9044    34.3213 </r>
       <r>    -7.2004     7.4051    34.7967 </r>
       <r>    -7.1362     6.7755    35.2316 </r>
       <r>    -7.0720     6.2926    35.6355 </r>
       <r>    -7.0078     5.9440    36.0171 </r>
       <r>    -6.9436     5.8505    36.3926 </r>
       <r>    -6.8795     6.7293    36.8246 </r>
       <r>    -6.8153     9.1367    37.4111 </r>
       <r>    -6.7511    12.9319    38.2412 </r>
       <r>    -6.6869    14.3996    39.1655 </r>
       <r>    -6.6227    11.2248    39.8860 </r>
       <r>    -6.5585     7.3836    40.3600 </r>
       <r>    -6.4943     5.8780    40.7373 </r>
       <r>    -6.4301     6.3412    41.1444 </r>
       <r>    -6.3659     7.0262    41.5954 </r>
       <r>    -6.3017     6.9950    42.0444 </r>
       <r>    -6.2375     6.3277    42.4506 </r>
       <r>    -6.1734     4.8995    42.7651 </r>
       <r>    -6.1092     3.3449    42.9798 </r>
       <r>    -6.0450     2.6164    43.1478 </r>
       <r>    -5.9808     2.6338    43.3168 </r>
       <r>    -5.9166     3.3113    43.5294 </r>
       <r>    -5.8524     5.1259    43.8584 </r>
       <r>    -5.7882     7.5237    44.3414 </r>
       <r>    -5.7240     8.6226    44.8949 </r>
       <r>    -5.6598     7.2574    45.3607 </r>
       <r>    -5.5956     4.6582    45.6598 </r>
       <r>    -5.5314     2.5036    45.8205 </r>
       <r>    -5.4673     1.9195    45.9437 </r>
       <r>    -5.4031     2.8444    46.1263 </r>
       <r>    -5.3389     4.0168    46.3841 </r>
       <r>    -5.2747     4.8972    46.6985 </r>
       <r>    -5.2105     4.8769    47.0115 </r>
       <r>    -5.1463     4.4601    47.2978 </r>
       <r>    -5.0821     5.3255    47.6397 </r>
       <r>    -5.0179     7.4211    48.1161 </r>
       <r>    -4.9537     9.9437    48.7543 </r>
       <r>    -4.8895    11.1408    49.4695 </r>
       <r>    -4.8253    10.3271    50.1324 </r>
       <r>    -4.7611     9.9482    50.7710 </r>
       <r>    -4.6970    10.9339    51.4728 </r>
       <r>    -4.6328    12.1295    52.2514 </r>
       <r>    -4.5686    12.7270    53.0684 </r>
       <r>    -4.5044    12.6031    53.8774 </r>
       <r>    -4.4402    12.7770    54.6976 </r>
       <r>    -4.3760    13.7185    55.5782 </r>
       <r>    -4.3118    13.9788    56.4755 </r>
       <r>    -4.2476    12.8222    57.2986 </r>
       <r>    -4.1834    12.3916    58.0940 </r>
       <r>    -4.1192    14.1976    59.0054 </r>
       <r>    -4.0550    14.9259    59.9635 </r>
       <r>    -3.9909    12.9687    60.7960 </r>
       <r>    -3.9267    11.4435    61.5305 </r>
       <r>    -3.8625    11.9838    62.2998 </r>
       <r>    -3.7983    13.0860    63.1398 </r>
       <r>    -3.7341    13.1814    63.9859 </r>
       <r>    -3.6699    12.3299    64.7774 </r>
       <r>    -3.6057    11.8266    65.5366 </r>
       <r>    -3.5415    12.1088    66.3139 </r>
       <r>    -3.4773    12.2233    67.0985 </r>
       <r>    -3.4131    12.7936    67.9197 </r>
       <r>    -3.3489    14.5068    68.8509 </r>
       <r>    -3.2847    16.3078    69.8978 </r>
       <r>    -3.2206    16.6625    70.9673 </r>
       <r>    -3.1564    15.9067    71.9884 </r>
       <r>    -3.0922    15.6686    72.9942 </r>
       <r>    -3.0280    15.8997    74.0148 </r>
       <r>    -2.9638    16.0311    75.0439 </r>
       <r>    -2.8996    15.9415    76.0672 </r>
       <r>    -2.8354    15.4983    77.0620 </r>
       <r>    -2.7712    15.6495    78.0666 </r>
       <r>    -2.7070    15.6341    79.0702 </r>
       <r>    -2.6428    14.4160    79.9955 </r>
       <r>    -2.5786    14.2236    80.9086 </r>
       <r>    -2.5145    15.4975    81.9034 </r>
       <r>    -2.4503    16.9269    82.9899 </r>
       <r>    -2.3861    17.3244    84.1020 </r>
       <r>    -2.3219    16.3218    85.1497 </r>
       <r>    -2.2577    15.3196    86.1331 </r>
       <r>    -2.1935    14.8793    87.0882 </r>
       <r>    -2.1293    14.4255    88.0142 </r>
       <r>    -2.0651    15.1489    88.9866 </r>
       <r>    -2.0009    16.6427    90.0550 </r>
       <r>    -1.9367    17.0036    91.1464 </r>
       <r>    -1.8725    16.3448    92.1956 </r>
       <r>    -1.8084    15.4881    93.1898 </r>
       <r>    -1.7442    14.9428    94.1490 </r>
       <r>    -1.6800    14.3369    95.0693 </r>
       <r>    -1.6158    12.7215    95.8859 </r>
       <r>    -1.5516    11.3137    96.6122 </r>
       <r>    -1.4874    11.9448    97.3789 </r>
       <r>    -1.4232    13.1735    98.2246 </r>
       <r>    -1.3590    12.9505    99.0559 </r>
       <r>    -1.2948    11.1412    99.7710 </r>
       <r>    -1.2306     9.4341   100.3766 </r>
       <r>    -1.1664     9.5551   100.9900 </r>
       <r>    -1.1022    10.4868   101.6631 </r>
       <r>    -1.0381    10.7665   102.3542 </r>
       <r>    -0.9739     9.7803   102.9821 </r>
       <r>    -0.9097     7.1111   103.4385 </r>
       <r>    -0.8455     5.2928   103.7783 </r>
       <r>    -0.7813     5.5226   104.1328 </r>
       <r>    -0.7171     6.1099   104.5250 </r>
       <r>    -0.6529     6.2743   104.9277 </r>
       <r>    -0.5887     5.5122   105.2816 </r>
       <r>    -0.5245     4.4771   105.5690 </r>
       <r>    -0.4603     4.3294   105.8469 </r>
       <r>    -0.3961     4.5917   106.1416 </r>
       <r>    -0.3320     5.1812   106.4742 </r>
       <r>    -0.2678     6.3383   106.8811 </r>
       <r>    -0.2036     7.6737   107.3737 </r>
       <r>    -0.1394     7.7036   107.8682 </r>
       <r>    -0.0752     6.0307   108.2553 </r>
       <r>    -0.0110     4.2392   108.5274 </r>
       <r>     0.0532     2.8122   108.7079 </r>
       <r>     0.1174     1.9924   108.8358 </r>
       <r>     0.1816     2.4627   108.9939 </r>
       <r>     0.2458     3.7219   109.2328 </r>
       <r>     0.3100     4.5923   109.5276 </r>
       <r>     0.3742     4.7992   109.8356 </r>
       <r>     0.4383     4.7955   110.1435 </r>
       <r>     0.5025     4.7791   110.4503 </r>
       <r>     0.5667     4.6024   110.7457 </r>
       <r>     0.6309     3.9331   110.9982 </r>
       <r>     0.6951     3.3674   111.2143 </r>
       <r>     0.7593     3.3557   111.4297 </r>
       <r>     0.8235     3.6852   111.6663 </r>
       <r>     0.8877     4.3765   111.9472 </r>
       <r>     0.9519     4.8393   112.2578 </r>
       <r>     1.0161     4.8900   112.5717 </r>
       <r>     1.0803     5.6968   112.9374 </r>
       <r>     1.1444     6.9223   113.3818 </r>
       <r>     1.2086     7.4303   113.8587 </r>
       <r>     1.2728     7.7593   114.3568 </r>
       <r>     1.3370     8.4281   114.8978 </r>
       <r>     1.4012     8.6542   115.4534 </r>
       <r>     1.4654     9.1529   116.0409 </r>
       <r>     1.5296    10.5472   116.7179 </r>
       <r>     1.5938    11.1323   117.4325 </r>
       <r>     1.6580    11.3032   118.1581 </r>
       <r>     1.7222    11.9253   118.9236 </r>
       <r>     1.7864    12.0453   119.6968 </r>
       <r>     1.8506    11.5855   120.4405 </r>
       <r>     1.9147    11.0586   121.1503 </r>
       <r>     1.9789    10.8278   121.8454 </r>
       <r>     2.0431    11.7304   122.5984 </r>
       <r>     2.1073    14.2347   123.5121 </r>
       <r>     2.1715    16.4766   124.5698 </r>
       <r>     2.2357    15.7498   125.5808 </r>
       <r>     2.2999    13.5262   126.4490 </r>
       <r>     2.3641    12.7325   127.2664 </r>
       <r>     2.4283    13.0186   128.1020 </r>
       <r>     2.4925    13.0334   128.9387 </r>
       <r>     2.5567    13.3806   129.7976 </r>
       <r>     2.6208    13.9272   130.6916 </r>
       <r>     2.6850    13.5095   131.5588 </r>
       <r>     2.7492    12.0976   132.3353 </r>
       <r>     2.8134    10.7625   133.0262 </r>
       <r>     2.8776    10.1862   133.6801 </r>
       <r>     2.9418     9.1765   134.2691 </r>
       <r>     3.0060     7.6624   134.7610 </r>
       <r>     3.0702     6.4109   135.1725 </r>
       <r>     3.1344     5.1876   135.5055 </r>
       <r>     3.1986     4.0356   135.7645 </r>
       <r>     3.2628     2.5045   135.9253 </r>
       <r>     3.3269     0.9495   135.9863 </r>
       <r>     3.3911     0.1930   135.9987 </r>
       <r>     3.4553     0.0200   135.9999 </r>
       <r>     3.5195     0.0010   136.0000 </r>
       <r>     3.5837     0.0000   136.0000 </r>
       <r>     3.6479     0.0000   136.0000 </r>
       <r>     3.7121     0.0000   136.0000 </r>
       <r>     3.7763     0.0000   136.0000 </r>
       <r>     3.8405     0.0000   136.0000 </r>
       <r>     3.9047     0.0000   136.0000 </r>
       <r>     3.9689     0.0000   136.0000 </r>
       <r>     4.0331     0.0000   136.0000 </r>
       <r>     4.0972     0.0000   136.0000 </r>
       <r>     4.1614     0.0000   136.0000 </r>
       <r>     4.2256     0.0000   136.0000 </r>
      </set>
     </set>
    </array>
   </total>
  </dos>
 </calculation>
 <structure name="finalpos" >
  <crystal>
   <varray name="basis" >
    <v>       3.54040000       0.00000000       0.00000000 </v>
    <v>      -1.77020000      10.29434800       0.00000000 </v>
    <v>       0.00000000       0.00000000      27.50142900 </v>
   </varray>
   <i name="volume">   1002.32009712 </i>
   <varray name="rec_basis" >
    <v>       0.28245396       0.04857034       0.00000000 </v>
    <v>       0.00000000       0.09714068       0.00000000 </v>
    <v>       0.00000000       0.00000000       0.03636175 </v>
   </varray>
  </crystal>
  <varray name="positions" >
   <v>       0.11402300       0.22804500       0.23316207 </v>
   <v>       0.41402300       0.32804500       0.51499159 </v>
   <v>       0.45808900       0.91617900       0.20939482 </v>
   <v>       0.75808900       0.01617900       0.49122434 </v>
   <v>       0.31085400       0.62170900       0.08414979 </v>
   <v>       0.31085400       0.62170900       0.36597930 </v>
   <v>       0.99923000       0.99846000       0.08631254 </v>
   <v>       0.99923000       0.99846000       0.36814206 </v>
   <v>       0.65492700       0.30985400       0.06041748 </v>
   <v>       0.65492700       0.30985400       0.34224700 </v>
   <v>       0.76973800       0.53947500       0.20725292 </v>
   <v>       0.06973800       0.63947500       0.48908244 </v>
   <v>       0.93971600       0.87943300       0.15783749 </v>
   <v>       0.23971600       0.97943300       0.43966701 </v>
   <v>       0.20515200       0.41030300       0.18578822 </v>
   <v>       0.50515200       0.51030300       0.46761774 </v>
   <v>       0.20184900       0.40369900       0.09969156 </v>
   <v>       0.20184900       0.40369900       0.38152107 </v>
   <v>       0.56380500       0.12761000       0.10779021 </v>
   <v>       0.56380500       0.12761000       0.38961973 </v>
   <v>       0.56710600       0.13421200       0.19387616 </v>
   <v>       0.86710600       0.23421200       0.47570568 </v>
   <v>       0.82923400       0.65846800       0.13571444 </v>
   <v>       0.12923400       0.75846800       0.41754396 </v>
  </varray>
 </structure>
</modeling>
