  24  24   0   0
  0.4176334E+02  0.3540400E-09  0.1044544E-08  0.2750143E-08  0.5000000E-15
  1.000000000000000E-004
  CAR 
 unknown system                          
      4.13998074    -16.75000564  301     -0.16047533      1.00000000
    -16.750  0.0000E+00  0.0000E+00
    -16.680  0.0000E+00  0.0000E+00
    -16.611  0.0000E+00  0.0000E+00
    -16.541  0.0000E+00  0.0000E+00
    -16.471  0.0000E+00  0.0000E+00
    -16.402  0.0000E+00  0.0000E+00
    -16.332  0.2146E-15  0.1495E-16
    -16.263  0.4392E-12  0.3060E-13
    -16.193  0.3972E-09  0.2769E-10
    -16.123  0.1400E-06  0.9775E-08
    -16.054  0.1946E-04  0.1365E-05
    -15.984  0.1087E-02  0.7708E-04
    -15.914  0.2514E-01  0.1828E-02
    -15.845  0.2496E+00  0.1921E-01
    -15.775  0.1106E+01  0.9622E-01
    -15.706  0.2268E+01  0.2542E+00
    -15.636  0.2391E+01  0.4207E+00
    -15.566  0.2023E+01  0.5616E+00
    -15.497  0.1807E+01  0.6874E+00
    -15.427  0.1066E+01  0.7616E+00
    -15.357  0.8878E+00  0.8235E+00
    -15.288  0.1558E+01  0.9320E+00
    -15.218  0.1442E+01  0.1032E+01
    -15.148  0.5821E+00  0.1073E+01
    -15.079  0.3789E+00  0.1099E+01
    -15.009  0.1101E+01  0.1176E+01
    -14.940  0.1668E+01  0.1292E+01
    -14.870  0.1041E+01  0.1365E+01
    -14.800  0.3219E+00  0.1387E+01
    -14.731  0.4639E+00  0.1419E+01
    -14.661  0.1317E+01  0.1511E+01
    -14.591  0.1635E+01  0.1625E+01
    -14.522  0.1031E+01  0.1697E+01
    -14.452  0.1112E+01  0.1774E+01
    -14.382  0.1670E+01  0.1890E+01
    -14.313  0.1185E+01  0.1973E+01
    -14.243  0.3457E+00  0.1997E+01
    -14.174  0.4082E-01  0.2000E+01
    -14.104  0.1930E-02  0.2000E+01
    -14.034  0.3613E-04  0.2000E+01
    -13.965  0.2655E-06  0.2000E+01
    -13.895  0.5266E-08  0.2000E+01
    -13.825  0.8892E-06  0.2000E+01
    -13.756  0.7083E-04  0.2000E+01
    -13.686  0.2369E-02  0.2000E+01
    -13.617  0.3525E-01  0.2003E+01
    -13.547  0.2498E+00  0.2020E+01
    -13.477  0.8984E+00  0.2083E+01
    -13.408  0.1770E+01  0.2206E+01
    -13.338  0.2369E+01  0.2371E+01
    -13.268  0.3160E+01  0.2591E+01
    -13.199  0.4049E+01  0.2873E+01
    -13.129  0.3859E+01  0.3142E+01
    -13.059  0.3308E+01  0.3372E+01
    -12.990  0.3391E+01  0.3608E+01
    -12.920  0.3561E+01  0.3856E+01
    -12.851  0.3743E+01  0.4117E+01
    -12.781  0.4266E+01  0.4414E+01
    -12.711  0.4716E+01  0.4742E+01
    -12.642  0.4485E+01  0.5054E+01
    -12.572  0.4607E+01  0.5375E+01
    -12.502  0.5407E+01  0.5752E+01
    -12.433  0.6154E+01  0.6180E+01
    -12.363  0.6470E+01  0.6631E+01
    -12.293  0.5463E+01  0.7011E+01
    -12.224  0.4649E+01  0.7335E+01
    -12.154  0.4624E+01  0.7657E+01
    -12.085  0.4782E+01  0.7990E+01
    -12.015  0.6225E+01  0.8423E+01
    -11.945  0.8224E+01  0.8996E+01
    -11.876  0.8345E+01  0.9577E+01
    -11.806  0.7439E+01  0.1010E+02
    -11.736  0.6493E+01  0.1055E+02
    -11.667  0.5511E+01  0.1093E+02
    -11.597  0.5621E+01  0.1132E+02
    -11.528  0.6957E+01  0.1181E+02
    -11.458  0.8997E+01  0.1243E+02
    -11.388  0.9530E+01  0.1310E+02
    -11.319  0.8294E+01  0.1367E+02
    -11.249  0.8093E+01  0.1424E+02
    -11.179  0.8878E+01  0.1486E+02
    -11.110  0.8606E+01  0.1546E+02
    -11.040  0.7937E+01  0.1601E+02
    -10.970  0.8463E+01  0.1660E+02
    -10.901  0.9434E+01  0.1725E+02
    -10.831  0.9565E+01  0.1792E+02
    -10.762  0.1054E+02  0.1865E+02
    -10.692  0.1149E+02  0.1945E+02
    -10.622  0.1097E+02  0.2022E+02
    -10.553  0.1029E+02  0.2094E+02
    -10.483  0.8852E+01  0.2155E+02
    -10.413  0.6968E+01  0.2204E+02
    -10.344  0.5111E+01  0.2239E+02
    -10.274  0.2497E+01  0.2257E+02
    -10.204  0.7517E+00  0.2262E+02
    -10.135  0.1007E+01  0.2269E+02
    -10.065  0.3207E+01  0.2291E+02
     -9.996  0.5399E+01  0.2329E+02
     -9.926  0.5656E+01  0.2368E+02
     -9.856  0.4850E+01  0.2402E+02
     -9.787  0.2993E+01  0.2423E+02
     -9.717  0.9919E+00  0.2430E+02
     -9.647  0.2580E+00  0.2432E+02
     -9.578  0.6429E+00  0.2436E+02
     -9.508  0.1500E+01  0.2446E+02
     -9.439  0.1548E+01  0.2457E+02
     -9.369  0.1345E+01  0.2467E+02
     -9.299  0.3007E+01  0.2488E+02
     -9.230  0.4910E+01  0.2522E+02
     -9.160  0.3922E+01  0.2549E+02
     -9.090  0.2655E+01  0.2568E+02
     -9.021  0.3889E+01  0.2595E+02
     -8.951  0.5893E+01  0.2636E+02
     -8.881  0.6344E+01  0.2680E+02
     -8.812  0.5320E+01  0.2717E+02
     -8.742  0.4946E+01  0.2751E+02
     -8.673  0.5667E+01  0.2791E+02
     -8.603  0.4957E+01  0.2825E+02
     -8.533  0.3548E+01  0.2850E+02
     -8.464  0.3299E+01  0.2873E+02
     -8.394  0.3966E+01  0.2901E+02
     -8.324  0.4232E+01  0.2930E+02
     -8.255  0.3107E+01  0.2952E+02
     -8.185  0.1984E+01  0.2965E+02
     -8.115  0.2146E+01  0.2980E+02
     -8.046  0.2941E+01  0.3001E+02
     -7.976  0.3550E+01  0.3026E+02
     -7.907  0.4341E+01  0.3056E+02
     -7.837  0.5006E+01  0.3091E+02
     -7.767  0.5095E+01  0.3126E+02
     -7.698  0.5083E+01  0.3162E+02
     -7.628  0.5051E+01  0.3197E+02
     -7.558  0.5376E+01  0.3234E+02
     -7.489  0.5981E+01  0.3276E+02
     -7.419  0.6894E+01  0.3324E+02
     -7.350  0.8358E+01  0.3382E+02
     -7.280  0.1086E+02  0.3458E+02
     -7.210  0.1249E+02  0.3545E+02
     -7.141  0.1107E+02  0.3622E+02
     -7.071  0.7816E+01  0.3676E+02
     -7.001  0.5409E+01  0.3714E+02
     -6.932  0.5722E+01  0.3754E+02
     -6.862  0.6866E+01  0.3801E+02
     -6.792  0.6889E+01  0.3849E+02
     -6.723  0.6785E+01  0.3897E+02
     -6.653  0.8763E+01  0.3958E+02
     -6.584  0.1076E+02  0.4033E+02
     -6.514  0.9750E+01  0.4101E+02
     -6.444  0.8236E+01  0.4158E+02
     -6.375  0.6717E+01  0.4205E+02
     -6.305  0.6052E+01  0.4247E+02
     -6.235  0.7422E+01  0.4298E+02
     -6.166  0.7353E+01  0.4350E+02
     -6.096  0.5259E+01  0.4386E+02
     -6.026  0.3166E+01  0.4408E+02
     -5.957  0.2353E+01  0.4425E+02
     -5.887  0.3061E+01  0.4446E+02
     -5.818  0.4023E+01  0.4474E+02
     -5.748  0.5391E+01  0.4512E+02
     -5.678  0.7824E+01  0.4566E+02
     -5.609  0.9518E+01  0.4632E+02
     -5.539  0.8189E+01  0.4689E+02
     -5.469  0.5484E+01  0.4728E+02
     -5.400  0.3634E+01  0.4753E+02
     -5.330  0.3781E+01  0.4779E+02
     -5.261  0.4813E+01  0.4813E+02
     -5.191  0.4909E+01  0.4847E+02
     -5.121  0.5570E+01  0.4886E+02
     -5.052  0.7147E+01  0.4935E+02
     -4.982  0.7937E+01  0.4991E+02
     -4.912  0.7436E+01  0.5042E+02
     -4.843  0.7805E+01  0.5097E+02
     -4.773  0.8469E+01  0.5156E+02
     -4.703  0.8280E+01  0.5213E+02
     -4.634  0.8628E+01  0.5274E+02
     -4.564  0.1006E+02  0.5344E+02
     -4.495  0.1146E+02  0.5423E+02
     -4.425  0.1135E+02  0.5502E+02
     -4.355  0.9758E+01  0.5570E+02
     -4.286  0.8959E+01  0.5633E+02
     -4.216  0.1007E+02  0.5703E+02
     -4.146  0.1182E+02  0.5785E+02
     -4.077  0.1431E+02  0.5885E+02
     -4.007  0.1664E+02  0.6001E+02
     -3.937  0.1544E+02  0.6108E+02
     -3.868  0.1196E+02  0.6192E+02
     -3.798  0.1050E+02  0.6265E+02
     -3.729  0.1096E+02  0.6341E+02
     -3.659  0.1061E+02  0.6415E+02
     -3.589  0.9557E+01  0.6481E+02
     -3.520  0.9043E+01  0.6544E+02
     -3.450  0.1029E+02  0.6616E+02
     -3.380  0.1315E+02  0.6708E+02
     -3.311  0.1621E+02  0.6821E+02
     -3.241  0.1812E+02  0.6947E+02
     -3.172  0.1735E+02  0.7068E+02
     -3.102  0.1645E+02  0.7182E+02
     -3.032  0.1859E+02  0.7312E+02
     -2.963  0.2002E+02  0.7451E+02
     -2.893  0.1852E+02  0.7580E+02
     -2.823  0.1545E+02  0.7687E+02
     -2.754  0.1386E+02  0.7784E+02
     -2.684  0.1384E+02  0.7880E+02
     -2.614  0.1420E+02  0.7979E+02
     -2.545  0.1500E+02  0.8084E+02
     -2.475  0.1535E+02  0.8191E+02
     -2.406  0.1529E+02  0.8297E+02
     -2.336  0.1484E+02  0.8400E+02
     -2.266  0.1474E+02  0.8503E+02
     -2.197  0.1627E+02  0.8616E+02
     -2.127  0.1855E+02  0.8745E+02
     -2.057  0.1891E+02  0.8877E+02
     -1.988  0.1861E+02  0.9007E+02
     -1.918  0.2067E+02  0.9151E+02
     -1.848  0.2216E+02  0.9305E+02
     -1.779  0.2048E+02  0.9448E+02
     -1.709  0.1747E+02  0.9569E+02
     -1.640  0.1433E+02  0.9669E+02
     -1.570  0.1168E+02  0.9750E+02
     -1.500  0.1129E+02  0.9829E+02
     -1.431  0.1299E+02  0.9919E+02
     -1.361  0.1371E+02  0.1001E+03
     -1.291  0.1218E+02  0.1010E+03
     -1.222  0.9210E+01  0.1016E+03
     -1.152  0.7533E+01  0.1022E+03
     -1.083  0.8521E+01  0.1028E+03
     -1.013  0.9086E+01  0.1034E+03
     -0.943  0.8296E+01  0.1040E+03
     -0.874  0.7283E+01  0.1045E+03
     -0.804  0.6092E+01  0.1049E+03
     -0.734  0.6171E+01  0.1053E+03
     -0.665  0.6141E+01  0.1058E+03
     -0.595  0.4247E+01  0.1061E+03
     -0.525  0.2520E+01  0.1062E+03
     -0.456  0.2599E+01  0.1064E+03
     -0.386  0.4405E+01  0.1067E+03
     -0.317  0.6597E+01  0.1072E+03
     -0.247  0.6412E+01  0.1076E+03
     -0.177  0.4502E+01  0.1079E+03
     -0.108  0.3973E+01  0.1082E+03
     -0.038  0.4278E+01  0.1085E+03
      0.032  0.4396E+01  0.1088E+03
      0.101  0.3844E+01  0.1091E+03
      0.171  0.3332E+01  0.1093E+03
      0.241  0.3795E+01  0.1096E+03
      0.310  0.4224E+01  0.1099E+03
      0.380  0.3641E+01  0.1101E+03
      0.449  0.2721E+01  0.1103E+03
      0.519  0.2152E+01  0.1105E+03
      0.589  0.2458E+01  0.1106E+03
      0.658  0.2885E+01  0.1108E+03
      0.728  0.2289E+01  0.1110E+03
      0.798  0.1749E+01  0.1111E+03
      0.867  0.2672E+01  0.1113E+03
      0.937  0.4089E+01  0.1116E+03
      1.006  0.4257E+01  0.1119E+03
      1.076  0.4625E+01  0.1122E+03
      1.146  0.6287E+01  0.1126E+03
      1.215  0.7687E+01  0.1132E+03
      1.285  0.8349E+01  0.1138E+03
      1.355  0.8675E+01  0.1144E+03
      1.424  0.9490E+01  0.1150E+03
      1.494  0.1116E+02  0.1158E+03
      1.564  0.1213E+02  0.1166E+03
      1.633  0.1204E+02  0.1175E+03
      1.703  0.1199E+02  0.1183E+03
      1.772  0.1177E+02  0.1191E+03
      1.842  0.1119E+02  0.1199E+03
      1.912  0.1049E+02  0.1207E+03
      1.981  0.1108E+02  0.1214E+03
      2.051  0.1230E+02  0.1223E+03
      2.121  0.1266E+02  0.1232E+03
      2.190  0.1272E+02  0.1240E+03
      2.260  0.1400E+02  0.1250E+03
      2.330  0.1521E+02  0.1261E+03
      2.399  0.1455E+02  0.1271E+03
      2.469  0.1368E+02  0.1280E+03
      2.538  0.1365E+02  0.1290E+03
      2.608  0.1403E+02  0.1300E+03
      2.678  0.1518E+02  0.1310E+03
      2.747  0.1632E+02  0.1322E+03
      2.817  0.1459E+02  0.1332E+03
      2.887  0.1126E+02  0.1340E+03
      2.956  0.9375E+01  0.1346E+03
      3.026  0.8403E+01  0.1352E+03
      3.095  0.6228E+01  0.1356E+03
      3.165  0.3521E+01  0.1359E+03
      3.235  0.1350E+01  0.1360E+03
      3.304  0.2754E+00  0.1360E+03
      3.374  0.2558E-01  0.1360E+03
      3.444  0.1012E-02  0.1360E+03
      3.513  0.1649E-04  0.1360E+03
      3.583  0.1086E-06  0.1360E+03
      3.653  0.2848E-09  0.1360E+03
      3.722  0.2946E-12  0.1360E+03
      3.792  0.6132E-16  0.1360E+03
      3.861  0.0000E+00  0.1360E+03
      3.931  0.0000E+00  0.1360E+03
      4.001  0.0000E+00  0.1360E+03
      4.070  0.0000E+00  0.1360E+03
      4.140  0.0000E+00  0.1360E+03
