   24   24    1    1
  0.4176334E+02  0.3540400E-09  0.1044544E-08  0.2750143E-08  0.5000000E-15
  1.000000000000000E-004
  CAR 
 unknown system                          
    108     54     68
 
  0.0000000E+00  0.0000000E+00  0.0000000E+00  0.9615385E-02
    1      -15.750006
    2      -13.495455
    3      -13.220303
    4      -12.777603
    5      -12.754353
    6      -12.435095
    7      -12.043918
    8      -11.886401
    9      -11.525788
   10      -11.388383
   11      -10.945706
   12      -10.084448
   13       -8.918093
   14       -7.989090
   15       -7.783859
   16       -7.321830
   17       -7.265346
   18       -6.774902
   19       -6.458876
   20       -6.389670
   21       -6.222111
   22       -5.782701
   23       -5.473310
   24       -4.880687
   25       -4.696953
   26       -4.042701
   27       -3.701453
   28       -3.601482
   29       -3.194697
   30       -3.034810
   31       -3.016440
   32       -2.987122
   33       -2.921844
   34       -2.799310
   35       -2.607366
   36       -2.536352
   37       -2.403316
   38       -2.342456
   39       -2.309332
   40       -2.084301
   41       -2.068770
   42       -1.994473
   43       -1.798400
   44       -1.684609
   45       -1.598151
   46       -1.546769
   47       -1.531747
   48       -1.448984
   49       -1.386155
   50       -1.361229
   51       -1.109413
   52       -1.074344
   53       -0.428812
   54        0.153590
   55        0.913315
   56        0.970683
   57        1.168786
   58        1.227963
   59        1.326151
   60        1.370587
   61        1.672060
   62        1.764680
   63        1.957295
   64        2.024146
   65        2.211766
   66        2.318582
   67        2.482099
   68        2.605109
 
  0.7692308E-01 -0.1387779E-16  0.0000000E+00  0.1923077E-01
    1      -15.697144
    2      -13.434110
    3      -13.164166
    4      -12.718885
    5      -12.701620
    6      -12.379475
    7      -11.981963
    8      -11.838200
    9      -11.470555
   10      -11.339481
   11      -10.897328
   12      -10.054804
   13       -8.895137
   14       -8.025411
   15       -7.747438
   16       -7.411937
   17       -7.237145
   18       -6.752395
   19       -6.563152
   20       -6.442734
   21       -6.310280
   22       -5.748758
   23       -5.443486
   24       -4.864369
   25       -4.701249
   26       -4.009926
   27       -3.738583
   28       -3.628290
   29       -3.478468
   30       -3.390330
   31       -3.240019
   32       -3.204998
   33       -3.129210
   34       -2.924991
   35       -2.866672
   36       -2.704390
   37       -2.581163
   38       -2.455292
   39       -2.410346
   40       -2.188426
   41       -2.140905
   42       -2.002478
   43       -1.948492
   44       -1.921336
   45       -1.900313
   46       -1.795939
   47       -1.690038
   48       -1.471260
   49       -1.359106
   50       -1.184183
   51       -1.064924
   52       -0.921223
   53       -0.344459
   54        0.160121
   55        0.589526
   56        0.847619
   57        1.070092
   58        1.492795
   59        1.617471
   60        1.809486
   61        2.061242
   62        2.179974
   63        2.253549
   64        2.340063
   65        2.404736
   66        2.584029
   67        2.661134
   68        2.811254
 
  0.1538462E+00 -0.2775558E-16  0.0000000E+00  0.1923077E-01
    1      -15.541381
    2      -13.251148
    3      -12.997439
    4      -12.550961
    5      -12.538246
    6      -12.214654
    7      -11.800782
    8      -11.695578
    9      -11.310170
   10      -11.197607
   11      -10.758524
   12       -9.977171
   13       -8.844382
   14       -8.121438
   15       -7.915858
   16       -7.702495
   17       -7.187472
   18       -6.862579
   19       -6.661400
   20       -6.455916
   21       -6.265716
   22       -5.674282
   23       -5.450256
   24       -4.875530
   25       -4.822321
   26       -4.263495
   27       -4.157584
   28       -4.037260
   29       -3.977317
   30       -3.914122
   31       -3.780147
   32       -3.643022
   33       -3.381509
   34       -3.314871
   35       -3.252602
   36       -3.104220
   37       -2.924224
   38       -2.866942
   39       -2.671156
   40       -2.549411
   41       -2.396750
   42       -2.288757
   43       -2.216796
   44       -2.099850
   45       -1.907285
   46       -1.857917
   47       -1.714159
   48       -1.611281
   49       -1.318556
   50       -1.125749
   51       -0.981788
   52       -0.635948
   53       -0.335993
   54       -0.126257
   55        0.262830
   56        0.477479
   57        1.097784
   58        1.768693
   59        1.983741
   60        2.267021
   61        2.358396
   62        2.503580
   63        2.665742
   64        2.702753
   65        2.774471
   66        2.959851
   67        2.993079
   68        3.060642
 
  0.2307692E+00 -0.4163336E-16  0.0000000E+00  0.1923077E-01
    1      -15.293216
    2      -12.950172
    3      -12.726612
    4      -12.292460
    5      -12.256822
    6      -11.947874
    7      -11.519018
    8      -11.464409
    9      -11.063864
   10      -10.980958
   11      -10.555435
   12       -9.903723
   13       -8.848901
   14       -8.692785
   15       -8.312455
   16       -7.776722
   17       -7.239846
   18       -6.928688
   19       -6.644576
   20       -6.588237
   21       -6.240521
   22       -5.699320
   23       -5.632219
   24       -5.294167
   25       -5.125789
   26       -4.823227
   27       -4.728012
   28       -4.558426
   29       -4.464255
   30       -4.406972
   31       -4.134121
   32       -4.032085
   33       -3.784045
   34       -3.736640
   35       -3.442595
   36       -3.374802
   37       -3.073666
   38       -2.958086
   39       -2.818384
   40       -2.748545
   41       -2.568952
   42       -2.419644
   43       -2.336773
   44       -2.148614
   45       -1.927323
   46       -1.863926
   47       -1.774840
   48       -1.684983
   49       -1.433451
   50       -1.421116
   51       -1.051274
   52       -0.948468
   53       -0.819004
   54       -0.521274
   55        0.262960
   56        0.961956
   57        1.082908
   58        1.722220
   59        1.893328
   60        2.025331
   61        2.126411
   62        2.342103
   63        2.416732
   64        2.669613
   65        2.721046
   66        2.744586
   67        2.923656
   68        2.993368
 
  0.3076923E+00 -0.5551115E-16  0.0000000E+00  0.1923077E-01
    1      -14.976709
    2      -12.538609
    3      -12.369805
    4      -11.943817
    5      -11.884587
    6      -11.596013
    7      -11.202249
    8      -11.140724
    9      -10.780050
   10      -10.736954
   11      -10.369492
   12      -10.040542
   13       -9.281468
   14       -8.983660
   15       -8.607676
   16       -8.037612
   17       -7.455337
   18       -7.070560
   19       -6.949407
   20       -6.853730
   21       -6.433109
   22       -6.118929
   23       -5.919869
   24       -5.820554
   25       -5.637411
   26       -5.191859
   27       -5.086868
   28       -4.735570
   29       -4.655226
   30       -4.547864
   31       -4.263864
   32       -4.174537
   33       -4.066606
   34       -3.863228
   35       -3.348445
   36       -3.249170
   37       -3.203868
   38       -3.043591
   39       -2.976310
   40       -2.930636
   41       -2.734806
   42       -2.555983
   43       -2.281156
   44       -2.208258
   45       -2.047968
   46       -1.987385
   47       -1.851217
   48       -1.822320
   49       -1.772794
   50       -1.666410
   51       -1.347952
   52       -1.299578
   53       -1.109628
   54       -0.746397
   55       -0.010194
   56        0.704210
   57        1.390049
   58        1.529452
   59        1.634862
   60        1.812457
   61        1.999636
   62        2.145896
   63        2.270393
   64        2.385376
   65        2.521345
   66        2.693093
   67        2.842276
   68        3.007850
 
  0.3846154E+00 -0.8326673E-16  0.0000000E+00  0.1923077E-01
    1      -14.645091
    2      -12.033620
    3      -11.986046
    4      -11.524636
    5      -11.471465
    6      -11.198004
    7      -10.932189
    8      -10.803266
    9      -10.583229
   10      -10.579868
   11      -10.423042
   12      -10.406792
   13       -9.514637
   14       -9.236748
   15       -8.784420
   16       -8.330203
   17       -7.761622
   18       -7.413543
   19       -7.368994
   20       -7.254136
   21       -6.874896
   22       -6.715512
   23       -6.615727
   24       -6.259253
   25       -5.580844
   26       -5.184997
   27       -5.043209
   28       -4.582213
   29       -4.483350
   30       -4.374595
   31       -4.184489
   32       -4.174352
   33       -4.028614
   34       -3.891020
   35       -3.610101
   36       -3.417271
   37       -3.225573
   38       -3.189725
   39       -3.054966
   40       -3.021679
   41       -2.753823
   42       -2.668390
   43       -2.463263
   44       -2.309202
   45       -2.227511
   46       -2.151377
   47       -2.053067
   48       -1.983591
   49       -1.892315
   50       -1.778682
   51       -1.614918
   52       -1.488849
   53       -1.323429
   54       -0.698717
   55       -0.270462
   56        0.341188
   57        1.294656
   58        1.448804
   59        1.537961
   60        1.747375
   61        1.763269
   62        1.993515
   63        2.095177
   64        2.258681
   65        2.317331
   66        2.439194
   67        2.725380
   68        2.822598
 
  0.4615385E+00 -0.8326673E-16  0.0000000E+00  0.1923077E-01
    1      -14.408571
    2      -11.785857
    3      -11.454671
    4      -11.103940
    5      -11.099969
    6      -10.897662
    7      -10.799034
    8      -10.742692
    9      -10.683629
   10      -10.650224
   11      -10.589755
   12      -10.516776
   13       -9.852806
   14       -9.265822
   15       -8.643013
   16       -8.392745
   17       -8.032975
   18       -7.866512
   19       -7.618101
   20       -7.524398
   21       -7.240624
   22       -7.145823
   23       -7.123824
   24       -6.451407
   25       -5.301166
   26       -5.019640
   27       -4.865842
   28       -4.507364
   29       -4.454797
   30       -4.230868
   31       -4.087522
   32       -3.996443
   33       -3.907200
   34       -3.796275
   35       -3.761534
   36       -3.569637
   37       -3.469974
   38       -3.233317
   39       -3.204031
   40       -3.031786
   41       -2.931941
   42       -2.906905
   43       -2.637442
   44       -2.454015
   45       -2.308445
   46       -2.172008
   47       -2.121642
   48       -2.077640
   49       -1.932590
   50       -1.866825
   51       -1.641669
   52       -1.493907
   53       -1.398353
   54       -0.736335
   55       -0.291775
   56        0.045629
   57        1.209048
   58        1.409254
   59        1.478584
   60        1.617513
   61        1.685384
   62        1.880016
   63        2.014305
   64        2.106316
   65        2.399899
   66        2.425474
   67        2.518532
   68        2.703900
 
  0.0000000E+00  0.2500000E+00  0.0000000E+00  0.1923077E-01
    1      -15.749390
    2      -13.440281
    3      -13.254472
    4      -12.929644
    5      -12.697109
    6      -12.433802
    7      -12.031388
    8      -11.824359
    9      -11.434882
   10      -11.406229
   11      -10.954460
   12      -10.055966
   13       -9.028457
   14       -8.470511
   15       -7.425043
   16       -7.280809
   17       -7.229751
   18       -6.626281
   19       -6.557818
   20       -6.278715
   21       -6.222220
   22       -5.704674
   23       -5.529128
   24       -4.689968
   25       -4.588268
   26       -4.028914
   27       -3.964409
   28       -3.562990
   29       -3.331553
   30       -3.290177
   31       -3.083034
   32       -3.038180
   33       -2.978664
   34       -2.664204
   35       -2.653953
   36       -2.577577
   37       -2.344242
   38       -2.334318
   39       -2.234719
   40       -2.104816
   41       -2.025493
   42       -1.958344
   43       -1.916002
   44       -1.836795
   45       -1.586626
   46       -1.568682
   47       -1.497980
   48       -1.409437
   49       -1.317076
   50       -1.267860
   51       -1.094115
   52       -1.019614
   53       -0.400125
   54       -0.022140
   55        0.940399
   56        1.013483
   57        1.235922
   58        1.280879
   59        1.300938
   60        1.447230
   61        1.674971
   62        1.772677
   63        1.946590
   64        2.120493
   65        2.260096
   66        2.342873
   67        2.590152
   68        2.682134
 
  0.7692308E-01  0.2500000E+00  0.0000000E+00  0.1923077E-01
    1      -15.696438
    2      -13.363554
    3      -13.203764
    4      -12.910555
    5      -12.621084
    6      -12.376869
    7      -12.006503
    8      -11.725095
    9      -11.392946
   10      -11.333518
   11      -10.910148
   12      -10.021429
   13       -9.023547
   14       -8.529003
   15       -7.474176
   16       -7.288093
   17       -7.197890
   18       -6.634910
   19       -6.519718
   20       -6.480565
   21       -6.211750
   22       -5.655969
   23       -5.529460
   24       -4.659469
   25       -4.604357
   26       -4.074267
   27       -3.973678
   28       -3.622674
   29       -3.522946
   30       -3.402100
   31       -3.339604
   32       -3.274898
   33       -3.085931
   34       -2.981612
   35       -2.973312
   36       -2.709929
   37       -2.592675
   38       -2.461499
   39       -2.436439
   40       -2.250894
   41       -2.140755
   42       -2.090491
   43       -1.991145
   44       -1.950781
   45       -1.789119
   46       -1.762083
   47       -1.697234
   48       -1.406706
   49       -1.226305
   50       -1.183712
   51       -1.003957
   52       -0.896944
   53       -0.331050
   54       -0.028653
   55        0.599242
   56        0.878321
   57        1.151433
   58        1.538343
   59        1.647777
   60        1.823545
   61        1.985555
   62        2.099641
   63        2.282107
   64        2.523362
   65        2.555687
   66        2.615540
   67        2.704249
   68        2.800876
 
  0.1538462E+00  0.2500000E+00  0.0000000E+00  0.1923077E-01
    1      -15.540652
    2      -13.167249
    3      -13.038052
    4      -12.774088
    5      -12.436359
    6      -12.210746
    7      -11.875602
    8      -11.527297
    9      -11.253328
   10      -11.166917
   11      -10.768925
   12       -9.944290
   13       -8.970163
   14       -8.594506
   15       -7.932267
   16       -7.289626
   17       -7.181121
   18       -6.800058
   19       -6.612039
   20       -6.453446
   21       -6.147154
   22       -5.609150
   23       -5.561351
   24       -4.800307
   25       -4.657254
   26       -4.338469
   27       -4.264352
   28       -4.207402
   29       -4.027196
   30       -3.916539
   31       -3.757838
   32       -3.569763
   33       -3.378271
   34       -3.272276
   35       -3.222051
   36       -3.008466
   37       -2.918431
   38       -2.842860
   39       -2.746444
   40       -2.695383
   41       -2.559474
   42       -2.406661
   43       -2.281446
   44       -2.076942
   45       -1.918574
   46       -1.827501
   47       -1.709550
   48       -1.464855
   49       -1.278446
   50       -1.070732
   51       -0.947382
   52       -0.631853
   53       -0.350605
   54       -0.149939
   55        0.249222
   56        0.414432
   57        1.129104
   58        1.676195
   59        1.808064
   60        2.159936
   61        2.290799
   62        2.427014
   63        2.745167
   64        2.810527
   65        2.876185
   66        2.917770
   67        3.052925
   68        3.138660
 
  0.2307692E+00  0.2500000E+00  0.0000000E+00  0.1923077E-01
    1      -15.292563
    2      -12.856463
    3      -12.763072
    4      -12.522785
    5      -12.153658
    6      -11.943327
    7      -11.646757
    8      -11.250629
    9      -11.031452
   10      -10.926903
   11      -10.551645
   12       -9.880052
   13       -8.930196
   14       -8.725833
   15       -8.702209
   16       -7.370681
   17       -7.315805
   18       -6.822340
   19       -6.651123
   20       -6.598547
   21       -6.173657
   22       -5.778320
   23       -5.728525
   24       -5.166583
   25       -5.013322
   26       -4.985182
   27       -4.781465
   28       -4.618643
   29       -4.508587
   30       -4.448475
   31       -4.031189
   32       -3.970205
   33       -3.695820
   34       -3.680052
   35       -3.291921
   36       -3.168788
   37       -3.062500
   38       -3.041870
   39       -2.919928
   40       -2.803632
   41       -2.605659
   42       -2.491883
   43       -2.474498
   44       -2.091108
   45       -1.935659
   46       -1.870350
   47       -1.790999
   48       -1.721019
   49       -1.502058
   50       -1.350547
   51       -1.065090
   52       -0.921109
   53       -0.869472
   54       -0.435664
   55        0.159075
   56        0.917594
   57        1.157909
   58        1.489045
   59        1.633709
   60        1.725805
   61        1.914102
   62        2.267103
   63        2.558769
   64        2.634979
   65        2.737415
   66        2.853122
   67        3.000621
   68        3.087302
 
  0.3076923E+00  0.2500000E+00  0.0000000E+00  0.1923077E-01
    1      -14.976183
    2      -12.442545
    3      -12.394141
    4      -12.163848
    5      -11.797351
    6      -11.592315
    7      -11.342361
    8      -10.936895
    9      -10.767662
   10      -10.665648
   11      -10.346057
   12      -10.038511
   13       -9.259811
   14       -9.014396
   15       -8.924784
   16       -7.659891
   17       -7.603961
   18       -7.067414
   19       -6.960213
   20       -6.914706
   21       -6.395290
   22       -6.147821
   23       -5.915169
   24       -5.869797
   25       -5.635135
   26       -5.340510
   27       -5.070502
   28       -4.893572
   29       -4.547292
   30       -4.376502
   31       -4.279293
   32       -4.091665
   33       -3.966993
   34       -3.751438
   35       -3.296211
   36       -3.259193
   37       -3.093231
   38       -2.961951
   39       -2.863881
   40       -2.802223
   41       -2.767155
   42       -2.531965
   43       -2.451291
   44       -2.301924
   45       -2.207981
   46       -2.027523
   47       -1.925242
   48       -1.841705
   49       -1.801266
   50       -1.699347
   51       -1.450479
   52       -1.260511
   53       -1.085640
   54       -0.718510
   55       -0.087349
   56        0.635439
   57        1.270269
   58        1.320835
   59        1.504403
   60        1.580229
   61        1.959557
   62        2.178691
   63        2.262994
   64        2.425380
   65        2.477635
   66        2.660210
   67        2.902372
   68        2.984527
 
  0.3846154E+00  0.2500000E+00  0.0000000E+00  0.1923077E-01
    1      -14.644797
    2      -12.004780
    3      -11.929941
    4      -11.713981
    5      -11.431132
    6      -11.197613
    7      -11.018893
    8      -10.679385
    9      -10.556660
   10      -10.510643
   11      -10.431514
   12      -10.418006
   13       -9.496844
   14       -9.224307
   15       -8.914905
   16       -8.064823
   17       -7.846439
   18       -7.733789
   19       -7.311360
   20       -7.182220
   21       -6.931142
   22       -6.650328
   23       -6.614809
   24       -6.253716
   25       -5.632047
   26       -5.303720
   27       -5.004910
   28       -4.738264
   29       -4.480311
   30       -4.363151
   31       -4.185500
   32       -4.070438
   33       -3.815494
   34       -3.668320
   35       -3.472376
   36       -3.308258
   37       -3.242238
   38       -3.084788
   39       -3.045150
   40       -2.906927
   41       -2.822463
   42       -2.709051
   43       -2.595074
   44       -2.423389
   45       -2.295961
   46       -2.217032
   47       -2.156910
   48       -2.029737
   49       -1.870452
   50       -1.770939
   51       -1.619704
   52       -1.529773
   53       -1.384954
   54       -0.702059
   55       -0.283486
   56        0.306755
   57        1.235860
   58        1.331599
   59        1.388060
   60        1.521764
   61        1.857301
   62        1.999430
   63        2.076819
   64        2.165944
   65        2.224805
   66        2.621480
   67        2.683105
   68        2.762276
 
  0.4615385E+00  0.2500000E+00  0.0000000E+00  0.1923077E-01
    1      -14.408483
    2      -11.783414
    3      -11.383274
    4      -11.218926
    5      -11.117838
    6      -10.910686
    7      -10.819096
    8      -10.746465
    9      -10.654795
   10      -10.631775
   11      -10.537365
   12      -10.514638
   13       -9.852938
   14       -9.255499
   15       -8.509298
   16       -8.354038
   17       -8.281006
   18       -7.879383
   19       -7.602976
   20       -7.470213
   21       -7.270325
   22       -7.169068
   23       -7.094125
   24       -6.446184
   25       -5.299799
   26       -5.026284
   27       -4.963732
   28       -4.531691
   29       -4.424061
   30       -4.183067
   31       -4.103916
   32       -4.031954
   33       -3.884511
   34       -3.783251
   35       -3.616268
   36       -3.462771
   37       -3.359092
   38       -3.237108
   39       -3.204632
   40       -3.068491
   41       -2.946064
   42       -2.905709
   43       -2.584606
   44       -2.548023
   45       -2.396465
   46       -2.242899
   47       -2.152961
   48       -2.076811
   49       -1.902682
   50       -1.848242
   51       -1.651121
   52       -1.521073
   53       -1.436163
   54       -0.745348
   55       -0.275467
   56        0.030814
   57        1.243537
   58        1.458173
   59        1.522033
   60        1.562568
   61        1.616027
   62        1.765850
   63        2.026749
   64        2.094621
   65        2.237755
   66        2.479388
   67        2.505659
   68        2.595367
 
 -0.4615385E+00  0.2500000E+00  0.0000000E+00  0.1923077E-01
    1      -14.408642
    2      -11.787737
    3      -11.488454
    4      -11.089381
    5      -11.025403
    6      -10.883842
    7      -10.763966
    8      -10.733457
    9      -10.710453
   10      -10.672230
   11      -10.658384
   12      -10.515701
   13       -9.852636
   14       -9.274034
   15       -8.711532
   16       -8.386572
   17       -7.897875
   18       -7.854635
   19       -7.629771
   20       -7.557519
   21       -7.235121
   22       -7.177057
   23       -7.107661
   24       -6.456827
   25       -5.279252
   26       -5.043650
   27       -4.687966
   28       -4.533639
   29       -4.474975
   30       -4.316429
   31       -4.068321
   32       -3.965002
   33       -3.956827
   34       -3.847880
   35       -3.838022
   36       -3.644078
   37       -3.533365
   38       -3.308165
   39       -3.108666
   40       -3.086531
   41       -2.920807
   42       -2.742237
   43       -2.630952
   44       -2.381012
   45       -2.330003
   46       -2.189352
   47       -2.120821
   48       -2.110139
   49       -1.937042
   50       -1.861627
   51       -1.619750
   52       -1.467653
   53       -1.369211
   54       -0.733800
   55       -0.307845
   56        0.062820
   57        1.206978
   58        1.401957
   59        1.533946
   60        1.691965
   61        1.789408
   62        1.803950
   63        2.039531
   64        2.254573
   65        2.365086
   66        2.403431
   67        2.569320
   68        2.614542
 
 -0.3846154E+00  0.2500000E+00  0.0000000E+00  0.1923077E-01
    1      -14.645228
    2      -12.058276
    3      -11.983017
    4      -11.488282
    5      -11.439523
    6      -11.195585
    7      -10.894017
    8      -10.872636
    9      -10.624443
   10      -10.585624
   11      -10.418822
   12      -10.402468
   13       -9.522503
   14       -9.242122
   15       -8.696294
   16       -8.443850
   17       -7.717771
   18       -7.394342
   19       -7.301333
   20       -7.274356
   21       -6.846311
   22       -6.765093
   23       -6.619753
   24       -6.264432
   25       -5.558398
   26       -5.125047
   27       -4.969559
   28       -4.788624
   29       -4.371181
   30       -4.328033
   31       -4.212122
   32       -4.168503
   33       -4.039729
   34       -3.984206
   35       -3.677046
   36       -3.388475
   37       -3.344302
   38       -3.242177
   39       -3.133410
   40       -3.047858
   41       -2.732828
   42       -2.631526
   43       -2.472806
   44       -2.238270
   45       -2.180519
   46       -2.153945
   47       -1.988127
   48       -1.903838
   49       -1.897744
   50       -1.773226
   51       -1.643656
   52       -1.446016
   53       -1.299805
   54       -0.695894
   55       -0.264826
   56        0.355182
   57        1.242610
   58        1.433227
   59        1.488400
   60        1.808735
   61        1.942643
   62        2.111291
   63        2.151787
   64        2.309818
   65        2.442777
   66        2.539982
   67        2.623485
   68        2.726951
 
 -0.3076923E+00  0.2500000E+00  0.0000000E+00  0.1923077E-01
    1      -14.976789
    2      -12.550817
    3      -12.364063
    4      -11.905618
    5      -11.895642
    6      -11.595474
    7      -11.204111
    8      -11.153660
    9      -10.807749
   10      -10.728755
   11      -10.375572
   12      -10.040861
   13       -9.284936
   14       -8.978878
   15       -8.508779
   16       -8.140271
   17       -7.412392
   18       -7.108469
   19       -6.954211
   20       -6.824123
   21       -6.435059
   22       -6.111896
   23       -5.928383
   24       -5.805525
   25       -5.640951
   26       -5.163131
   27       -5.060607
   28       -4.827724
   29       -4.600991
   30       -4.544780
   31       -4.265343
   32       -4.196318
   33       -4.070529
   34       -3.874694
   35       -3.412355
   36       -3.248915
   37       -3.208078
   38       -3.045352
   39       -3.019848
   40       -2.928740
   41       -2.738839
   42       -2.549702
   43       -2.259167
   44       -2.192129
   45       -2.030795
   46       -1.970973
   47       -1.843218
   48       -1.804219
   49       -1.757685
   50       -1.659280
   51       -1.338607
   52       -1.307700
   53       -1.109871
   54       -0.749836
   55        0.001384
   56        0.714576
   57        1.377218
   58        1.481373
   59        1.669655
   60        1.921509
   61        2.024628
   62        2.244116
   63        2.300499
   64        2.406366
   65        2.552854
   66        2.696266
   67        2.761826
   68        2.983835
 
 -0.2307692E+00  0.2500000E+00  0.0000000E+00  0.1923077E-01
    1      -15.293177
    2      -12.945948
    3      -12.729155
    4      -12.306797
    5      -12.251277
    6      -11.947952
    7      -11.511584
    8      -11.466163
    9      -11.053601
   10      -10.984643
   11      -10.554016
   12       -9.902288
   13       -8.853737
   14       -8.693402
   15       -8.352799
   16       -7.735197
   17       -7.250015
   18       -6.916443
   19       -6.643172
   20       -6.591873
   21       -6.239696
   22       -5.700907
   23       -5.637194
   24       -5.289548
   25       -5.118421
   26       -4.832089
   27       -4.740188
   28       -4.552479
   29       -4.467363
   30       -4.409729
   31       -4.129589
   32       -4.031067
   33       -3.779635
   34       -3.731654
   35       -3.425362
   36       -3.365765
   37       -3.073152
   38       -2.955130
   39       -2.824032
   40       -2.750402
   41       -2.593130
   42       -2.421284
   43       -2.346741
   44       -2.141479
   45       -1.923117
   46       -1.855258
   47       -1.775478
   48       -1.697222
   49       -1.434610
   50       -1.418070
   51       -1.050404
   52       -0.946139
   53       -0.825075
   54       -0.514280
   55        0.257264
   56        0.958750
   57        1.087474
   58        1.726111
   59        1.853362
   60        2.005390
   61        2.102505
   62        2.319652
   63        2.418052
   64        2.667987
   65        2.748974
   66        2.756731
   67        2.950486
   68        3.004691
 
 -0.1538462E+00  0.2500000E+00  0.0000000E+00  0.1923077E-01
    1      -15.541161
    2      -13.229727
    3      -13.011396
    4      -12.621727
    5      -12.509790
    6      -12.214724
    7      -11.769398
    8      -11.696858
    9      -11.258596
   10      -11.216634
   11      -10.756497
   12       -9.966979
   13       -8.884510
   14       -8.333043
   15       -7.920721
   16       -7.491495
   17       -7.199134
   18       -6.826919
   19       -6.616245
   20       -6.508236
   21       -6.247709
   22       -5.649156
   23       -5.476958
   24       -4.807335
   25       -4.798528
   26       -4.273126
   27       -4.218034
   28       -4.110552
   29       -3.992391
   30       -3.878829
   31       -3.762595
   32       -3.643697
   33       -3.380012
   34       -3.316995
   35       -3.245053
   36       -3.068110
   37       -2.887659
   38       -2.855430
   39       -2.735336
   40       -2.553304
   41       -2.485972
   42       -2.377280
   43       -2.194442
   44       -2.114338
   45       -1.899534
   46       -1.791830
   47       -1.719206
   48       -1.572426
   49       -1.310854
   50       -1.117741
   51       -0.968209
   52       -0.630840
   53       -0.335032
   54       -0.142287
   55        0.264272
   56        0.449379
   57        1.110719
   58        1.760081
   59        1.849824
   60        2.220712
   61        2.317485
   62        2.529255
   63        2.708745
   64        2.782714
   65        2.854131
   66        2.924088
   67        2.984876
   68        3.114084
 
 -0.7692308E-01  0.2500000E+00  0.0000000E+00  0.1923077E-01
    1      -15.696717
    2      -13.395522
    3      -13.189354
    4      -12.832085
    5      -12.660035