Automatically generated mesh
      54
Reciprocal lattice
    0.00000000000000    0.00000000000000    0.00000000000000             1
    0.07692307692308   -0.00000000000000    0.00000000000000             2
    0.15384615384615   -0.00000000000000    0.00000000000000             2
    0.23076923076923   -0.00000000000000    0.00000000000000             2
    0.30769230769231   -0.00000000000000    0.00000000000000             2
    0.38461538461539   -0.00000000000000    0.00000000000000             2
    0.46153846153846   -0.00000000000000    0.00000000000000             2
    0.00000000000000    0.25000000000000    0.00000000000000             2
    0.07692307692308    0.25000000000000    0.00000000000000             2
    0.15384615384615    0.25000000000000    0.00000000000000             2
    0.23076923076923    0.25000000000000    0.00000000000000             2
    0.30769230769231    0.25000000000000    0.00000000000000             2
    0.38461538461539    0.25000000000000    0.00000000000000             2
    0.46153846153846    0.25000000000000    0.00000000000000             2
   -0.46153846153846    0.25000000000000    0.00000000000000             2
   -0.38461538461538    0.25000000000000    0.00000000000000             2
   -0.30769230769231    0.25000000000000    0.00000000000000             2
   -0.23076923076923    0.25000000000000    0.00000000000000             2
   -0.15384615384615    0.25000000000000    0.00000000000000             2
   -0.07692307692308    0.25000000000000    0.00000000000000             2
    0.00000000000000    0.50000000000000    0.00000000000000             1
    0.07692307692308    0.50000000000000    0.00000000000000             2
    0.15384615384615    0.50000000000000    0.00000000000000             2
    0.23076923076923    0.50000000000000    0.00000000000000             2
    0.30769230769231    0.50000000000000    0.00000000000000             2
    0.38461538461539    0.50000000000000    0.00000000000000             2
    0.46153846153846    0.50000000000000    0.00000000000000             2
    0.00000000000000    0.00000000000000    0.50000000000000             1
    0.07692307692308   -0.00000000000000    0.50000000000000             2
    0.15384615384615   -0.00000000000000    0.50000000000000             2
    0.23076923076923   -0.00000000000000    0.50000000000000             2
    0.30769230769231   -0.00000000000000    0.50000000000000             2
    0.38461538461539   -0.00000000000000    0.50000000000000             2
    0.46153846153846   -0.00000000000000    0.50000000000000             2
    0.00000000000000    0.25000000000000    0.50000000000000             2
    0.07692307692308    0.25000000000000    0.50000000000000             2
    0.15384615384615    0.25000000000000    0.50000000000000             2
    0.23076923076923    0.25000000000000    0.50000000000000             2
    0.30769230769231    0.25000000000000    0.50000000000000             2
    0.38461538461539    0.25000000000000    0.50000000000000             2
    0.46153846153846    0.25000000000000    0.50000000000000             2
   -0.46153846153846    0.25000000000000    0.50000000000000             2
   -0.38461538461538    0.25000000000000    0.50000000000000             2
   -0.30769230769231    0.25000000000000    0.50000000000000             2
   -0.23076923076923    0.25000000000000    0.50000000000000             2
   -0.15384615384615    0.25000000000000    0.50000000000000             2
   -0.07692307692308    0.25000000000000    0.50000000000000             2
    0.00000000000000    0.50000000000000    0.50000000000000             1
    0.07692307692308    0.50000000000000    0.50000000000000             2
    0.15384615384615    0.50000000000000    0.50000000000000             2
    0.23076923076923    0.50000000000000    0.50000000000000             2
    0.30769230769231    0.50000000000000    0.50000000000000             2
    0.38461538461539    0.50000000000000    0.50000000000000             2
    0.46153846153846    0.50000000000000    0.50000000000000             2
