 vasp.5.3.5 31Mar14 (build Oct 29 2014 16:16:03) complex                        
  
 executed on          Linux-UFHPC date 2016.02.09  17:29:06
 running on    8 total cores
 distrk:  each k-point on    8 cores,    1 groups
 distr:  one band on NCORES_PER_BAND=   2 cores,    4 groups


--------------------------------------------------------------------------------------------------------


 INCAR:
 POTCAR:    PAW_PBE P 17Jan2003                   
 POTCAR:   PAW_PBE Si 05Jan2001                   

 ----------------------------------------------------------------------------- 
|                                                                             |
|  ADVICE TO THIS USER RUNNING 'VASP/VAMP'   (HEAR YOUR MASTER'S VOICE ...):  |
|                                                                             |
|      You have switched on vdW-DFT.                                          |
|      This routine was written and supplied by Jiri Klimes.                  |
|      We recommed that you carefully read and cite the following             |
|      publication                                                            |
|      J. Klimes, D.R. Bowler, A. Michelides                                  |
|        J. Phys.: Cond Matt. 22 022201 (2010)                                |
|      J. Klimes, D.R. Bowler, A. Michelides                                  |
|        Phys. Rev. B. 83, 195131 (2011)                                      |
|      and references therein.                                                |
|                                                                             |
 ----------------------------------------------------------------------------- 

 POTCAR:    PAW_PBE P 17Jan2003                   
   VRHFIN =P : s2p3                                                             
   LEXCH  = PE                                                                  
   EATOM  =   176.0430 eV,   12.9388 Ry                                         
                                                                                
   TITEL  = PAW_PBE P 17Jan2003                                                 
   LULTRA =        F    use ultrasoft PP ?                                      
   IUNSCR =        1    unscreen: 0-lin 1-nonlin 2-no                           
   RPACOR =    1.500    partial core radius                                     
   POMASS =   30.974; ZVAL   =    5.000    mass and valenz                      
   RCORE  =    1.900    outmost cutoff radius                                   
   RWIGS  =    2.330; RWIGS  =    1.233    wigner-seitz radius (au A)           
   ENMAX  =  270.000; ENMIN  =  191.280 eV                                      
   ICORE  =        2    local potential                                         
   LCOR   =        T    correct aug charges                                     
   LPAW   =        T    paw PP                                                  
   EAUG   =  342.924                                                            
   DEXC   =    -.002                                                            
   RMAX   =    2.887    core radius for proj-oper                               
   RAUG   =    1.300    factor for augmentation sphere                          
   RDEP   =    1.931    radius for radial grids                                 
   QCUT   =   -4.330; QGAM   =    8.659    optimization parameters              
                                                                                
   Description                                                                  
     l     E      TYP  RCUT    TYP  RCUT                                        
     0   .000     23  1.900                                                     
     0   .000     23  1.900                                                     
     1   .000     23  1.900                                                     
     1   .000     23  1.900                                                     
     2   .000     23  1.900                                                     
  local pseudopotential read in
  partial core-charges read in
  atomic valenz-charges read in
  non local Contribution for L=           0  read in
    real space projection operators read in
  non local Contribution for L=           0  read in
    real space projection operators read in
  non local Contribution for L=           1  read in
    real space projection operators read in
  non local Contribution for L=           1  read in
    real space projection operators read in
    PAW grid and wavefunctions read in
 
   number of l-projection  operators is LMAX  =           4
   number of lm-projection operators is LMMAX =           8
 
 POTCAR:   PAW_PBE Si 05Jan2001                   
   VRHFIN =Si: s2p2                                                             
   LEXCH  = PE                                                                  
   EATOM  =   103.0669 eV,    7.5752 Ry                                         
                                                                                
   TITEL  = PAW_PBE Si 05Jan2001                                                
   LULTRA =        F    use ultrasoft PP ?                                      
   IUNSCR =        1    unscreen: 0-lin 1-nonlin 2-no                           
   RPACOR =    1.500    partial core radius                                     
   POMASS =   28.085; ZVAL   =    4.000    mass and valenz                      
   RCORE  =    1.900    outmost cutoff radius                                   
   RWIGS  =    2.480; RWIGS  =    1.312    wigner-seitz radius (au A)           
   ENMAX  =  245.345; ENMIN  =  184.009 eV                                      
   ICORE  =        2    local potential                                         
   LCOR   =        T    correct aug charges                                     
   LPAW   =        T    paw PP                                                  
   EAUG   =  322.069                                                            
   DEXC   =    -.007                                                            
   RMAX   =    2.944    core radius for proj-oper                               
   RAUG   =    1.300    factor for augmentation sphere                          
   RDEP   =    1.993    radius for radial grids                                 
   QCUT   =   -4.246; QGAM   =    8.493    optimization parameters              
                                                                                
   Description                                                                  
     l     E      TYP  RCUT    TYP  RCUT                                        
     0   .000     23  1.900                                                     
     0   .000     23  1.900                                                     
     1   .000     23  1.900                                                     
     1   .000     23  1.900                                                     
     2   .000      7  1.900                                                     
  local pseudopotential read in
  partial core-charges read in
  atomic valenz-charges read in
  non local Contribution for L=           0  read in
    real space projection operators read in
  non local Contribution for L=           0  read in
    real space projection operators read in
  non local Contribution for L=           1  read in
    real space projection operators read in
  non local Contribution for L=           1  read in
    real space projection operators read in
    PAW grid and wavefunctions read in
 
   number of l-projection  operators is LMAX  =           4
   number of lm-projection operators is LMMAX =           8
 
 Optimization of the real space projectors (new method)

 maximal supplied QI-value         = 19.84
 optimisation between [QCUT,QGAM] = [  8.73, 17.66] = [ 21.34, 87.33] Ry 
 Optimized for a Real-space Cutoff    1.50 Angstroem

   l    n(q)    QCUT    max X(q) W(low)/X(q) W(high)/X(q)  e(spline) 
   0      8     8.731     6.651    0.16E-04    0.15E-04    0.77E-08
   0      8     8.731    90.285    0.16E-03    0.90E-04    0.16E-06
   1      7     8.731     4.328    0.47E-04    0.36E-04    0.45E-07
   1      7     8.731    54.583    0.13E-03    0.39E-03    0.20E-06
 Optimization of the real space projectors (new method)

 maximal supplied QI-value         = 19.84
 optimisation between [QCUT,QGAM] = [  8.73, 17.66] = [ 21.34, 87.33] Ry 
 Optimized for a Real-space Cutoff    1.46 Angstroem

   l    n(q)    QCUT    max X(q) W(low)/X(q) W(high)/X(q)  e(spline) 
   0      8     8.731     8.708    0.16E-04    0.11E-04    0.68E-08
   0      8     8.731   106.241    0.24E-03    0.77E-04    0.13E-06
   1      7     8.731     5.901    0.34E-04    0.38E-04    0.36E-07
   1      7     8.731    73.241    0.12E-03    0.39E-03    0.15E-06

 ----------------------------------------------------------------------------- 
|                                                                             |
|  ADVICE TO THIS USER RUNNING 'VASP/VAMP'   (HEAR YOUR MASTER'S VOICE ...):  |
|                                                                             |
|      You enforced a specific xc-type in the INCAR file,                     |
|      a different type was found on the POTCAR file                          |
|          I HOPE YOU KNOW, WHAT YOU ARE  DOING                               |
|                                                                             |
 ----------------------------------------------------------------------------- 

  PAW_PBE P 17Jan2003                   :
 energy of atom  1       EATOM= -176.0430
 kinetic energy error for atom=    0.0040 (will be added to EATOM!!)
 PAW_PBE Si 05Jan2001                   :
 energy of atom  2       EATOM= -103.0669
 kinetic energy error for atom=    0.0021 (will be added to EATOM!!)
 
 
 POSCAR: Si12                                    
  positions in direct lattice
  No initial velocities read in
 exchange correlation table for  LEXCH =       42
   RHO(1)=    0.500       N(1)  =     2000
   RHO(2)=  100.500       N(2)  =     4000
 


--------------------------------------------------------------------------------------------------------


 ion  position               nearest neighbor table
   1  0.114  0.228  0.233-  15 2.28  21 2.29  21 2.29
   2  0.314  0.628  0.515-  16 2.28  22 2.29  22 2.29
   3  0.458  0.916  0.209-  21 2.28  13 2.30  13 2.30
   4  0.658  0.316  0.491-  22 2.28  14 2.30  14 2.30
   5  0.311  0.622  0.084-  17 2.28  23 2.30  23 2.30
   6  0.311  0.622  0.366-  18 2.28
   7  0.999  0.998  0.086-  19 2.29  19 2.29  13 2.32
   8  0.999  0.998  0.368-  24 1.49  20 2.29  20 2.29
   9  0.655  0.310  0.060-  19 2.28  17 2.29  17 2.29
  10  0.655  0.310  0.342-  20 2.28  18 2.29  18 2.29
  11  0.770  0.539  0.207-  15 2.29  15 2.29  23 2.32
  12  0.970  0.939  0.489-  16 2.29  16 2.29  24 2.32
  13  0.940  0.879  0.158-   3 2.30   3 2.30   7 2.32  23 2.35
  14  0.140  0.279  0.440-  18 2.05   4 2.30   4 2.30  24 2.35  20 2.73  20 2.73
  15  0.205  0.410  0.186-   1 2.28  11 2.29  11 2.29  17 2.37
  16  0.405  0.810  0.468-   2 2.28  12 2.29  12 2.29
  17  0.202  0.404  0.100-   5 2.28   9 2.29   9 2.29  15 2.37
  18  0.202  0.404  0.382-  14 2.05   6 2.28  10 2.29  10 2.29
  19  0.564  0.128  0.108-   9 2.28   7 2.29   7 2.29  21 2.37
  20  0.564  0.128  0.390-  24 2.06  24 2.06  10 2.28   8 2.29   8 2.29  14 2.73  14 2.73
  21  0.567  0.134  0.194-   3 2.28   1 2.29   1 2.29  19 2.37
  22  0.767  0.534  0.476-   4 2.28   2 2.29   2 2.29
  23  0.829  0.658  0.136-   5 2.30   5 2.30  11 2.32  13 2.35
  24  0.029  0.058  0.418-   8 1.49  20 2.06  20 2.06  12 2.32  14 2.35
 
  LATTYP: Found a base centered orthorhombic cell.
 ALAT       =     3.5404000000
 B/A-ratio  =     5.8153587165
 C/A-ratio  =     7.7678875268
  
  Lattice vectors:
  
 A1 = (   1.7702000000,  10.2943480000,   0.0000000000)
 A2 = (   1.7702000000, -10.2943480000,   0.0000000000)
 A3 = (   0.0000000000,   0.0000000000, -27.5014290000)


Analysis of symmetry for initial positions (statically):
=====================================================================
 Subroutine PRICEL returns:
 Original cell was already a primitive cell.
 

 Routine SETGRP: Setting up the symmetry group for a 
 base centered orthorhombic supercell.


 Subroutine GETGRP returns: Found  2 space group operations
 (whereof  2 operations were pure point group operations)
 out of a pool of  8 trial point group operations.


The static configuration has the point symmetry C_1h.


Analysis of symmetry for dynamics (positions and initial velocities):
=====================================================================
 Subroutine PRICEL returns:
 Original cell was already a primitive cell.
 

 Routine SETGRP: Setting up the symmetry group for a 
 base centered orthorhombic supercell.


 Subroutine GETGRP returns: Found  2 space group operations
 (whereof  2 operations were pure point group operations)
 out of a pool of  8 trial point group operations.


The dynamic configuration has the point symmetry C_1h.
 
 
 KPOINTS: pymatgen generated KPOINTS with grid den

Automatic generation of k-mesh.
Space group operators:
 irot       det(A)        alpha          n_x          n_y          n_z        tau_x        tau_y        tau_z
    1     1.000000     0.000000     1.000000     0.000000     0.000000     0.000000     0.000000     0.000000
    2    -1.000000   180.000000     1.000000     0.000000     0.000000     0.000000     0.000000     0.000000
 
 Subroutine IBZKPT returns following result:
 ===========================================
 
 Found     54 irreducible k-points:
 
 Following reciprocal coordinates:
            Coordinates               Weight
  0.000000  0.000000  0.000000      1.000000
  0.076923 -0.000000  0.000000      2.000000
  0.153846 -0.000000  0.000000      2.000000
  0.230769 -0.000000  0.000000      2.000000
  0.307692 -0.000000  0.000000      2.000000
  0.384615 -0.000000  0.000000      2.000000
  0.461538 -0.000000  0.000000      2.000000
  0.000000  0.250000  0.000000      2.000000
  0.076923  0.250000  0.000000      2.000000
  0.153846  0.250000  0.000000      2.000000
  0.230769  0.250000  0.000000      2.000000
  0.307692  0.250000  0.000000      2.000000
  0.384615  0.250000  0.000000      2.000000
  0.461538  0.250000  0.000000      2.000000
 -0.461538  0.250000  0.000000      2.000000
 -0.384615  0.250000  0.000000      2.000000
 -0.307692  0.250000  0.000000      2.000000
 -0.230769  0.250000  0.000000      2.000000
 -0.153846  0.250000  0.000000      2.000000
 -0.076923  0.250000  0.000000      2.000000
  0.000000  0.500000  0.000000      1.000000
  0.076923  0.500000  0.000000      2.000000
  0.153846  0.500000  0.000000      2.000000
  0.230769  0.500000  0.000000      2.000000
  0.307692  0.500000  0.000000      2.000000
  0.384615  0.500000  0.000000      2.000000
  0.461538  0.500000  0.000000      2.000000
  0.000000  0.000000  0.500000      1.000000
  0.076923 -0.000000  0.500000      2.000000
  0.153846 -0.000000  0.500000      2.000000
  0.230769 -0.000000  0.500000      2.000000
  0.307692 -0.000000  0.500000      2.000000
  0.384615 -0.000000  0.500000      2.000000
  0.461538 -0.000000  0.500000      2.000000
  0.000000  0.250000  0.500000      2.000000
  0.076923  0.250000  0.500000      2.000000
  0.153846  0.250000  0.500000      2.000000
  0.230769  0.250000  0.500000      2.000000
  0.307692  0.250000  0.500000      2.000000
  0.384615  0.250000  0.500000      2.000000
  0.461538  0.250000  0.500000      2.000000
 -0.461538  0.250000  0.500000      2.000000
 -0.384615  0.250000  0.500000      2.000000
 -0.307692  0.250000  0.500000      2.000000
 -0.230769  0.250000  0.500000      2.000000
 -0.153846  0.250000  0.500000      2.000000
 -0.076923  0.250000  0.500000      2.000000
  0.000000  0.500000  0.500000      1.000000
  0.076923  0.500000  0.500000      2.000000
  0.153846  0.500000  0.500000      2.000000
  0.230769  0.500000  0.500000      2.000000
  0.307692  0.500000  0.500000      2.000000
  0.384615  0.500000  0.500000      2.000000
  0.461538  0.500000  0.500000      2.000000
 
 Following cartesian coordinates:
            Coordinates               Weight
  0.000000  0.000000  0.000000      1.000000
  0.021727  0.003736  0.000000      2.000000
  0.043454  0.007472  0.000000      2.000000
  0.065182  0.011209  0.000000      2.000000
  0.086909  0.014945  0.000000      2.000000
  0.108636  0.018681  0.000000      2.000000
  0.130363  0.022417  0.000000      2.000000
  0.000000  0.024285  0.000000      2.000000
  0.021727  0.028021  0.000000      2.000000
  0.043454  0.031758  0.000000      2.000000
  0.065182  0.035494  0.000000      2.000000
  0.086909  0.039230  0.000000      2.000000
  0.108636  0.042966  0.000000      2.000000
  0.130363  0.046702  0.000000      2.000000
 -0.130363  0.001868  0.000000      2.000000
 -0.108636  0.005604  0.000000      2.000000
 -0.086909  0.009340  0.000000      2.000000
 -0.065182  0.013077  0.000000      2.000000
 -0.043454  0.016813  0.000000      2.000000
 -0.021727  0.020549  0.000000      2.000000
  0.000000  0.048570  0.000000      1.000000
  0.021727  0.052307  0.000000      2.000000
  0.043454  0.056043  0.000000      2.000000
  0.065182  0.059779  0.000000      2.000000
  0.086909  0.063515  0.000000      2.000000
  0.108636  0.067251  0.000000      2.000000
  0.130363  0.070987  0.000000      2.000000
  0.000000  0.000000  0.018181      1.000000
  0.021727  0.003736  0.018181      2.000000
  0.043454  0.007472  0.018181      2.000000
  0.065182  0.011209  0.018181      2.000000
  0.086909  0.014945  0.018181      2.000000
  0.108636  0.018681  0.018181      2.000000
  0.130363  0.022417  0.018181      2.000000
  0.000000  0.024285  0.018181      2.000000
  0.021727  0.028021  0.018181      2.000000
  0.043454  0.031758  0.018181      2.000000
  0.065182  0.035494  0.018181      2.000000
  0.086909  0.039230  0.018181      2.000000
  0.108636  0.042966  0.018181      2.000000
  0.130363  0.046702  0.018181      2.000000
 -0.130363  0.001868  0.018181      2.000000
 -0.108636  0.005604  0.018181      2.000000
 -0.086909  0.009340  0.018181      2.000000
 -0.065182  0.013077  0.018181      2.000000
 -0.043454  0.016813  0.018181      2.000000
 -0.021727  0.020549  0.018181      2.000000
  0.000000  0.048570  0.018181      1.000000
  0.021727  0.052307  0.018181      2.000000
  0.043454  0.056043  0.018181      2.000000
  0.065182  0.059779  0.018181      2.000000
  0.086909  0.063515  0.018181      2.000000
  0.108636  0.067251  0.018181      2.000000
  0.130363  0.070987  0.018181      2.000000
 


--------------------------------------------------------------------------------------------------------




 Dimension of arrays:
   k-points           NKPTS =     54   k-points in BZ     NKDIM =     54   number of bands    NBANDS=     68
   number of dos      NEDOS =    301   number of ions     NIONS =     24
   non local maximal  LDIM  =      4   non local SUM 2l+1 LMDIM =      8
   total plane-waves  NPLWV = 192000
   max r-space proj   IRMAX =   2772   max aug-charges    IRDMAX=   6603
   dimension x,y,z NGX =    20 NGY =   60 NGZ =  160
   dimension x,y,z NGXF=    40 NGYF=  120 NGZF=  320
   support grid    NGXF=    40 NGYF=  120 NGZF=  320
   ions per type =              12  12
 NGX,Y,Z   is equivalent  to a cutoff of   9.39,  9.55,  9.67 a.u.
 NGXF,Y,Z  is equivalent  to a cutoff of  18.78, 19.10, 19.34 a.u.


 I would recommend the setting:
   dimension x,y,z NGX =    20 NGY =   59 NGZ =  155
 SYSTEM =  unknown system                          
 POSCAR =  Si12                                    

 Startparameter for this run:
   NWRITE =      2    write-flag & timer
   PREC   = accura    normal or accurate (medium, high low for compatibility)
   ISTART =      0    job   : 0-new  1-cont  2-samecut
   ICHARG =      2    charge: 1-file 2-atom 10-const
   ISPIN  =      1    spin polarized calculation?
   LNONCOLLINEAR =      F non collinear calculations
   LSORBIT =      F    spin-orbit coupling
   INIWAV =      1    electr: 0-lowe 1-rand  2-diag
   LASPH  =      F    aspherical Exc in radial PAW
   METAGGA=      F    non-selfconsistent MetaGGA calc.

 Electronic Relaxation 1
   ENCUT  =  300.0 eV  22.05 Ry    4.70 a.u.   5.00 14.75 38.84*2*pi/ulx,y,z
   ENINI  =  300.0     initial cutoff
   ENAUG  =  342.9 eV  augmentation charge cutoff
   NELM   =     60;   NELMIN=  2; NELMDL= -5     # of ELM steps 
   EDIFF  = 0.1E-05   stopping-criterion for ELM
   LREAL  =      T    real-space projection
   NLSPLINE    = F    spline interpolate recip. space projectors
   LCOMPAT=      F    compatible to vasp.4.4
   GGA_COMPAT  = T    GGA compatible to vasp.4.4-vasp.4.6
   LMAXPAW     = -100 max onsite density
   LMAXMIX     =    2 max onsite mixed and CHGCAR
   VOSKOWN=      0    Vosko Wilk Nusair interpolation
   ROPT   =   -0.00025  -0.00025
 Ionic relaxation
   EDIFFG = 0.1E-04   stopping-criterion for IOM
   NSW    =      0    number of steps for IOM
   NBLOCK =      1;   KBLOCK =      1    inner block; outer block 
   IBRION =     -1    ionic relax: 0-MD 1-quasi-New 2-CG
   NFREE  =      1    steps in history (QN), initial steepest desc. (CG)
   ISIF   =      3    stress and relaxation
   IWAVPR =     10    prediction:  0-non 1-charg 2-wave 3-comb
   ISYM   =      2    0-nonsym 1-usesym 2-fastsym
   LCORR  =      T    Harris-Foulkes like correction to forces

   POTIM  = 0.5000    time-step for ionic-motion
   TEIN   =    0.0    initial temperature
   TEBEG  =    0.0;   TEEND  =   0.0 temperature during run
   SMASS  =  -3.00    Nose mass-parameter (am)
   estimated Nose-frequenzy (Omega)   =  0.10E-29 period in steps =****** mass=  -0.286E-27a.u.
   SCALEE = 1.0000    scale energy and forces
   NPACO  =    256;   APACO  = 16.0  distance and # of slots for P.C.
   PSTRESS=    0.0 pullay stress

  Mass of Ions in am
   POMASS =  30.97 28.09
  Ionic Valenz
   ZVAL   =   5.00  4.00
  Atomic Wigner-Seitz radii
   RWIGS  =  -1.00 -1.00
  virtual crystal weights 
   VCA    =   1.00  1.00
   NELECT =     108.0000    total number of electrons
   NUPDOWN=      -1.0000    fix difference up-down

 DOS related values:
   EMIN   =  10.00;   EMAX   =-10.00  energy-range for DOS
   EFERMI =   0.00
   ISMEAR =     0;   SIGMA  =   0.10  broadening in eV -4-tet -1-fermi 0-gaus

 Electronic relaxation 2 (details)
   IALGO  =     38    algorithm
   LDIAG  =      T    sub-space diagonalisation (order eigenvalues)
   LSUBROT=      F    optimize rotation matrix (better conditioning)
   TURBO    =      0    0=normal 1=particle mesh
   IRESTART =      0    0=no restart 2=restart with 2 vectors
   NREBOOT  =      0    no. of reboots
   NMIN     =      0    reboot dimension
   EREF     =   0.00    reference energy to select bands
   IMIX   =      4    mixing-type and parameters
     AMIX     =   0.40;   BMIX     =  1.00
     AMIX_MAG =   1.60;   BMIX_MAG =  1.00
     AMIN     =   0.10
     WC   =   100.;   INIMIX=   1;  MIXPRE=   1;  MAXMIX= -45

 Intra band minimization:
   WEIMIN = 0.0000     energy-eigenvalue tresh-hold
   EBREAK =  0.37E-08  absolut break condition
   DEPER  =   0.30     relativ break condition  

   TIME   =   0.40     timestep for ELM

  volume/ion in A,a.u.               =      41.76       281.83
  Fermi-wavevector in a.u.,A,eV,Ry     =   0.779018  1.472130  8.256946  0.606868
  Thomas-Fermi vector in A             =   1.882034
 
 Write flags
   LWAVE  =      F    write WAVECAR
   LCHARG =      F    write CHGCAR
   LVTOT  =      F    write LOCPOT, total local potential
   LVHAR  =      F    write LOCPOT, Hartree potential only
   LELF   =      F    write electronic localiz. function (ELF)
   LORBIT =      0    0 simple, 1 ext, 2 COOP (PROOUT)


 Dipole corrections
   LMONO  =      F    monopole corrections only (constant potential shift)
   LDIPOL =      F    correct potential (dipole corrections)
   IDIPOL =      0    1-x, 2-y, 3-z, 4-all directions 
   EPSILON=  1.0000000 bulk dielectric constant

 Exchange correlation treatment:
   GGA     =    BO    GGA type
   LEXCH   =    42    internal setting for exchange type
   VOSKOWN=      0    Vosko Wilk Nusair interpolation
   LHFCALC =     F    Hartree Fock is set to
   LHFONE  =     F    Hartree Fock one center treatment
   AEXX    =    0.0000 exact exchange contribution

 vdW DFT:
   LUSE_VDW   =     T    switch on vdW DFT
   Zab_VDW    =-.8491    correlation parameter
   PARAM1     =0.1833
   PARAM2     =0.2200
   PARAM3     =0.0000

 Linear response parameters
   LEPSILON=     F    determine dielectric tensor
   LRPA    =     F    only Hartree local field effects (RPA)
   LNABLA  =     F    use nabla operator in PAW spheres
   LVEL    =     F    velocity operator in full k-point grid
   LINTERFAST=   F  fast interpolation
   KINTER  =     0    interpolate to denser k-point grid
   CSHIFT  =0.1000    complex shift for real part using Kramers Kronig
   OMEGAMAX=  -1.0    maximum frequency
   DEG_THRESHOLD= 0.2000000E-02 threshold for treating states as degnerate
   RTIME   =    0.100 relaxation time in fs

 Orbital magnetization related:
   ORBITALMAG=     F  switch on orbital magnetization
   LCHIMAG   =     F  perturbation theory with respect to B field
   DQ        =  0.001000  dq finite difference perturbation B field



--------------------------------------------------------------------------------------------------------


 Static calculation
 charge density and potential will be updated during run
 non-spin polarized calculation
 Variant of blocked Davidson
 Davidson routine will perform the subspace rotation
 perform sub-space diagonalisation
    after iterative eigenvector-optimisation
 modified Broyden-mixing scheme, WC =      100.0
 initial mixing is a Kerker type mixing with AMIX =  0.4000 and BMIX =      1.0000
 Hartree-type preconditioning will be used
 using additional bands           14
 real space projection scheme for non local part
 use partial core corrections
 calculate Harris-corrections to forces 
   (improved forces if not selfconsistent)
 use gradient corrections 
 use of overlap-Matrix (Vanderbilt PP)
 Gauss-broadening in eV      SIGMA  =   0.10


--------------------------------------------------------------------------------------------------------


  energy-cutoff  :      300.00
  volume of cell :     1002.32
      direct lattice vectors                 reciprocal lattice vectors
     3.540400000  0.000000000  0.000000000     0.282453960  0.048570342  0.000000000
    -1.770200000 10.294348000  0.000000000     0.000000000  0.097140683  0.000000000
     0.000000000  0.000000000 27.501429000     0.000000000  0.000000000  0.036361747

  length of vectors
     3.540400000 10.445439617 27.501429000     0.286599577  0.097140683  0.036361747


 
 k-points in units of 2pi/SCALE and weight: pymatgen generated KPOINTS with grid den
   0.00000000  0.00000000  0.00000000       0.010
   0.02172723  0.00373618  0.00000000       0.019
   0.04345446  0.00747236  0.00000000       0.019
   0.06518168  0.01120854  0.00000000       0.019
   0.08690891  0.01494472  0.00000000       0.019
   0.10863614  0.01868090  0.00000000       0.019
   0.13036337  0.02241708  0.00000000       0.019
   0.00000000  0.02428517  0.00000000       0.019
   0.02172723  0.02802135  0.00000000       0.019
   0.04345446  0.03175753  0.00000000       0.019
   0.06518168  0.03549371  0.00000000       0.019
   0.08690891  0.03922989  0.00000000       0.019
   0.10863614  0.04296607  0.00000000       0.019
   0.13036337  0.04670225  0.00000000       0.019
  -0.13036337  0.00186809  0.00000000       0.019
  -0.10863614  0.00560427  0.00000000       0.019
  -0.08690891  0.00934045  0.00000000       0.019
  -0.06518168  0.01307663  0.00000000       0.019
  -0.04345446  0.01681281  0.00000000       0.019
  -0.02172723  0.02054899  0.00000000       0.019
   0.00000000  0.04857034  0.00000000       0.010
   0.02172723  0.05230652  0.00000000       0.019
   0.04345446  0.05604270  0.00000000       0.019
   0.06518168  0.05977888  0.00000000       0.019
   0.08690891  0.06351506  0.00000000       0.019
   0.10863614  0.06725124  0.00000000       0.019
   0.13036337  0.07098742  0.00000000       0.019
   0.00000000  0.00000000  0.01818087       0.010
   0.02172723  0.00373618  0.01818087       0.019
   0.04345446  0.00747236  0.01818087       0.019
   0.06518168  0.01120854  0.01818087       0.019
   0.08690891  0.01494472  0.01818087       0.019
   0.10863614  0.01868090  0.01818087       0.019
   0.13036337  0.02241708  0.01818087       0.019
   0.00000000  0.02428517  0.01818087       0.019
   0.02172723  0.02802135  0.01818087       0.019
   0.04345446  0.03175753  0.01818087       0.019
   0.06518168  0.03549371  0.01818087       0.019
   0.08690891  0.03922989  0.01818087       0.019
   0.10863614  0.04296607  0.01818087       0.019
   0.13036337  0.04670225  0.01818087       0.019
  -0.13036337  0.00186809  0.01818087       0.019
  -0.10863614  0.00560427  0.01818087       0.019
  -0.08690891  0.00934045  0.01818087       0.019
  -0.06518168  0.01307663  0.01818087       0.019
  -0.04345446  0.01681281  0.01818087       0.019
  -0.02172723  0.02054899  0.01818087       0.019
   0.00000000  0.04857034  0.01818087       0.010
   0.02172723  0.05230652  0.01818087       0.019
   0.04345446  0.05604270  0.01818087       0.019
   0.06518168  0.05977888  0.01818087       0.019
   0.08690891  0.06351506  0.01818087       0.019
   0.10863614  0.06725124  0.01818087       0.019
   0.13036337  0.07098742  0.01818087       0.019
 
 k-points in reciprocal lattice and weights: pymatgen generated KPOINTS with grid den
   0.00000000  0.00000000  0.00000000       0.010
   0.07692308 -0.00000000  0.00000000       0.019
   0.15384615 -0.00000000  0.00000000       0.019
   0.23076923 -0.00000000  0.00000000       0.019
   0.30769231 -0.00000000  0.00000000       0.019
   0.38461538 -0.00000000  0.00000000       0.019
   0.46153846 -0.00000000  0.00000000       0.019
   0.00000000  0.25000000  0.00000000       0.019
   0.07692308  0.25000000  0.00000000       0.019
   0.15384615  0.25000000  0.00000000       0.019
   0.23076923  0.25000000  0.00000000       0.019
   0.30769231  0.25000000  0.00000000       0.019
   0.38461538  0.25000000  0.00000000       0.019
   0.46153846  0.25000000  0.00000000       0.019
  -0.46153846  0.25000000  0.00000000       0.019
  -0.38461538  0.25000000  0.00000000       0.019
  -0.30769231  0.25000000  0.00000000       0.019
  -0.23076923  0.25000000  0.00000000       0.019
  -0.15384615  0.25000000  0.00000000       0.019
  -0.07692308  0.25000000  0.00000000       0.019
   0.00000000  0.50000000  0.00000000       0.010
   0.07692308  0.50000000  0.00000000       0.019
   0.15384615  0.50000000  0.00000000       0.019
   0.23076923  0.50000000  0.00000000       0.019
   0.30769231  0.50000000  0.00000000       0.019
   0.38461538  0.50000000  0.00000000       0.019
   0.46153846  0.50000000  0.00000000       0.019
   0.00000000  0.00000000  0.50000000       0.010
   0.07692308 -0.00000000  0.50000000       0.019
   0.15384615 -0.00000000  0.50000000       0.019
   0.23076923 -0.00000000  0.50000000       0.019
   0.30769231 -0.00000000  0.50000000       0.019
   0.38461538 -0.00000000  0.50000000       0.019
   0.46153846 -0.00000000  0.50000000       0.019
   0.00000000  0.25000000  0.50000000       0.019
   0.07692308  0.25000000  0.50000000       0.019
   0.15384615  0.25000000  0.50000000       0.019
   0.23076923  0.25000000  0.50000000       0.019
   0.30769231  0.25000000  0.50000000       0.019
   0.38461538  0.25000000  0.50000000       0.019
   0.46153846  0.25000000  0.50000000       0.019
  -0.46153846  0.25000000  0.50000000       0.019
  -0.38461538  0.25000000  0.50000000       0.019
  -0.30769231  0.25000000  0.50000000       0.019
  -0.23076923  0.25000000  0.50000000       0.019
  -0.15384615  0.25000000  0.50000000       0.019
  -0.07692308  0.25000000  0.50000000       0.019
   0.00000000  0.50000000  0.50000000       0.010
   0.07692308  0.50000000  0.50000000       0.019
   0.15384615  0.50000000  0.50000000       0.019
   0.23076923  0.50000000  0.50000000       0.019
   0.30769231  0.50000000  0.50000000       0.019
   0.38461538  0.50000000  0.50000000       0.019
   0.46153846  0.50000000  0.50000000       0.019
 
 position of ions in fractional coordinates (direct lattice) 
   0.11402300  0.22804500  0.23316207
   0.31402300  0.62804500  0.51499159
   0.45808900  0.91617900  0.20939482
   0.65808900  0.31617900  0.49122434
   0.31085400  0.62170900  0.08414979
   0.31085400  0.62170900  0.36597930
   0.99923000  0.99846000  0.08631254
   0.99923000  0.99846000  0.36814206
   0.65492700  0.30985400  0.06041748
   0.65492700  0.30985400  0.34224700
   0.76973800  0.53947500  0.20725292
   0.96973800  0.93947500  0.48908244
   0.93971600  0.87943300  0.15783749
   0.13971600  0.27943300  0.43966701
   0.20515200  0.41030300  0.18578822
   0.40515200  0.81030300  0.46761774
   0.20184900  0.40369900  0.09969156
   0.20184900  0.40369900  0.38152107
   0.56380500  0.12761000  0.10779021
   0.56380500  0.12761000  0.38961973
   0.56710600  0.13421200  0.19387616
   0.76710600  0.53421200  0.47570568
   0.82923400  0.65846800  0.13571444
   0.02923400  0.05846800  0.41754396
 
 position of ions in cartesian coordinates  (Angst):
   0.00000177  2.34757459  6.41229012
   0.00000177  6.46531379 14.16300462
  -0.00000177  9.43146546  5.75865686
   1.77019823  3.25485666 13.50937136
  -0.00000177  6.40008880  2.31423934
  -0.00000177  6.40008880 10.06495384
   1.77020000 10.27849470  2.37371832
   1.77020000 10.27849470 10.12443282
   1.77020000  3.18974491  1.66156717
   1.77020000  3.18974491  9.41228167
   1.77020177  5.55354339  5.69975143
   1.77020177  9.67128259 13.45046593
   1.77019823  9.05318934  4.34075665
  -0.00000177  2.87658054 12.09147115
   0.00000177  4.22380187  5.10944151
   0.00000177  8.34154107 12.86015601
  -0.00000177  4.15581799  2.74166024
  -0.00000177  4.15581799 10.49237474
   1.77020000  1.31366175  2.96438477
   1.77020000  1.31366175 10.71509927
   1.77020000  1.38162503  5.33187152
   1.77020000  5.49936423 13.08258602
   1.77020000  6.77849874  3.73234107
   0.00000000  0.60188994 11.48305557
 


--------------------------------------------------------------------------------------------------------


 k-point  1 :   0.0000 0.0000 0.0000  plane waves:   11717
 k-point  2 :   0.0769-0.0000 0.0000  plane waves:   11762
 k-point  3 :   0.1538-0.0000 0.0000  plane waves:   11805
 k-point  4 :   0.2308-0.0000 0.0000  plane waves:   11824
 k-point  5 :   0.3077-0.0000 0.0000  plane waves:   11875
 k-point  6 :   0.3846-0.0000 0.0000  plane waves:   11864
 k-point  7 :   0.4615-0.0000 0.0000  plane waves:   11883
 k-point  8 :   0.0000 0.2500 0.0000  plane waves:   11683
 k-point  9 :   0.0769 0.2500 0.0000  plane waves:   11756
 k-point 10 :   0.1538 0.2500 0.0000  plane waves:   11807
 k-point 11 :   0.2308 0.2500 0.0000  plane waves:   11853
 k-point 12 :   0.3077 0.2500 0.0000  plane waves:   11866
 k-point 13 :   0.3846 0.2500 0.0000  plane waves:   11889
 k-point 14 :   0.4615 0.2500 0.0000  plane waves:   11885
 k-point 15 :  -0.4615 0.2500 0.0000  plane waves:   11886
 k-point 16 :  -0.3846 0.2500 0.0000  plane waves:   11867
 k-point 17 :  -0.3077 0.2500 0.0000  plane waves:   11849
 k-point 18 :  -0.2308 0.2500 0.0000  plane waves:   11827
 k-point 19 :  -0.1538 0.2500 0.0000  plane waves:   11801
 k-point 20 :  -0.0769 0.2500 0.0000  plane waves:   11757
 k-point 21 :   0.0000 0.5000 0.0000  plane waves:   11710
 k-point 22 :   0.0769 0.5000 0.0000  plane waves:   11762
 k-point 23 :   0.1538 0.5000 0.0000  plane waves:   11782
 k-point 24 :   0.2308 0.5000 0.0000  plane waves:   11841
 k-point 25 :   0.3077 0.5000 0.0000  plane waves:   11876
 k-point 26 :   0.3846 0.5000 0.0000  plane waves:   11889
 k-point 27 :   0.4615 0.5000 0.0000  plane waves:   11881
 k-point 28 :   0.0000 0.0000 0.5000  plane waves:   11698
 k-point 29 :   0.0769-0.0000 0.5000  plane waves:   11752
 k-point 30 :   0.1538-0.0000 0.5000  plane waves:   11800
 k-point 31 :   0.2308-0.0000 0.5000  plane waves:   11834
 k-point 32 :   0.3077-0.0000 0.5000  plane waves:   11850
 k-point 33 :   0.3846-0.0000 0.5000  plane waves:   11888
 k-point 34 :   0.4615-0.0000 0.5000  plane waves:   11896
 k-point 35 :   0.0000 0.2500 0.5000  plane waves:   11714
 k-point 36 :   0.0769 0.2500 0.5000  plane waves:   11754
 k-point 37 :   0.1538 0.2500 0.5000  plane waves:   11802
 k-point 38 :   0.2308 0.2500 0.5000  plane waves:   11840
 k-point 39 :   0.3077 0.2500 0.5000  plane waves:   11858
 k-point 40 :   0.3846 0.2500 0.5000  plane waves:   11896
 k-point 41 :   0.4615 0.2500 0.5000  plane waves:   11886
 k-point 42 :  -0.4615 0.2500 0.5000  plane waves:   11852
 k-point 43 :  -0.3846 0.2500 0.5000  plane waves:   11838
 k-point 44 :  -0.3077 0.2500 0.5000  plane waves:   11842
 k-point 45 :  -0.2308 0.2500 0.5000  plane waves:   11840
 k-point 46 :  -0.1538 0.2500 0.5000  plane waves:   11804
 k-point 47 :  -0.0769 0.2500 0.5000  plane waves:   11748
 k-point 48 :   0.0000 0.5000 0.5000  plane waves:   11724
 k-point 49 :   0.0769 0.5000 0.5000  plane waves:   11748
 k-point 50 :   0.1538 0.5000 0.5000  plane waves:   11814
 k-point 51 :   0.2308 0.5000 0.5000  plane waves:   11832
 k-point 52 :   0.3077 0.5000 0.5000  plane waves:   11868
 k-point 53 :   0.3846 0.5000 0.5000  plane waves:   11892
 k-point 54 :   0.4615 0.5000 0.5000  plane waves:   11878

 maximum and minimum number of plane-waves per node :      5964     5832

 maximum number of plane-waves:     11896
 maximum index in each direction: 
   IXMAX=    5   IYMAX=   14   IZMAX=   38
   IXMIN=   -5   IYMIN=  -15   IZMIN=  -39

 WARNING: aliasing errors must be expected set NGX to  22 to avoid them
 NGY is ok and might be reduce to  60
 NGZ is ok and might be reduce to 156
 aliasing errors are usually negligible using standard VASP settings
 and one can safely disregard these warnings

 real space projection operators:
  total allocation   :       3793.25 KBytes
  max/ min on nodes  :       1899.38       1893.88


 parallel 3D FFT for wavefunctions:
    minimum data exchange during FFTs selected (reduces bandwidth)
 parallel 3D FFT for charge:
    minimum data exchange during FFTs selected (reduces bandwidth)


 total amount of memory used by VASP on root node   146493. kBytes
========================================================================

   base      :      30000. kBytes
   nonlr-proj:       3452. kBytes
   fftplans  :       9347. kBytes
   grid      :      14649. kBytes
   one-center:         36. kBytes
   wavefun   :      89009. kBytes
 
     INWAV:  cpu time    0.00: real time    0.00
 Broyden mixing: mesh for mixing (old mesh)
   NGX =  9   NGY = 29   NGZ = 77
  (NGX  = 40   NGY  =120   NGZ  =320)
  gives a total of  20097 points

 initial charge density was supplied:
 charge density of overlapping atoms calculated
 number of electron     108.0000000 magnetization 
 keeping initial charge density in first step


--------------------------------------------------------------------------------------------------------


 Maximum index for non-local projection operator         1333
 Maximum index for augmentation-charges          822 (set IRDMAX)


--------------------------------------------------------------------------------------------------------


 First call to EWALD:  gamma=   0.177
 Maximum number of real-space cells 7x 3x 1
 Maximum number of reciprocal cells 1x 3x 7

 FEWALD executed in parallel
    FEWALD:  cpu time    0.00: real time    0.00


----------------------------------------- Iteration    1(   1)  ---------------------------------------


vdW kernel read from vdw_kernel.bindat
  0.0000  0.2424  0.5071  0.7962  1.1119  1.4567  1.8333  2.2446  2.6937  3.1842
  3.7199  4.3049  4.9438  5.6415  6.4036  7.2358  8.1446  9.1372 10.2212 11.4050
 12.6979 14.1099 15.6519 17.3360 19.1751 21.1837 23.3773 25.7729 28.3892 31.2465
 34.3669 37.7748 41.4965 45.5611 50.0000
 
    POTLOK:  cpu time   15.92: real time   15.93
    SETDIJ:  cpu time    0.01: real time    0.01
     EDDAV:  cpu time   58.71: real time   58.74
       DOS:  cpu time    0.01: real time    0.01
    --------------------------------------------
      LOOP:  cpu time   74.65: real time   74.69

 eigenvalue-minimisations  :  7376
 total energy-change (2. order) : 0.5117706E+03  (-0.2879938E+04)
 number of electron     108.0000000 magnetization 
 augmentation part      108.0000000 magnetization 

 Free energy of the ion-electron system (eV)
  ---------------------------------------------------
  alpha Z        PSCENC =        36.80884744
  Ewald energy   TEWEN  =     12030.25494063
  -Hartree energ DENC   =    -15047.06083829
  -exchange      EXHF   =         0.00000000
  -V(xc)+E(xc)   XCENC  =       -86.85943936
  PAW double counting   =      1056.43050070     -732.41190547
  entropy T*S    EENTRO =        -0.04390589
  eigenvalues    EBANDS =       -99.38884145
  atomic energy  EATOM  =      3354.04126044
  ---------------------------------------------------
  free energy    TOTEN  =       511.77061875 eV

  energy without entropy =      511.81452464  energy(sigma->0) =      511.79257169


--------------------------------------------------------------------------------------------------------




----------------------------------------- Iteration    1(   2)  ---------------------------------------


     EDDAV:  cpu time   73.01: real time   73.03
       DOS:  cpu time    0.01: real time    0.01
    --------------------------------------------
      LOOP:  cpu time   73.02: real time   73.05

 eigenvalue-minimisations  :  9748
 total energy-change (2. order) :-0.5697960E+03  (-0.5545066E+03)
 number of electron     108.0000000 magnetization 
 augmentation part      108.0000000 magnetization 

 Free energy of the ion-electron system (eV)
  ---------------------------------------------------
  alpha Z        PSCENC =        36.80884744
  Ewald energy   TEWEN  =     12030.25494063
  -Hartree energ DENC   =    -15047.06083829
  -exchange      EXHF   =         0.00000000
  -V(xc)+E(xc)   XCENC  =       -86.85943936
  PAW double counting   =      1056.43050070     -732.41190547
  entropy T*S    EENTRO =        -0.01414359
  eigenvalues    EBANDS =      -669.21459308
  atomic energy  EATOM  =      3354.04126044
  ---------------------------------------------------
  free energy    TOTEN  =       -58.02537058 eV

  energy without entropy =      -58.01122698  energy(sigma->0) =      -58.01829878


--------------------------------------------------------------------------------------------------------




----------------------------------------- Iteration    1(   3)  ---------------------------------------


     EDDAV:  cpu time   67.88: real time   67.90
       DOS:  cpu time    0.01: real time    0.01
    --------------------------------------------
      LOOP:  cpu time   67.89: real time   67.92

 eigenvalue-minimisations  :  8888
 total energy-change (2. order) :-0.5874464E+02  (-0.5784952E+02)
 number of electron     108.0000000 magnetization 
 augmentation part      108.0000000 magnetization 

 Free energy of the ion-electron system (eV)
  ---------------------------------------------------
  alpha Z        PSCENC =        36.80884744
  Ewald energy   TEWEN  =     12030.25494063
  -Hartree energ DENC   =    -15047.06083829
  -exchange      EXHF   =         0.00000000
  -V(xc)+E(xc)   XCENC  =       -86.85943936
  PAW double counting   =      1056.43050070     -732.41190547
  entropy T*S    EENTRO =        -0.01222054
  eigenvalues    EBANDS =      -727.96115404
  atomic energy  EATOM  =      3354.04126044
  ---------------------------------------------------
  free energy    TOTEN  =      -116.77000848 eV

  energy without entropy =     -116.75778794  energy(sigma->0) =     -116.76389821


--------------------------------------------------------------------------------------------------------




----------------------------------------- Iteration    1(   4)  ---------------------------------------


     EDDAV:  cpu time   81.48: real time   81.52
       DOS:  cpu time    0.01: real time    0.01
    --------------------------------------------
      LOOP:  cpu time   81.50: real time   81.53

 eigenvalue-minimisations  : 11144
 total energy-change (2. order) :-0.2787306E+01  (-0.2769508E+01)
 number of electron     108.0000000 magnetization 
 augmentation part      108.0000000 magnetization 

 Free energy of the ion-electron system (eV)
  ---------------------------------------------------
  alpha Z        PSCENC =        36.80884744
  Ewald energy   TEWEN  =     12030.25494063
  -Hartree energ DENC   =    -15047.06083829
  -exchange      EXHF   =         0.00000000
  -V(xc)+E(xc)   XCENC  =       -86.85943936
  PAW double counting   =      1056.43050070     -732.41190547
  entropy T*S    EENTRO =        -0.01468333
  eigenvalues    EBANDS =      -730.74599722
  atomic energy  EATOM  =      3354.04126044
  ---------------------------------------------------
  free energy    TOTEN  =      -119.55731446 eV

  energy without entropy =     -119.54263112  energy(sigma->0) =     -119.54997279


--------------------------------------------------------------------------------------------------------




----------------------------------------- Iteration    1(   5)  ---------------------------------------


     EDDAV:  cpu time   74.66: real time   74.70
       DOS:  cpu time    0.01: real time    0.01
    CHARGE:  cpu time    4.09: real time    4.09
    MIXING:  cpu time    0.01: real time    0.01
    --------------------------------------------
      LOOP:  cpu time   78.77: real time   78.81

 eigenvalue-minimisations  : 10024
 total energy-change (2. order) :-0.5720463E-01  (-0.5711903E-01)
 number of electron     107.9999996 magnetization 
 augmentation part       -9.7106538 magnetization 

 Broyden mixing:
  rms(total) = 0.13110E+01    rms(broyden)= 0.13108E+01
  rms(prec ) = 0.14304E+01
  weight for this iteration     100.00

 Free energy of the ion-electron system (eV)
  ---------------------------------------------------
  alpha Z        PSCENC =        36.80884744
  Ewald energy   TEWEN  =     12030.25494063
  -Hartree energ DENC   =    -15047.06083829
  -exchange      EXHF   =         0.00000000
  -V(xc)+E(xc)   XCENC  =       -86.85943936
  PAW double counting   =      1056.43050070     -732.41190547
  entropy T*S    EENTRO =        -0.01474507
  eigenvalues    EBANDS =      -730.80314011
  atomic energy  EATOM  =      3354.04126044
  ---------------------------------------------------
  free energy    TOTEN  =      -119.61451908 eV

  energy without entropy =     -119.59977401  energy(sigma->0) =     -119.60714655


--------------------------------------------------------------------------------------------------------




----------------------------------------- Iteration    1(   6)  ---------------------------------------


    POTLOK:  cpu time   14.41: real time   14.42
    SETDIJ:  cpu time    0.01: real time    0.01
     EDDAV:  cpu time   69.59: real time   69.62
       DOS:  cpu time    0.01: real time    0.01
    CHARGE:  cpu time    4.06: real time    4.06
    MIXING:  cpu time    0.01: real time    0.01
    --------------------------------------------
      LOOP:  cpu time   88.10: real time   88.15

 eigenvalue-minimisations  :  9184
 total energy-change (2. order) : 0.5300900E+01  (-0.2189408E+01)
 number of electron     107.9999996 magnetization 
 augmentation part       -9.5290624 magnetization 

 Broyden mixing:
  rms(total) = 0.64403E+00    rms(broyden)= 0.64400E+00
  rms(prec ) = 0.69229E+00
  weight for this iteration     100.00

 eigenvalues of (default mixing * dielectric matrix)
  average eigenvalue GAMMA=   1.5284
  1.5284

 Free energy of the ion-electron system (eV)
  ---------------------------------------------------
  alpha Z        PSCENC =        36.80884744
  Ewald energy   TEWEN  =     12030.25494063
  -Hartree energ DENC   =    -15106.89941089
  -exchange      EXHF   =         0.00000000
  -V(xc)+E(xc)   XCENC  =       -83.37645060
  PAW double counting   =      1131.58729288     -809.72747830
  entropy T*S    EENTRO =        -0.02321493
  eigenvalues    EBANDS =      -666.97940533
  atomic energy  EATOM  =      3354.04126044
  ---------------------------------------------------
  free energy    TOTEN  =      -114.31361865 eV

  energy without entropy =     -114.29040372  energy(sigma->0) =     -114.30201118


--------------------------------------------------------------------------------------------------------




----------------------------------------- Iteration    1(   7)  ---------------------------------------


    POTLOK:  cpu time   14.43: real time   14.44
    SETDIJ:  cpu time    0.01: real time    0.01
     EDDAV:  cpu time   64.66: real time   64.68
       DOS:  cpu time    0.01: real time    0.01
    CHARGE:  cpu time    4.07: real time    4.07
    MIXING:  cpu time    0.01: real time    0.01
    --------------------------------------------
      LOOP:  cpu time   83.20: real time   83.23

 eigenvalue-minimisations  :  8380
 total energy-change (2. order) : 0.2982022E-01  (-0.1227490E+01)
 number of electron     107.9999996 magnetization 
 augmentation part       -9.4367611 magnetization 

 Broyden mixing:
  rms(total) = 0.30399E+00    rms(broyden)= 0.30392E+00
  rms(prec ) = 0.32030E+00
  weight for this iteration     100.00

 eigenvalues of (default mixing * dielectric matrix)
  average eigenvalue GAMMA=   1.2249
  0.8743  1.5755

 Free energy of the ion-electron system (eV)
  ---------------------------------------------------
  alpha Z        PSCENC =        36.80884744
  Ewald energy   TEWEN  =     12030.25494063
  -Hartree energ DENC   =    -15121.83097900
  -exchange      EXHF   =         0.00000000
  -V(xc)+E(xc)   XCENC  =       -80.85272983
  PAW double counting   =      1178.02015034     -857.46863198
  entropy T*S    EENTRO =        -0.02174119
  eigenvalues    EBANDS =      -653.23491528
  atomic energy  EATOM  =      3354.04126044
  ---------------------------------------------------
  free energy    TOTEN  =      -114.28379842 eV

  energy without entropy =     -114.26205723  energy(sigma->0) =     -114.27292783


--------------------------------------------------------------------------------------------------------




----------------------------------------- Iteration    1(   8)  ---------------------------------------


    POTLOK:  cpu time   14.42: real time   14.42
    SETDIJ:  cpu time    0.01: real time    0.01
     EDDAV:  cpu time   68.83: real time   68.86
       DOS:  cpu time    0.01: real time    0.01
    CHARGE:  cpu time    4.07: real time    4.07
    MIXING:  cpu time    0.01: real time    0.01
    --------------------------------------------
      LOOP:  cpu time   87.35: real time   87.39

 eigenvalue-minimisations  :  9056
 total energy-change (2. order) :-0.3148965E-01  (-0.1274322E+00)
 number of electron     107.9999996 magnetization 
 augmentation part       -9.4163691 magnetization 

 Broyden mixing:
  rms(total) = 0.16826E+00    rms(broyden)= 0.16825E+00
  rms(prec ) = 0.17705E+00
  weight for this iteration     100.00

 eigenvalues of (default mixing * dielectric matrix)
  average eigenvalue GAMMA=   1.4271
  2.1427  1.0358  1.1027

 Free energy of the ion-electron system (eV)
  ---------------------------------------------------
  alpha Z        PSCENC =        36.80884744
  Ewald energy   TEWEN  =     12030.25494063
  -Hartree energ DENC   =    -15133.78110012
  -exchange      EXHF   =         0.00000000
  -V(xc)+E(xc)   XCENC  =       -79.76921695
  PAW double counting   =      1192.08154462     -871.93588422
  entropy T*S    EENTRO =        -0.01966819
  eigenvalues    EBANDS =      -641.99601173
  atomic energy  EATOM  =      3354.04126044
  ---------------------------------------------------
  free energy    TOTEN  =      -114.31528807 eV

  energy without entropy =     -114.29561988  energy(sigma->0) =     -114.30545398


--------------------------------------------------------------------------------------------------------




----------------------------------------- Iteration    1(   9)  ---------------------------------------


    POTLOK:  cpu time   14.42: real time   14.44
    SETDIJ:  cpu time    0.01: real time    0.01
     EDDAV:  cpu time   69.69: real time   69.71
       DOS:  cpu time    0.01: real time    0.01
    CHARGE:  cpu time    4.07: real time    4.07
    MIXING:  cpu time    0.01: real time    0.01
    --------------------------------------------
      LOOP:  cpu time   88.21: real time   88.24

 eigenvalue-minimisations  :  9224
 total energy-change (2. order) :-0.4900977E-02  (-0.3074345E-01)
 number of electron     107.9999996 magnetization 
 augmentation part       -9.4121572 magnetization 

 Broyden mixing:
  rms(total) = 0.49417E-01    rms(broyden)= 0.49409E-01
  rms(prec ) = 0.54196E-01
  weight for this iteration     100.00

 eigenvalues of (default mixing * dielectric matrix)
  average eigenvalue GAMMA=   1.4075
  2.4917  0.9975  0.9975  1.1432

 Free energy of the ion-electron system (eV)
  ---------------------------------------------------
  alpha Z        PSCENC =        36.80884744
  Ewald energy   TEWEN  =     12030.25494063
  -Hartree energ DENC   =    -15143.54525019
  -exchange      EXHF   =         0.00000000
  -V(xc)+E(xc)   XCENC  =       -78.92451150
  PAW double counting   =      1199.15626918     -879.22933491
  entropy T*S    EENTRO =        -0.01987708
  eigenvalues    EBANDS =      -632.86253307
  atomic energy  EATOM  =      3354.04126044
  ---------------------------------------------------
  free energy    TOTEN  =      -114.32018905 eV

  energy without entropy =     -114.30031197  energy(sigma->0) =     -114.31025051


--------------------------------------------------------------------------------------------------------




----------------------------------------- Iteration    1(  10)  ---------------------------------------


    POTLOK:  cpu time   14.43: real time   14.43
    SETDIJ:  cpu time    0.01: real time    0.01
     EDDAV:  cpu time   69.73: real time   69.75
       DOS:  cpu time    0.01: real time    0.01
    CHARGE:  cpu time    4.07: real time    4.08
    MIXING:  cpu time    0.01: real time    0.01
    --------------------------------------------
      LOOP:  cpu time   88.26: real time   88.29

 eigenvalue-minimisations  :  9208
 total energy-change (2. order) : 0.2621840E-02  (-0.8443905E-02)
 number of electron     107.9999996 magnetization 
 augmentation part       -9.4133511 magnetization 

 Broyden mixing:
  rms(total) = 0.26103E-01    rms(broyden)= 0.26099E-01
  rms(prec ) = 0.31542E-01
  weight for this iteration     100.00

 eigenvalues of (default mixing * dielectric matrix)
  average eigenvalue GAMMA=   1.2964
  2.5568  1.0448  1.0448  1.0955  0.7399

 Free energy of the ion-electron system (eV)
  ---------------------------------------------------
  alpha Z        PSCENC =        36.80884744
  Ewald energy   TEWEN  =     12030.25494063
  -Hartree energ DENC   =    -15146.52753091
  -exchange      EXHF   =         0.00000000
  -V(xc)+E(xc)   XCENC  =       -78.66125162
  PAW double counting   =      1199.97812481     -880.07277197
  entropy T*S    EENTRO =        -0.02006285
  eigenvalues    EBANDS =      -630.11912317
  atomic energy  EATOM  =      3354.04126044
  ---------------------------------------------------
  free energy    TOTEN  =      -114.31756721 eV

  energy without entropy =     -114.29750435  energy(sigma->0) =     -114.30753578


--------------------------------------------------------------------------------------------------------




----------------------------------------- Iteration    1(  11)  ---------------------------------------


    POTLOK:  cpu time   14.45: real time   14.46
    SETDIJ:  cpu time    0.01: real time    0.01
     EDDAV:  cpu time   73.07: real time   73.09
       DOS:  cpu time    0.01: real time    0.01
    CHARGE:  cpu time    4.04: real time    4.05
    MIXING:  cpu time    0.01: real time    0.01
    --------------------------------------------
      LOOP:  cpu time   91.60: real time   91.62

 eigenvalue-minimisations  :  9712
 total energy-change (2. order) : 0.5402471E-02  (-0.2292471E-02)
 number of electron     107.9999996 magnetization 
 augmentation part       -9.4128290 magnetization 

 Broyden mixing:
  rms(total) = 0.13829E-01    rms(broyden)= 0.13827E-01
  rms(prec ) = 0.16577E-01
  weight for this iteration     100.00

 eigenvalues of (default mixing * dielectric matrix)
  average eigenvalue GAMMA=   1.3133
  2.6098  1.3650  1.3650  1.0068  1.0068  0.5267

 Free energy of the ion-electron system (eV)
  ---------------------------------------------------
  alpha Z        PSCENC =        36.80884744
  Ewald energy   TEWEN  =     12030.25494063
  -Hartree energ DENC   =    -15146.67399802
  -exchange      EXHF   =         0.00000000
  -V(xc)+E(xc)   XCENC  =       -78.62117972
  PAW double counting   =      1199.44978912     -879.53104578
  entropy T*S    EENTRO =        -0.01944042
  eigenvalues    EBANDS =      -630.02133844
  atomic energy  EATOM  =      3354.04126044
  ---------------------------------------------------
  free energy    TOTEN  =      -114.31216474 eV

  energy without entropy =     -114.29272431  energy(sigma->0) =     -114.30244452


--------------------------------------------------------------------------------------------------------




----------------------------------------- Iteration    1(  12)  ---------------------------------------


    POTLOK:  cpu time   14.43: real time   14.43
    SETDIJ:  cpu time    0.01: real time    0.01
     EDDAV:  cpu time   67.67: real time   67.70
       DOS:  cpu time    0.01: real time    0.01
    CHARGE:  cpu time    4.03: real time    4.03
    MIXING:  cpu time    0.01: real time    0.01
    --------------------------------------------
      LOOP:  cpu time   86.16: real time   86.19

 eigenvalue-minimisations  :  8808
 total energy-change (2. order) : 0.7205809E-02  (-0.6434493E-03)
 number of electron     107.9999996 magnetization 
 augmentation part       -9.4126299 magnetization 

 Broyden mixing:
  rms(total) = 0.62483E-02    rms(broyden)= 0.62473E-02
  rms(prec ) = 0.75182E-02
  weight for this iteration     100.00

 eigenvalues of (default mixing * dielectric matrix)
  average eigenvalue GAMMA=   1.3387
  2.6359  1.9676  1.1973  1.1973  0.9376  0.9376  0.4977

 Free energy of the ion-electron system (eV)
  ---------------------------------------------------
  alpha Z        PSCENC =        36.80884744
  Ewald energy   TEWEN  =     12030.25494063
  -Hartree energ DENC   =    -15148.32064286
  -exchange      EXHF   =         0.00000000
  -V(xc)+E(xc)   XCENC  =       -78.59149229
  PAW double counting   =      1198.48527736     -878.54054143
  entropy T*S    EENTRO =        -0.01953563
  eigenvalues    EBANDS =      -628.42307259
  atomic energy  EATOM  =      3354.04126044
  ---------------------------------------------------
  free energy    TOTEN  =      -114.30495893 eV

  energy without entropy =     -114.28542329  energy(sigma->0) =     -114.29519111


--------------------------------------------------------------------------------------------------------




----------------------------------------- Iteration    1(  13)  ---------------------------------------


    POTLOK:  cpu time   14.44: real time   14.45
    SETDIJ:  cpu time    0.01: real time    0.01
     EDDAV:  cpu time   68.98: real time   69.00
       DOS:  cpu time    0.01: real time    0.01
    CHARGE:  cpu time    4.05: real time    4.05
    MIXING:  cpu time    0.01: real time    0.01
    --------------------------------------------
      LOOP:  cpu time   87.50: real time   87.53

 eigenvalue-minimisations  :  9048
 total energy-change (2. order) : 0.6232685E-02  (-0.8804336E-04)
 number of electron     107.9999996 magnetization 
 augmentation part       -9.4131068 magnetization 

 Broyden mixing:
  rms(total) = 0.27697E-02    rms(broyden)= 0.27691E-02
  rms(prec ) = 0.39804E-02
  weight for this iteration     100.00

 eigenvalues of (default mixing * dielectric matrix)
  average eigenvalue GAMMA=   1.3589
  2.7192  2.1171  1.2773  1.2773  1.0621  0.9610  0.9610  0.4960

 Free energy of the ion-electron system (eV)
  ---------------------------------------------------
  alpha Z        PSCENC =        36.80884744
  Ewald energy   TEWEN  =     12030.25494063
  -Hartree energ DENC   =    -15149.37221070
  -exchange      EXHF   =         0.00000000
  -V(xc)+E(xc)   XCENC  =       -78.58908795
  PAW double counting   =      1197.41084683     -877.43805401
  entropy T*S    EENTRO =        -0.01951981
  eigenvalues    EBANDS =      -627.39574912
  atomic energy  EATOM  =      3354.04126044
  ---------------------------------------------------
  free energy    TOTEN  =      -114.29872624 eV

  energy without entropy =     -114.27920643  energy(sigma->0) =     -114.28896634


--------------------------------------------------------------------------------------------------------




----------------------------------------- Iteration    1(  14)  ---------------------------------------


    POTLOK:  cpu time   14.45: real time   14.46
    SETDIJ:  cpu time    0.01: real time    0.01
     EDDAV:  cpu time   69.65: real time   69.67
       DOS:  cpu time    0.01: real time    0.01
    CHARGE:  cpu time    4.06: real time    4.07
    MIXING:  cpu time    0.01: real time    0.01
    --------------------------------------------
      LOOP:  cpu time   88.21: real time   88.23

 eigenvalue-minimisations  :  9160
 total energy-change (2. order) : 0.2422170E-02  (-0.2492293E-04)
 number of electron     107.9999996 magnetization 
 augmentation part       -9.4131392 magnetization 

 Broyden mixing:
  rms(total) = 0.15756E-02    rms(broyden)= 0.15755E-02
  rms(prec ) = 0.26096E-02
  weight for this iteration     100.00

 eigenvalues of (default mixing * dielectric matrix)
  average eigenvalue GAMMA=   1.3879
  2.7885  2.3544  1.5559  1.2384  1.2384  0.9576  0.9576  0.9039  0.4966

 Free energy of the ion-electron system (eV)
  ---------------------------------------------------
  alpha Z        PSCENC =        36.80884744
  Ewald energy   TEWEN  =     12030.25494063
  -Hartree energ DENC   =    -15150.18259598
  -exchange      EXHF   =         0.00000000
  -V(xc)+E(xc)   XCENC  =       -78.58270407
  PAW double counting   =      1197.05930916     -877.07772443
  entropy T*S    EENTRO =        -0.01950539
  eigenvalues    EBANDS =      -626.59813188
  atomic energy  EATOM  =      3354.04126044
  ---------------------------------------------------
  free energy    TOTEN  =      -114.29630407 eV

  energy without entropy =     -114.27679869  energy(sigma->0) =     -114.28655138


--------------------------------------------------------------------------------------------------------




----------------------------------------- Iteration    1(  15)  ---------------------------------------


    POTLOK:  cpu time   14.43: real time   14.44
    SETDIJ:  cpu time    0.01: real time    0.01
     EDDAV:  cpu time   68.43: real time   68.45
       DOS:  cpu time    0.01: real time    0.01
    CHARGE:  cpu time    4.03: real time    4.03
    MIXING:  cpu time    0.01: real time    0.01
    --------------------------------------------
      LOOP:  cpu time   86.93: real time   86.96

 eigenvalue-minimisations  :  8960
 total energy-change (2. order) : 0.1153981E-02  (-0.9994445E-05)
 number of electron     107.9999996 magnetization 
 augmentation part       -9.4129038 magnetization 

 Broyden mixing:
  rms(total) = 0.94780E-03    rms(broyden)= 0.94772E-03
  rms(prec ) = 0.16832E-02
  weight for this iteration     100.00

 eigenvalues of (default mixing * dielectric matrix)
  average eigenvalue GAMMA=   1.4529
  3.0993  2.5937  1.7595  1.2465  1.2465  0.9891  0.9891  1.1288  0.9801  0.4970

 Free energy of the ion-electron system (eV)
  ---------------------------------------------------
  alpha Z        PSCENC =        36.80884744
  Ewald energy   TEWEN  =     12030.25494063
  -Hartree energ DENC   =    -15151.02328693
  -exchange      EXHF   =         0.00000000
  -V(xc)+E(xc)   XCENC  =       -78.57701195
  PAW double counting   =      1196.91591483     -876.93084037
  entropy T*S    EENTRO =        -0.01951538
  eigenvalues    EBANDS =      -625.76545881
  atomic energy  EATOM  =      3354.04126044
  ---------------------------------------------------
  free energy    TOTEN  =      -114.29515009 eV

  energy without entropy =     -114.27563471  energy(sigma->0) =     -114.28539240


--------------------------------------------------------------------------------------------------------




----------------------------------------- Iteration    1(  16)  ---------------------------------------


    POTLOK:  cpu time   14.43: real time   14.43
    SETDIJ:  cpu time    0.01: real time    0.01
     EDDAV:  cpu time   63.92: real time   63.94
       DOS:  cpu time    0.01: real time    0.01
    CHARGE:  cpu time    4.07: real time    4.07
    MIXING:  cpu time    0.01: real time    0.01
    --------------------------------------------
      LOOP:  cpu time   82.46: real time   82.49

 eigenvalue-minimisations  :  8200
 total energy-change (2. order) : 0.2406875E-03  (-0.6762643E-05)
 number of electron     107.9999996 magnetization 
 augmentation part       -9.4127104 magnetization 

 Broyden mixing:
  rms(total) = 0.60296E-03    rms(broyden)= 0.60293E-03
  rms(prec ) = 0.99236E-03
  weight for this iteration     100.00

 eigenvalues of (default mixing * dielectric matrix)
  average eigenvalue GAMMA=   1.5866
  4.0618  2.7141  2.2358  1.5057  1.2339  1.2339  0.9793  0.9793  1.0059  1.0059
  0.4970

 Free energy of the ion-electron system (eV)
  ---------------------------------------------------
  alpha Z        PSCENC =        36.80884744
  Ewald energy   TEWEN  =     12030.25494063
  -Hartree energ DENC   =    -15151.85874924
  -exchange      EXHF   =         0.00000000
  -V(xc)+E(xc)   XCENC  =       -78.57199793
  PAW double counting   =      1196.85999854     -876.87369448
  entropy T*S    EENTRO =        -0.01951466
  eigenvalues    EBANDS =      -624.93600016
  atomic energy  EATOM  =      3354.04126044
  ---------------------------------------------------
  free energy    TOTEN  =      -114.29490940 eV

  energy without entropy =     -114.27539475  energy(sigma->0) =     -114.28515207


--------------------------------------------------------------------------------------------------------




----------------------------------------- Iteration    1(  17)  ---------------------------------------


    POTLOK:  cpu time   14.45: real time   14.45
    SETDIJ:  cpu time    0.01: real time    0.01
     EDDAV:  cpu time   64.53: real time   64.55
       DOS:  cpu time    0.01: real time    0.01
    CHARGE:  cpu time    4.07: real time    4.07
    MIXING:  cpu time    0.01: real time    0.01
    --------------------------------------------
      LOOP:  cpu time   83.08: real time   83.11

 eigenvalue-minimisations  :  8320
 total energy-change (2. order) :-0.5990214E-03  (-0.1582026E-04)
 number of electron     107.9999996 magnetization 
 augmentation part       -9.4126416 magnetization 

 Broyden mixing:
  rms(total) = 0.30634E-03    rms(broyden)= 0.30631E-03
  rms(prec ) = 0.50439E-03
  weight for this iteration     100.00

 eigenvalues of (default mixing * dielectric matrix)
  average eigenvalue GAMMA=   1.6614
  4.9133  2.7472  2.3493  1.6883  1.2419  1.2419  1.2688  0.9760  0.9760  1.0603
  0.9771  0.4970

 Free energy of the ion-electron system (eV)
  ---------------------------------------------------
  alpha Z        PSCENC =        36.80884744
  Ewald energy   TEWEN  =     12030.25494063
  -Hartree energ DENC   =    -15152.48447023
  -exchange      EXHF   =         0.00000000
  -V(xc)+E(xc)   XCENC  =       -78.56884818
  PAW double counting   =      1196.89074230     -876.90527365
  entropy T*S    EENTRO =        -0.01951560
  eigenvalues    EBANDS =      -624.31319158
  atomic energy  EATOM  =      3354.04126044
  ---------------------------------------------------
  free energy    TOTEN  =      -114.29550842 eV

  energy without entropy =     -114.27599283  energy(sigma->0) =     -114.28575063


--------------------------------------------------------------------------------------------------------




----------------------------------------- Iteration    1(  18)  ---------------------------------------


    POTLOK:  cpu time   14.44: real time   14.44
    SETDIJ:  cpu time    0.01: real time    0.01
     EDDAV:  cpu time   62.75: real time   62.77
       DOS:  cpu time    0.01: real time    0.01
    CHARGE:  cpu time    4.07: real time    4.07
    MIXING:  cpu time    0.01: real time    0.01
    --------------------------------------------
      LOOP:  cpu time   81.29: real time   81.33

 eigenvalue-minimisations  :  8000
 total energy-change (2. order) :-0.1921909E-03  (-0.7533905E-05)
 number of electron     107.9999996 magnetization 
 augmentation part       -9.4126334 magnetization 

 Broyden mixing:
  rms(total) = 0.20400E-03    rms(broyden)= 0.20399E-03
  rms(prec ) = 0.33158E-03
  weight for this iteration     100.00

 eigenvalues of (default mixing * dielectric matrix)
  average eigenvalue GAMMA=   1.7793
  6.1141  2.8429  2.5950  2.0848  1.5169  1.2406  1.2406  0.4970  0.9783  0.9783
  1.0508  1.0508  0.9409

 Free energy of the ion-electron system (eV)
  ---------------------------------------------------
  alpha Z        PSCENC =        36.80884744
  Ewald energy   TEWEN  =     12030.25494063
  -Hartree energ DENC   =    -15152.72261492
  -exchange      EXHF   =         0.00000000
  -V(xc)+E(xc)   XCENC  =       -78.56790177
  PAW double counting   =      1196.90028646     -876.91496276
  entropy T*S    EENTRO =        -0.01951582
  eigenvalues    EBANDS =      -624.07604032
  atomic energy  EATOM  =      3354.04126044
  ---------------------------------------------------
  free energy    TOTEN  =      -114.29570062 eV

  energy without entropy =     -114.27618480  energy(sigma->0) =     -114.28594271


--------------------------------------------------------------------------------------------------------




----------------------------------------- Iteration    1(  19)  ---------------------------------------


    POTLOK:  cpu time   14.45: real time   14.45
    SETDIJ:  cpu time    0.01: real time    0.01
     EDDAV:  cpu time   58.58: real time   58.60
       DOS:  cpu time    0.01: real time    0.01
    CHARGE:  cpu time    4.07: real time    4.07
    MIXING:  cpu time    0.01: real time    0.01
    --------------------------------------------
      LOOP:  cpu time   77.14: real time   77.16

 eigenvalue-minimisations  :  7312
 total energy-change (2. order) :-0.1004578E-03  (-0.3199052E-05)
 number of electron     107.9999996 magnetization 
 augmentation part       -9.4126221 magnetization 

 Broyden mixing:
  rms(total) = 0.10799E-03    rms(broyden)= 0.10798E-03
  rms(prec ) = 0.19401E-03
  weight for this iteration     100.00

 eigenvalues of (default mixing * dielectric matrix)
  average eigenvalue GAMMA=   1.7722
  6.3623  2.9937  2.5912  1.9514  1.2462  1.2462  1.4771  1.4771  0.4970  0.9782
  0.9782  1.0667  0.9730  0.9730

 Free energy of the ion-electron system (eV)
  ---------------------------------------------------
  alpha Z        PSCENC =        36.80884744
  Ewald energy   TEWEN  =     12030.25494063
  -Hartree energ DENC   =    -15152.89864716
  -exchange      EXHF   =         0.00000000
  -V(xc)+E(xc)   XCENC  =       -78.56709060
  PAW double counting   =      1196.91355039     -876.92844149
  entropy T*S    EENTRO =        -0.01951647
  eigenvalues    EBANDS =      -623.90070425
  atomic energy  EATOM  =      3354.04126044
  ---------------------------------------------------
  free energy    TOTEN  =      -114.29580107 eV

  energy without entropy =     -114.27628460  energy(sigma->0) =     -114.28604284


--------------------------------------------------------------------------------------------------------




----------------------------------------- Iteration    1(  20)  ---------------------------------------


    POTLOK:  cpu time   14.44: real time   14.44
    SETDIJ:  cpu time    0.01: real time    0.01
     EDDAV:  cpu time   51.96: real time   51.97
       DOS:  cpu time    0.01: real time    0.01
    CHARGE:  cpu time    4.16: real time    4.16
    MIXING:  cpu time    0.01: real time    0.01
    --------------------------------------------
      LOOP:  cpu time   70.59: real time   70.61

 eigenvalue-minimisations  :  6184
 total energy-change (2. order) :-0.3484192E-04  (-0.6775626E-06)
 number of electron     107.9999996 magnetization 
 augmentation part       -9.4126165 magnetization 

 Broyden mixing:
  rms(total) = 0.82204E-04    rms(broyden)= 0.82201E-04
  rms(prec ) = 0.14259E-03
  weight for this iteration     100.00

 eigenvalues of (default mixing * dielectric matrix)
  average eigenvalue GAMMA=   1.8382
  6.8837  3.2270  2.6948  2.2000  1.9677  1.2440  1.2440  0.4970  1.4987  0.9747
  0.9747  1.1200  1.1200  0.9631  0.9631

 Free energy of the ion-electron system (eV)
  ---------------------------------------------------
  alpha Z        PSCENC =        36.80884744
  Ewald energy   TEWEN  =     12030.25494063
  -Hartree energ DENC   =    -15152.94517291
  -exchange      EXHF   =         0.00000000
  -V(xc)+E(xc)   XCENC  =       -78.56707650
  PAW double counting   =      1196.91521422     -876.93014377
  entropy T*S    EENTRO =        -0.01951586
  eigenvalues    EBANDS =      -623.85418961
  atomic energy  EATOM  =      3354.04126044
  ---------------------------------------------------
  free energy    TOTEN  =      -114.29583592 eV

  energy without entropy =     -114.27632006  energy(sigma->0) =     -114.28607799


--------------------------------------------------------------------------------------------------------




----------------------------------------- Iteration    1(  21)  ---------------------------------------


    POTLOK:  cpu time   14.44: real time   14.45
    SETDIJ:  cpu time    0.01: real time    0.01
     EDDAV:  cpu time   58.16: real time   58.17
       DOS:  cpu time    0.01: real time    0.01
    CHARGE:  cpu time    4.07: real time    4.07
    MIXING:  cpu time    0.01: real time    0.01
    --------------------------------------------
      LOOP:  cpu time   76.71: real time   76.73

 eigenvalue-minimisations  :  7244
 total energy-change (2. order) : 0.3509471E-04  (-0.2672337E-05)
 number of electron     107.9999996 magnetization 
 augmentation part       -9.4126196 magnetization 

 Broyden mixing:
  rms(total) = 0.51898E-04    rms(broyden)= 0.51894E-04
  rms(prec ) = 0.78985E-04
  weight for this iteration     100.00

 eigenvalues of (default mixing * dielectric matrix)
  average eigenvalue GAMMA=   1.8720
  6.9102  3.9437  2.7722  2.4554  1.8182  1.5162  1.5162  1.2484  1.2484  0.4970
  0.9738  0.9738  1.0835  1.0835  0.9559  0.9559

 Free energy of the ion-electron system (eV)
  ---------------------------------------------------
  alpha Z        PSCENC =        36.80884744
  Ewald energy   TEWEN  =     12030.25494063
  -Hartree energ DENC   =    -15153.00483509
  -exchange      EXHF   =         0.00000000
  -V(xc)+E(xc)   XCENC  =       -78.56708399
  PAW double counting   =      1196.90824204     -876.92299234
  entropy T*S    EENTRO =        -0.01951718
  eigenvalues    EBANDS =      -623.79466278
  atomic energy  EATOM  =      3354.04126044
  ---------------------------------------------------
  free energy    TOTEN  =      -114.29580082 eV

  energy without entropy =     -114.27628364  energy(sigma->0) =     -114.28604223


--------------------------------------------------------------------------------------------------------




----------------------------------------- Iteration    1(  22)  ---------------------------------------


    POTLOK:  cpu time   14.43: real time   14.44
    SETDIJ:  cpu time    0.01: real time    0.01
     EDDAV:  cpu time   53.44: real time   53.45
       DOS:  cpu time    0.01: real time    0.01
    CHARGE:  cpu time    4.08: real time    4.08
    MIXING:  cpu time    0.01: real time    0.01
    --------------------------------------------
      LOOP:  cpu time   71.99: real time   72.01

 eigenvalue-minimisations  :  6456
 total energy-change (2. order) : 0.2490116E-04  (-0.9604189E-06)
 number of electron     107.9999996 magnetization 
 augmentation part       -9.4126224 magnetization 

 Broyden mixing:
  rms(total) = 0.34211E-04    rms(broyden)= 0.34209E-04
  rms(prec ) = 0.46087E-04
  weight for this iteration     100.00

 eigenvalues of (default mixing * dielectric matrix)
  average eigenvalue GAMMA=   2.0487
  7.8308  5.7579  2.9803  2.6282  2.1496  1.6600  0.4970  1.2502  1.2502  1.3971
  1.3971  0.9742  0.9742  1.1047  1.0565  0.9598  0.9598

 Free energy of the ion-electron system (eV)
  ---------------------------------------------------
  alpha Z        PSCENC =        36.80884744
  Ewald energy   TEWEN  =     12030.25494063
  -Hartree energ DENC   =    -15153.00857893
  -exchange      EXHF   =         0.00000000
  -V(xc)+E(xc)   XCENC  =       -78.56721811
  PAW double counting   =      1196.90672127     -876.92144708
  entropy T*S    EENTRO =        -0.01951759
  eigenvalues    EBANDS =      -623.79078399
  atomic energy  EATOM  =      3354.04126044
  ---------------------------------------------------
  free energy    TOTEN  =      -114.29577592 eV

  energy without entropy =     -114.27625833  energy(sigma->0) =     -114.28601712


--------------------------------------------------------------------------------------------------------




----------------------------------------- Iteration    1(  23)  ---------------------------------------


    POTLOK:  cpu time   14.44: real time   14.45
    SETDIJ:  cpu time    0.01: real time    0.01
     EDDAV:  cpu time   51.91: real time   51.93
       DOS:  cpu time    0.01: real time    0.01
    CHARGE:  cpu time    4.08: real time    4.08
    MIXING:  cpu time    0.01: real time    0.01
    --------------------------------------------
      LOOP:  cpu time   70.48: real time   70.50

 eigenvalue-minimisations  :  6184
 total energy-change (2. order) : 0.6607258E-04  (-0.5174690E-06)
 number of electron     107.9999996 magnetization 
 augmentation part       -9.4126203 magnetization 

 Broyden mixing:
  rms(total) = 0.16914E-04    rms(broyden)= 0.16911E-04
  rms(prec ) = 0.20126E-04
  weight for this iteration     100.00

 eigenvalues of (default mixing * dielectric matrix)
  average eigenvalue GAMMA=   2.0732
  8.1147  6.4233  3.0284  2.6669  2.1539  1.8135  1.4835  1.4835  1.2525  1.2525
  0.4970  1.1663  1.1663  0.9741  0.9741  0.9636  0.9636  0.9407

 Free energy of the ion-electron system (eV)
  ---------------------------------------------------
  alpha Z        PSCENC =        36.80884744
  Ewald energy   TEWEN  =     12030.25494063
  -Hartree energ DENC   =    -15153.02558444
  -exchange      EXHF   =         0.00000000
  -V(xc)+E(xc)   XCENC  =       -78.56718381
  PAW double counting   =      1196.90560888     -876.92032564
  entropy T*S    EENTRO =        -0.01951725
  eigenvalues    EBANDS =      -623.77375610
  atomic energy  EATOM  =      3354.04126044
  ---------------------------------------------------
  free energy    TOTEN  =      -114.29570985 eV

[...]
     31      -4.0305      2.00000
     32      -3.9549      2.00000
     33      -3.6939      2.00000
     34      -3.6767      2.00000
     35      -3.2833      2.00000
     36      -3.1892      2.00000
     37      -3.0601      2.00000
     38      -3.0180      2.00000
     39      -2.9321      2.00000
     40      -2.8053      2.00000
     41      -2.5927      2.00000
     42      -2.4980      2.00000
     43      -2.4837      2.00000
     44      -2.0889      2.00000
     45      -1.9537      2.00000
     46      -1.8721      2.00000
     47      -1.7832      2.00000
     48      -1.7183      2.00000
     49      -1.5077      2.00000
     50      -1.3474      2.00000
     51      -1.0671      2.00000
     52      -0.9201      2.00000
     53      -0.8702      2.00000
     54      -0.4317      1.99987
     55       0.1521      0.00001
     56       0.9144      0.00000
     57       1.1631      0.00000
     58       1.4745      0.00000
     59       1.6133      0.00000
     60       1.7195      0.00000
     61       1.9115      0.00000
     62       2.2693      0.00000
     63       2.5650      0.00000
     64       2.6384      0.00000
     65       2.7362      0.00000
     66       2.8471      0.00000
     67       2.9992      0.00000
     68       3.0941      0.00000

 k-point    52 :       0.3077    0.5000    0.5000
  band No.  band energies     occupation 
      1     -14.9763      2.00000
      2     -12.4661      2.00000
      3     -12.3916      2.00000
      4     -12.1193      2.00000
      5     -11.8152      2.00000
      6     -11.5933      2.00000
      7     -11.3166      2.00000
      8     -10.9708      2.00000
      9     -10.7652      2.00000
     10     -10.6838      2.00000
     11     -10.3490      2.00000
     12     -10.0389      2.00000
     13      -9.2642      2.00000
     14      -9.0081      2.00000
     15      -8.8767      2.00000
     16      -7.7279      2.00000
     17      -7.5824      2.00000
     18      -7.0200      2.00000
     19      -6.9731      2.00000
     20      -6.9202      2.00000
     21      -6.4060      2.00000
     22      -6.1435      2.00000
     23      -5.9017      2.00000
     24      -5.8733      2.00000
     25      -5.6336      2.00000
     26      -5.3191      2.00000
     27      -5.0771      2.00000
     28      -4.8542      2.00000
     29      -4.5492      2.00000
     30      -4.4313      2.00000
     31      -4.2718      2.00000
     32      -4.0855      2.00000
     33      -4.0366      2.00000
     34      -3.7761      2.00000
     35      -3.2508      2.00000
     36      -3.2094      2.00000
     37      -3.1332      2.00000
     38      -3.0344      2.00000
     39      -2.8830      2.00000
     40      -2.8161      2.00000
     41      -2.7800      2.00000
     42      -2.5121      2.00000
     43      -2.4403      2.00000
     44      -2.2511      2.00000
     45      -2.1979      2.00000
     46      -2.0186      2.00000
     47      -1.9179      2.00000
     48      -1.8409      2.00000
     49      -1.7983      2.00000
     50      -1.6943      2.00000
     51      -1.4308      2.00000
     52      -1.2629      2.00000
     53      -1.0919      2.00000
     54      -0.7252      2.00000
     55      -0.0710      0.20559
     56       0.6491      0.00000
     57       1.3266      0.00000
     58       1.3940      0.00000
     59       1.4978      0.00000
     60       1.5986      0.00000
     61       1.9510      0.00000
     62       2.1812      0.00000
     63       2.2419      0.00000
     64       2.4329      0.00000
     65       2.4844      0.00000
     66       2.5832      0.00000
     67       2.9142      0.00000
     68       3.0092      0.00000

 k-point    53 :       0.3846    0.5000    0.5000
  band No.  band energies     occupation 
      1     -14.6449      2.00000
      2     -12.0071      2.00000
      3     -11.9763      2.00000
      4     -11.6224      2.00000
      5     -11.4503      2.00000
      6     -11.1981      2.00000
      7     -10.9816      2.00000
      8     -10.7266      2.00000
      9     -10.5740      2.00000
     10     -10.5387      2.00000
     11     -10.4279      2.00000
     12     -10.4126      2.00000
     13      -9.5049      2.00000
     14      -9.2300      2.00000
     15      -8.8611      2.00000
     16      -8.2034      2.00000
     17      -7.8099      2.00000
     18      -7.5698      2.00000
     19      -7.3382      2.00000
     20      -7.2133      2.00000
     21      -6.9069      2.00000
     22      -6.6751      2.00000
     23      -6.6135      2.00000
     24      -6.2554      2.00000
     25      -5.6086      2.00000
     26      -5.2620      2.00000
     27      -5.0243      2.00000
     28      -4.6311      2.00000
     29      -4.4804      2.00000
     30      -4.3877      2.00000
     31      -4.1836      2.00000
     32      -4.0860      2.00000
     33      -3.9936      2.00000
     34      -3.7786      2.00000
     35      -3.4873      2.00000
     36      -3.4459      2.00000
     37      -3.1727      2.00000
     38      -3.1060      2.00000
     39      -3.0304      2.00000
     40      -2.9347      2.00000
     41      -2.8178      2.00000
     42      -2.6957      2.00000
     43      -2.5170      2.00000
     44      -2.3706      2.00000
     45      -2.2767      2.00000
     46      -2.1763      2.00000
     47      -2.1209      2.00000
     48      -2.0279      2.00000
     49      -1.8830      2.00000
     50      -1.7776      2.00000
     51      -1.5967      2.00000
     52      -1.5292      2.00000
     53      -1.3546      2.00000
     54      -0.7010      2.00000
     55      -0.2777      1.90253
     56       0.3224      0.00000
     57       1.2908      0.00000
     58       1.3554      0.00000
     59       1.5380      0.00000
     60       1.5716      0.00000
     61       1.8528      0.00000
     62       1.9982      0.00000
     63       2.0948      0.00000
     64       2.1552      0.00000
     65       2.2846      0.00000
     66       2.3628      0.00000
     67       2.6892      0.00000
     68       2.8122      0.00000

 k-point    54 :       0.4615    0.5000    0.5000
  band No.  band energies     occupation 
      1     -14.4085      2.00000
      2     -11.7853      2.00000
      3     -11.4432      2.00000
      4     -11.1241      2.00000
      5     -11.1053      2.00000
      6     -10.9007      2.00000
      7     -10.8047      2.00000
      8     -10.7440      2.00000
      9     -10.6769      2.00000
     10     -10.6455      2.00000
     11     -10.5764      2.00000
     12     -10.5168      2.00000
     13      -9.8528      2.00000
     14      -9.2636      2.00000
     15      -8.6201      2.00000
     16      -8.3933      2.00000
     17      -8.0730      2.00000
     18      -7.8695      2.00000
     19      -7.6149      2.00000
     20      -7.5141      2.00000
     21      -7.2451      2.00000
     22      -7.1465      2.00000
     23      -7.1203      2.00000
     24      -6.4501      2.00000
     25      -5.3033      2.00000
     26      -5.0178      2.00000
     27      -4.8944      2.00000
     28      -4.5125      2.00000
     29      -4.4334      2.00000
     30      -4.2367      2.00000
     31      -4.0977      2.00000
     32      -4.0072      2.00000
     33      -3.9057      2.00000
     34      -3.7674      2.00000
     35      -3.7205      2.00000
     36      -3.5450      2.00000
     37      -3.4484      2.00000
     38      -3.2456      2.00000
     39      -3.2125      2.00000
     40      -3.0263      2.00000
     41      -2.9467      2.00000
     42      -2.9174      2.00000
     43      -2.6397      2.00000
     44      -2.4559      2.00000
     45      -2.3265      2.00000
     46      -2.1706      2.00000
     47      -2.1303      2.00000
     48      -2.0776      2.00000
     49      -1.9253      2.00000
     50      -1.8662      2.00000
     51      -1.6461      2.00000
     52      -1.5001      2.00000
     53      -1.4063      2.00000
     54      -0.7379      2.00000
     55      -0.2882      1.92909
     56       0.0422      0.00415
     57       1.2132      0.00000
     58       1.3914      0.00000
     59       1.4765      0.00000
     60       1.6301      0.00000
     61       1.6701      0.00000
     62       1.8961      0.00000
     63       2.0224      0.00000
     64       2.0815      0.00000
     65       2.3471      0.00000
     66       2.4026      0.00000
     67       2.5129      0.00000
     68       2.7136      0.00000


--------------------------------------------------------------------------------------------------------


 soft charge-density along one line, spin component           1
         0         1         2         3         4         5         6         7         8         9
 total charge-density along one line
 
 pseudopotential strength for first ion, spin component:           1
 29.763   0.008  -0.001  -0.024   0.000  -0.000  -0.001  -0.000
  0.008   0.009  -0.000  -0.000  -0.000   0.000   0.000   0.000
 -0.001  -0.000   6.546  -0.001  -0.000  -0.003   0.000   0.000
 -0.024  -0.000  -0.001   6.541  -0.000   0.000  -0.002   0.000
  0.000  -0.000  -0.000  -0.000   6.547   0.000   0.000  -0.003
 -0.000   0.000  -0.003   0.000   0.000   0.015  -0.000  -0.000
 -0.001   0.000   0.000  -0.002   0.000  -0.000   0.015  -0.000
 -0.000   0.000   0.000   0.000  -0.003  -0.000  -0.000   0.015
 total augmentation occupancy for first ion, spin component:           1
  1.816  -0.355   0.006   0.259   0.000   0.004   0.112   0.000
 -0.355   1.300   0.024   0.866   0.000   0.004  -0.434   0.000
  0.006   0.024   1.141   0.013   0.000  -0.505   0.014   0.000
  0.259   0.866   0.013   1.295   0.000   0.014  -0.420   0.000
  0.000   0.000   0.000   0.000   1.143   0.000   0.000  -0.528
  0.004   0.004  -0.505   0.014   0.000   0.293  -0.015   0.000
  0.112  -0.434   0.014  -0.420   0.000  -0.015   0.228   0.000
  0.000   0.000   0.000   0.000  -0.528   0.000   0.000   0.327


------------------------ aborting loop because EDIFF is reached ----------------------------------------


    CHARGE:  cpu time    4.06: real time    4.06
    FORLOC:  cpu time    0.05: real time    0.05
    FORNL :  cpu time   17.30: real time   17.30
    STRESS:  cpu time   52.58: real time   52.60
    FORCOR:  cpu time   14.51: real time   14.51
    FORHAR:  cpu time    0.13: real time    0.13
    MIXING:  cpu time    0.02: real time    0.02
    OFIELD:  cpu time    0.00: real time    0.00

  FORCE on cell =-STRESS in cart. coord.  units (eV):
  Direction    XX          YY          ZZ          XY          YZ          ZX
  --------------------------------------------------------------------------------------
  Alpha Z    36.80885    36.80885    36.80885
  Ewald   14494.97237 13919.43618-16384.16118    -0.00004    -7.88327    -0.00004
  Hartree 14989.06238 14572.87003-14408.90794     0.00001   -14.54285    -0.00000
  E(xc)    -359.25087  -359.66206  -359.27383     0.00000    -0.16149     0.00004
  Local  -31038.15423-30063.65030 29205.40601    -0.00013    32.46497     0.00003
  n-local  1159.72352  1171.11190  1181.65547     0.00073     4.46720     0.00067
  augment  -202.28347  -203.89310  -206.35156     0.00013     0.46264    -0.00000
  Kinetic   933.77495   941.45528  1000.22858     0.00061     4.76136     0.00122
  Fock        0.00000     0.00000     0.00000     0.00000     0.00000     0.00000
  -------------------------------------------------------------------------------------
  Total      14.65350    14.47679    65.40439     0.00000    19.56855     0.00000
  in kB      23.42316    23.14070   104.54688     0.00000    31.27971     0.00000
  external pressure =       50.37 kB  Pullay stress =        0.00 kB


 VOLUME and BASIS-vectors are now :
 -----------------------------------------------------------------------------
  energy-cutoff  :      300.00
  volume of cell :     1002.32
      direct lattice vectors                 reciprocal lattice vectors
     3.540400000  0.000000000  0.000000000     0.282453960  0.048570342  0.000000000
    -1.770200000 10.294348000  0.000000000     0.000000000  0.097140683  0.000000000
     0.000000000  0.000000000 27.501429000     0.000000000  0.000000000  0.036361747

  length of vectors
     3.540400000 10.445439617 27.501429000     0.286599577  0.097140683  0.036361747


 FORCES acting on ions
    electron-ion (+dipol)            ewald-force                    non-local-force                 convergence-correction
 -----------------------------------------------------------------------------------------------
   -.432E-03 0.547E+01 0.335E+02   -.937E-04 -.528E+01 -.287E+02   0.347E-17 -.232E+00 -.483E+01   -.136E-09 -.182E-06 0.413E-05
   -.420E-03 -.133E+02 -.549E+03   -.876E-04 0.132E+02 0.554E+03   0.000E+00 0.447E-01 -.401E+01   -.978E-10 0.378E-05 0.898E-05
   0.414E-03 0.671E+02 0.492E+02   -.770E-05 -.686E+02 -.449E+02   0.000E+00 0.153E+01 -.417E+01   0.556E-10 0.799E-07 0.112E-05
   0.412E-03 0.255E+02 -.556E+03   -.112E-04 -.265E+02 0.559E+03   -.139E-16 0.122E+01 -.275E+01   0.107E-09 -.450E-05 0.443E-06
   0.432E-03 -.573E+02 0.526E+03   0.869E-04 0.589E+02 -.530E+03   -.278E-16 -.154E+01 0.428E+01   0.137E-09 -.596E-05 -.144E-05
   0.526E-03 -.833E+02 -.901E+02   0.337E-05 0.859E+02 0.867E+02   0.000E+00 -.266E+01 0.424E+01   0.159E-09 -.961E-06 0.387E-05
   0.465E-05 0.543E+02 0.526E+03   0.155E-04 -.562E+02 -.531E+03   -.278E-16 0.190E+01 0.416E+01   0.672E-12 0.431E-05 0.218E-05
   0.738E-05 0.157E+03 0.169E+02   -.216E-06 -.162E+03 -.221E+02   0.222E-15 -.140E+02 -.367E+02   -.565E-10 0.374E-05 0.680E-05
   0.165E-05 0.152E+01 0.572E+03   -.859E-04 -.172E+01 -.577E+03   0.000E+00 0.207E+00 0.477E+01   -.843E-10 0.226E-05 -.122E-04
   0.598E-06 -.381E+02 -.349E+01   -.902E-04 0.383E+02 -.928E+00   0.000E+00 -.359E+00 0.374E+01   -.104E-09 -.320E-05 0.518E-05
   -.396E-03 -.665E+02 0.562E+02   0.897E-05 0.684E+02 -.521E+02   -.278E-16 -.191E+01 -.403E+01   -.530E-10 0.208E-05 0.184E-05
   -.420E-03 -.867E+01 -.526E+03   0.192E-04 0.958E+01 0.528E+03   0.000E+00 -.121E+01 -.206E+01   -.669E-10 0.477E-05 0.399E-05
   0.648E-04 0.322E+02 0.209E+03   -.258E-04 -.343E+02 -.209E+03   0.278E-16 0.211E+01 0.344E+00   -.515E-10 0.193E-05 0.245E-05
   0.716E-04 -.402E+01 -.313E+03   0.160E-04 0.698E+01 0.309E+03   0.000E+00 -.438E+01 0.881E+01   -.143E-10 -.546E-05 0.136E-05
   -.583E-04 -.143E+02 0.139E+03   0.180E-04 0.146E+02 -.141E+03   0.000E+00 -.259E+00 0.255E+01   0.886E-12 -.638E-06 0.108E-05
   -.434E-04 0.169E+02 -.285E+03   -.669E-05 -.163E+02 0.285E+03   0.000E+00 -.741E+00 -.567E+00   0.400E-10 0.882E-05 0.682E-05
   0.717E-04 -.567E+01 0.346E+03   0.720E-04 0.614E+01 -.343E+03   0.000E+00 -.468E+00 -.254E+01   0.823E-10 -.134E-05 -.400E-05
   0.100E-03 -.766E+02 -.113E+03   0.903E-04 0.745E+02 0.117E+03   0.555E-16 0.552E+01 -.766E+01   0.320E-10 -.662E-05 0.112E-05
   -.681E-05 0.984E+01 0.336E+03   -.522E-05 -.101E+02 -.333E+03   0.000E+00 0.233E+00 -.257E+01   -.597E-11 0.112E-05 -.260E-06
   -.404E-05 0.162E+02 -.128E+03   -.219E-04 -.165E+02 0.133E+03   -.555E-16 0.368E+01 -.930E+01   -.185E-10 0.654E-05 0.802E-05
   0.506E-05 0.114E+02 0.129E+03   0.102E-03 -.118E+02 -.132E+03   -.694E-17 0.373E+00 0.252E+01   0.103E-09 0.119E-05 0.148E-05
   0.311E-04 -.261E+02 -.313E+03   0.951E-04 0.259E+02 0.313E+03   -.347E-17 0.247E+00 -.527E+00   -.154E-10 -.547E-06 0.380E-05
   -.961E-05 -.313E+02 0.253E+03   -.894E-04 0.334E+02 -.253E+03   -.278E-16 -.213E+01 -.362E+00   -.500E-10 -.243E-05 0.313E-05
   0.172E-05 0.252E+02 -.319E+03   -.197E-05 -.266E+02 0.313E+03   0.222E-15 0.155E+02 0.499E+02   0.708E-10 0.463E-05 0.179E-04
 -----------------------------------------------------------------------------------------------
   0.354E-03 -.268E+01 -.325E+01   -.138E-13 0.178E-13 -.114E-12   0.340E-15 0.268E+01 0.325E+01   0.334E-10 0.134E-04 0.678E-04
 
 
 POSITION                                       TOTAL-FORCE (eV/Angst)
 -----------------------------------------------------------------------------------
      0.00000      2.34757      6.41229        -0.000000     -0.043639     -0.027392
      0.00000      6.46531     14.16300        -0.000000     -0.042472      0.172066
     -0.00000      9.43147      5.75866        -0.000000     -0.016405      0.076433
      1.77020      3.25486     13.50937        -0.000000      0.253101      0.309619
     -0.00000      6.40009      2.31424        -0.000000     -0.005491      0.010309
     -0.00000      6.40009     10.06495        -0.000000     -0.056013      0.834103
      1.77020     10.27849      2.37372        -0.000000     -0.001430     -0.001542
      1.77020     10.27849     10.12443        -0.000000    -18.898979    -41.886980
      1.77020      3.18974      1.66157        -0.000000      0.001765      0.009003
      1.77020      3.18974      9.41228        -0.000000     -0.224308     -0.684306
      1.77020      5.55354      5.69975        -0.000000      0.004878      0.088986
      1.77020      9.67128     13.45047        -0.000000     -0.296917      0.140136
      1.77020      9.05319      4.34076        -0.000000      0.003375      0.008865
     -0.00000      2.87658     12.09147        -0.000000     -1.424822      4.796112
      0.00000      4.22380      5.10944        -0.000000     -0.000446      0.046029
      0.00000      8.34154     12.86016        -0.000000     -0.137422     -0.243997
     -0.00000      4.15582      2.74166        -0.000000      0.001480     -0.020905
     -0.00000      4.15582     10.49237        -0.000000      3.380368     -3.643780
      1.77020      1.31366      2.96438        -0.000000     -0.017721     -0.008158
      1.77020      1.31366     10.71510        -0.000000      3.367092     -3.872337
      1.77020      1.38163      5.33187        -0.000000     -0.008694     -0.007247
      1.77020      5.49936     13.08259        -0.000000      0.075958     -0.078897
      1.77020      6.77850      3.73234        -0.000000      0.014901     -0.003722
      0.00000      0.60189     11.48306         0.000000     14.071842     43.987602
 -----------------------------------------------------------------------------------
    total drift:                                0.000354     -0.000291      0.004595


--------------------------------------------------------------------------------------------------------



  FREE ENERGIE OF THE ION-ELECTRON SYSTEM (eV)
  ---------------------------------------------------
  free  energy   TOTEN  =      -114.29570191 eV

  energy  without entropy=     -114.27618492  energy(sigma->0) =     -114.28594341
 


--------------------------------------------------------------------------------------------------------


    POTLOK:  cpu time   14.46: real time   14.47


--------------------------------------------------------------------------------------------------------


     LOOP+:  cpu time 2242.62: real time 2243.43
    4ORBIT:  cpu time    0.00: real time    0.00

 total amount of memory used by VASP on root node   146493. kBytes
========================================================================

   base      :      30000. kBytes
   nonlr-proj:       3452. kBytes
   fftplans  :       9347. kBytes
   grid      :      14649. kBytes
   one-center:         36. kBytes
   wavefun   :      89009. kBytes
 
  
  
 General timing and accounting informations for this job:
 ========================================================
  
                  Total CPU time used (sec):     2258.047
                            User time (sec):     2223.326
                          System time (sec):       34.721
                         Elapsed time (sec):     2259.910
  
                   Maximum memory used (kb):      335040.
                   Average memory used (kb):           0.
  
                          Minor page faults:      7985091
                          Major page faults:           13
                 Voluntary context switches:         1532
