  24  24   0   0
  0.4176334E+02  0.3540400E-09  0.1044544E-08  0.2750143E-08  0.5000000E-15
  1.000000000000000E-004
  CAR 
 unknown system                          
      4.10049104    -15.83706934  301      0.45439686      1.00000000
    -15.837  0.0000E+00  0.0000E+00
    -15.771  0.0000E+00  0.0000E+00
    -15.704  0.0000E+00  0.0000E+00
    -15.638  0.0000E+00  0.0000E+00
    -15.571  0.0000E+00  0.0000E+00
    -15.505  0.0000E+00  0.0000E+00
    -15.438  0.0000E+00  0.0000E+00
    -15.372  0.3825E-13  0.2542E-14
    -15.305  0.3491E-10  0.2323E-11
    -15.239  0.1348E-07  0.8984E-09
    -15.172  0.2217E-05  0.1483E-06
    -15.106  0.1573E-03  0.1060E-04
    -15.040  0.4913E-02  0.3371E-03
    -14.973  0.6951E-01  0.4956E-02
    -14.907  0.4616E+00  0.3563E-01
    -14.840  0.1489E+01  0.1346E+00
    -14.774  0.2409E+01  0.2947E+00
    -14.707  0.2229E+01  0.4429E+00
    -14.641  0.1922E+01  0.5706E+00
    -14.574  0.1768E+01  0.6881E+00
    -14.508  0.1036E+01  0.7569E+00
    -14.441  0.7250E+00  0.8051E+00
    -14.375  0.1366E+01  0.8958E+00
    -14.309  0.1629E+01  0.1004E+01
    -14.242  0.8742E+00  0.1062E+01
    -14.176  0.2656E+00  0.1080E+01
    -14.109  0.4413E+00  0.1109E+01
    -14.043  0.1259E+01  0.1193E+01
    -13.976  0.1655E+01  0.1303E+01
    -13.910  0.9617E+00  0.1367E+01
    -13.843  0.2920E+00  0.1386E+01
    -13.777  0.4102E+00  0.1413E+01
    -13.710  0.1559E+01  0.1517E+01
    -13.644  0.3202E+01  0.1730E+01
    -13.577  0.3494E+01  0.1962E+01
    -13.511  0.2629E+01  0.2137E+01
    -13.445  0.2445E+01  0.2299E+01
    -13.378  0.3061E+01  0.2503E+01
    -13.312  0.3110E+01  0.2709E+01
    -13.245  0.2306E+01  0.2863E+01
    -13.179  0.2179E+01  0.3008E+01
    -13.112  0.2800E+01  0.3194E+01
    -13.046  0.2987E+01  0.3392E+01
    -12.979  0.2565E+01  0.3563E+01
    -12.913  0.2507E+01  0.3729E+01
    -12.846  0.3401E+01  0.3955E+01
    -12.780  0.4724E+01  0.4269E+01
    -12.714  0.5672E+01  0.4646E+01
    -12.647  0.5974E+01  0.5043E+01
    -12.581  0.5389E+01  0.5401E+01
    -12.514  0.4658E+01  0.5711E+01
    -12.448  0.5103E+01  0.6050E+01
    -12.381  0.5867E+01  0.6440E+01
    -12.315  0.6025E+01  0.6840E+01
    -12.248  0.6045E+01  0.7242E+01
    -12.182  0.6144E+01  0.7650E+01
    -12.115  0.5520E+01  0.8017E+01
    -12.049  0.4894E+01  0.8343E+01
    -11.982  0.5148E+01  0.8685E+01
    -11.916  0.5244E+01  0.9033E+01
    -11.850  0.5066E+01  0.9370E+01
    -11.783  0.5552E+01  0.9739E+01
    -11.717  0.7887E+01  0.1026E+02
    -11.650  0.1132E+02  0.1102E+02
    -11.584  0.1170E+02  0.1179E+02
    -11.517  0.9173E+01  0.1240E+02
    -11.451  0.8584E+01  0.1297E+02
    -11.384  0.8620E+01  0.1355E+02
    -11.318  0.7041E+01  0.1401E+02
    -11.251  0.6510E+01  0.1445E+02
    -11.185  0.7909E+01  0.1497E+02
    -11.119  0.9615E+01  0.1561E+02
    -11.052  0.1124E+02  0.1636E+02
    -10.986  0.1281E+02  0.1721E+02
    -10.919  0.1266E+02  0.1805E+02
    -10.853  0.1080E+02  0.1877E+02
    -10.786  0.9268E+01  0.1938E+02
    -10.720  0.8360E+01  0.1994E+02
    -10.653  0.7611E+01  0.2045E+02
    -10.587  0.7185E+01  0.2092E+02
    -10.520  0.6596E+01  0.2136E+02
    -10.454  0.5945E+01  0.2176E+02
    -10.387  0.5670E+01  0.2213E+02
    -10.321  0.5066E+01  0.2247E+02
    -10.255  0.3857E+01  0.2273E+02
    -10.188  0.2816E+01  0.2291E+02
    -10.122  0.2122E+01  0.2305E+02
    -10.055  0.1867E+01  0.2318E+02
     -9.989  0.1738E+01  0.2329E+02
     -9.922  0.1095E+01  0.2337E+02
     -9.856  0.7366E+00  0.2342E+02
     -9.789  0.1283E+01  0.2350E+02
     -9.723  0.1741E+01  0.2362E+02
     -9.656  0.1633E+01  0.2373E+02
     -9.590  0.1774E+01  0.2384E+02
     -9.524  0.1546E+01  0.2395E+02
     -9.457  0.6732E+00  0.2399E+02
     -9.391  0.1318E+00  0.2400E+02
     -9.324  0.2646E-01  0.2400E+02
     -9.258  0.1775E+00  0.2401E+02
     -9.191  0.1054E+01  0.2408E+02
     -9.125  0.3461E+01  0.2431E+02
     -9.058  0.6763E+01  0.2476E+02
     -8.992  0.8973E+01  0.2536E+02
     -8.925  0.9900E+01  0.2602E+02
     -8.859  0.9352E+01  0.2664E+02
     -8.792  0.6622E+01  0.2708E+02
     -8.726  0.4189E+01  0.2736E+02
     -8.660  0.3788E+01  0.2761E+02
     -8.593  0.4297E+01  0.2789E+02
     -8.527  0.4130E+01  0.2817E+02
     -8.460  0.3407E+01  0.2839E+02
     -8.394  0.3432E+01  0.2862E+02
     -8.327  0.3686E+01  0.2887E+02
     -8.261  0.3382E+01  0.2909E+02
     -8.194  0.2717E+01  0.2927E+02
     -8.128  0.2525E+01  0.2944E+02
     -8.061  0.3416E+01  0.2967E+02
     -7.995  0.4945E+01  0.3000E+02
     -7.929  0.5960E+01  0.3039E+02
     -7.862  0.5635E+01  0.3077E+02
     -7.796  0.5020E+01  0.3110E+02
     -7.729  0.4691E+01  0.3141E+02
     -7.663  0.4479E+01  0.3171E+02
     -7.596  0.5226E+01  0.3206E+02
     -7.530  0.6854E+01  0.3251E+02
     -7.463  0.8378E+01  0.3307E+02
     -7.397  0.8387E+01  0.3363E+02
     -7.330  0.6430E+01  0.3405E+02
     -7.264  0.4539E+01  0.3436E+02
     -7.197  0.4837E+01  0.3468E+02
     -7.131  0.7777E+01  0.3519E+02
     -7.065  0.1078E+02  0.3591E+02
     -6.998  0.1164E+02  0.3668E+02
     -6.932  0.1165E+02  0.3746E+02
     -6.865  0.1234E+02  0.3828E+02
     -6.799  0.1181E+02  0.3906E+02
     -6.732  0.9087E+01  0.3967E+02
     -6.666  0.6760E+01  0.4012E+02
     -6.599  0.5360E+01  0.4047E+02
     -6.533  0.4088E+01  0.4074E+02
     -6.466  0.3942E+01  0.4101E+02
     -6.400  0.5602E+01  0.4138E+02
     -6.333  0.6896E+01  0.4184E+02
     -6.267  0.6388E+01  0.4226E+02
     -6.201  0.5667E+01  0.4264E+02
     -6.134  0.5578E+01  0.4301E+02
     -6.068  0.5392E+01  0.4337E+02
     -6.001  0.5513E+01  0.4373E+02
     -5.935  0.6199E+01  0.4415E+02
     -5.868  0.6118E+01  0.4455E+02
     -5.802  0.4521E+01  0.4485E+02
     -5.735  0.3051E+01  0.4506E+02
     -5.669  0.3037E+01  0.4526E+02
     -5.602  0.4436E+01  0.4555E+02
     -5.536  0.6506E+01  0.4598E+02
     -5.470  0.7593E+01  0.4649E+02
     -5.403  0.7254E+01  0.4697E+02
     -5.337  0.6651E+01  0.4741E+02
     -5.270  0.6249E+01  0.4783E+02
     -5.204  0.6308E+01  0.4825E+02
     -5.137  0.6541E+01  0.4868E+02
     -5.071  0.7293E+01  0.4917E+02
     -5.004  0.8675E+01  0.4974E+02
     -4.938  0.9354E+01  0.5037E+02
     -4.871  0.9665E+01  0.5101E+02
     -4.805  0.1006E+02  0.5168E+02
     -4.738  0.9597E+01  0.5231E+02
     -4.672  0.8572E+01  0.5288E+02
     -4.606  0.7553E+01  0.5339E+02
     -4.539  0.7541E+01  0.5389E+02
     -4.473  0.8935E+01  0.5448E+02
     -4.406  0.9827E+01  0.5513E+02
     -4.340  0.1033E+02  0.5582E+02
     -4.273  0.1220E+02  0.5663E+02
     -4.207  0.1457E+02  0.5760E+02
     -4.140  0.1507E+02  0.5860E+02
     -4.074  0.1382E+02  0.5952E+02
     -4.007  0.1251E+02  0.6035E+02
     -3.941  0.1249E+02  0.6118E+02
     -3.875  0.1325E+02  0.6206E+02
     -3.808  0.1348E+02  0.6296E+02
     -3.742  0.1286E+02  0.6381E+02
     -3.675  0.1223E+02  0.6462E+02
     -3.609  0.1247E+02  0.6545E+02
     -3.542  0.1297E+02  0.6632E+02
     -3.476  0.1378E+02  0.6723E+02
     -3.409  0.1476E+02  0.6821E+02
     -3.343  0.1516E+02  0.6922E+02
     -3.276  0.1511E+02  0.7022E+02
     -3.210  0.1517E+02  0.7123E+02
     -3.143  0.1573E+02  0.7228E+02
     -3.077  0.1619E+02  0.7335E+02
     -3.011  0.1564E+02  0.7439E+02
     -2.944  0.1475E+02  0.7537E+02
     -2.878  0.1408E+02  0.7631E+02
     -2.811  0.1413E+02  0.7725E+02
     -2.745  0.1593E+02  0.7831E+02
     -2.678  0.1741E+02  0.7946E+02
     -2.612  0.1683E+02  0.8058E+02
     -2.545  0.1562E+02  0.8162E+02
     -2.479  0.1441E+02  0.8258E+02
     -2.412  0.1351E+02  0.8348E+02
     -2.346  0.1398E+02  0.8440E+02
     -2.280  0.1592E+02  0.8546E+02
     -2.213  0.1833E+02  0.8668E+02
     -2.147  0.1992E+02  0.8801E+02
     -2.080  0.1976E+02  0.8932E+02
     -2.014  0.1892E+02  0.9058E+02
     -1.947  0.1828E+02  0.9179E+02
     -1.881  0.1761E+02  0.9296E+02
     -1.814  0.1455E+02  0.9393E+02
     -1.748  0.1083E+02  0.9465E+02
     -1.681  0.1059E+02  0.9535E+02
     -1.615  0.1157E+02  0.9612E+02
     -1.548  0.1128E+02  0.9687E+02
     -1.482  0.1076E+02  0.9758E+02
     -1.416  0.1068E+02  0.9829E+02
     -1.349  0.1064E+02  0.9900E+02
     -1.283  0.9844E+01  0.9966E+02
     -1.216  0.9125E+01  0.1003E+03
     -1.150  0.9285E+01  0.1009E+03
     -1.083  0.9866E+01  0.1015E+03
     -1.017  0.1053E+02  0.1022E+03
     -0.950  0.1000E+02  0.1029E+03
     -0.884  0.8579E+01  0.1035E+03
     -0.817  0.7078E+01  0.1039E+03
     -0.751  0.5184E+01  0.1043E+03
     -0.685  0.3268E+01  0.1045E+03
     -0.618  0.1795E+01  0.1046E+03
     -0.552  0.2028E+01  0.1048E+03
     -0.485  0.3878E+01  0.1050E+03
     -0.419  0.4869E+01  0.1053E+03
     -0.352  0.3947E+01  0.1056E+03
     -0.286  0.2945E+01  0.1058E+03
     -0.219  0.2563E+01  0.1060E+03
     -0.153  0.2085E+01  0.1061E+03
     -0.086  0.1723E+01  0.1062E+03
     -0.020  0.2096E+01  0.1064E+03
      0.047  0.2410E+01  0.1065E+03
      0.113  0.2429E+01  0.1067E+03
      0.179  0.2768E+01  0.1069E+03
      0.246  0.3342E+01  0.1071E+03
      0.312  0.3727E+01  0.1073E+03
      0.379  0.4129E+01  0.1076E+03
      0.445  0.5126E+01  0.1079E+03
      0.512  0.5614E+01  0.1083E+03
      0.578  0.4970E+01  0.1087E+03
      0.645  0.4590E+01  0.1090E+03
      0.711  0.5448E+01  0.1093E+03
      0.778  0.6685E+01  0.1098E+03
      0.844  0.6972E+01  0.1102E+03
      0.910  0.6114E+01  0.1106E+03
      0.977  0.5433E+01  0.1110E+03
      1.043  0.6706E+01  0.1114E+03
      1.110  0.9594E+01  0.1121E+03
      1.176  0.1163E+02  0.1129E+03
      1.243  0.1128E+02  0.1136E+03
      1.309  0.1011E+02  0.1143E+03
      1.376  0.9890E+01  0.1149E+03
      1.442  0.1024E+02  0.1156E+03
      1.509  0.1114E+02  0.1163E+03
      1.575  0.1240E+02  0.1172E+03
      1.642  0.1283E+02  0.1180E+03
      1.708  0.1202E+02  0.1188E+03
      1.774  0.1168E+02  0.1196E+03
      1.841  0.1246E+02  0.1204E+03
      1.907  0.1284E+02  0.1213E+03
      1.974  0.1249E+02  0.1221E+03
      2.040  0.1321E+02  0.1230E+03
      2.107  0.1506E+02  0.1240E+03
      2.173  0.1562E+02  0.1250E+03
      2.240  0.1563E+02  0.1261E+03
      2.306  0.1607E+02  0.1271E+03
      2.373  0.1638E+02  0.1282E+03
      2.439  0.1701E+02  0.1294E+03
      2.505  0.1754E+02  0.1305E+03
      2.572  0.1617E+02  0.1316E+03
      2.638  0.1303E+02  0.1325E+03
      2.705  0.1053E+02  0.1332E+03
      2.771  0.9530E+01  0.1338E+03
      2.838  0.9043E+01  0.1344E+03
      2.904  0.8471E+01  0.1350E+03
      2.971  0.7112E+01  0.1354E+03
      3.037  0.4737E+01  0.1357E+03
      3.104  0.2464E+01  0.1359E+03
      3.170  0.1018E+01  0.1360E+03
      3.237  0.2826E+00  0.1360E+03
      3.303  0.4174E-01  0.1360E+03
      3.369  0.2887E-02  0.1360E+03
      3.436  0.8885E-04  0.1360E+03
      3.502  0.1190E-05  0.1360E+03
      3.569  0.6862E-08  0.1360E+03
      3.635  0.1689E-10  0.1360E+03
      3.702  0.1773E-13  0.1360E+03
      3.768  0.0000E+00  0.1360E+03
      3.835  0.0000E+00  0.1360E+03
      3.901  0.0000E+00  0.1360E+03
      3.968  0.0000E+00  0.1360E+03
      4.034  0.0000E+00  0.1360E+03
      4.100  0.0000E+00  0.1360E+03
