   24   24    1    1
  0.4176334E+02  0.3540400E-09  0.1044544E-08  0.2750143E-08  0.5000000E-15
  1.000000000000000E-004
  CAR 
 unknown system                          
    108     54     68
 
  0.0000000E+00  0.0000000E+00  0.0000000E+00  0.9615385E-02
    1      -14.837069
    2      -13.720559
    3      -12.974168
    4      -12.805987
    5      -12.673587
    6      -12.535610
    7      -12.265036
    8      -11.620649
    9      -11.597247
   10      -11.165800
   11      -11.112450
   12      -10.445204
   13       -8.984862
   14       -8.209453
   15       -8.010897
   16       -7.075769
   17       -6.976540
   18       -6.914541
   19       -6.672558
   20       -6.386212
   21       -5.990309
   22       -5.254311
   23       -4.936127
   24       -4.778741
   25       -4.260264
   26       -3.952821
   27       -3.849417
   28       -3.821649
   29       -3.431537
   30       -3.291095
   31       -3.241345
   32       -3.013881
   33       -2.908231
   34       -2.632467
   35       -2.615138
   36       -2.582120
   37       -2.525121
   38       -2.231602
   39       -2.103358
   40       -2.036475
   41       -1.936547
   42       -1.901727
   43       -1.824243
   44       -1.801185
   45       -1.738083
   46       -1.609233
   47       -1.539941
   48       -1.404056
   49       -1.387793
   50       -1.226004
   51       -1.101731
   52       -0.716044
   53        0.416965
   54        0.563868
   55        0.660262
   56        0.871701
   57        1.030285
   58        1.146174
   59        1.354591
   60        1.545156
   61        1.645815
   62        1.804958
   63        1.947328
   64        1.993632
   65        2.210958
   66        2.249113
   67        2.327970
   68        2.508876
 
  0.7692308E-01 -0.1387779E-16  0.0000000E+00  0.1923077E-01
    1      -14.782375
    2      -13.659221
    3      -12.921989
    4      -12.750365
    5      -12.618164
    6      -12.478099
    7      -12.202763
    8      -11.573741
    9      -11.550715
   10      -11.117473
   11      -11.057960
   12      -10.415072
   13       -8.960083
   14       -8.246781
   15       -7.973807
   16       -7.051321
   17       -6.975054
   18       -6.888603
   19       -6.666838
   20       -6.388008
   21       -5.958360
   22       -5.295554
   23       -4.987038
   24       -4.863276
   25       -4.344364
   26       -4.183953
   27       -3.922896
   28       -3.837952
   29       -3.649052
   30       -3.473438
   31       -3.420418
   32       -3.319167
   33       -3.024151
   34       -2.942408
   35       -2.832096
   36       -2.653330
   37       -2.615284
   38       -2.378445
   39       -2.270640
   40       -2.197277
   41       -2.133442
   42       -2.064858
   43       -2.005856
   44       -1.910220
   45       -1.852247
   46       -1.712854
   47       -1.672094
   48       -1.478898
   49       -1.378786
   50       -1.196004
   51       -1.052758
   52       -0.751585
   53        0.406095
   54        0.461340
   55        0.725652
   56        0.959118
   57        1.343522
   58        1.443986
   59        1.593035
   60        1.820210
   61        1.970014
   62        2.059061
   63        2.103798
   64        2.221315
   65        2.287348
   66        2.432625
   67        2.511180
   68        2.594389
 
  0.1538462E+00 -0.2775558E-16  0.0000000E+00  0.1923077E-01
    1      -14.620636
    2      -13.476280
    3      -12.766161
    4      -12.584778
    5      -12.453862
    6      -12.309475
    7      -12.020238
    8      -11.441682
    9      -11.413506
   10      -10.978827
   11      -10.899945
   12      -10.332259
   13       -8.900013
   14       -8.343961
   15       -7.932249
   16       -7.105498
   17       -6.939847
   18       -6.809107
   19       -6.678962
   20       -6.464285
   21       -5.891046
   22       -5.666497
   23       -5.214247
   24       -5.026480
   25       -4.497181
   26       -4.391098
   27       -4.272205
   28       -4.216052
   29       -4.122284
   30       -3.934198
   31       -3.833081
   32       -3.679683
   33       -3.481073
   34       -3.309124
   35       -3.143315
   36       -3.088566
   37       -2.999551
   38       -2.894571
   39       -2.794738
   40       -2.560293
   41       -2.483415
   42       -2.326021
   43       -2.146381
   44       -1.993711
   45       -1.934978
   46       -1.834602
   47       -1.762084
   48       -1.525844
   49       -1.404374
   50       -1.157889
   51       -1.008552
   52       -0.832222
   53        0.140479
   54        0.305778
   55        0.788848
   56        1.067354
   57        1.533739
   58        1.608199
   59        1.844570
   60        2.091690
   61        2.267649
   62        2.413353
   63        2.487712
   64        2.530895
   65        2.762782
   66        2.874180
   67        2.887047
   68        2.949562
 
  0.2307692E+00 -0.4163336E-16  0.0000000E+00  0.1923077E-01
    1      -14.360377
    2      -13.175319
    3      -12.509736
    4      -12.314229
    5      -12.187783
    6      -12.044309
    7      -11.732412
    8      -11.253658
    9      -11.199098
   10      -10.776007
   11      -10.662344
   12      -10.216059
   13       -8.854877
   14       -8.536391
   15       -8.006696
   16       -7.422567
   17       -6.930496
   18       -6.844300
   19       -6.816985
   20       -6.633490
   21       -6.064397
   22       -5.904584
   23       -5.519909
   24       -5.487225
   25       -4.989497
   26       -4.809907
   27       -4.768260
   28       -4.686874
   29       -4.482481
   30       -4.350031
   31       -4.132159
   32       -3.990815
   33       -3.888088
   34       -3.645630
   35       -3.554601
   36       -3.360283
   37       -3.176098
   38       -3.127022
   39       -3.055366
   40       -2.771118
   41       -2.676363
   42       -2.598933
   43       -2.181377
   44       -2.076685
   45       -1.996217
   46       -1.909020
   47       -1.877305
   48       -1.678243
   49       -1.601341
   50       -1.325936
   51       -1.101608
   52       -0.906429
   53       -0.223986
   54        0.004315
   55        0.764258
   56        1.147698
   57        1.318982
   58        1.705710
   59        1.847371
   60        1.906583
   61        2.110876
   62        2.229253
   63        2.490394
   64        2.546864
   65        2.701676
   66        2.738424
   67        2.844801
   68        2.986223
 
  0.3076923E+00 -0.5551115E-16  0.0000000E+00  0.1923077E-01
    1      -14.021325
    2      -12.763672
    3      -12.161144
    4      -11.954540
    5      -11.836662
    6      -11.721959
    7      -11.374340
    8      -11.068729
    9      -10.954506
   10      -10.590583
   11      -10.429464
   12      -10.054928
   13       -8.906547
   14       -8.831119
   15       -8.266936
   16       -7.831958
   17       -7.364193
   18       -7.179933
   19       -7.080048
   20       -6.699562
   21       -6.382162
   22       -6.319555
   23       -6.151057
   24       -5.931581
   25       -5.390147
   26       -5.203108
   27       -4.985695
   28       -4.879881
   29       -4.735337
   30       -4.482626
   31       -4.380059
   32       -4.224765
   33       -4.041840
   34       -3.673401
   35       -3.579980
   36       -3.503580
   37       -3.264204
   38       -3.245206
   39       -3.086308
   40       -2.905191
   41       -2.753389
   42       -2.683785
   43       -2.394750
   44       -2.234912
   45       -2.077661
   46       -2.040463
   47       -2.014164
   48       -1.895201
   49       -1.851386
   50       -1.557086
   51       -1.203314
   52       -1.021483
   53       -0.536167
   54       -0.299460
   55        0.673242
   56        0.970259
   57        1.287028
   58        1.470554
   59        1.606158
   60        1.757217
   61        1.853222
   62        2.090092
   63        2.193603
   64        2.375821
   65        2.489663
   66        2.568502
   67        2.652058
   68        2.801675
 
  0.3846154E+00 -0.8326673E-16  0.0000000E+00  0.1923077E-01
    1      -13.650084
    2      -12.255638
    3      -11.741628
    4      -11.616671
    5      -11.438823
    6      -11.405857
    7      -11.031726
    8      -10.922509
    9      -10.798123
   10      -10.631449
   11      -10.351049
   12       -9.792775
   13       -9.042525
   14       -9.005024
   15       -8.558919
   16       -8.071060
   17       -7.902972
   18       -7.635469
   19       -7.602307
   20       -7.035482
   21       -6.929833
   22       -6.847286
   23       -6.728267
   24       -6.234495
   25       -5.448859
   26       -5.356909
   27       -4.921065
   28       -4.785215
   29       -4.701737
   30       -4.414540
   31       -4.285296
   32       -4.244135
   33       -3.930595
   34       -3.828400
   35       -3.798681
   36       -3.448285
   37       -3.374927
   38       -3.294844
   39       -3.186605
   40       -2.988197
   41       -2.783086
   42       -2.682280
   43       -2.548628
   44       -2.437680
   45       -2.294039
   46       -2.247850
   47       -2.192974
   48       -2.102426
   49       -2.004224
   50       -1.635293
   51       -1.366060
   52       -1.125581
   53       -0.726991
   54       -0.436009
   55        0.534590
   56        0.832958
   57        1.226038
   58        1.283757
   59        1.505639
   60        1.571091
   61        1.747298
   62        1.930590
   63        2.074136
   64        2.128780
   65        2.217334
   66        2.328033
   67        2.448607
   68        2.608907
 
  0.4615385E+00 -0.8326673E-16  0.0000000E+00  0.1923077E-01
    1      -13.364191
    2      -11.684472
    3      -11.621740
    4      -11.318092
    5      -11.144652
    6      -11.016864
    7      -10.973774
    8      -10.902022
    9      -10.812771
   10      -10.740620
   11      -10.515640
   12       -9.585198
   13       -9.070178
   14       -8.862547
   15       -8.623611
   16       -8.416972
   17       -8.256018
   18       -7.951206
   19       -7.759275
   20       -7.471180
   21       -7.411504
   22       -7.347576
   23       -7.158314
   24       -6.171253
   25       -5.570057
   26       -5.087571
   27       -4.993854
   28       -4.676722
   29       -4.457199
   30       -4.264061
   31       -4.138889
   32       -4.124770
   33       -3.997075
   34       -3.938995
   35       -3.761549
   36       -3.621565
   37       -3.431892
   38       -3.292114
   39       -3.194268
   40       -3.110668
   41       -2.977716
   42       -2.868330
   43       -2.692671
   44       -2.554864
   45       -2.460457
   46       -2.315926
   47       -2.261846
   48       -2.161896
   49       -1.891671
   50       -1.692557
   51       -1.496691
   52       -1.229328
   53       -0.795531
   54       -0.463027
   55        0.448705
   56        0.737296
   57        1.185438
   58        1.229537
   59        1.421957
   60        1.506242
   61        1.687937
   62        1.822318
   63        1.905754
   64        1.972536
   65        2.136291
   66        2.220649
   67        2.354650
   68        2.420153
 
  0.0000000E+00  0.2500000E+00  0.0000000E+00  0.1923077E-01
    1      -14.835318
    2      -13.666023
    3      -13.147611
    4      -12.871809
    5      -12.675621
    6      -12.442596
    7      -12.050036
    8      -11.664028
    9      -11.639615
   10      -11.176576
   11      -11.100595
   12      -10.407205
   13       -9.043483
   14       -8.689972
   15       -7.579225
   16       -7.077822
   17       -6.983054
   18       -6.850254
   19       -6.766705
   20       -6.196281
   21       -5.914464
   22       -5.384213
   23       -4.840244
   24       -4.659526
   25       -4.215883
   26       -4.143439
   27       -3.854154
   28       -3.751089
   29       -3.538489
   30       -3.402643
   31       -3.309444
   32       -2.963338
   33       -2.882872
   34       -2.725627
   35       -2.583493
   36       -2.535742
   37       -2.433675
   38       -2.347136
   39       -2.220713
   40       -2.082122
   41       -2.058280
   42       -1.982372
   43       -1.848469
   44       -1.808337
   45       -1.611452
   46       -1.538108
   47       -1.488571
   48       -1.391256
   49       -1.324815
   50       -1.166906
   51       -1.033780
   52       -0.900580
   53        0.245410
   54        0.534132
   55        0.763441
   56        0.987478
   57        1.096323
   58        1.192492
   59        1.448786
   60        1.587983
   61        1.634421
   62        1.714286
   63        2.034013
   64        2.067898
   65        2.245000
   66        2.370517
   67        2.430997
   68        2.508151
 
  0.7692308E-01  0.2500000E+00  0.0000000E+00  0.1923077E-01
    1      -14.780332
    2      -13.589529
    3      -13.128200
    4      -12.825317
    5      -12.618893
    6      -12.370093
    7      -11.949403
    8      -11.625577
    9      -11.602454
   10      -11.132505
   11      -11.043962
   12      -10.368179
   13       -9.029017
   14       -8.748123
   15       -7.531423
   16       -7.052705
   17       -7.014165
   18       -6.857407
   19       -6.697259
   20       -6.135822
   21       -5.867078
   22       -5.462927
   23       -4.930456
   24       -4.789432
   25       -4.318431
   26       -4.215224
   27       -4.046397
   28       -3.810447
   29       -3.666128
   30       -3.564110
   31       -3.465473
   32       -3.195245
   33       -3.038790
   34       -2.974822
   35       -2.837820
   36       -2.674989
   37       -2.567442
   38       -2.493164
   39       -2.379820
   40       -2.275705
   41       -2.185038
   42       -2.127540
   43       -2.005933
   44       -1.923201
   45       -1.855681
   46       -1.724578
   47       -1.527067
   48       -1.452453
   49       -1.266802
   50       -1.096722
   51       -0.989095
   52       -0.969654
   53        0.215333
   54        0.470530
   55        0.803959
   56        1.066277
   57        1.388689
   58        1.499833
   59        1.625948
   60        1.773039
   61        1.882664
   62        2.073527
   63        2.160831
   64        2.361603
   65        2.435463
   66        2.488222
   67        2.569295
   68        2.806839
 
  0.1538462E+00  0.2500000E+00  0.0000000E+00  0.1923077E-01
    1      -14.618488
    2      -13.393436
    3      -12.991217
    4      -12.663347
    5      -12.452954
    6      -12.195306
    7      -11.750605
    8      -11.492973
    9      -11.467967
   10      -10.991466
   11      -10.893534
   12      -10.281202
   13       -8.965582
   14       -8.813268
   15       -7.499685
   16       -7.155340
   17       -6.963153
   18       -6.834736
   19       -6.666581
   20       -6.167407
   21       -5.824732
   22       -5.724686
   23       -5.319667
   24       -5.004246
   25       -4.563794
   26       -4.496584
   27       -4.375451
   28       -4.172745
   29       -4.067474
   30       -3.949628
   31       -3.785666
   32       -3.619108
   33       -3.413395
   34       -3.214834
   35       -3.136588
   36       -3.111489
   37       -2.957778
   38       -2.877073
   39       -2.777041
   40       -2.726864
   41       -2.494311
   42       -2.461935
   43       -2.196581
   44       -2.090182
   45       -2.006543
   46       -1.818689
   47       -1.668881
   48       -1.469440
   49       -1.315985
   50       -1.130864
   51       -1.016010
   52       -0.879579
   53        0.043788
   54        0.293304
   55        0.837757
   56        1.101526
   57        1.415441
   58        1.565106
   59        1.693093
   60        1.949267
   61        2.199752
   62        2.438281
   63        2.574341
   64        2.727497
   65        2.856678
   66        2.892274
   67        2.928388
   68        2.980401
 
  0.2307692E+00  0.2500000E+00  0.0000000E+00  0.1923077E-01
    1      -14.358349
    2      -13.082636
    3      -12.739174
    4      -12.391603
    5      -12.185768
    6      -11.934125
    7      -11.473182
    8      -11.287353
    9      -11.249982
   10      -10.774274
   11      -10.679557
   12      -10.165546
   13       -8.951558
   14       -8.888715
   15       -7.585318
   16       -7.457028
   17       -7.037878
   18       -6.878533
   19       -6.814220
   20       -6.394349
   21       -6.043098
   22       -5.983997
   23       -5.636008
   24       -5.389528
   25       -5.202010
   26       -4.844661
   27       -4.763787
   28       -4.728757
   29       -4.526287
   30       -4.214157
   31       -4.098319
   32       -3.915653
   33       -3.840749
   34       -3.517519
   35       -3.389073
   36       -3.362047
   37       -3.266255
   38       -3.053959
   39       -2.984079
   40       -2.781638
   41       -2.713625
   42       -2.699751
   43       -2.230175
   44       -2.163120
   45       -2.067059
   46       -1.944438
   47       -1.891445
   48       -1.648145
   49       -1.554122
   50       -1.294566
   51       -1.059817
   52       -0.975464
   53       -0.222210
   54       -0.033113
   55        0.729286
   56        1.078104
   57        1.150997
   58        1.340271
   59        1.494939
   60        1.874376
   61        2.100903
   62        2.381791
   63        2.435781
   64        2.561218
   65        2.731014
   66        2.856153
   67        2.987829
   68        3.080601
 
  0.3076923E+00  0.2500000E+00  0.0000000E+00  0.1923077E-01
    1      -14.019621
    2      -12.666688
    3      -12.379252
    4      -12.026844
    5      -11.835279
    6      -11.630291
    7      -11.159023
    8      -11.059748
    9      -10.988258
   10      -10.568281
   11      -10.489989
   12      -10.008083
   13       -9.148372
   14       -8.905139
   15       -7.896742
   16       -7.817028
   17       -7.455650
   18       -7.286317
   19       -7.147383
   20       -6.563950
   21       -6.368493
   22       -6.351843
   23       -6.106478
   24       -6.075256
   25       -5.555096
   26       -5.182602
   27       -5.113370
   28       -4.860041
   29       -4.592352
   30       -4.506059
   31       -4.185516
   32       -4.097635
   33       -4.017691
   34       -3.767594
   35       -3.516552
   36       -3.407545
   37       -3.185812
   38       -3.129445
   39       -3.042893
   40       -2.910992
   41       -2.686460
   42       -2.670465
   43       -2.490187
   44       -2.368715
   45       -2.138177
   46       -2.066891
   47       -2.017269
   48       -1.918820
   49       -1.884459
   50       -1.551324
   51       -1.267969
   52       -1.014525
   53       -0.486688
   54       -0.359453
   55        0.579070
   56        0.869386
   57        1.057548
   58        1.091956
   59        1.236054
   60        1.828563
   61        2.034349
   62        2.105901
   63        2.246584
   64        2.315639
   65        2.457825
   66        2.520037
   67        2.673104
   68        2.792789
 
  0.3846154E+00  0.2500000E+00  0.0000000E+00  0.1923077E-01
    1      -13.648946
    2      -12.164183
    3      -11.928214
    4      -11.657137
    5      -11.441942
    6      -11.376504
    7      -10.900810
    8      -10.861557
    9      -10.778734
   10      -10.643374
   11      -10.418728
   12       -9.765757
   13       -9.138860
   14       -9.039793
   15       -8.294475
   16       -8.035145
   17       -7.954122
   18       -7.933983
   19       -7.546582
   20       -6.985502
   21       -6.881734
   22       -6.829662
   23       -6.743384
   24       -6.363800
   25       -5.522496
   26       -5.350815
   27       -4.976978
   28       -4.930678
   29       -4.628332
   30       -4.295647
   31       -4.277411
   32       -4.038320
   33       -3.893492
   34       -3.755933
   35       -3.524604
   36       -3.469750
   37       -3.418843
   38       -3.294542
   39       -3.123388
   40       -3.034084
   41       -2.808645
   42       -2.654706
   43       -2.588339
   44       -2.468782
   45       -2.341477
   46       -2.265016
   47       -2.234344
   48       -2.139823
   49       -2.022370
   50       -1.668381
   51       -1.439977
   52       -1.088611
   53       -0.709576
   54       -0.465301
   55        0.461125
   56        0.719610
   57        1.027892
   58        1.116247
   59        1.183749
   60        1.641547
   61        1.821473
   62        1.920214
   63        2.026065
   64        2.064240
   65        2.257029
   66        2.342966
   67        2.460291
   68        2.534877
 
  0.4615385E+00  0.2500000E+00  0.0000000E+00  0.1923077E-01
    1      -13.363676
    2      -11.633755
    3      -11.608684
    4      -11.431944
    5      -11.154071
    6      -11.039599
    7      -11.001927
    8      -10.871192
    9      -10.759683
   10      -10.703847
   11      -10.507630
   12       -9.595639
   13       -9.086670
   14       -8.729917
   15       -8.578730
   16       -8.510227
   17       -8.410102
   18       -7.927260
   19       -7.706669
   20       -7.501381
   21       -7.434599
   22       -7.305789
   23       -7.112446
   24       -6.280097
   25       -5.495725
   26       -5.190516
   27       -5.042559
   28       -4.642551
   29       -4.413362
   30       -4.322854
   31       -4.129339
   32       -4.089917
   33       -3.950039
   34       -3.826471
   35       -3.682441
   36       -3.512809
   37       -3.433532
   38       -3.327704
   39       -3.184494
   40       -3.099742
   41       -2.961987
   42       -2.828907
   43       -2.779837
   44       -2.763257
   45       -2.433549
   46       -2.300178
   47       -2.260274
   48       -2.212915
   49       -1.890310
   50       -1.709453
   51       -1.458335
   52       -1.177872
   53       -0.844431
   54       -0.445982
   55        0.398489
   56        0.630739
   57        1.179570
   58        1.248272
   59        1.341248
   60        1.404944
   61        1.603696
   62        1.800719
   63        1.933167
   64        1.999250
   65        2.149494
   66        2.283478
   67        2.327847
   68        2.462950
 
 -0.4615385E+00  0.2500000E+00  0.0000000E+00  0.1923077E-01
    1      -13.364097
    2      -11.716802
    3      -11.629673
    4      -11.241604
    5      -11.132595
    6      -10.979780
    7      -10.959752
    8      -10.934017
    9      -10.877037
   10      -10.700362
   11      -10.565818
   12       -9.583854
   13       -9.069299
   14       -8.931747
   15       -8.617290
   16       -8.389582
   17       -8.121951
   18       -8.030299
   19       -7.791581
   20       -7.460246
   21       -7.422646
   22       -7.392766
   23       -7.044838
   24       -6.211768
   25       -5.564178
   26       -5.075174
   27       -4.908831
   28       -4.753396
   29       -4.536800
   30       -4.196263
   31       -4.183145
   32       -4.061806
   33       -4.008876
   34       -3.900803
   35       -3.819819
   36       -3.599975
   37       -3.532949
   38       -3.333902
   39       -3.152860
   40       -3.046521
   41       -3.001356
   42       -2.861700
   43       -2.713717
   44       -2.579572
   45       -2.470792
   46       -2.337680
   47       -2.282066
   48       -2.203568
   49       -1.875038
   50       -1.676843
   51       -1.393082
   52       -1.148404
   53       -0.826517
   54       -0.455556
   55        0.399820
   56        0.672735
   57        1.197825
   58        1.299879
   59        1.489991
   60        1.574124
   61        1.640415
   62        1.681281
   63        2.041364
   64        2.109440
   65        2.203852
   66        2.241763
   67        2.369668
   68        2.453382
 
 -0.3846154E+00  0.2500000E+00  0.0000000E+00  0.1923077E-01
    1      -13.650182
    2      -12.281745
    3      -11.657283
    4      -11.636164
    5      -11.439977
    6      -11.381165
    7      -11.112887
    8      -10.877964
    9      -10.800049
   10      -10.627155
   11      -10.430635
   12       -9.764922
   13       -9.028342
   14       -8.918496
   15       -8.673032
   16       -8.127964
   17       -7.842187
   18       -7.626285
   19       -7.507111
   20       -7.125632
   21       -6.974127
   22       -6.854535
   23       -6.611169
   24       -6.238472
   25       -5.449883
   26       -5.216436
   27       -5.028134
   28       -4.949818
   29       -4.585851
   30       -4.442237
   31       -4.266312
   32       -4.194305
   33       -3.938150
   34       -3.895720
   35       -3.635101
   36       -3.586393
   37       -3.486735
   38       -3.346165
   39       -3.220405
   40       -2.939865
   41       -2.744937
   42       -2.690593
   43       -2.578681
   44       -2.419910
   45       -2.354379
   46       -2.288472
   47       -2.152399
   48       -2.101944
   49       -1.985005
   50       -1.619791
   51       -1.319151
   52       -1.002623
   53       -0.742620
   54       -0.432961
   55        0.507651
   56        0.819631
   57        1.214761
   58        1.385334
   59        1.561352
   60        1.688505
   61        1.748280
   62        1.958365
   63        2.104601
   64        2.213441
   65        2.289572
   66        2.384700
   67        2.464671
   68        2.573126
 
 -0.3076923E+00  0.2500000E+00  0.0000000E+00  0.1923077E-01
    1      -14.021319
    2      -12.775780
    3      -12.119502
    4      -11.961188
    5      -11.837342
    6      -11.720877
    7      -11.420945
    8      -11.022700
    9      -10.945944
   10      -10.596564
   11      -10.492375
   12      -10.047429
   13       -8.892643
   14       -8.734105
   15       -8.368166
   16       -7.758335
   17       -7.442745
   18       -7.184826
   19       -7.050654
   20       -6.738514
   21       -6.353676
   22       -6.317223
   23       -6.160242
   24       -5.868906
   25       -5.341621
   26       -5.254421
   27       -5.062080
   28       -4.826491
   29       -4.730213
   30       -4.472709
   31       -4.406731
   32       -4.246211
   33       -3.941419
   34       -3.714298
   35       -3.626759
   36       -3.515321
   37       -3.312792
   38       -3.251870
   39       -3.100628
   40       -2.915523
   41       -2.738132
   42       -2.627047
   43       -2.319911
   44       -2.229968
   45       -2.181544
   46       -2.049560
   47       -2.024177
   48       -1.901423
   49       -1.857761
   50       -1.579718
   51       -1.249443
   52       -0.907184
   53       -0.523470
   54       -0.315815
   55        0.722402
   56        1.014369
   57        1.305913
   58        1.493953
   59        1.723254
   60        1.792891
   61        1.882807
   62        2.103406
   63        2.221608
   64        2.360264
   65        2.508445
   66        2.575728
   67        2.665364
   68        2.757234
 
 -0.2307692E+00  0.2500000E+00  0.0000000E+00  0.1923077E-01
    1      -14.360068
    2      -13.171129
    3      -12.524414
    4      -12.330818
    5      -12.189238
    6      -12.027359
    7      -11.714604
    8      -11.230942
    9      -11.201026
   10      -10.774920
   11      -10.691812
   12      -10.217711
   13       -8.850742
   14       -8.576987
   15       -7.965245
   16       -7.315831
   17       -7.078521
   18       -6.869103
   19       -6.819672
   20       -6.596772
   21       -6.026031
   22       -5.906358
   23       -5.512263
   24       -5.470951
   25       -5.009798
   26       -4.867744
   27       -4.783810
   28       -4.685814
   29       -4.443193
   30       -4.329885
   31       -4.121286
   32       -3.972432
   33       -3.880778
   34       -3.625902
   35       -3.570070
   36       -3.331205
   37       -3.216382
   38       -3.153642
   39       -3.056069
   40       -2.777495
   41       -2.640966
   42       -2.597685
   43       -2.159904
   44       -2.068324
   45       -2.001209
   46       -1.941137
   47       -1.882112
   48       -1.666351
   49       -1.629133
   50       -1.356919
   51       -1.165749
   52       -0.875151
   53       -0.195026
   54       -0.040756
   55        0.897999
   56        1.157030
   57        1.348937
   58        1.681550
   59        1.851626
   60        1.883188
   61        2.111616
   62        2.249539
   63        2.464426
   64        2.552811
   65        2.740112
   66        2.757807
   67        2.809865
   68        2.924867
 
 -0.1538462E+00  0.2500000E+00  0.0000000E+00  0.1923077E-01
    1      -14.619846
    2      -13.455076
    3      -12.839767
    4      -12.618821
    5      -12.456085
    6      -12.265751
    7      -11.929880
    8      -11.448503
    9      -11.426449
   10      -10.977866
   11      -10.910212
   12      -10.321880
   13       -8.916198
   14       -8.554920
   15       -7.723573
   16       -7.106063
   17       -6.889474
   18       -6.835739
   19       -6.731155
   20       -6.441663
   21       -5.865714
   22       -5.594841
   23       -5.271781
   24       -5.006741
   25       -4.496430
   26       -4.430593
   27       -4.349334
   28       -4.218301
   29       -4.088273
   30       -3.912830
   31       -3.808177
   32       -3.698129
   33       -3.454147
   34       -3.266586
   35       -3.162900
   36       -3.078934
   37       -3.012218
   38       -2.896053
   39       -2.729990
   40       -2.662862
   41       -2.533959
   42       -2.352703
   43       -2.123979
   44       -2.013294
   45       -1.912425
   46       -1.804684
   47       -1.723212
   48       -1.522266
   49       -1.401564
   50       -1.214223
   51       -1.048170
   52       -0.846978
   53        0.149095
   54        0.246212
   55        0.895094
   56        1.132856
   57        1.526046
   58        1.606197
   59        1.795050
   60        2.045121
   61        2.295267
   62        2.393355
   63        2.546562
   64        2.621247
   65        2.740617
   66        2.816298
   67        2.917869
   68        2.970260
 
 -0.7692308E-01  0.2500000E+00  0.0000000E+00  0.1923077E-01
    1      -14.781086
    2      -13.621053
    3      -13.050194
    4      -12.801978
    5      -12.620691