 vasp.5.3.5 31Mar14 (build Oct 29 2014 16:16:03) complex                        
  
 executed on          Linux-UFHPC date 2016.02.09  18:19:53
 running on    8 total cores
 distrk:  each k-point on    8 cores,    1 groups
 distr:  one band on NCORES_PER_BAND=   2 cores,    4 groups


--------------------------------------------------------------------------------------------------------


 INCAR:
 POTCAR:    PAW_PBE P 17Jan2003                   
 POTCAR:   PAW_PBE Si 05Jan2001                   

 ----------------------------------------------------------------------------- 
|                                                                             |
|  ADVICE TO THIS USER RUNNING 'VASP/VAMP'   (HEAR YOUR MASTER'S VOICE ...):  |
|                                                                             |
|      You have switched on vdW-DFT.                                          |
|      This routine was written and supplied by Jiri Klimes.                  |
|      We recommed that you carefully read and cite the following             |
|      publication                                                            |
|      J. Klimes, D.R. Bowler, A. Michelides                                  |
|        J. Phys.: Cond Matt. 22 022201 (2010)                                |
|      J. Klimes, D.R. Bowler, A. Michelides                                  |
|        Phys. Rev. B. 83, 195131 (2011)                                      |
|      and references therein.                                                |
|                                                                             |
 ----------------------------------------------------------------------------- 

 POTCAR:    PAW_PBE P 17Jan2003                   
   VRHFIN =P : s2p3                                                             
   LEXCH  = PE                                                                  
   EATOM  =   176.0430 eV,   12.9388 Ry                                         
                                                                                
   TITEL  = PAW_PBE P 17Jan2003                                                 
   LULTRA =        F    use ultrasoft PP ?                                      
   IUNSCR =        1    unscreen: 0-lin 1-nonlin 2-no                           
   RPACOR =    1.500    partial core radius                                     
   POMASS =   30.974; ZVAL   =    5.000    mass and valenz                      
   RCORE  =    1.900    outmost cutoff radius                                   
   RWIGS  =    2.330; RWIGS  =    1.233    wigner-seitz radius (au A)           
   ENMAX  =  270.000; ENMIN  =  191.280 eV                                      
   ICORE  =        2    local potential                                         
   LCOR   =        T    correct aug charges                                     
   LPAW   =        T    paw PP                                                  
   EAUG   =  342.924                                                            
   DEXC   =    -.002                                                            
   RMAX   =    2.887    core radius for proj-oper                               
   RAUG   =    1.300    factor for augmentation sphere                          
   RDEP   =    1.931    radius for radial grids                                 
   QCUT   =   -4.330; QGAM   =    8.659    optimization parameters              
                                                                                
   Description                                                                  
     l     E      TYP  RCUT    TYP  RCUT                                        
     0   .000     23  1.900                                                     
     0   .000     23  1.900                                                     
     1   .000     23  1.900                                                     
     1   .000     23  1.900                                                     
     2   .000     23  1.900                                                     
  local pseudopotential read in
  partial core-charges read in
  atomic valenz-charges read in
  non local Contribution for L=           0  read in
    real space projection operators read in
  non local Contribution for L=           0  read in
    real space projection operators read in
  non local Contribution for L=           1  read in
    real space projection operators read in
  non local Contribution for L=           1  read in
    real space projection operators read in
    PAW grid and wavefunctions read in
 
   number of l-projection  operators is LMAX  =           4
   number of lm-projection operators is LMMAX =           8
 
 POTCAR:   PAW_PBE Si 05Jan2001                   
   VRHFIN =Si: s2p2                                                             
   LEXCH  = PE                                                                  
   EATOM  =   103.0669 eV,    7.5752 Ry                                         
                                                                                
   TITEL  = PAW_PBE Si 05Jan2001                                                
   LULTRA =        F    use ultrasoft PP ?                                      
   IUNSCR =        1    unscreen: 0-lin 1-nonlin 2-no                           
   RPACOR =    1.500    partial core radius                                     
   POMASS =   28.085; ZVAL   =    4.000    mass and valenz                      
   RCORE  =    1.900    outmost cutoff radius                                   
   RWIGS  =    2.480; RWIGS  =    1.312    wigner-seitz radius (au A)           
   ENMAX  =  245.345; ENMIN  =  184.009 eV                                      
   ICORE  =        2    local potential                                         
   LCOR   =        T    correct aug charges                                     
   LPAW   =        T    paw PP                                                  
   EAUG   =  322.069                                                            
   DEXC   =    -.007                                                            
   RMAX   =    2.944    core radius for proj-oper                               
   RAUG   =    1.300    factor for augmentation sphere                          
   RDEP   =    1.993    radius for radial grids                                 
   QCUT   =   -4.246; QGAM   =    8.493    optimization parameters              
                                                                                
   Description                                                                  
     l     E      TYP  RCUT    TYP  RCUT                                        
     0   .000     23  1.900                                                     
     0   .000     23  1.900                                                     
     1   .000     23  1.900                                                     
     1   .000     23  1.900                                                     
     2   .000      7  1.900                                                     
  local pseudopotential read in
  partial core-charges read in
  atomic valenz-charges read in
  non local Contribution for L=           0  read in
    real space projection operators read in
  non local Contribution for L=           0  read in
    real space projection operators read in
  non local Contribution for L=           1  read in
    real space projection operators read in
  non local Contribution for L=           1  read in
    real space projection operators read in
    PAW grid and wavefunctions read in
 
   number of l-projection  operators is LMAX  =           4
   number of lm-projection operators is LMMAX =           8
 
 Optimization of the real space projectors (new method)

 maximal supplied QI-value         = 19.84
 optimisation between [QCUT,QGAM] = [  8.73, 17.66] = [ 21.34, 87.33] Ry 
 Optimized for a Real-space Cutoff    1.50 Angstroem

   l    n(q)    QCUT    max X(q) W(low)/X(q) W(high)/X(q)  e(spline) 
   0      8     8.731     6.651    0.16E-04    0.15E-04    0.77E-08
   0      8     8.731    90.285    0.16E-03    0.90E-04    0.16E-06
   1      7     8.731     4.328    0.47E-04    0.36E-04    0.45E-07
   1      7     8.731    54.583    0.13E-03    0.39E-03    0.20E-06
 Optimization of the real space projectors (new method)

 maximal supplied QI-value         = 19.84
 optimisation between [QCUT,QGAM] = [  8.73, 17.66] = [ 21.34, 87.33] Ry 
 Optimized for a Real-space Cutoff    1.46 Angstroem

   l    n(q)    QCUT    max X(q) W(low)/X(q) W(high)/X(q)  e(spline) 
   0      8     8.731     8.708    0.16E-04    0.11E-04    0.68E-08
   0      8     8.731   106.241    0.24E-03    0.77E-04    0.13E-06
   1      7     8.731     5.901    0.34E-04    0.38E-04    0.36E-07
   1      7     8.731    73.241    0.12E-03    0.39E-03    0.15E-06

 ----------------------------------------------------------------------------- 
|                                                                             |
|  ADVICE TO THIS USER RUNNING 'VASP/VAMP'   (HEAR YOUR MASTER'S VOICE ...):  |
|                                                                             |
|      You enforced a specific xc-type in the INCAR file,                     |
|      a different type was found on the POTCAR file                          |
|          I HOPE YOU KNOW, WHAT YOU ARE  DOING                               |
|                                                                             |
 ----------------------------------------------------------------------------- 

  PAW_PBE P 17Jan2003                   :
 energy of atom  1       EATOM= -176.0430
 kinetic energy error for atom=    0.0040 (will be added to EATOM!!)
 PAW_PBE Si 05Jan2001                   :
 energy of atom  2       EATOM= -103.0669
 kinetic energy error for atom=    0.0021 (will be added to EATOM!!)
 
 
 POSCAR: Si12                                    
  positions in direct lattice
  No initial velocities read in
 exchange correlation table for  LEXCH =       42
   RHO(1)=    0.500       N(1)  =     2000
   RHO(2)=  100.500       N(2)  =     4000
 


--------------------------------------------------------------------------------------------------------


 ion  position               nearest neighbor table
   1  0.114  0.228  0.233-  15 2.28  21 2.29  21 2.29
   2  0.714  0.928  0.515-  16 2.28  22 2.29  22 2.29
   3  0.458  0.916  0.209-  21 2.28  13 2.30  13 2.30
   4  0.058  0.616  0.491-  22 2.28  14 2.30  14 2.30
   5  0.311  0.622  0.084-  17 2.28  23 2.30  23 2.30
   6  0.311  0.622  0.366-  14 2.25  18 2.28
   7  0.999  0.998  0.086-  19 2.29  19 2.29  13 2.32
   8  0.999  0.998  0.368-  20 2.29  20 2.29
   9  0.655  0.310  0.060-  19 2.28  17 2.29  17 2.29
  10  0.655  0.310  0.342-  20 2.28  18 2.29  18 2.29  24 2.31
  11  0.770  0.539  0.207-  15 2.29  15 2.29  23 2.32
  12  0.370  0.239  0.489-  16 2.29  16 2.29  24 2.32
  13  0.940  0.879  0.158-   3 2.30   3 2.30   7 2.32  23 2.35
  14  0.540  0.579  0.440-   6 2.25   4 2.30   4 2.30  24 2.35  18 2.57
  15  0.205  0.410  0.186-   1 2.28  11 2.29  11 2.29  17 2.37
  16  0.805  0.110  0.468-   2 2.28  12 2.29  12 2.29  20 2.33
  17  0.202  0.404  0.100-   5 2.28   9 2.29   9 2.29  15 2.37
  18  0.202  0.404  0.382-  24 1.41   6 2.28  10 2.29  10 2.29  14 2.57  24 2.87
  19  0.564  0.128  0.108-   9 2.28   7 2.29   7 2.29  21 2.37
  20  0.564  0.128  0.390-  10 2.28   8 2.29   8 2.29  16 2.33  24 2.65
  21  0.567  0.134  0.194-   3 2.28   1 2.29   1 2.29  19 2.37
  22  0.167  0.834  0.476-   4 2.28   2 2.29   2 2.29
  23  0.829  0.658  0.136-   5 2.30   5 2.30  11 2.32  13 2.35
  24  0.429  0.358  0.418-  18 1.41  10 2.31  12 2.32  14 2.35  20 2.65  18 2.87
 

 ----------------------------------------------------------------------------- 
|                                                                             |
|           W    W    AA    RRRRR   N    N  II  N    N   GGGG   !!!           |
|           W    W   A  A   R    R  NN   N  II  NN   N  G    G  !!!           |
|           W    W  A    A  R    R  N N  N  II  N N  N  G       !!!           |
|           W WW W  AAAAAA  RRRRR   N  N N  II  N  N N  G  GGG   !            |
|           WW  WW  A    A  R   R   N   NN  II  N   NN  G    G                |
|           W    W  A    A  R    R  N    N  II  N    N   GGGG   !!!           |
|                                                                             |
|      The distance between some ions is very small                           |
|      please check the nearest neigbor list in the OUTCAR file               |
|          I HOPE YOU KNOW, WHAT YOU ARE  DOING                               |
|                                                                             |
 ----------------------------------------------------------------------------- 

  LATTYP: Found a base centered orthorhombic cell.
 ALAT       =     3.5404000000
 B/A-ratio  =     5.8153587165
 C/A-ratio  =     7.7678875268
  
  Lattice vectors:
  
 A1 = (   1.7702000000,  10.2943480000,   0.0000000000)
 A2 = (   1.7702000000, -10.2943480000,   0.0000000000)
 A3 = (   0.0000000000,   0.0000000000, -27.5014290000)


Analysis of symmetry for initial positions (statically):
=====================================================================
 Subroutine PRICEL returns:
 Original cell was already a primitive cell.
 

 Routine SETGRP: Setting up the symmetry group for a 
 base centered orthorhombic supercell.


 Subroutine GETGRP returns: Found  1 space group operations
 (whereof  1 operations were pure point group operations)
 out of a pool of  8 trial point group operations.


The static configuration has the point symmetry C_1 .


Analysis of symmetry for dynamics (positions and initial velocities):
=====================================================================
 Subroutine PRICEL returns:
 Original cell was already a primitive cell.
 

 Routine SETGRP: Setting up the symmetry group for a 
 base centered orthorhombic supercell.


 Subroutine GETGRP returns: Found  1 space group operations
 (whereof  1 operations were pure point group operations)
 out of a pool of  8 trial point group operations.


The dynamic configuration has the point symmetry C_1 .
 
 
 KPOINTS: pymatgen generated KPOINTS with grid den

Automatic generation of k-mesh.
Space group operators:
 irot       det(A)        alpha          n_x          n_y          n_z        tau_x        tau_y        tau_z
    1     1.000000     0.000000     1.000000     0.000000     0.000000     0.000000     0.000000     0.000000
 
 Subroutine IBZKPT returns following result:
 ===========================================
 
 Found     54 irreducible k-points:
 
 Following reciprocal coordinates:
            Coordinates               Weight
  0.000000  0.000000  0.000000      1.000000
  0.076923 -0.000000  0.000000      2.000000
  0.153846 -0.000000  0.000000      2.000000
  0.230769 -0.000000  0.000000      2.000000
  0.307692 -0.000000  0.000000      2.000000
  0.384615 -0.000000  0.000000      2.000000
  0.461538 -0.000000  0.000000      2.000000
  0.000000  0.250000  0.000000      2.000000
  0.076923  0.250000  0.000000      2.000000
  0.153846  0.250000  0.000000      2.000000
  0.230769  0.250000  0.000000      2.000000
  0.307692  0.250000  0.000000      2.000000
  0.384615  0.250000  0.000000      2.000000
  0.461538  0.250000  0.000000      2.000000
 -0.461538  0.250000  0.000000      2.000000
 -0.384615  0.250000  0.000000      2.000000
 -0.307692  0.250000  0.000000      2.000000
 -0.230769  0.250000  0.000000      2.000000
 -0.153846  0.250000  0.000000      2.000000
 -0.076923  0.250000  0.000000      2.000000
  0.000000  0.500000  0.000000      1.000000
  0.076923  0.500000  0.000000      2.000000
  0.153846  0.500000  0.000000      2.000000
  0.230769  0.500000  0.000000      2.000000
  0.307692  0.500000  0.000000      2.000000
  0.384615  0.500000  0.000000      2.000000
  0.461538  0.500000  0.000000      2.000000
  0.000000  0.000000  0.500000      1.000000
  0.076923 -0.000000  0.500000      2.000000
  0.153846 -0.000000  0.500000      2.000000
  0.230769 -0.000000  0.500000      2.000000
  0.307692 -0.000000  0.500000      2.000000
  0.384615 -0.000000  0.500000      2.000000
  0.461538 -0.000000  0.500000      2.000000
  0.000000  0.250000  0.500000      2.000000
  0.076923  0.250000  0.500000      2.000000
  0.153846  0.250000  0.500000      2.000000
  0.230769  0.250000  0.500000      2.000000
  0.307692  0.250000  0.500000      2.000000
  0.384615  0.250000  0.500000      2.000000
  0.461538  0.250000  0.500000      2.000000
 -0.461538  0.250000  0.500000      2.000000
 -0.384615  0.250000  0.500000      2.000000
 -0.307692  0.250000  0.500000      2.000000
 -0.230769  0.250000  0.500000      2.000000
 -0.153846  0.250000  0.500000      2.000000
 -0.076923  0.250000  0.500000      2.000000
  0.000000  0.500000  0.500000      1.000000
  0.076923  0.500000  0.500000      2.000000
  0.153846  0.500000  0.500000      2.000000
  0.230769  0.500000  0.500000      2.000000
  0.307692  0.500000  0.500000      2.000000
  0.384615  0.500000  0.500000      2.000000
  0.461538  0.500000  0.500000      2.000000
 
 Following cartesian coordinates:
            Coordinates               Weight
  0.000000  0.000000  0.000000      1.000000
  0.021727  0.003736  0.000000      2.000000
  0.043454  0.007472  0.000000      2.000000
  0.065182  0.011209  0.000000      2.000000
  0.086909  0.014945  0.000000      2.000000
  0.108636  0.018681  0.000000      2.000000
  0.130363  0.022417  0.000000      2.000000
  0.000000  0.024285  0.000000      2.000000
  0.021727  0.028021  0.000000      2.000000
  0.043454  0.031758  0.000000      2.000000
  0.065182  0.035494  0.000000      2.000000
  0.086909  0.039230  0.000000      2.000000
  0.108636  0.042966  0.000000      2.000000
  0.130363  0.046702  0.000000      2.000000
 -0.130363  0.001868  0.000000      2.000000
 -0.108636  0.005604  0.000000      2.000000
 -0.086909  0.009340  0.000000      2.000000
 -0.065182  0.013077  0.000000      2.000000
 -0.043454  0.016813  0.000000      2.000000
 -0.021727  0.020549  0.000000      2.000000
  0.000000  0.048570  0.000000      1.000000
  0.021727  0.052307  0.000000      2.000000
  0.043454  0.056043  0.000000      2.000000
  0.065182  0.059779  0.000000      2.000000
  0.086909  0.063515  0.000000      2.000000
  0.108636  0.067251  0.000000      2.000000
  0.130363  0.070987  0.000000      2.000000
  0.000000  0.000000  0.018181      1.000000
  0.021727  0.003736  0.018181      2.000000
  0.043454  0.007472  0.018181      2.000000
  0.065182  0.011209  0.018181      2.000000
  0.086909  0.014945  0.018181      2.000000
  0.108636  0.018681  0.018181      2.000000
  0.130363  0.022417  0.018181      2.000000
  0.000000  0.024285  0.018181      2.000000
  0.021727  0.028021  0.018181      2.000000
  0.043454  0.031758  0.018181      2.000000
  0.065182  0.035494  0.018181      2.000000
  0.086909  0.039230  0.018181      2.000000
  0.108636  0.042966  0.018181      2.000000
  0.130363  0.046702  0.018181      2.000000
 -0.130363  0.001868  0.018181      2.000000
 -0.108636  0.005604  0.018181      2.000000
 -0.086909  0.009340  0.018181      2.000000
 -0.065182  0.013077  0.018181      2.000000
 -0.043454  0.016813  0.018181      2.000000
 -0.021727  0.020549  0.018181      2.000000
  0.000000  0.048570  0.018181      1.000000
  0.021727  0.052307  0.018181      2.000000
  0.043454  0.056043  0.018181      2.000000
  0.065182  0.059779  0.018181      2.000000
  0.086909  0.063515  0.018181      2.000000
  0.108636  0.067251  0.018181      2.000000
  0.130363  0.070987  0.018181      2.000000
 


--------------------------------------------------------------------------------------------------------




 Dimension of arrays:
   k-points           NKPTS =     54   k-points in BZ     NKDIM =     54   number of bands    NBANDS=     68
   number of dos      NEDOS =    301   number of ions     NIONS =     24
   non local maximal  LDIM  =      4   non local SUM 2l+1 LMDIM =      8
   total plane-waves  NPLWV = 192000
   max r-space proj   IRMAX =   2772   max aug-charges    IRDMAX=   6603
   dimension x,y,z NGX =    20 NGY =   60 NGZ =  160
   dimension x,y,z NGXF=    40 NGYF=  120 NGZF=  320
   support grid    NGXF=    40 NGYF=  120 NGZF=  320
   ions per type =              12  12
 NGX,Y,Z   is equivalent  to a cutoff of   9.39,  9.55,  9.67 a.u.
 NGXF,Y,Z  is equivalent  to a cutoff of  18.78, 19.10, 19.34 a.u.


 I would recommend the setting:
   dimension x,y,z NGX =    20 NGY =   59 NGZ =  155
 SYSTEM =  unknown system                          
 POSCAR =  Si12                                    

 Startparameter for this run:
   NWRITE =      2    write-flag & timer
   PREC   = accura    normal or accurate (medium, high low for compatibility)
   ISTART =      0    job   : 0-new  1-cont  2-samecut
   ICHARG =      2    charge: 1-file 2-atom 10-const
   ISPIN  =      1    spin polarized calculation?
   LNONCOLLINEAR =      F non collinear calculations
   LSORBIT =      F    spin-orbit coupling
   INIWAV =      1    electr: 0-lowe 1-rand  2-diag
   LASPH  =      F    aspherical Exc in radial PAW
   METAGGA=      F    non-selfconsistent MetaGGA calc.

 Electronic Relaxation 1
   ENCUT  =  300.0 eV  22.05 Ry    4.70 a.u.   5.00 14.75 38.84*2*pi/ulx,y,z
   ENINI  =  300.0     initial cutoff
   ENAUG  =  342.9 eV  augmentation charge cutoff
   NELM   =     60;   NELMIN=  2; NELMDL= -5     # of ELM steps 
   EDIFF  = 0.1E-05   stopping-criterion for ELM
   LREAL  =      T    real-space projection
   NLSPLINE    = F    spline interpolate recip. space projectors
   LCOMPAT=      F    compatible to vasp.4.4
   GGA_COMPAT  = T    GGA compatible to vasp.4.4-vasp.4.6
   LMAXPAW     = -100 max onsite density
   LMAXMIX     =    2 max onsite mixed and CHGCAR
   VOSKOWN=      0    Vosko Wilk Nusair interpolation
   ROPT   =   -0.00025  -0.00025
 Ionic relaxation
   EDIFFG = 0.1E-04   stopping-criterion for IOM
   NSW    =      0    number of steps for IOM
   NBLOCK =      1;   KBLOCK =      1    inner block; outer block 
   IBRION =     -1    ionic relax: 0-MD 1-quasi-New 2-CG
   NFREE  =      1    steps in history (QN), initial steepest desc. (CG)
   ISIF   =      3    stress and relaxation
   IWAVPR =     10    prediction:  0-non 1-charg 2-wave 3-comb
   ISYM   =      2    0-nonsym 1-usesym 2-fastsym
   LCORR  =      T    Harris-Foulkes like correction to forces

   POTIM  = 0.5000    time-step for ionic-motion
   TEIN   =    0.0    initial temperature
   TEBEG  =    0.0;   TEEND  =   0.0 temperature during run
   SMASS  =  -3.00    Nose mass-parameter (am)
   estimated Nose-frequenzy (Omega)   =  0.10E-29 period in steps =****** mass=  -0.286E-27a.u.
   SCALEE = 1.0000    scale energy and forces
   NPACO  =    256;   APACO  = 16.0  distance and # of slots for P.C.
   PSTRESS=    0.0 pullay stress

  Mass of Ions in am
   POMASS =  30.97 28.09
  Ionic Valenz
   ZVAL   =   5.00  4.00
  Atomic Wigner-Seitz radii
   RWIGS  =  -1.00 -1.00
  virtual crystal weights 
   VCA    =   1.00  1.00
   NELECT =     108.0000    total number of electrons
   NUPDOWN=      -1.0000    fix difference up-down

 DOS related values:
   EMIN   =  10.00;   EMAX   =-10.00  energy-range for DOS
   EFERMI =   0.00
   ISMEAR =     0;   SIGMA  =   0.10  broadening in eV -4-tet -1-fermi 0-gaus

 Electronic relaxation 2 (details)
   IALGO  =     38    algorithm
   LDIAG  =      T    sub-space diagonalisation (order eigenvalues)
   LSUBROT=      F    optimize rotation matrix (better conditioning)
   TURBO    =      0    0=normal 1=particle mesh
   IRESTART =      0    0=no restart 2=restart with 2 vectors
   NREBOOT  =      0    no. of reboots
   NMIN     =      0    reboot dimension
   EREF     =   0.00    reference energy to select bands
   IMIX   =      4    mixing-type and parameters
     AMIX     =   0.40;   BMIX     =  1.00
     AMIX_MAG =   1.60;   BMIX_MAG =  1.00
     AMIN     =   0.10
     WC   =   100.;   INIMIX=   1;  MIXPRE=   1;  MAXMIX= -45

 Intra band minimization:
   WEIMIN = 0.0000     energy-eigenvalue tresh-hold
   EBREAK =  0.37E-08  absolut break condition
   DEPER  =   0.30     relativ break condition  

   TIME   =   0.40     timestep for ELM

  volume/ion in A,a.u.               =      41.76       281.83
  Fermi-wavevector in a.u.,A,eV,Ry     =   0.779018  1.472130  8.256946  0.606868
  Thomas-Fermi vector in A             =   1.882034
 
 Write flags
   LWAVE  =      F    write WAVECAR
   LCHARG =      F    write CHGCAR
   LVTOT  =      F    write LOCPOT, total local potential
   LVHAR  =      F    write LOCPOT, Hartree potential only
   LELF   =      F    write electronic localiz. function (ELF)
   LORBIT =      0    0 simple, 1 ext, 2 COOP (PROOUT)


 Dipole corrections
   LMONO  =      F    monopole corrections only (constant potential shift)
   LDIPOL =      F    correct potential (dipole corrections)
   IDIPOL =      0    1-x, 2-y, 3-z, 4-all directions 
   EPSILON=  1.0000000 bulk dielectric constant

 Exchange correlation treatment:
   GGA     =    BO    GGA type
   LEXCH   =    42    internal setting for exchange type
   VOSKOWN=      0    Vosko Wilk Nusair interpolation
   LHFCALC =     F    Hartree Fock is set to
   LHFONE  =     F    Hartree Fock one center treatment
   AEXX    =    0.0000 exact exchange contribution

 vdW DFT:
   LUSE_VDW   =     T    switch on vdW DFT
   Zab_VDW    =-.8491    correlation parameter
   PARAM1     =0.1833
   PARAM2     =0.2200
   PARAM3     =0.0000

 Linear response parameters
   LEPSILON=     F    determine dielectric tensor
   LRPA    =     F    only Hartree local field effects (RPA)
   LNABLA  =     F    use nabla operator in PAW spheres
   LVEL    =     F    velocity operator in full k-point grid
   LINTERFAST=   F  fast interpolation
   KINTER  =     0    interpolate to denser k-point grid
   CSHIFT  =0.1000    complex shift for real part using Kramers Kronig
   OMEGAMAX=  -1.0    maximum frequency
   DEG_THRESHOLD= 0.2000000E-02 threshold for treating states as degnerate
   RTIME   =    0.100 relaxation time in fs

 Orbital magnetization related:
   ORBITALMAG=     F  switch on orbital magnetization
   LCHIMAG   =     F  perturbation theory with respect to B field
   DQ        =  0.001000  dq finite difference perturbation B field



--------------------------------------------------------------------------------------------------------


 Static calculation
 charge density and potential will be updated during run
 non-spin polarized calculation
 Variant of blocked Davidson
 Davidson routine will perform the subspace rotation
 perform sub-space diagonalisation
    after iterative eigenvector-optimisation
 modified Broyden-mixing scheme, WC =      100.0
 initial mixing is a Kerker type mixing with AMIX =  0.4000 and BMIX =      1.0000
 Hartree-type preconditioning will be used
 using additional bands           14
 real space projection scheme for non local part
 use partial core corrections
 calculate Harris-corrections to forces 
   (improved forces if not selfconsistent)
 use gradient corrections 
 use of overlap-Matrix (Vanderbilt PP)
 Gauss-broadening in eV      SIGMA  =   0.10


--------------------------------------------------------------------------------------------------------


  energy-cutoff  :      300.00
  volume of cell :     1002.32
      direct lattice vectors                 reciprocal lattice vectors
     3.540400000  0.000000000  0.000000000     0.282453960  0.048570342  0.000000000
    -1.770200000 10.294348000  0.000000000     0.000000000  0.097140683  0.000000000
     0.000000000  0.000000000 27.501429000     0.000000000  0.000000000  0.036361747

  length of vectors
     3.540400000 10.445439617 27.501429000     0.286599577  0.097140683  0.036361747


 
 k-points in units of 2pi/SCALE and weight: pymatgen generated KPOINTS with grid den
   0.00000000  0.00000000  0.00000000       0.010
   0.02172723  0.00373618  0.00000000       0.019
   0.04345446  0.00747236  0.00000000       0.019
   0.06518168  0.01120854  0.00000000       0.019
   0.08690891  0.01494472  0.00000000       0.019
   0.10863614  0.01868090  0.00000000       0.019
   0.13036337  0.02241708  0.00000000       0.019
   0.00000000  0.02428517  0.00000000       0.019
   0.02172723  0.02802135  0.00000000       0.019
   0.04345446  0.03175753  0.00000000       0.019
   0.06518168  0.03549371  0.00000000       0.019
   0.08690891  0.03922989  0.00000000       0.019
   0.10863614  0.04296607  0.00000000       0.019
   0.13036337  0.04670225  0.00000000       0.019
  -0.13036337  0.00186809  0.00000000       0.019
  -0.10863614  0.00560427  0.00000000       0.019
  -0.08690891  0.00934045  0.00000000       0.019
  -0.06518168  0.01307663  0.00000000       0.019
  -0.04345446  0.01681281  0.00000000       0.019
  -0.02172723  0.02054899  0.00000000       0.019
   0.00000000  0.04857034  0.00000000       0.010
   0.02172723  0.05230652  0.00000000       0.019
   0.04345446  0.05604270  0.00000000       0.019
   0.06518168  0.05977888  0.00000000       0.019
   0.08690891  0.06351506  0.00000000       0.019
   0.10863614  0.06725124  0.00000000       0.019
   0.13036337  0.07098742  0.00000000       0.019
   0.00000000  0.00000000  0.01818087       0.010
   0.02172723  0.00373618  0.01818087       0.019
   0.04345446  0.00747236  0.01818087       0.019
   0.06518168  0.01120854  0.01818087       0.019
   0.08690891  0.01494472  0.01818087       0.019
   0.10863614  0.01868090  0.01818087       0.019
   0.13036337  0.02241708  0.01818087       0.019
   0.00000000  0.02428517  0.01818087       0.019
   0.02172723  0.02802135  0.01818087       0.019
   0.04345446  0.03175753  0.01818087       0.019
   0.06518168  0.03549371  0.01818087       0.019
   0.08690891  0.03922989  0.01818087       0.019
   0.10863614  0.04296607  0.01818087       0.019
   0.13036337  0.04670225  0.01818087       0.019
  -0.13036337  0.00186809  0.01818087       0.019
  -0.10863614  0.00560427  0.01818087       0.019
  -0.08690891  0.00934045  0.01818087       0.019
  -0.06518168  0.01307663  0.01818087       0.019
  -0.04345446  0.01681281  0.01818087       0.019
  -0.02172723  0.02054899  0.01818087       0.019
   0.00000000  0.04857034  0.01818087       0.010
   0.02172723  0.05230652  0.01818087       0.019
   0.04345446  0.05604270  0.01818087       0.019
   0.06518168  0.05977888  0.01818087       0.019
   0.08690891  0.06351506  0.01818087       0.019
   0.10863614  0.06725124  0.01818087       0.019
   0.13036337  0.07098742  0.01818087       0.019
 
 k-points in reciprocal lattice and weights: pymatgen generated KPOINTS with grid den
   0.00000000  0.00000000  0.00000000       0.010
   0.07692308 -0.00000000  0.00000000       0.019
   0.15384615 -0.00000000  0.00000000       0.019
   0.23076923 -0.00000000  0.00000000       0.019
   0.30769231 -0.00000000  0.00000000       0.019
   0.38461538 -0.00000000  0.00000000       0.019
   0.46153846 -0.00000000  0.00000000       0.019
   0.00000000  0.25000000  0.00000000       0.019
   0.07692308  0.25000000  0.00000000       0.019
   0.15384615  0.25000000  0.00000000       0.019
   0.23076923  0.25000000  0.00000000       0.019
   0.30769231  0.25000000  0.00000000       0.019
   0.38461538  0.25000000  0.00000000       0.019
   0.46153846  0.25000000  0.00000000       0.019
  -0.46153846  0.25000000  0.00000000       0.019
  -0.38461538  0.25000000  0.00000000       0.019
  -0.30769231  0.25000000  0.00000000       0.019
  -0.23076923  0.25000000  0.00000000       0.019
  -0.15384615  0.25000000  0.00000000       0.019
  -0.07692308  0.25000000  0.00000000       0.019
   0.00000000  0.50000000  0.00000000       0.010
   0.07692308  0.50000000  0.00000000       0.019
   0.15384615  0.50000000  0.00000000       0.019
   0.23076923  0.50000000  0.00000000       0.019
   0.30769231  0.50000000  0.00000000       0.019
   0.38461538  0.50000000  0.00000000       0.019
   0.46153846  0.50000000  0.00000000       0.019
   0.00000000  0.00000000  0.50000000       0.010
   0.07692308 -0.00000000  0.50000000       0.019
   0.15384615 -0.00000000  0.50000000       0.019
   0.23076923 -0.00000000  0.50000000       0.019
   0.30769231 -0.00000000  0.50000000       0.019
   0.38461538 -0.00000000  0.50000000       0.019
   0.46153846 -0.00000000  0.50000000       0.019
   0.00000000  0.25000000  0.50000000       0.019
   0.07692308  0.25000000  0.50000000       0.019
   0.15384615  0.25000000  0.50000000       0.019
   0.23076923  0.25000000  0.50000000       0.019
   0.30769231  0.25000000  0.50000000       0.019
   0.38461538  0.25000000  0.50000000       0.019
   0.46153846  0.25000000  0.50000000       0.019
  -0.46153846  0.25000000  0.50000000       0.019
  -0.38461538  0.25000000  0.50000000       0.019
  -0.30769231  0.25000000  0.50000000       0.019
  -0.23076923  0.25000000  0.50000000       0.019
  -0.15384615  0.25000000  0.50000000       0.019
  -0.07692308  0.25000000  0.50000000       0.019
   0.00000000  0.50000000  0.50000000       0.010
   0.07692308  0.50000000  0.50000000       0.019
   0.15384615  0.50000000  0.50000000       0.019
   0.23076923  0.50000000  0.50000000       0.019
   0.30769231  0.50000000  0.50000000       0.019
   0.38461538  0.50000000  0.50000000       0.019
   0.46153846  0.50000000  0.50000000       0.019
 
 position of ions in fractional coordinates (direct lattice) 
   0.11402300  0.22804500  0.23316207
   0.71402300  0.92804500  0.51499159
   0.45808900  0.91617900  0.20939482
   0.05808900  0.61617900  0.49122434
   0.31085400  0.62170900  0.08414979
   0.31085400  0.62170900  0.36597930
   0.99923000  0.99846000  0.08631254
   0.99923000  0.99846000  0.36814206
   0.65492700  0.30985400  0.06041748
   0.65492700  0.30985400  0.34224700
   0.76973800  0.53947500  0.20725292
   0.36973800  0.23947500  0.48908244
   0.93971600  0.87943300  0.15783749
   0.53971600  0.57943300  0.43966701
   0.20515200  0.41030300  0.18578822
   0.80515200  0.11030300  0.46761774
   0.20184900  0.40369900  0.09969156
   0.20184900  0.40369900  0.38152107
   0.56380500  0.12761000  0.10779021
   0.56380500  0.12761000  0.38961973
   0.56710600  0.13421200  0.19387616
   0.16710600  0.83421200  0.47570568
   0.82923400  0.65846800  0.13571444
   0.42923400  0.35846800  0.41754396
 
 position of ions in cartesian coordinates  (Angst):
   0.00000177  2.34757459  6.41229012
   0.88510177  9.55361819 14.16300462
  -0.00000177  9.43146546  5.75865686
  -0.88510177  6.34316106 13.50937136
  -0.00000177  6.40008880  2.31423934
  -0.00000177  6.40008880 10.06495384
   1.77020000 10.27849470  2.37371832
   1.77020000 10.27849470 10.12443282
   1.77020000  3.18974491  1.66156717
   1.77020000  3.18974491  9.41228167
   1.77020177  5.55354339  5.69975143
   0.88510177  2.46523899 13.45046593
   1.77019823  9.05318934  4.34075665
   0.88509823  5.96488494 12.09147115
   0.00000177  4.22380187  5.10944151
   2.65530177  1.13549747 12.86015601
  -0.00000177  4.15581799  2.74166024
  -0.00000177  4.15581799 10.49237474
   1.77020000  1.31366175  2.96438477
   1.77020000  1.31366175 10.71509927
   1.77020000  1.38162503  5.33187152
  -0.88510000  8.58766863 13.08258602
   1.77020000  6.77849874  3.73234107
   0.88510000  3.69019434 11.48305557
 


--------------------------------------------------------------------------------------------------------


 k-point  1 :   0.0000 0.0000 0.0000  plane waves:   11717
 k-point  2 :   0.0769-0.0000 0.0000  plane waves:   11762
 k-point  3 :   0.1538-0.0000 0.0000  plane waves:   11805
 k-point  4 :   0.2308-0.0000 0.0000  plane waves:   11824
 k-point  5 :   0.3077-0.0000 0.0000  plane waves:   11875
 k-point  6 :   0.3846-0.0000 0.0000  plane waves:   11864
 k-point  7 :   0.4615-0.0000 0.0000  plane waves:   11883
 k-point  8 :   0.0000 0.2500 0.0000  plane waves:   11683
 k-point  9 :   0.0769 0.2500 0.0000  plane waves:   11756
 k-point 10 :   0.1538 0.2500 0.0000  plane waves:   11807
 k-point 11 :   0.2308 0.2500 0.0000  plane waves:   11853
 k-point 12 :   0.3077 0.2500 0.0000  plane waves:   11866
 k-point 13 :   0.3846 0.2500 0.0000  plane waves:   11889
 k-point 14 :   0.4615 0.2500 0.0000  plane waves:   11885
 k-point 15 :  -0.4615 0.2500 0.0000  plane waves:   11886
 k-point 16 :  -0.3846 0.2500 0.0000  plane waves:   11867
 k-point 17 :  -0.3077 0.2500 0.0000  plane waves:   11849
 k-point 18 :  -0.2308 0.2500 0.0000  plane waves:   11827
 k-point 19 :  -0.1538 0.2500 0.0000  plane waves:   11801
 k-point 20 :  -0.0769 0.2500 0.0000  plane waves:   11757
 k-point 21 :   0.0000 0.5000 0.0000  plane waves:   11710
 k-point 22 :   0.0769 0.5000 0.0000  plane waves:   11762
 k-point 23 :   0.1538 0.5000 0.0000  plane waves:   11782
 k-point 24 :   0.2308 0.5000 0.0000  plane waves:   11841
 k-point 25 :   0.3077 0.5000 0.0000  plane waves:   11876
 k-point 26 :   0.3846 0.5000 0.0000  plane waves:   11889
 k-point 27 :   0.4615 0.5000 0.0000  plane waves:   11881
 k-point 28 :   0.0000 0.0000 0.5000  plane waves:   11698
 k-point 29 :   0.0769-0.0000 0.5000  plane waves:   11752
 k-point 30 :   0.1538-0.0000 0.5000  plane waves:   11800
 k-point 31 :   0.2308-0.0000 0.5000  plane waves:   11834
 k-point 32 :   0.3077-0.0000 0.5000  plane waves:   11850
 k-point 33 :   0.3846-0.0000 0.5000  plane waves:   11888
 k-point 34 :   0.4615-0.0000 0.5000  plane waves:   11896
 k-point 35 :   0.0000 0.2500 0.5000  plane waves:   11714
 k-point 36 :   0.0769 0.2500 0.5000  plane waves:   11754
 k-point 37 :   0.1538 0.2500 0.5000  plane waves:   11802
 k-point 38 :   0.2308 0.2500 0.5000  plane waves:   11840
 k-point 39 :   0.3077 0.2500 0.5000  plane waves:   11858
 k-point 40 :   0.3846 0.2500 0.5000  plane waves:   11896
 k-point 41 :   0.4615 0.2500 0.5000  plane waves:   11886
 k-point 42 :  -0.4615 0.2500 0.5000  plane waves:   11852
 k-point 43 :  -0.3846 0.2500 0.5000  plane waves:   11838
 k-point 44 :  -0.3077 0.2500 0.5000  plane waves:   11842
 k-point 45 :  -0.2308 0.2500 0.5000  plane waves:   11840
 k-point 46 :  -0.1538 0.2500 0.5000  plane waves:   11804
 k-point 47 :  -0.0769 0.2500 0.5000  plane waves:   11748
 k-point 48 :   0.0000 0.5000 0.5000  plane waves:   11724
 k-point 49 :   0.0769 0.5000 0.5000  plane waves:   11748
 k-point 50 :   0.1538 0.5000 0.5000  plane waves:   11814
 k-point 51 :   0.2308 0.5000 0.5000  plane waves:   11832
 k-point 52 :   0.3077 0.5000 0.5000  plane waves:   11868
 k-point 53 :   0.3846 0.5000 0.5000  plane waves:   11892
 k-point 54 :   0.4615 0.5000 0.5000  plane waves:   11878

 maximum and minimum number of plane-waves per node :      5964     5832

 maximum number of plane-waves:     11896
 maximum index in each direction: 
   IXMAX=    5   IYMAX=   14   IZMAX=   38
   IXMIN=   -5   IYMIN=  -15   IZMIN=  -39

 WARNING: aliasing errors must be expected set NGX to  22 to avoid them
 NGY is ok and might be reduce to  60
 NGZ is ok and might be reduce to 156
 aliasing errors are usually negligible using standard VASP settings
 and one can safely disregard these warnings

 real space projection operators:
  total allocation   :       3793.25 KBytes
  max/ min on nodes  :       1899.38       1893.88


 parallel 3D FFT for wavefunctions:
    minimum data exchange during FFTs selected (reduces bandwidth)
 parallel 3D FFT for charge:
    minimum data exchange during FFTs selected (reduces bandwidth)


 total amount of memory used by VASP on root node   146493. kBytes
========================================================================

   base      :      30000. kBytes
   nonlr-proj:       3452. kBytes
   fftplans  :       9347. kBytes
   grid      :      14649. kBytes
   one-center:         36. kBytes
   wavefun   :      89009. kBytes
 
     INWAV:  cpu time    0.00: real time    0.00
 Broyden mixing: mesh for mixing (old mesh)
   NGX =  9   NGY = 29   NGZ = 77
  (NGX  = 40   NGY  =120   NGZ  =320)
  gives a total of  20097 points

 initial charge density was supplied:
 charge density of overlapping atoms calculated
 number of electron     108.0000000 magnetization 
 keeping initial charge density in first step


--------------------------------------------------------------------------------------------------------


 Maximum index for non-local projection operator         1333
 Maximum index for augmentation-charges          822 (set IRDMAX)


--------------------------------------------------------------------------------------------------------


 First call to EWALD:  gamma=   0.177
 Maximum number of real-space cells 7x 3x 1
 Maximum number of reciprocal cells 1x 3x 7

 FEWALD executed in parallel
    FEWALD:  cpu time    0.00: real time    0.00


----------------------------------------- Iteration    1(   1)  ---------------------------------------


vdW kernel read from vdw_kernel.bindat
  0.0000  0.2424  0.5071  0.7962  1.1119  1.4567  1.8333  2.2446  2.6937  3.1842
  3.7199  4.3049  4.9438  5.6415  6.4036  7.2358  8.1446  9.1372 10.2212 11.4050
 12.6979 14.1099 15.6519 17.3360 19.1751 21.1837 23.3773 25.7729 28.3892 31.2465
 34.3669 37.7748 41.4965 45.5611 50.0000
 
    POTLOK:  cpu time   16.77: real time   16.79
    SETDIJ:  cpu time    0.01: real time    0.01
     EDDAV:  cpu time   83.98: real time   84.05
       DOS:  cpu time    0.01: real time    0.01
    --------------------------------------------
      LOOP:  cpu time  100.76: real time  100.87

 eigenvalue-minimisations  :  7360
 total energy-change (2. order) : 0.5116328E+03  (-0.2872073E+04)
 number of electron     108.0000000 magnetization 
 augmentation part      108.0000000 magnetization 

 Free energy of the ion-electron system (eV)
  ---------------------------------------------------
  alpha Z        PSCENC =        36.80884744
  Ewald energy   TEWEN  =     12013.77947003
  -Hartree energ DENC   =    -15036.07149543
  -exchange      EXHF   =         0.00000000
  -V(xc)+E(xc)   XCENC  =       -87.28207736
  PAW double counting   =      1056.43050070     -732.41190547
  entropy T*S    EENTRO =        -0.04525919
  eigenvalues    EBANDS =       -93.61656775
  atomic energy  EATOM  =      3354.04126044
  ---------------------------------------------------
  free energy    TOTEN  =       511.63277342 eV

  energy without entropy =      511.67803261  energy(sigma->0) =      511.65540302


--------------------------------------------------------------------------------------------------------




----------------------------------------- Iteration    1(   2)  ---------------------------------------


     EDDAV:  cpu time  104.88: real time  104.94
       DOS:  cpu time    0.01: real time    0.01
    --------------------------------------------
      LOOP:  cpu time  104.89: real time  104.95

 eigenvalue-minimisations  :  9808
 total energy-change (2. order) :-0.5662777E+03  (-0.5515337E+03)
 number of electron     108.0000000 magnetization 
 augmentation part      108.0000000 magnetization 

 Free energy of the ion-electron system (eV)
  ---------------------------------------------------
  alpha Z        PSCENC =        36.80884744
  Ewald energy   TEWEN  =     12013.77947003
  -Hartree energ DENC   =    -15036.07149543
  -exchange      EXHF   =         0.00000000
  -V(xc)+E(xc)   XCENC  =       -87.28207736
  PAW double counting   =      1056.43050070     -732.41190547
  entropy T*S    EENTRO =        -0.02278140
  eigenvalues    EBANDS =      -659.91669871
  atomic energy  EATOM  =      3354.04126044
  ---------------------------------------------------
  free energy    TOTEN  =       -54.64487975 eV

  energy without entropy =      -54.62209835  energy(sigma->0) =      -54.63348905


--------------------------------------------------------------------------------------------------------




----------------------------------------- Iteration    1(   3)  ---------------------------------------


     EDDAV:  cpu time   95.65: real time   95.70
       DOS:  cpu time    0.01: real time    0.01
    --------------------------------------------
      LOOP:  cpu time   95.66: real time   96.37

 eigenvalue-minimisations  :  8860
 total energy-change (2. order) :-0.5747295E+02  (-0.5663369E+02)
 number of electron     108.0000000 magnetization 
 augmentation part      108.0000000 magnetization 

 Free energy of the ion-electron system (eV)
  ---------------------------------------------------
  alpha Z        PSCENC =        36.80884744
  Ewald energy   TEWEN  =     12013.77947003
  -Hartree energ DENC   =    -15036.07149543
  -exchange      EXHF   =         0.00000000
  -V(xc)+E(xc)   XCENC  =       -87.28207736
  PAW double counting   =      1056.43050070     -732.41190547
  entropy T*S    EENTRO =        -0.02089527
  eigenvalues    EBANDS =      -717.39153512
  atomic energy  EATOM  =      3354.04126044
  ---------------------------------------------------
  free energy    TOTEN  =      -112.11783002 eV

  energy without entropy =     -112.09693476  energy(sigma->0) =     -112.10738239


--------------------------------------------------------------------------------------------------------




----------------------------------------- Iteration    1(   4)  ---------------------------------------


     EDDAV:  cpu time  119.58: real time  119.65
       DOS:  cpu time    0.01: real time    0.01
    --------------------------------------------
      LOOP:  cpu time  119.59: real time  119.67

 eigenvalue-minimisations  : 11680
 total energy-change (2. order) :-0.2809202E+01  (-0.2789035E+01)
 number of electron     108.0000000 magnetization 
 augmentation part      108.0000000 magnetization 

 Free energy of the ion-electron system (eV)
  ---------------------------------------------------
  alpha Z        PSCENC =        36.80884744
  Ewald energy   TEWEN  =     12013.77947003
  -Hartree energ DENC   =    -15036.07149543
  -exchange      EXHF   =         0.00000000
  -V(xc)+E(xc)   XCENC  =       -87.28207736
  PAW double counting   =      1056.43050070     -732.41190547
  entropy T*S    EENTRO =        -0.02660860
  eigenvalues    EBANDS =      -720.19502335
  atomic energy  EATOM  =      3354.04126044
  ---------------------------------------------------
  free energy    TOTEN  =      -114.92703159 eV

  energy without entropy =     -114.90042299  energy(sigma->0) =     -114.91372729


--------------------------------------------------------------------------------------------------------




----------------------------------------- Iteration    1(   5)  ---------------------------------------


     EDDAV:  cpu time  107.74: real time  107.81
       DOS:  cpu time    0.01: real time    0.01
    CHARGE:  cpu time    5.22: real time    5.22
    MIXING:  cpu time    0.01: real time    0.01
    --------------------------------------------
      LOOP:  cpu time  112.99: real time  113.06

 eigenvalue-minimisations  :  9912
 total energy-change (2. order) :-0.4467256E-01  (-0.4459657E-01)
 number of electron     107.9999994 magnetization 
 augmentation part       -9.7094438 magnetization 

 Broyden mixing:
  rms(total) = 0.12226E+01    rms(broyden)= 0.12223E+01
  rms(prec ) = 0.13211E+01
  weight for this iteration     100.00

 Free energy of the ion-electron system (eV)
  ---------------------------------------------------
  alpha Z        PSCENC =        36.80884744
  Ewald energy   TEWEN  =     12013.77947003
  -Hartree energ DENC   =    -15036.07149543
  -exchange      EXHF   =         0.00000000
  -V(xc)+E(xc)   XCENC  =       -87.28207736
  PAW double counting   =      1056.43050070     -732.41190547
  entropy T*S    EENTRO =        -0.02676780
  eigenvalues    EBANDS =      -720.23953671
  atomic energy  EATOM  =      3354.04126044
  ---------------------------------------------------
  free energy    TOTEN  =      -114.97170415 eV

  energy without entropy =     -114.94493635  energy(sigma->0) =     -114.95832025


--------------------------------------------------------------------------------------------------------




----------------------------------------- Iteration    1(   6)  ---------------------------------------


    POTLOK:  cpu time   15.29: real time   15.30
    SETDIJ:  cpu time    0.01: real time    0.01
     EDDAV:  cpu time   97.38: real time   97.41
       DOS:  cpu time    0.01: real time    0.01
    CHARGE:  cpu time    5.09: real time    5.09
    MIXING:  cpu time    0.01: real time    0.01
    --------------------------------------------
      LOOP:  cpu time  117.80: real time  117.84

 eigenvalue-minimisations  :  8844
 total energy-change (2. order) : 0.4267342E+01  (-0.1166257E+01)
 number of electron     107.9999994 magnetization 
 augmentation part       -9.5418740 magnetization 

 Broyden mixing:
  rms(total) = 0.63238E+00    rms(broyden)= 0.63235E+00
  rms(prec ) = 0.67874E+00
  weight for this iteration     100.00

 eigenvalues of (default mixing * dielectric matrix)
  average eigenvalue GAMMA=   1.5327
  1.5327

 Free energy of the ion-electron system (eV)
  ---------------------------------------------------
  alpha Z        PSCENC =        36.80884744
  Ewald energy   TEWEN  =     12013.77947003
  -Hartree energ DENC   =    -15089.51147947
  -exchange      EXHF   =         0.00000000
  -V(xc)+E(xc)   XCENC  =       -84.02090323
  PAW double counting   =      1126.26716159     -804.36878499
  entropy T*S    EENTRO =        -0.02047032
  eigenvalues    EBANDS =      -663.67946377
  atomic energy  EATOM  =      3354.04126044
  ---------------------------------------------------
  free energy    TOTEN  =      -110.70436227 eV

  energy without entropy =     -110.68389195  energy(sigma->0) =     -110.69412711


--------------------------------------------------------------------------------------------------------




----------------------------------------- Iteration    1(   7)  ---------------------------------------


    POTLOK:  cpu time   15.18: real time   15.19
    SETDIJ:  cpu time    0.01: real time    0.01
     EDDAV:  cpu time   97.08: real time   97.11
       DOS:  cpu time    0.01: real time    0.01
    CHARGE:  cpu time    5.08: real time    5.08
    MIXING:  cpu time    0.01: real time    0.01
    --------------------------------------------
      LOOP:  cpu time  117.38: real time  117.42

 eigenvalue-minimisations  :  9096
 total energy-change (2. order) :-0.1228404E+00  (-0.1077539E+01)
 number of electron     107.9999994 magnetization 
 augmentation part       -9.4468609 magnetization 

 Broyden mixing:
  rms(total) = 0.33257E+00    rms(broyden)= 0.33250E+00
  rms(prec ) = 0.38348E+00
  weight for this iteration     100.00

 eigenvalues of (default mixing * dielectric matrix)
  average eigenvalue GAMMA=   1.1959
  1.6915  0.7003

 Free energy of the ion-electron system (eV)
  ---------------------------------------------------
  alpha Z        PSCENC =        36.80884744
  Ewald energy   TEWEN  =     12013.77947003
  -Hartree energ DENC   =    -15099.28867499
  -exchange      EXHF   =         0.00000000
  -V(xc)+E(xc)   XCENC  =       -81.50453607
  PAW double counting   =      1170.70775584     -850.13314386
  entropy T*S    EENTRO =        -0.01327818
  eigenvalues    EBANDS =      -655.22490336
  atomic energy  EATOM  =      3354.04126044
  ---------------------------------------------------
  free energy    TOTEN  =      -110.82720269 eV

  energy without entropy =     -110.81392451  energy(sigma->0) =     -110.82056360


--------------------------------------------------------------------------------------------------------




----------------------------------------- Iteration    1(   8)  ---------------------------------------


    POTLOK:  cpu time   15.18: real time   15.18
    SETDIJ:  cpu time    0.01: real time    0.01
     EDDAV:  cpu time   97.25: real time   97.29
       DOS:  cpu time    0.01: real time    0.01
    CHARGE:  cpu time    5.15: real time    5.15
    MIXING:  cpu time    0.01: real time    0.01
    --------------------------------------------
      LOOP:  cpu time  117.62: real time  117.67

 eigenvalue-minimisations  :  8928
 total energy-change (2. order) : 0.1586018E+00  (-0.2335553E+00)
 number of electron     107.9999994 magnetization 
 augmentation part       -9.4333109 magnetization 

 Broyden mixing:
  rms(total) = 0.17809E+00    rms(broyden)= 0.17807E+00
  rms(prec ) = 0.18964E+00
  weight for this iteration     100.00

 eigenvalues of (default mixing * dielectric matrix)
  average eigenvalue GAMMA=   1.3203
  1.7297  1.6327  0.5984

 Free energy of the ion-electron system (eV)
  ---------------------------------------------------
  alpha Z        PSCENC =        36.80884744
  Ewald energy   TEWEN  =     12013.77947003
  -Hartree energ DENC   =    -15119.48844322
  -exchange      EXHF   =         0.00000000
  -V(xc)+E(xc)   XCENC  =       -80.42214540
  PAW double counting   =      1184.68831215     -864.50225135
  entropy T*S    EENTRO =        -0.02603261
  eigenvalues    EBANDS =      -635.54761837
  atomic energy  EATOM  =      3354.04126044
  ---------------------------------------------------
  free energy    TOTEN  =      -110.66860087 eV

  energy without entropy =     -110.64256826  energy(sigma->0) =     -110.65558456


--------------------------------------------------------------------------------------------------------




----------------------------------------- Iteration    1(   9)  ---------------------------------------


    POTLOK:  cpu time   15.24: real time   15.25
    SETDIJ:  cpu time    0.01: real time    0.01
     EDDAV:  cpu time   96.85: real time   96.89
       DOS:  cpu time    0.01: real time    0.01
    CHARGE:  cpu time    5.12: real time    5.12
    MIXING:  cpu time    0.01: real time    0.01
    --------------------------------------------
      LOOP:  cpu time  117.25: real time  117.29

 eigenvalue-minimisations  :  8824
 total energy-change (2. order) : 0.1403119E-01  (-0.4551296E-01)
 number of electron     107.9999994 magnetization 
 augmentation part       -9.4261883 magnetization 

 Broyden mixing:
  rms(total) = 0.71394E-01    rms(broyden)= 0.71390E-01
  rms(prec ) = 0.76843E-01
  weight for this iteration     100.00

 eigenvalues of (default mixing * dielectric matrix)
  average eigenvalue GAMMA=   1.3595
  2.4609  1.1937  1.1937  0.5898

 Free energy of the ion-electron system (eV)
  ---------------------------------------------------
  alpha Z        PSCENC =        36.80884744
  Ewald energy   TEWEN  =     12013.77947003
  -Hartree energ DENC   =    -15124.30986211
  -exchange      EXHF   =         0.00000000
  -V(xc)+E(xc)   XCENC  =       -79.76720685
  PAW double counting   =      1187.94544596     -867.87064507
  entropy T*S    EENTRO =        -0.02895376
  eigenvalues    EBANDS =      -631.25292578
  atomic energy  EATOM  =      3354.04126044
  ---------------------------------------------------
  free energy    TOTEN  =      -110.65456968 eV

  energy without entropy =     -110.62561592  energy(sigma->0) =     -110.64009280


--------------------------------------------------------------------------------------------------------




----------------------------------------- Iteration    1(  10)  ---------------------------------------


    POTLOK:  cpu time   15.24: real time   15.25
    SETDIJ:  cpu time    0.01: real time    0.01
     EDDAV:  cpu time   97.59: real time   97.63
       DOS:  cpu time    0.01: real time    0.01
    CHARGE:  cpu time    5.16: real time    5.17
    MIXING:  cpu time    0.01: real time    0.02
    --------------------------------------------
      LOOP:  cpu time  118.04: real time  118.08

 eigenvalue-minimisations  :  8912
 total energy-change (2. order) :-0.7755469E-02  (-0.9359322E-02)
 number of electron     107.9999994 magnetization 
 augmentation part       -9.4203963 magnetization 

 Broyden mixing:
  rms(total) = 0.24181E-01    rms(broyden)= 0.24178E-01
  rms(prec ) = 0.26605E-01
  weight for this iteration     100.00

 eigenvalues of (default mixing * dielectric matrix)
  average eigenvalue GAMMA=   1.3639
  2.5524  0.5879  1.2414  1.2414  1.1963

 Free energy of the ion-electron system (eV)
  ---------------------------------------------------
  alpha Z        PSCENC =        36.80884744
  Ewald energy   TEWEN  =     12013.77947003
  -Hartree energ DENC   =    -15129.36763243
  -exchange      EXHF   =         0.00000000
  -V(xc)+E(xc)   XCENC  =       -79.36158129
  PAW double counting   =      1190.11715706     -870.12580962
  entropy T*S    EENTRO =        -0.02787338
  eigenvalues    EBANDS =      -626.52616340
  atomic energy  EATOM  =      3354.04126044
  ---------------------------------------------------
  free energy    TOTEN  =      -110.66232515 eV

  energy without entropy =     -110.63445177  energy(sigma->0) =     -110.64838846


--------------------------------------------------------------------------------------------------------




----------------------------------------- Iteration    1(  11)  ---------------------------------------


    POTLOK:  cpu time   15.25: real time   15.25
    SETDIJ:  cpu time    0.01: real time    0.01
     EDDAV:  cpu time  101.15: real time  101.18
       DOS:  cpu time    0.01: real time    0.01
    CHARGE:  cpu time    5.11: real time    5.11
    MIXING:  cpu time    0.01: real time    0.01
    --------------------------------------------
      LOOP:  cpu time  121.55: real time  121.58

 eigenvalue-minimisations  :  9304
 total energy-change (2. order) : 0.1168634E-01  (-0.1701718E-02)
 number of electron     107.9999994 magnetization 
 augmentation part       -9.4247495 magnetization 

 Broyden mixing:
  rms(total) = 0.11086E-01    rms(broyden)= 0.11085E-01
  rms(prec ) = 0.12783E-01
  weight for this iteration     100.00

 eigenvalues of (default mixing * dielectric matrix)
  average eigenvalue GAMMA=   1.3687
  2.6253  1.7261  0.5898  1.1689  1.1689  0.9329

 Free energy of the ion-electron system (eV)
  ---------------------------------------------------
  alpha Z        PSCENC =        36.80884744
  Ewald energy   TEWEN  =     12013.77947003
  -Hartree energ DENC   =    -15130.69474785
  -exchange      EXHF   =         0.00000000
  -V(xc)+E(xc)   XCENC  =       -79.31841221
  PAW double counting   =      1188.26823388     -868.23016040
  entropy T*S    EENTRO =        -0.02834081
  eigenvalues    EBANDS =      -625.27678933
  atomic energy  EATOM  =      3354.04126044
  ---------------------------------------------------
  free energy    TOTEN  =      -110.65063881 eV

  energy without entropy =     -110.62229800  energy(sigma->0) =     -110.63646840


--------------------------------------------------------------------------------------------------------




----------------------------------------- Iteration    1(  12)  ---------------------------------------


    POTLOK:  cpu time   15.25: real time   15.25
    SETDIJ:  cpu time    0.01: real time    0.01
     EDDAV:  cpu time  103.12: real time  103.15
       DOS:  cpu time    0.01: real time    0.01
    CHARGE:  cpu time    5.15: real time    5.15
    MIXING:  cpu time    0.01: real time    0.01
    --------------------------------------------
      LOOP:  cpu time  123.56: real time  123.59

 eigenvalue-minimisations  :  9544
 total energy-change (2. order) : 0.7547720E-02  (-0.2847581E-03)
 number of electron     107.9999994 magnetization 
 augmentation part       -9.4257552 magnetization 

 Broyden mixing:
  rms(total) = 0.52576E-02    rms(broyden)= 0.52570E-02
  rms(prec ) = 0.67768E-02
  weight for this iteration     100.00

 eigenvalues of (default mixing * dielectric matrix)
  average eigenvalue GAMMA=   1.3402
  2.6687  1.9540  1.1933  1.1933  0.5902  0.8909  0.8909

 Free energy of the ion-electron system (eV)
  ---------------------------------------------------
  alpha Z        PSCENC =        36.80884744
  Ewald energy   TEWEN  =     12013.77947003
  -Hartree energ DENC   =    -15131.46482803
  -exchange      EXHF   =         0.00000000
  -V(xc)+E(xc)   XCENC  =       -79.30647180
  PAW double counting   =      1187.09753276     -867.02884909
  entropy T*S    EENTRO =        -0.02809567
  eigenvalues    EBANDS =      -624.54195718
  atomic energy  EATOM  =      3354.04126044
  ---------------------------------------------------
  free energy    TOTEN  =      -110.64309109 eV

  energy without entropy =     -110.61499542  energy(sigma->0) =     -110.62904325


--------------------------------------------------------------------------------------------------------




----------------------------------------- Iteration    1(  13)  ---------------------------------------


    POTLOK:  cpu time   15.27: real time   15.27
    SETDIJ:  cpu time    0.01: real time    0.01
     EDDAV:  cpu time  100.91: real time  100.94
       DOS:  cpu time    0.01: real time    0.01
    CHARGE:  cpu time    5.16: real time    5.16
    MIXING:  cpu time    0.02: real time    0.02
    --------------------------------------------
      LOOP:  cpu time  121.38: real time  121.41

 eigenvalue-minimisations  :  9288
 total energy-change (2. order) : 0.3983014E-02  (-0.7274381E-04)
 number of electron     107.9999994 magnetization 
 augmentation part       -9.4258145 magnetization 

 Broyden mixing:
  rms(total) = 0.28758E-02    rms(broyden)= 0.28756E-02
  rms(prec ) = 0.42143E-02
  weight for this iteration     100.00

 eigenvalues of (default mixing * dielectric matrix)
  average eigenvalue GAMMA=   1.3491
  2.6846  2.0814  1.4582  1.1799  1.1799  0.9111  0.5893  0.7080

 Free energy of the ion-electron system (eV)
  ---------------------------------------------------
  alpha Z        PSCENC =        36.80884744
  Ewald energy   TEWEN  =     12013.77947003
  -Hartree energ DENC   =    -15132.18730243
  -exchange      EXHF   =         0.00000000
  -V(xc)+E(xc)   XCENC  =       -79.30302266
  PAW double counting   =      1186.53817663     -866.45497567
  entropy T*S    EENTRO =        -0.02832914
  eigenvalues    EBANDS =      -623.83323272
  atomic energy  EATOM  =      3354.04126044
  ---------------------------------------------------
  free energy    TOTEN  =      -110.63910807 eV

  energy without entropy =     -110.61077893  energy(sigma->0) =     -110.62494350


--------------------------------------------------------------------------------------------------------




----------------------------------------- Iteration    1(  14)  ---------------------------------------


    POTLOK:  cpu time   15.25: real time   15.25
    SETDIJ:  cpu time    0.01: real time    0.01
     EDDAV:  cpu time  100.44: real time  100.49
       DOS:  cpu time    0.01: real time    0.01
    CHARGE:  cpu time    5.14: real time    5.14
    MIXING:  cpu time    0.02: real time    0.02
    --------------------------------------------
      LOOP:  cpu time  120.88: real time  120.93

 eigenvalue-minimisations  :  9256
 total energy-change (2. order) : 0.2250732E-02  (-0.2230728E-04)
 number of electron     107.9999994 magnetization 
 augmentation part       -9.4255108 magnetization 

 Broyden mixing:
  rms(total) = 0.16742E-02    rms(broyden)= 0.16741E-02
  rms(prec ) = 0.27221E-02
  weight for this iteration     100.00

 eigenvalues of (default mixing * dielectric matrix)
  average eigenvalue GAMMA=   1.4145
  2.8907  2.5204  1.6984  1.1662  1.1662  1.0149  1.0149  0.5884  0.6702

 Free energy of the ion-electron system (eV)
  ---------------------------------------------------
  alpha Z        PSCENC =        36.80884744
  Ewald energy   TEWEN  =     12013.77947003
  -Hartree energ DENC   =    -15133.04282610
  -exchange      EXHF   =         0.00000000
  -V(xc)+E(xc)   XCENC  =       -79.29973751
  PAW double counting   =      1186.25563697     -866.16559312
  entropy T*S    EENTRO =        -0.02824016
  eigenvalues    EBANDS =      -622.98567534
  atomic energy  EATOM  =      3354.04126044
  ---------------------------------------------------
  free energy    TOTEN  =      -110.63685734 eV

  energy without entropy =     -110.60861718  energy(sigma->0) =     -110.62273726


--------------------------------------------------------------------------------------------------------




----------------------------------------- Iteration    1(  15)  ---------------------------------------


    POTLOK:  cpu time   15.25: real time   15.25
    SETDIJ:  cpu time    0.01: real time    0.01
     EDDAV:  cpu time  106.45: real time  106.48
       DOS:  cpu time    0.01: real time    0.01
    CHARGE:  cpu time    5.14: real time    5.14
    MIXING:  cpu time    0.02: real time    0.02
    --------------------------------------------
      LOOP:  cpu time  126.87: real time  126.91

 eigenvalue-minimisations  :  9992
 total energy-change (2. order) : 0.1492434E-02  (-0.1111091E-04)
 number of electron     107.9999994 magnetization 
 augmentation part       -9.4253693 magnetization 

 Broyden mixing:
  rms(total) = 0.86314E-03    rms(broyden)= 0.86309E-03
  rms(prec ) = 0.15453E-02
  weight for this iteration     100.00

 eigenvalues of (default mixing * dielectric matrix)
  average eigenvalue GAMMA=   1.4559
  3.1604  2.6142  1.7422  1.4570  1.1753  1.1753  0.9866  0.9866  0.5883  0.6731

 Free energy of the ion-electron system (eV)
  ---------------------------------------------------
  alpha Z        PSCENC =        36.80884744
  Ewald energy   TEWEN  =     12013.77947003
  -Hartree energ DENC   =    -15133.99348670
  -exchange      EXHF   =         0.00000000
  -V(xc)+E(xc)   XCENC  =       -79.29518656
  PAW double counting   =      1186.04197498     -865.94691011
  entropy T*S    EENTRO =        -0.02828472
  eigenvalues    EBANDS =      -622.04304972
  atomic energy  EATOM  =      3354.04126044
  ---------------------------------------------------
  free energy    TOTEN  =      -110.63536491 eV

  energy without entropy =     -110.60708019  energy(sigma->0) =     -110.62122255


--------------------------------------------------------------------------------------------------------




----------------------------------------- Iteration    1(  16)  ---------------------------------------


    POTLOK:  cpu time   15.19: real time   15.20
    SETDIJ:  cpu time    0.01: real time    0.01
     EDDAV:  cpu time   93.60: real time   93.63
       DOS:  cpu time    0.01: real time    0.01
    CHARGE:  cpu time    5.11: real time    5.12
    MIXING:  cpu time    0.02: real time    0.02
    --------------------------------------------
      LOOP:  cpu time  113.95: real time  113.98

 eigenvalue-minimisations  :  8664
 total energy-change (2. order) :-0.1224636E-03  (-0.8273398E-05)
 number of electron     107.9999994 magnetization 
 augmentation part       -9.4252412 magnetization 

 Broyden mixing:
  rms(total) = 0.60954E-03    rms(broyden)= 0.60945E-03
  rms(prec ) = 0.10294E-02
  weight for this iteration     100.00

 eigenvalues of (default mixing * dielectric matrix)
  average eigenvalue GAMMA=   1.5237
  3.7894  2.6621  1.8790  1.8790  1.1796  1.1796  0.9974  0.9646  0.9646  0.5882
  0.6767

 Free energy of the ion-electron system (eV)
  ---------------------------------------------------
  alpha Z        PSCENC =        36.80884744
  Ewald energy   TEWEN  =     12013.77947003
  -Hartree energ DENC   =    -15134.62590761
  -exchange      EXHF   =         0.00000000
  -V(xc)+E(xc)   XCENC  =       -79.29162903
  PAW double counting   =      1186.04106552     -865.94612382
  entropy T*S    EENTRO =        -0.02827726
  eigenvalues    EBANDS =      -621.41419309
  atomic energy  EATOM  =      3354.04126044
  ---------------------------------------------------
  free energy    TOTEN  =      -110.63548737 eV

  energy without entropy =     -110.60721011  energy(sigma->0) =     -110.62134874


--------------------------------------------------------------------------------------------------------




----------------------------------------- Iteration    1(  17)  ---------------------------------------


    POTLOK:  cpu time   15.20: real time   15.20
    SETDIJ:  cpu time    0.01: real time    0.01
     EDDAV:  cpu time   92.95: real time   92.97
       DOS:  cpu time    0.01: real time    0.01
    CHARGE:  cpu time    5.12: real time    5.12
    MIXING:  cpu time    0.02: real time    0.02
    --------------------------------------------
      LOOP:  cpu time  113.30: real time  113.34

 eigenvalue-minimisations  :  8408
 total energy-change (2. order) :-0.4456238E-03  (-0.7651245E-05)
 number of electron     107.9999994 magnetization 
 augmentation part       -9.4252544 magnetization 

 Broyden mixing:
  rms(total) = 0.32887E-03    rms(broyden)= 0.32884E-03
  rms(prec ) = 0.59758E-03
  weight for this iteration     100.00

 eigenvalues of (default mixing * dielectric matrix)
  average eigenvalue GAMMA=   1.6017
  4.5446  2.7557  2.3969  1.5016  1.5016  1.1797  1.1797  0.9781  0.9781  0.9396
  0.5882  0.6763

 Free energy of the ion-electron system (eV)
  ---------------------------------------------------
  alpha Z        PSCENC =        36.80884744
  Ewald energy   TEWEN  =     12013.77947003
  -Hartree energ DENC   =    -15135.13413708
  -exchange      EXHF   =         0.00000000
  -V(xc)+E(xc)   XCENC  =       -79.28913830
  PAW double counting   =      1186.04731368     -865.95243937
  entropy T*S    EENTRO =        -0.02828366
  eigenvalues    EBANDS =      -620.90882618
  atomic energy  EATOM  =      3354.04126044
  ---------------------------------------------------
  free energy    TOTEN  =      -110.63593299 eV

  energy without entropy =     -110.60764934  energy(sigma->0) =     -110.62179117


--------------------------------------------------------------------------------------------------------




----------------------------------------- Iteration    1(  18)  ---------------------------------------


    POTLOK:  cpu time   15.20: real time   15.21
    SETDIJ:  cpu time    0.01: real time    0.01
     EDDAV:  cpu time   89.77: real time   89.79
       DOS:  cpu time    0.01: real time    0.01
    CHARGE:  cpu time    5.15: real time    5.15
    MIXING:  cpu time    0.02: real time    0.02
    --------------------------------------------
      LOOP:  cpu time  110.16: real time  110.19

 eigenvalue-minimisations  :  8016
 total energy-change (2. order) :-0.4375568E-03  (-0.1023052E-04)
 number of electron     107.9999994 magnetization 
 augmentation part       -9.4251789 magnetization 

 Broyden mixing:
  rms(total) = 0.20578E-03    rms(broyden)= 0.20576E-03
  rms(prec ) = 0.38063E-03
  weight for this iteration     100.00

 eigenvalues of (default mixing * dielectric matrix)
  average eigenvalue GAMMA=   1.6687
  5.4486  2.8596  2.4671  1.6461  1.6461  1.1875  1.1875  1.0091  1.0091  1.0514
  0.9169  0.5881  0.6766

 Free energy of the ion-electron system (eV)
  ---------------------------------------------------
  alpha Z        PSCENC =        36.80884744
  Ewald energy   TEWEN  =     12013.77947003
  -Hartree energ DENC   =    -15135.46974225
  -exchange      EXHF   =         0.00000000
  -V(xc)+E(xc)   XCENC  =       -79.28715994
  PAW double counting   =      1186.08997506     -865.99613840
  entropy T*S    EENTRO =        -0.02827865
  eigenvalues    EBANDS =      -620.57460429
  atomic energy  EATOM  =      3354.04126044
  ---------------------------------------------------
  free energy    TOTEN  =      -110.63637055 eV

  energy without entropy =     -110.60809190  energy(sigma->0) =     -110.62223122


--------------------------------------------------------------------------------------------------------




----------------------------------------- Iteration    1(  19)  ---------------------------------------


    POTLOK:  cpu time   15.25: real time   15.25
    SETDIJ:  cpu time    0.01: real time    0.01
     EDDAV:  cpu time   86.59: real time   86.62
       DOS:  cpu time    0.01: real time    0.01
    CHARGE:  cpu time    5.19: real time    5.19
    MIXING:  cpu time    0.02: real time    0.02
    --------------------------------------------
      LOOP:  cpu time  107.07: real time  107.10

 eigenvalue-minimisations  :  7728
 total energy-change (2. order) :-0.8189217E-04  (-0.4209561E-05)
 number of electron     107.9999994 magnetization 
 augmentation part       -9.4251539 magnetization 

 Broyden mixing:
  rms(total) = 0.13005E-03    rms(broyden)= 0.13004E-03
  rms(prec ) = 0.23928E-03
  weight for this iteration     100.00

 eigenvalues of (default mixing * dielectric matrix)
  average eigenvalue GAMMA=   1.7556
  6.0216  3.1577  2.6956  2.1760  1.4865  1.4865  1.1845  1.1845  0.9823  0.9823
  1.0024  0.9537  0.5881  0.6761

 Free energy of the ion-electron system (eV)
  ---------------------------------------------------
  alpha Z        PSCENC =        36.80884744
  Ewald energy   TEWEN  =     12013.77947003
  -Hartree energ DENC   =    -15135.66660484
  -exchange      EXHF   =         0.00000000
  -V(xc)+E(xc)   XCENC  =       -79.28639807
  PAW double counting   =      1186.09112359     -865.99724748
  entropy T*S    EENTRO =        -0.02828104
  eigenvalues    EBANDS =      -620.37862252
  atomic energy  EATOM  =      3354.04126044
  ---------------------------------------------------
  free energy    TOTEN  =      -110.63645244 eV

  energy without entropy =     -110.60817140  energy(sigma->0) =     -110.62231192


--------------------------------------------------------------------------------------------------------




----------------------------------------- Iteration    1(  20)  ---------------------------------------


    POTLOK:  cpu time   15.27: real time   15.28
    SETDIJ:  cpu time    0.01: real time    0.01
     EDDAV:  cpu time   77.85: real time   77.87
       DOS:  cpu time    0.01: real time    0.01
    CHARGE:  cpu time    5.21: real time    5.21
    MIXING:  cpu time    0.02: real time    0.02
    --------------------------------------------
      LOOP:  cpu time   98.38: real time   98.41

 eigenvalue-minimisations  :  6660
 total energy-change (2. order) : 0.2797343E-04  (-0.2036369E-05)
 number of electron     107.9999994 magnetization 
 augmentation part       -9.4251464 magnetization 

 Broyden mixing:
  rms(total) = 0.85215E-04    rms(broyden)= 0.85210E-04
  rms(prec ) = 0.14456E-03
  weight for this iteration     100.00

 eigenvalues of (default mixing * dielectric matrix)
  average eigenvalue GAMMA=   1.8197
  6.7158  3.5035  2.7286  2.3225  1.6534  1.6534  1.1882  1.1882  0.5881  0.6760
  1.0787  1.0787  0.9709  0.9709  0.9783

 Free energy of the ion-electron system (eV)
  ---------------------------------------------------
  alpha Z        PSCENC =        36.80884744
  Ewald energy   TEWEN  =     12013.77947003
  -Hartree energ DENC   =    -15135.79651750
  -exchange      EXHF   =         0.00000000
  -V(xc)+E(xc)   XCENC  =       -79.28592356
  PAW double counting   =      1186.08343643     -865.98930887
  entropy T*S    EENTRO =        -0.02827300
  eigenvalues    EBANDS =      -620.24941589
  atomic energy  EATOM  =      3354.04126044
  ---------------------------------------------------
  free energy    TOTEN  =      -110.63642447 eV

  energy without entropy =     -110.60815147  energy(sigma->0) =     -110.62228797


--------------------------------------------------------------------------------------------------------




----------------------------------------- Iteration    1(  21)  ---------------------------------------


    POTLOK:  cpu time   15.26: real time   15.27
    SETDIJ:  cpu time    0.01: real time    0.01
     EDDAV:  cpu time   82.14: real time   82.17
       DOS:  cpu time    0.01: real time    0.01
    CHARGE:  cpu time    5.21: real time    5.21
    MIXING:  cpu time    0.02: real time    0.02
    --------------------------------------------
      LOOP:  cpu time  102.65: real time  102.69

 eigenvalue-minimisations  :  7088
 total energy-change (2. order) : 0.1655020E-04  (-0.1416156E-05)
 number of electron     107.9999994 magnetization 
 augmentation part       -9.4251440 magnetization 

 Broyden mixing:
  rms(total) = 0.57711E-04    rms(broyden)= 0.57703E-04
  rms(prec ) = 0.92997E-04
  weight for this iteration     100.00

 eigenvalues of (default mixing * dielectric matrix)
  average eigenvalue GAMMA=   1.8538
  7.0524  3.7708  2.7749  2.6067  1.8966  1.4980  1.4980  1.1864  1.1864  0.5881
  0.6759  1.0169  1.0169  1.0504  0.9716  0.8717

 Free energy of the ion-electron system (eV)
  ---------------------------------------------------
  alpha Z        PSCENC =        36.80884744
  Ewald energy   TEWEN  =     12013.77947003
  -Hartree energ DENC   =    -15135.83666745
  -exchange      EXHF   =         0.00000000
  -V(xc)+E(xc)   XCENC  =       -79.28592961
  PAW double counting   =      1186.07840907     -865.98416055
  entropy T*S    EENTRO =        -0.02827720
  eigenvalues    EBANDS =      -620.20936010
  atomic energy  EATOM  =      3354.04126044
  ---------------------------------------------------
  free energy    TOTEN  =      -110.63640792 eV

  energy without entropy =     -110.60813072  energy(sigma->0) =     -110.62226932


--------------------------------------------------------------------------------------------------------




----------------------------------------- Iteration    1(  22)  ---------------------------------------


    POTLOK:  cpu time   15.26: real time   15.26
    SETDIJ:  cpu time    0.01: real time    0.01
     EDDAV:  cpu time   72.73: real time   72.76
       DOS:  cpu time    0.01: real time    0.01
    CHARGE:  cpu time    5.26: real time    5.26
    MIXING:  cpu time    0.02: real time    0.02
    --------------------------------------------
      LOOP:  cpu time   93.29: real time   93.33

 eigenvalue-minimisations  :  6088
 total energy-change (2. order) : 0.2117513E-04  (-0.8455503E-06)
 number of electron     107.9999994 magnetization 
 augmentation part       -9.4251428 magnetization 

 Broyden mixing:
  rms(total) = 0.33022E-04    rms(broyden)= 0.33019E-04
  rms(prec ) = 0.54151E-04
  weight for this iteration     100.00

 eigenvalues of (default mixing * dielectric matrix)
  average eigenvalue GAMMA=   1.9188
  7.2463  4.6995  2.9580  2.5591  1.9287  1.9287  1.1886  1.1886  1.3570  1.3570
  0.5881  0.6759  1.0339  1.0339  1.0433  0.9169  0.9169

 Free energy of the ion-electron system (eV)
  ---------------------------------------------------
  alpha Z        PSCENC =        36.80884744
  Ewald energy   TEWEN  =     12013.77947003
  -Hartree energ DENC   =    -15135.85495679
  -exchange      EXHF   =         0.00000000
  -V(xc)+E(xc)   XCENC  =       -79.28596588
  PAW double counting   =      1186.07577255     -865.98147702
  entropy T*S    EENTRO =        -0.02827558
  eigenvalues    EBANDS =      -620.19106194
  atomic energy  EATOM  =      3354.04126044
  ---------------------------------------------------
  free energy    TOTEN  =      -110.63638674 eV

  energy without entropy =     -110.60811116  energy(sigma->0) =     -110.62224895


--------------------------------------------------------------------------------------------------------




----------------------------------------- Iteration    1(  23)  ---------------------------------------


    POTLOK:  cpu time   15.27: real time   15.28
    SETDIJ:  cpu time    0.01: real time    0.01
     EDDAV:  cpu time   76.14: real time   76.17
       DOS:  cpu time    0.01: real time    0.01
    CHARGE:  cpu time    5.22: real time    5.22
    MIXING:  cpu time    0.02: real time    0.02
    --------------------------------------------
      LOOP:  cpu time   96.67: real time   96.71

 eigenvalue-minimisations  :  6400
 total energy-change (2. order) : 0.3899539E-04  (-0.6032660E-06)
 number of electron     107.9999994 magnetization 
 augmentation part       -9.4251422 magnetization 

 Broyden mixing:
[...]
     31      -4.0715      2.00000
     32      -3.8847      2.00000
     33      -3.7861      2.00000
     34      -3.6411      2.00000
     35      -3.4107      2.00000
     36      -3.3210      2.00000
     37      -3.2386      2.00000
     38      -3.0721      2.00000
     39      -2.9744      2.00000
     40      -2.7586      2.00000
     41      -2.7127      2.00000
     42      -2.6905      2.00000
     43      -2.1953      2.00000
     44      -2.1753      2.00000
     45      -2.0675      2.00000
     46      -1.9608      2.00000
     47      -1.9174      2.00000
     48      -1.6686      2.00000
     49      -1.5646      2.00000
     50      -1.3498      2.00000
     51      -1.1349      2.00000
     52      -0.8978      2.00000
     53      -0.2061      2.00000
     54      -0.0604      2.00000
     55       0.8360      0.00000
     56       1.0697      0.00000
     57       1.1874      0.00000
     58       1.3465      0.00000
     59       1.5033      0.00000
     60       1.8945      0.00000
     61       2.1240      0.00000
     62       2.3481      0.00000
     63       2.4198      0.00000
     64       2.5545      0.00000
     65       2.6772      0.00000
     66       2.8733      0.00000
     67       2.9026      0.00000
     68       3.1005      0.00000

 k-point    52 :       0.3077    0.5000    0.5000
  band No.  band energies     occupation 
      1     -14.0196      2.00000
      2     -12.6913      2.00000
      3     -12.3359      2.00000
      4     -12.0313      2.00000
      5     -11.8368      2.00000
      6     -11.6340      2.00000
      7     -11.1940      2.00000
      8     -11.0072      2.00000
      9     -10.9828      2.00000
     10     -10.5738      2.00000
     11     -10.5516      2.00000
     12     -10.0064      2.00000
     13      -9.1007      2.00000
     14      -8.8915      2.00000
     15      -7.9602      2.00000
     16      -7.7121      2.00000
     17      -7.5662      2.00000
     18      -7.2407      2.00000
     19      -7.1526      2.00000
     20      -6.6239      2.00000
     21      -6.3812      2.00000
     22      -6.3019      2.00000
     23      -6.1126      2.00000
     24      -6.0120      2.00000
     25      -5.5335      2.00000
     26      -5.2331      2.00000
     27      -5.0758      2.00000
     28      -4.8373      2.00000
     29      -4.6505      2.00000
     30      -4.4949      2.00000
     31      -4.2531      2.00000
     32      -4.0866      2.00000
     33      -3.9946      2.00000
     34      -3.7585      2.00000
     35      -3.4578      2.00000
     36      -3.4056      2.00000
     37      -3.2550      2.00000
     38      -3.1385      2.00000
     39      -3.0861      2.00000
     40      -2.9273      2.00000
     41      -2.7008      2.00000
     42      -2.6042      2.00000
     43      -2.4504      2.00000
     44      -2.3394      2.00000
     45      -2.1580      2.00000
     46      -2.1214      2.00000
     47      -2.0466      2.00000
     48      -1.9234      2.00000
     49      -1.8947      2.00000
     50      -1.5705      2.00000
     51      -1.3075      2.00000
     52      -0.9195      2.00000
     53      -0.5153      2.00000
     54      -0.3303      2.00000
     55       0.6255      0.01553
     56       0.9187      0.00000
     57       1.1200      0.00000
     58       1.1395      0.00000
     59       1.2926      0.00000
     60       1.8529      0.00000
     61       2.0469      0.00000
     62       2.0815      0.00000
     63       2.2813      0.00000
     64       2.2997      0.00000
     65       2.3738      0.00000
     66       2.5003      0.00000
     67       2.6554      0.00000
     68       2.8189      0.00000

 k-point    53 :       0.3846    0.5000    0.5000
  band No.  band energies     occupation 
      1     -13.6490      2.00000
      2     -12.2146      2.00000
      3     -11.8392      2.00000
      4     -11.6723      2.00000
      5     -11.4433      2.00000
      6     -11.3605      2.00000
      7     -10.9508      2.00000
      8     -10.7970      2.00000
      9     -10.7906      2.00000
     10     -10.6375      2.00000
     11     -10.5156      2.00000
     12      -9.7418      2.00000
     13      -9.0852      2.00000
     14      -9.0277      2.00000
     15      -8.4313      2.00000
     16      -8.1086      2.00000
     17      -7.8590      2.00000
     18      -7.7894      2.00000
     19      -7.5720      2.00000
     20      -7.0939      2.00000
     21      -6.8964      2.00000
     22      -6.8386      2.00000
     23      -6.5842      2.00000
     24      -6.3948      2.00000
     25      -5.4857      2.00000
     26      -5.3551      2.00000
     27      -5.0083      2.00000
     28      -4.8483      2.00000
     29      -4.6832      2.00000
     30      -4.3121      2.00000
     31      -4.2308      2.00000
     32      -4.2044      2.00000
     33      -3.8159      2.00000
     34      -3.7061      2.00000
     35      -3.6576      2.00000
     36      -3.5598      2.00000
     37      -3.3713      2.00000
     38      -3.2989      2.00000
     39      -3.1039      2.00000
     40      -3.0487      2.00000
     41      -2.7296      2.00000
     42      -2.6741      2.00000
     43      -2.5472      2.00000
     44      -2.4870      2.00000
     45      -2.4242      2.00000
     46      -2.3172      2.00000
     47      -2.2477      2.00000
     48      -2.1268      2.00000
     49      -2.0239      2.00000
     50      -1.6455      2.00000
     51      -1.3810      2.00000
     52      -0.9943      2.00000
     53      -0.7465      2.00000
     54      -0.4381      2.00000
     55       0.4371      1.19307
     56       0.7139      0.00024
     57       1.1008      0.00000
     58       1.2142      0.00000
     59       1.3618      0.00000
     60       1.6382      0.00000
     61       1.7813      0.00000
     62       1.9368      0.00000
     63       1.9875      0.00000
     64       2.1325      0.00000
     65       2.1957      0.00000
     66       2.2807      0.00000
     67       2.4946      0.00000
     68       2.6106      0.00000

 k-point    54 :       0.4615    0.5000    0.5000
  band No.  band energies     occupation 
      1     -13.3636      2.00000
      2     -11.6744      2.00000
      3     -11.6313      2.00000
      4     -11.3404      2.00000
      5     -11.1467      2.00000
      6     -11.0235      2.00000
      7     -10.9879      2.00000
      8     -10.8946      2.00000
      9     -10.7996      2.00000
     10     -10.6502      2.00000
     11     -10.5707      2.00000
     12      -9.5935      2.00000
     13      -9.0861      2.00000
     14      -8.8399      2.00000
     15      -8.6240      2.00000
     16      -8.3854      2.00000
     17      -8.2969      2.00000
     18      -8.0085      2.00000
     19      -7.7489      2.00000
     20      -7.4765      2.00000
     21      -7.4322      2.00000
     22      -7.3372      2.00000
     23      -7.0050      2.00000
     24      -6.3178      2.00000
     25      -5.5019      2.00000
     26      -5.1300      2.00000
     27      -5.1003      2.00000
     28      -4.6553      2.00000
     29      -4.4565      2.00000
     30      -4.2638      2.00000
     31      -4.1408      2.00000
     32      -4.0313      2.00000
     33      -3.9393      2.00000
     34      -3.7794      2.00000
     35      -3.7298      2.00000
     36      -3.5560      2.00000
     37      -3.4310      2.00000
     38      -3.3740      2.00000
     39      -3.2370      2.00000
     40      -3.1783      2.00000
     41      -2.9755      2.00000
     42      -2.8802      2.00000
     43      -2.7851      2.00000
     44      -2.5638      2.00000
     45      -2.4639      2.00000
     46      -2.3618      2.00000
     47      -2.3095      2.00000
     48      -2.1805      2.00000
     49      -1.8952      2.00000
     50      -1.6969      2.00000
     51      -1.3858      2.00000
     52      -1.0618      2.00000
     53      -0.8723      2.00000
     54      -0.4580      2.00000
     55       0.3519      1.85263
     56       0.5664      0.11312
     57       1.1620      0.00000
     58       1.2918      0.00000
     59       1.3987      0.00000
     60       1.5039      0.00000
     61       1.6250      0.00000
     62       1.7503      0.00000
     63       1.8826      0.00000
     64       2.0057      0.00000
     65       2.1776      0.00000
     66       2.2537      0.00000
     67       2.3422      0.00000
     68       2.5866      0.00000


--------------------------------------------------------------------------------------------------------


 soft charge-density along one line, spin component           1
         0         1         2         3         4         5         6         7         8         9
 total charge-density along one line
 
 pseudopotential strength for first ion, spin component:           1
 29.829   0.008  -0.001  -0.022   0.001  -0.000  -0.001  -0.000
  0.008   0.009   0.000  -0.000  -0.000  -0.000   0.000   0.000
 -0.001   0.000   6.558  -0.001   0.000  -0.003   0.000  -0.000
 -0.022  -0.000  -0.001   6.553   0.000   0.000  -0.003  -0.000
  0.001  -0.000   0.000   0.000   6.559  -0.000  -0.000  -0.003
 -0.000  -0.000  -0.003   0.000  -0.000   0.015  -0.000   0.000
 -0.001   0.000   0.000  -0.003  -0.000  -0.000   0.015  -0.000
 -0.000   0.000  -0.000  -0.000  -0.003   0.000  -0.000   0.015
 total augmentation occupancy for first ion, spin component:           1
  1.805  -0.382   0.005   0.248   0.001  -0.000   0.110   0.001
 -0.382   1.247   0.016   0.833   0.002   0.004  -0.435   0.001
  0.005   0.016   1.148   0.014  -0.000  -0.504   0.011   0.000
  0.248   0.833   0.014   1.299  -0.001   0.011  -0.424   0.002
  0.001   0.002  -0.000  -0.001   1.150   0.000   0.001  -0.530
 -0.000   0.004  -0.504   0.011   0.000   0.292  -0.014  -0.000
  0.110  -0.435   0.011  -0.424   0.001  -0.014   0.229  -0.001
  0.001   0.001   0.000   0.002  -0.530  -0.000  -0.001   0.328


------------------------ aborting loop because EDIFF is reached ----------------------------------------


    CHARGE:  cpu time    5.19: real time    5.19
    FORLOC:  cpu time    0.06: real time    0.06
    FORNL :  cpu time   23.24: real time   23.24
    STRESS:  cpu time   69.86: real time   69.90
    FORCOR:  cpu time   15.33: real time   15.33
    FORHAR:  cpu time    0.17: real time    0.17
    MIXING:  cpu time    0.02: real time    0.02
    OFIELD:  cpu time    0.00: real time    0.00

  FORCE on cell =-STRESS in cart. coord.  units (eV):
  Direction    XX          YY          ZZ          XY          YZ          ZX
  --------------------------------------------------------------------------------------
  Alpha Z    36.80885    36.80885    36.80885
  Ewald   14475.03284 13901.18346-16362.44421   -44.92280    -1.38572    64.03914
  Hartree 14969.89708 14573.88060-14407.90677    -7.12532     9.84008     0.83341
  E(xc)    -359.39713  -358.96658  -357.83491     0.13028     0.37131    -0.49270
  Local  -30996.47693-30047.31336 29189.47481    38.63915   -18.79173   -41.93983
  n-local  1176.04425  1168.51020  1172.10559    -6.39461    -9.10956    17.96760
  augment  -203.74333  -204.74768  -205.93677    -0.58075    -0.49768     0.65572
  Kinetic   938.53998   942.61392   978.91704     1.60524     3.18934    -5.83858
  Fock        0.00000     0.00000     0.00000     0.00000     0.00000     0.00000
  -------------------------------------------------------------------------------------
  Total      36.70561    11.96941    43.18363   -18.64881   -16.38395    35.22475
  in kB      58.67277    19.13272    69.02768   -29.80953   -26.18923    56.30567
  external pressure =       48.94 kB  Pullay stress =        0.00 kB


 VOLUME and BASIS-vectors are now :
 -----------------------------------------------------------------------------
  energy-cutoff  :      300.00
  volume of cell :     1002.32
      direct lattice vectors                 reciprocal lattice vectors
     3.540400000  0.000000000  0.000000000     0.282453960  0.048570342  0.000000000
    -1.770200000 10.294348000  0.000000000     0.000000000  0.097140683  0.000000000
     0.000000000  0.000000000 27.501429000     0.000000000  0.000000000  0.036361747

  length of vectors
     3.540400000 10.445439617 27.501429000     0.286599577  0.097140683  0.036361747


 FORCES acting on ions
    electron-ion (+dipol)            ewald-force                    non-local-force                 convergence-correction
 -----------------------------------------------------------------------------------------------
   -.778E-01 0.118E+02 0.315E+02   -.217E-01 -.115E+02 -.272E+02   0.209E-01 -.299E+00 -.437E+01   -.514E-07 0.246E-05 0.175E-05
   -.299E+00 0.127E+02 -.554E+03   0.208E-01 -.126E+02 0.557E+03   0.172E+00 0.361E-01 -.369E+01   -.141E-06 0.296E-05 0.454E-05
   0.491E-02 0.645E+02 0.460E+02   -.100E-03 -.661E+02 -.416E+02   -.532E-02 0.165E+01 -.424E+01   0.443E-08 -.742E-05 0.217E-05
   0.575E+00 0.176E+02 -.525E+03   -.110E+01 -.187E+02 0.529E+03   0.323E+00 0.105E+01 -.360E+01   -.401E-06 0.984E-07 -.356E-06
   0.491E-04 -.576E+02 0.526E+03   0.741E-04 0.592E+02 -.531E+03   -.102E-02 -.154E+01 0.428E+01   -.226E-07 -.399E-05 -.756E-05
   0.874E+01 -.115E+03 -.499E+02   -.947E+01 0.117E+03 0.482E+02   0.890E+00 -.195E+01 0.137E+01   -.480E-06 -.302E-05 -.479E-05
   -.668E-02 0.542E+02 0.526E+03   0.113E-04 -.561E+02 -.530E+03   0.209E-02 0.194E+01 0.416E+01   -.654E-09 0.173E-06 -.397E-05
   -.401E+00 0.111E+03 -.836E+02   0.707E+00 -.114E+03 0.804E+02   0.416E+00 0.313E+01 0.331E+01   -.109E-06 -.329E-05 0.315E-05
   -.168E-03 0.183E+01 0.573E+03   -.809E-04 -.204E+01 -.577E+03   0.127E-02 0.207E+00 0.479E+01   -.123E-07 0.759E-05 -.105E-04
   -.859E+01 0.109E+00 0.194E+02   0.850E+01 -.952E+00 -.207E+02   0.139E+00 0.580E+00 0.109E+01   0.878E-08 0.742E-05 0.109E-05
   0.846E-03 -.671E+02 0.602E+02   0.669E-02 0.690E+02 -.560E+02   -.488E-02 -.194E+01 -.408E+01   0.585E-08 0.407E-05 0.118E-05
   0.104E+01 -.345E+02 -.552E+03   -.898E+00 0.366E+02 0.556E+03   -.498E+00 -.160E+01 -.295E+01   0.826E-06 -.201E-05 0.126E-05
   -.434E-02 0.311E+02 0.208E+03   0.566E-05 -.332E+02 -.208E+03   0.716E-02 0.209E+01 0.293E+00   0.129E-09 -.337E-05 0.200E-05
   -.141E+02 -.435E+02 -.278E+03   0.126E+02 0.442E+02 0.276E+03   0.160E+01 0.606E-01 0.128E+01   0.110E-05 -.305E-05 -.720E-06
   -.849E-02 -.129E+02 0.140E+03   -.238E-02 0.132E+02 -.143E+03   0.347E-02 -.267E+00 0.254E+01   -.995E-08 0.359E-05 -.241E-05
   -.577E+01 0.237E+02 -.341E+03   0.469E+01 -.233E+02 0.338E+03   0.118E+01 -.314E+00 0.297E+01   -.151E-06 0.878E-06 0.977E-05
   0.743E-02 -.537E+01 0.346E+03   0.403E-04 0.580E+01 -.344E+03   -.391E-02 -.451E+00 -.252E+01   0.147E-07 0.185E-05 -.920E-05
   0.498E+02 -.536E+02 -.746E+02   -.582E+02 0.566E+02 0.707E+02   -.296E+02 0.185E+02 -.387E+02   -.104E-05 0.136E-05 -.269E-06
   -.425E-02 0.103E+02 0.335E+03   0.159E-04 -.105E+02 -.333E+03   -.722E-02 0.214E+00 -.238E+01   0.169E-08 0.534E-05 -.507E-05
   0.208E+01 0.537E+02 -.136E+03   -.147E+01 -.575E+02 0.136E+03   -.261E+00 0.117E+01 -.199E+01   -.258E-06 0.686E-05 0.651E-05
   0.921E-01 0.129E+02 0.127E+03   0.148E-02 -.135E+02 -.130E+03   -.790E-01 0.567E+00 0.267E+01   0.270E-07 -.581E-06 -.995E-06
   0.715E-01 0.867E+01 -.296E+03   0.509E-01 -.786E+01 0.295E+03   -.215E+00 -.446E+00 0.924E+00   -.586E-07 0.666E-05 0.654E-05
   -.105E-03 -.320E+02 0.254E+03   0.665E-05 0.342E+02 -.253E+03   0.198E-02 -.215E+01 -.337E+00   0.109E-07 -.302E-05 -.408E-05
   -.440E+02 0.582E+01 -.298E+03   0.446E+02 -.728E+01 0.307E+03   0.367E+02 -.188E+02 0.343E+02   0.123E-05 -.360E-06 0.480E-05
 -----------------------------------------------------------------------------------------------
   -.108E+02 -.143E+01 0.487E+01   -.711E-14 0.595E-13 -.284E-12   0.108E+02 0.143E+01 -.486E+01   0.493E-06 0.212E-04 -.516E-05
 
 
 POSITION                                       TOTAL-FORCE (eV/Angst)
 -----------------------------------------------------------------------------------
      0.00000      2.34757      6.41229        -0.078939     -0.016512      0.008215
      0.88510      9.55362     14.16300        -0.105761      0.102566     -0.098553
     -0.00000      9.43147      5.75866        -0.000812     -0.016888      0.113954
     -0.88510      6.34316     13.50937        -0.206525     -0.060710      0.437472
     -0.00000      6.40009      2.31424        -0.001190     -0.010606      0.012936
     -0.00000      6.40009     10.06495         0.164973     -0.126411     -0.338298
      1.77020     10.27849      2.37372        -0.004870      0.017369      0.004538
      1.77020     10.27849     10.12443         0.721914      0.090622      0.089268
      1.77020      3.18974      1.66157         0.000724     -0.000797      0.003824
      1.77020      3.18974      9.41228         0.051357     -0.262850     -0.220992
      1.77020      5.55354      5.69975         0.002358      0.002153      0.108073
      0.88510      2.46524     13.45047        -0.354155      0.522481      0.450990
      1.77020      9.05319      4.34076         0.002524      0.009937      0.015527
      0.88510      5.96488     12.09147         0.160406      0.684817     -0.301992
      0.00000      4.22380      5.10944        -0.007701      0.058468     -0.000409
      2.65530      1.13550     12.86016         0.101828      0.031887      0.677873
     -0.00000      4.15582      2.74166         0.003262     -0.012541     -0.022543
     -0.00000      4.15582     10.49237       -38.029853     21.562493    -42.590462
      1.77020      1.31366      2.96438        -0.011747      0.014446     -0.045262
      1.77020      1.31366     10.71510         0.348387     -2.578835     -1.440706
      1.77020      1.38163      5.33187         0.014287     -0.095781      0.046816
     -0.88510      8.58767     13.08259        -0.093138      0.363081     -0.508608
      1.77020      6.77850      3.73234         0.001590      0.009763     -0.002265
      0.88510      3.69019     11.48306        37.321082    -20.288154     43.600603
 -----------------------------------------------------------------------------------
    total drift:                                0.007125     -0.000198      0.003588


--------------------------------------------------------------------------------------------------------



  FREE ENERGIE OF THE ION-ELECTRON SYSTEM (eV)
  ---------------------------------------------------
  free  energy   TOTEN  =      -110.63626778 eV

  energy  without entropy=     -110.60799160  energy(sigma->0) =     -110.62212969
 


--------------------------------------------------------------------------------------------------------


    POTLOK:  cpu time   15.30: real time   15.31


--------------------------------------------------------------------------------------------------------


     LOOP+:  cpu time 3165.83: real time 3167.74
    4ORBIT:  cpu time    0.00: real time    0.00

 total amount of memory used by VASP on root node   146493. kBytes
========================================================================

   base      :      30000. kBytes
   nonlr-proj:       3452. kBytes
   fftplans  :       9347. kBytes
   grid      :      14649. kBytes
   one-center:         36. kBytes
   wavefun   :      89009. kBytes
 
  
  
 General timing and accounting informations for this job:
 ========================================================
  
                  Total CPU time used (sec):     3183.534
                            User time (sec):     3135.836
                          System time (sec):       47.698
                         Elapsed time (sec):     3186.902
  
                   Maximum memory used (kb):      335500.
                   Average memory used (kb):           0.
  
                          Minor page faults:      8240511
                          Major page faults:            8
                 Voluntary context switches:         1472
