       N       E                     dE             d eps       ncg     rms          rms(c)
DAV:   1     0.482834816377E+03    0.48283E+03   -0.28597E+04  7352   0.790E+02
DAV:   2    -0.721878181562E+02   -0.55502E+03   -0.54046E+03  9804   0.188E+02
DAV:   3    -0.127109916986E+03   -0.54922E+02   -0.54220E+02  8772   0.613E+01
DAV:   4    -0.129550683946E+03   -0.24408E+01   -0.24290E+01 10928   0.139E+01
DAV:   5    -0.129607737741E+03   -0.57054E-01   -0.57001E-01  9960   0.211E+00    0.965E+00
DAV:   6    -0.127974320720E+03    0.16334E+01   -0.32624E+00  8816   0.453E+00    0.549E+00
DAV:   7    -0.127716643832E+03    0.25768E+00   -0.26477E+00  8888   0.425E+00    0.154E+00
DAV:   8    -0.127711391535E+03    0.52523E-02   -0.34804E-01  9136   0.182E+00    0.726E-01
DAV:   9    -0.127680286405E+03    0.31105E-01   -0.60293E-02  8872   0.769E-01    0.212E-01
DAV:  10    -0.127667359195E+03    0.12927E-01   -0.10217E-02  9096   0.329E-01    0.850E-02
DAV:  11    -0.127661356001E+03    0.60032E-02   -0.22006E-03  9008   0.146E-01    0.405E-02
DAV:  12    -0.127657748072E+03    0.36079E-02   -0.41676E-04  9048   0.643E-02    0.212E-02
DAV:  13    -0.127655757309E+03    0.19908E-02   -0.15152E-04  9752   0.358E-02    0.112E-02
DAV:  14    -0.127655197547E+03    0.55976E-03   -0.60155E-05  8800   0.226E-02    0.738E-03
DAV:  15    -0.127655518560E+03   -0.32101E-03   -0.58127E-05  8176   0.186E-02    0.423E-03
DAV:  16    -0.127656082207E+03   -0.56365E-03   -0.16947E-04  8440   0.233E-02    0.249E-03
DAV:  17    -0.127656189424E+03   -0.10722E-03   -0.50739E-05  7704   0.126E-02    0.142E-03
DAV:  18    -0.127656239577E+03   -0.50154E-04   -0.17773E-05  6568   0.102E-02    0.103E-03
DAV:  19    -0.127656271414E+03   -0.31836E-04   -0.25460E-05  7080   0.954E-03    0.643E-04
DAV:  20    -0.127656197859E+03    0.73555E-04   -0.21777E-05  6860   0.102E-02    0.415E-04
DAV:  21    -0.127656162628E+03    0.35231E-04   -0.68975E-06  6184   0.767E-03    0.241E-04
DAV:  22    -0.127656129735E+03    0.32893E-04   -0.49772E-06  6280   0.692E-03    0.128E-04
DAV:  23    -0.127656108977E+03    0.20758E-04   -0.38487E-06  6568   0.643E-03    0.667E-05
DAV:  24    -0.127656100164E+03    0.88127E-05   -0.57622E-06  6688   0.709E-03    0.384E-05
DAV:  25    -0.127656099908E+03    0.25598E-06   -0.21172E-06  6272   0.523E-03
   1 F= -.12765610E+03 E0= -.12764672E+03  d E =-.187650E-01
