  24  24   0   0
  0.4176334E+02  0.3540400E-09  0.1044544E-08  0.2750143E-08  0.5000000E-15
  1.000000000000000E-004
  CAR 
 unknown system                          
      4.25239022    -15.27864746  301     -0.07094687      1.00000000
    -15.279  0.0000E+00  0.0000E+00
    -15.214  0.0000E+00  0.0000E+00
    -15.148  0.0000E+00  0.0000E+00
    -15.083  0.0000E+00  0.0000E+00
    -15.018  0.0000E+00  0.0000E+00
    -14.953  0.0000E+00  0.0000E+00
    -14.888  0.0000E+00  0.0000E+00
    -14.823  0.8953E-14  0.5829E-15
    -14.758  0.8446E-11  0.5505E-12
    -14.693  0.3468E-08  0.2263E-09
    -14.628  0.6273E-06  0.4106E-07
    -14.563  0.5050E-04  0.3329E-05
    -14.497  0.1839E-02  0.1231E-03
    -14.432  0.3106E-01  0.2145E-02
    -14.367  0.2517E+00  0.1853E-01
    -14.302  0.1016E+01  0.8470E-01
    -14.237  0.2108E+01  0.2219E+00
    -14.172  0.2351E+01  0.3750E+00
    -14.107  0.1855E+01  0.4957E+00
    -14.042  0.1815E+01  0.6139E+00
    -13.977  0.1552E+01  0.7150E+00
    -13.911  0.7629E+00  0.7646E+00
    -13.846  0.6123E+00  0.8045E+00
    -13.781  0.1321E+01  0.8905E+00
    -13.716  0.1665E+01  0.9989E+00
    -13.651  0.1088E+01  0.1070E+01
    -13.586  0.8526E+00  0.1125E+01
    -13.521  0.1546E+01  0.1226E+01
    -13.456  0.2617E+01  0.1396E+01
    -13.391  0.3486E+01  0.1623E+01
    -13.326  0.3428E+01  0.1846E+01
    -13.260  0.2513E+01  0.2010E+01
    -13.195  0.1784E+01  0.2126E+01
    -13.130  0.1520E+01  0.2225E+01
    -13.065  0.1950E+01  0.2352E+01
    -13.000  0.3436E+01  0.2576E+01
    -12.935  0.4799E+01  0.2888E+01
    -12.870  0.4616E+01  0.3189E+01
    -12.805  0.3897E+01  0.3442E+01
    -12.740  0.3804E+01  0.3690E+01
    -12.675  0.4444E+01  0.3979E+01
    -12.609  0.6079E+01  0.4375E+01
    -12.544  0.7300E+01  0.4850E+01
    -12.479  0.6705E+01  0.5287E+01
    -12.414  0.5912E+01  0.5672E+01
    -12.349  0.6438E+01  0.6091E+01
    -12.284  0.6608E+01  0.6521E+01
    -12.219  0.5524E+01  0.6881E+01
    -12.154  0.4752E+01  0.7190E+01
    -12.089  0.4957E+01  0.7513E+01
    -12.023  0.5897E+01  0.7897E+01
    -11.958  0.6698E+01  0.8333E+01
    -11.893  0.6883E+01  0.8781E+01
    -11.828  0.6341E+01  0.9194E+01
    -11.763  0.5876E+01  0.9576E+01
    -11.698  0.6504E+01  0.1000E+02
    -11.633  0.8169E+01  0.1053E+02
    -11.568  0.1004E+02  0.1119E+02
    -11.503  0.1080E+02  0.1189E+02
    -11.438  0.9938E+01  0.1254E+02
    -11.372  0.9032E+01  0.1312E+02
    -11.307  0.9870E+01  0.1377E+02
    -11.242  0.1072E+02  0.1446E+02
    -11.177  0.9629E+01  0.1509E+02
    -11.112  0.8583E+01  0.1565E+02
    -11.047  0.1007E+02  0.1631E+02
    -10.982  0.1176E+02  0.1707E+02
    -10.917  0.1065E+02  0.1776E+02
    -10.852  0.9842E+01  0.1841E+02
    -10.787  0.1068E+02  0.1910E+02
    -10.721  0.1063E+02  0.1979E+02
    -10.656  0.1021E+02  0.2046E+02
    -10.591  0.9046E+01  0.2105E+02
    -10.526  0.6582E+01  0.2147E+02
    -10.461  0.5680E+01  0.2184E+02
    -10.396  0.5532E+01  0.2220E+02
    -10.331  0.4335E+01  0.2249E+02
    -10.266  0.3123E+01  0.2269E+02
    -10.201  0.3040E+01  0.2289E+02
    -10.135  0.4421E+01  0.2318E+02
    -10.070  0.5800E+01  0.2355E+02
    -10.005  0.4581E+01  0.2385E+02
     -9.940  0.1869E+01  0.2397E+02
     -9.875  0.3728E+00  0.2400E+02
     -9.810  0.3537E-01  0.2400E+02
     -9.745  0.1569E-02  0.2400E+02
     -9.680  0.3207E-04  0.2400E+02
     -9.615  0.2986E-06  0.2400E+02
     -9.550  0.2033E-08  0.2400E+02
     -9.484  0.1505E-06  0.2400E+02
     -9.419  0.1298E-04  0.2400E+02
     -9.354  0.5084E-03  0.2400E+02
     -9.289  0.9221E-02  0.2400E+02
     -9.224  0.7970E-01  0.2401E+02
     -9.159  0.3498E+00  0.2403E+02
     -9.094  0.9037E+00  0.2409E+02
     -9.029  0.1701E+01  0.2420E+02
     -8.964  0.2573E+01  0.2437E+02
     -8.899  0.3618E+01  0.2460E+02
     -8.833  0.5911E+01  0.2499E+02
     -8.768  0.8746E+01  0.2556E+02
     -8.703  0.9084E+01  0.2615E+02
     -8.638  0.6924E+01  0.2660E+02
     -8.573  0.5270E+01  0.2694E+02
     -8.508  0.5110E+01  0.2727E+02
     -8.443  0.5404E+01  0.2763E+02
     -8.378  0.5013E+01  0.2795E+02
     -8.313  0.4047E+01  0.2822E+02
     -8.247  0.3184E+01  0.2842E+02
     -8.182  0.3101E+01  0.2862E+02
     -8.117  0.3917E+01  0.2888E+02
     -8.052  0.4431E+01  0.2917E+02
     -7.987  0.4118E+01  0.2944E+02
     -7.922  0.3826E+01  0.2968E+02
     -7.857  0.4448E+01  0.2997E+02
     -7.792  0.5969E+01  0.3036E+02
     -7.727  0.7087E+01  0.3082E+02
     -7.662  0.7069E+01  0.3128E+02
     -7.596  0.6551E+01  0.3171E+02
     -7.531  0.6296E+01  0.3212E+02
     -7.466  0.6762E+01  0.3256E+02
     -7.401  0.8174E+01  0.3309E+02
     -7.336  0.9602E+01  0.3372E+02
     -7.271  0.9415E+01  0.3433E+02
     -7.206  0.7636E+01  0.3483E+02
     -7.141  0.5897E+01  0.3521E+02
     -7.076  0.5103E+01  0.3554E+02
     -7.011  0.5217E+01  0.3588E+02
     -6.945  0.6018E+01  0.3628E+02
     -6.880  0.6834E+01  0.3672E+02
     -6.815  0.8275E+01  0.3726E+02
     -6.750  0.1169E+02  0.3802E+02
     -6.685  0.1470E+02  0.3898E+02
     -6.620  0.1361E+02  0.3986E+02
     -6.555  0.1045E+02  0.4054E+02
     -6.490  0.8799E+01  0.4112E+02
     -6.425  0.8276E+01  0.4166E+02
     -6.359  0.7211E+01  0.4213E+02
     -6.294  0.5548E+01  0.4249E+02
     -6.229  0.4299E+01  0.4277E+02
     -6.164  0.3244E+01  0.4298E+02
     -6.099  0.2386E+01  0.4313E+02
     -6.034  0.2824E+01  0.4332E+02
     -5.969  0.3933E+01  0.4357E+02
     -5.904  0.4633E+01  0.4387E+02
     -5.839  0.5776E+01  0.4425E+02
     -5.774  0.7372E+01  0.4473E+02
     -5.708  0.7483E+01  0.4522E+02
     -5.643  0.5506E+01  0.4558E+02
     -5.578  0.3124E+01  0.4578E+02
     -5.513  0.2116E+01  0.4592E+02
     -5.448  0.2839E+01  0.4610E+02
     -5.383  0.4095E+01  0.4637E+02
     -5.318  0.4420E+01  0.4666E+02
     -5.253  0.4284E+01  0.4694E+02
     -5.188  0.4740E+01  0.4724E+02
     -5.123  0.5877E+01  0.4763E+02
     -5.057  0.7743E+01  0.4813E+02
     -4.992  0.9265E+01  0.4873E+02
     -4.927  0.9484E+01  0.4935E+02
     -4.862  0.9070E+01  0.4994E+02
     -4.797  0.9415E+01  0.5055E+02
     -4.732  0.1104E+02  0.5127E+02
     -4.667  0.1207E+02  0.5206E+02
     -4.602  0.1142E+02  0.5280E+02
     -4.537  0.1066E+02  0.5350E+02
     -4.471  0.1131E+02  0.5423E+02
     -4.406  0.1314E+02  0.5509E+02
     -4.341  0.1455E+02  0.5604E+02
     -4.276  0.1439E+02  0.5697E+02
     -4.211  0.1318E+02  0.5783E+02
     -4.146  0.1278E+02  0.5866E+02
     -4.081  0.1442E+02  0.5960E+02
     -4.016  0.1577E+02  0.6063E+02
     -3.951  0.1403E+02  0.6154E+02
     -3.886  0.1131E+02  0.6228E+02
     -3.820  0.1069E+02  0.6297E+02
     -3.755  0.1136E+02  0.6371E+02
     -3.690  0.1176E+02  0.6448E+02
     -3.625  0.1207E+02  0.6526E+02
     -3.560  0.1303E+02  0.6611E+02
     -3.495  0.1346E+02  0.6699E+02
     -3.430  0.1312E+02  0.6784E+02
     -3.365  0.1343E+02  0.6872E+02
     -3.300  0.1486E+02  0.6969E+02
     -3.235  0.1591E+02  0.7072E+02
     -3.169  0.1593E+02  0.7176E+02
     -3.104  0.1647E+02  0.7283E+02
     -3.039  0.1767E+02  0.7398E+02
     -2.974  0.1760E+02  0.7513E+02
     -2.909  0.1532E+02  0.7612E+02
     -2.844  0.1355E+02  0.7701E+02
     -2.779  0.1430E+02  0.7794E+02
     -2.714  0.1503E+02  0.7892E+02
     -2.649  0.1459E+02  0.7986E+02
     -2.583  0.1499E+02  0.8084E+02
     -2.518  0.1651E+02  0.8192E+02
     -2.453  0.1752E+02  0.8306E+02
     -2.388  0.1721E+02  0.8418E+02
     -2.323  0.1608E+02  0.8522E+02
     -2.258  0.1565E+02  0.8624E+02
     -2.193  0.1635E+02  0.8731E+02
     -2.128  0.1711E+02  0.8842E+02
     -2.063  0.1645E+02  0.8949E+02
     -1.998  0.1497E+02  0.9047E+02
     -1.932  0.1509E+02  0.9145E+02
     -1.867  0.1625E+02  0.9251E+02
     -1.802  0.1597E+02  0.9355E+02
     -1.737  0.1382E+02  0.9445E+02
     -1.672  0.1118E+02  0.9518E+02
     -1.607  0.1028E+02  0.9584E+02
     -1.542  0.1150E+02  0.9659E+02
     -1.477  0.1334E+02  0.9746E+02
     -1.412  0.1384E+02  0.9836E+02
     -1.347  0.1256E+02  0.9918E+02
     -1.281  0.1050E+02  0.9986E+02
     -1.216  0.9183E+01  0.1005E+03
     -1.151  0.9388E+01  0.1011E+03
     -1.086  0.9626E+01  0.1017E+03
     -1.021  0.8789E+01  0.1023E+03
     -0.956  0.7389E+01  0.1028E+03
     -0.891  0.5858E+01  0.1031E+03
     -0.826  0.5920E+01  0.1035E+03
     -0.761  0.7454E+01  0.1040E+03
     -0.695  0.8388E+01  0.1046E+03
     -0.630  0.7579E+01  0.1050E+03
     -0.565  0.4961E+01  0.1054E+03
     -0.500  0.2854E+01  0.1056E+03
     -0.435  0.2562E+01  0.1057E+03
     -0.370  0.3277E+01  0.1059E+03
     -0.305  0.4521E+01  0.1062E+03
     -0.240  0.6291E+01  0.1066E+03
     -0.175  0.7987E+01  0.1072E+03
     -0.110  0.8467E+01  0.1077E+03
     -0.044  0.7099E+01  0.1082E+03
      0.021  0.4719E+01  0.1085E+03
      0.086  0.2824E+01  0.1087E+03
      0.151  0.2252E+01  0.1088E+03
      0.216  0.2414E+01  0.1090E+03
      0.281  0.2677E+01  0.1091E+03
      0.346  0.3565E+01  0.1094E+03
      0.411  0.4439E+01  0.1097E+03
      0.476  0.3912E+01  0.1099E+03
      0.541  0.3376E+01  0.1101E+03
      0.607  0.4479E+01  0.1104E+03
      0.672  0.5880E+01  0.1108E+03
      0.737  0.5995E+01  0.1112E+03
      0.802  0.5468E+01  0.1116E+03
      0.867  0.4503E+01  0.1118E+03
      0.932  0.3749E+01  0.1121E+03
      0.997  0.4156E+01  0.1124E+03
      1.062  0.5194E+01  0.1127E+03
      1.127  0.6134E+01  0.1131E+03
      1.193  0.6627E+01  0.1135E+03
      1.258  0.7005E+01  0.1140E+03
      1.323  0.7719E+01  0.1145E+03
      1.388  0.8135E+01  0.1150E+03
      1.453  0.8108E+01  0.1155E+03
      1.518  0.9471E+01  0.1162E+03
      1.583  0.1142E+02  0.1169E+03
      1.648  0.1202E+02  0.1177E+03
      1.713  0.1218E+02  0.1185E+03
      1.778  0.1210E+02  0.1193E+03
      1.844  0.1199E+02  0.1201E+03
      1.909  0.1212E+02  0.1208E+03
      1.974  0.1216E+02  0.1216E+03
      2.039  0.1237E+02  0.1224E+03
      2.104  0.1337E+02  0.1233E+03
      2.169  0.1531E+02  0.1243E+03
      2.234  0.1659E+02  0.1254E+03
      2.299  0.1591E+02  0.1264E+03
      2.364  0.1454E+02  0.1274E+03
      2.429  0.1400E+02  0.1283E+03
      2.495  0.1332E+02  0.1291E+03
      2.560  0.1261E+02  0.1300E+03
      2.625  0.1309E+02  0.1308E+03
      2.690  0.1339E+02  0.1317E+03
      2.755  0.1200E+02  0.1325E+03
      2.820  0.9983E+01  0.1331E+03
      2.885  0.9285E+01  0.1337E+03
      2.950  0.9099E+01  0.1343E+03
      3.015  0.7996E+01  0.1348E+03
      3.081  0.6466E+01  0.1353E+03
      3.146  0.4973E+01  0.1356E+03
      3.211  0.3469E+01  0.1358E+03
      3.276  0.1964E+01  0.1359E+03
      3.341  0.7597E+00  0.1360E+03
      3.406  0.1712E+00  0.1360E+03
      3.471  0.2013E-01  0.1360E+03
      3.536  0.1151E-02  0.1360E+03
      3.601  0.3073E-04  0.1360E+03
      3.666  0.3737E-06  0.1360E+03
      3.732  0.2039E-08  0.1360E+03
      3.797  0.4939E-11  0.1360E+03
      3.862  0.5247E-14  0.1360E+03
      3.927  0.0000E+00  0.1360E+03
      3.992  0.0000E+00  0.1360E+03
      4.057  0.0000E+00  0.1360E+03
      4.122  0.0000E+00  0.1360E+03
      4.187  0.0000E+00  0.1360E+03
      4.252  0.0000E+00  0.1360E+03
