   24   24    1    1
  0.4176334E+02  0.3540400E-09  0.1044544E-08  0.2750143E-08  0.5000000E-15
  1.000000000000000E-004
  CAR 
 unknown system                          
    108     54     68
 
  0.0000000E+00  0.0000000E+00  0.0000000E+00  0.9615385E-02
    1      -14.278647
    2      -13.575874
    3      -12.836950
    4      -12.745812
    5      -12.532758
    6      -12.394163
    7      -12.120964
    8      -11.925446
    9      -11.466980
   10      -11.403595
   11      -11.026715
   12      -10.496416
   13       -8.329388
   14       -8.067248
   15       -7.862905
   16       -7.764522
   17       -6.918600
   18       -6.738573
   19       -6.528387
   20       -6.274695
   21       -5.866864
   22       -5.764306
   23       -4.976130
   24       -4.759162
   25       -4.139751
   26       -3.848323
   27       -3.720346
   28       -3.561955
   29       -3.346527
   30       -3.202416
   31       -3.090695
   32       -2.941752
   33       -2.879939
   34       -2.775426
   35       -2.485982
   36       -2.467426
   37       -2.425490
   38       -2.373992
   39       -2.260195
   40       -2.102269
   41       -1.919504
   42       -1.816908
   43       -1.764087
   44       -1.675387
   45       -1.629176
   46       -1.564868
   47       -1.466761
   48       -1.392487
   49       -1.285306
   50       -1.144120
   51       -1.070443
   52       -0.748092
   53       -0.313970
   54        0.233032
   55        0.333258
   56        0.852629
   57        1.108613
   58        1.202583
   59        1.286837
   60        1.653077
   61        1.786696
   62        1.823024
   63        1.948275
   64        2.081592
   65        2.391278
   66        2.462022
   67        2.602773
   68        2.744301
 
  0.7692308E-01 -0.1387779E-16  0.0000000E+00  0.1923077E-01
    1      -14.220556
    2      -13.514523
    3      -12.784796
    4      -12.691220
    5      -12.477050
    6      -12.339070
    7      -12.059014
    8      -11.873227
    9      -11.418081
   10      -11.355770
   11      -10.978316
   12      -10.457560
   13       -8.323465
   14       -8.103739
   15       -7.827334
   16       -7.731552
   17       -6.886119
   18       -6.715416
   19       -6.522531
   20       -6.301557
   21       -5.834092
   22       -5.742828
   23       -4.966745
   24       -4.763971
   25       -4.231551
   26       -3.982740
   27       -3.785725
   28       -3.739071
   29       -3.552968
   30       -3.352677
   31       -3.305778
   32       -3.258395
   33       -3.037483
   34       -2.920114
   35       -2.774973
   36       -2.737925
   37       -2.527357
   38       -2.493672
   39       -2.388601
   40       -2.237836
   41       -2.126382
   42       -2.066497
   43       -2.000803
   44       -1.902291
   45       -1.836202
   46       -1.762837
   47       -1.545066
   48       -1.367079
   49       -1.207775
   50       -1.113156
   51       -1.048006
   52       -0.722985
   53       -0.333959
   54       -0.064122
   55        0.574634
   56        1.039282
   57        1.437518
   58        1.523398
   59        1.727843
   60        1.924185
   61        2.088985
   62        2.167639
   63        2.202945
   64        2.260408
   65        2.457419
   66        2.572991
   67        2.732407
   68        2.916127
 
  0.1538462E+00 -0.2775558E-16  0.0000000E+00  0.1923077E-01
    1      -14.048026
    2      -13.331536
    3      -12.629051
    4      -12.529442
    5      -12.311909
    6      -12.176055
    7      -11.877512
    8      -11.721902
    9      -11.276218
   10      -11.218095
   11      -10.839440
   12      -10.349390
   13       -8.310778
   14       -8.199278
   15       -7.786146
   16       -7.682476
   17       -6.822493
   18       -6.694771
   19       -6.534379
   20       -6.396812
   21       -5.763732
   22       -5.709602
   23       -5.025521
   24       -4.896344
   25       -4.805178
   26       -4.253890
   27       -4.126789
   28       -4.045038
   29       -3.990231
   30       -3.846856
   31       -3.738799
   32       -3.603855
   33       -3.571791
   34       -3.281645
   35       -3.227975
   36       -3.070294
   37       -3.002839
   38       -2.974568
   39       -2.783940
   40       -2.573108
   41       -2.511285
   42       -2.410650
   43       -2.190654
   44       -2.106756
   45       -1.953283
   46       -1.794473
   47       -1.686864
   48       -1.423068
   49       -1.250600
   50       -1.120680
   51       -1.055973
   52       -0.828849
   53       -0.657175
   54       -0.214131
   55        0.783562
   56        1.273424
   57        1.664251
   58        1.886266
   59        2.151031
   60        2.202974
   61        2.298795
   62        2.390162
   63        2.580882
   64        2.628493
   65        2.844931
   66        2.904587
   67        2.994101
   68        3.030830
 
  0.2307692E+00 -0.4163336E-16  0.0000000E+00  0.1923077E-01
    1      -13.767129
    2      -13.030492
    3      -12.372788
    4      -12.267635
    5      -12.044412
    6      -11.913211
    7      -11.592275
    8      -11.491238
    9      -11.059585
   10      -11.012362
   11      -10.636190
   12      -10.202323
   13       -8.396796
   14       -8.322682
   15       -7.859225
   16       -7.755905
   17       -6.974601
   18       -6.733290
   19       -6.667708
   20       -6.459931
   21       -5.808959
   22       -5.769626
   23       -5.453076
   24       -5.374045
   25       -5.119914
   26       -4.845048
   27       -4.642239
   28       -4.548741
   29       -4.391444
   30       -4.313785
   31       -4.224435
   32       -4.072989
   33       -3.822665
   34       -3.718094
   35       -3.520694
   36       -3.493033
   37       -3.215318
   38       -3.040255
   39       -2.959305
   40       -2.780749
   41       -2.714724
   42       -2.550968
   43       -2.438130
   44       -2.143921
   45       -1.944689
   46       -1.867763
   47       -1.846926
   48       -1.750160
   49       -1.497073
   50       -1.234729
   51       -1.132134
   52       -1.015225
   53       -0.672141
   54       -0.218921
   55        0.382291
   56        1.178737
   57        1.362375
   58        1.819511
   59        1.933304
   60        2.080901
   61        2.136759
   62        2.249395
   63        2.342067
   64        2.528325
   65        2.645811
   66        2.849890
   67        2.916507
   68        3.153970
 
  0.3076923E+00 -0.5551115E-16  0.0000000E+00  0.1923077E-01
    1      -13.391963
    2      -12.618698
    3      -12.024482
    4      -11.923531
    5      -11.691201
    6      -11.571456
    7      -11.261553
    8      -11.212073
    9      -10.815670
   10      -10.791077
   11      -10.449927
   12      -10.079701
   13       -8.689505
   14       -8.483253
   15       -8.119733
   16       -7.937056
   17       -7.359438
   18       -7.030502
   19       -6.935860
   20       -6.605591
   21       -6.225107
   22       -6.196714
   23       -6.000123
   24       -5.934834
   25       -5.345800
   26       -5.244780
   27       -4.841332
   28       -4.742514
   29       -4.695668
   30       -4.450254
   31       -4.368840
   32       -4.317511
   33       -4.250380
   34       -3.777265
   35       -3.580829
   36       -3.429588
   37       -3.228284
   38       -3.128588
   39       -3.076047
   40       -2.977652
   41       -2.858458
   42       -2.673567
   43       -2.496811
   44       -2.276176
   45       -2.178620
   46       -2.090091
   47       -1.919671
   48       -1.899510
   49       -1.743686
   50       -1.424143
   51       -1.340872
   52       -1.127496
   53       -0.626297
   54       -0.218402
   55       -0.015181
   56        0.747889
   57        1.085607
   58        1.520223
   59        1.558679
   60        1.748634
   61        1.940043
   62        2.026445
   63        2.121860
   64        2.270142
   65        2.371501
   66        2.640279
   67        2.735062
   68        2.814640
 
  0.3846154E+00 -0.8326673E-16  0.0000000E+00  0.1923077E-01
    1      -12.957563
    2      -12.110361
    3      -11.605444
    4      -11.555936
    5      -11.292575
    6      -11.236945
    7      -11.051270
    8      -10.883477
    9      -10.660650
   10      -10.645292
   11      -10.489432
   12      -10.045733
   13       -8.865641
   14       -8.702047
   15       -8.411875
   16       -8.005059
   17       -7.757087
   18       -7.493693
   19       -7.449466
   20       -7.090944
   21       -6.795864
   22       -6.741011
   23       -6.695321
   24       -6.370652
   25       -5.321435
   26       -5.247376
   27       -4.778688
   28       -4.630238
   29       -4.561328
   30       -4.345794
   31       -4.272653
   32       -4.197724
   33       -4.106047
   34       -4.037148
   35       -3.692766
   36       -3.573649
   37       -3.311604
   38       -3.293881
   39       -3.198934
   40       -3.117326
   41       -2.862106
   42       -2.766298
   43       -2.572388
   44       -2.431890
   45       -2.336044
   46       -2.281965
   47       -2.101981
   48       -2.050797
   49       -1.872110
   50       -1.598801
   51       -1.441590
   52       -1.271574
   53       -0.684801
   54       -0.335683
   55       -0.100388
   56        0.362427
   57        0.833369
   58        1.214958
   59        1.377477
   60        1.671064
   61        1.698678
   62        1.850741
   63        2.039566
   64        2.176945
   65        2.242241
   66        2.283098
   67        2.419926
   68        2.709727
 
  0.4615385E+00 -0.8326673E-16  0.0000000E+00  0.1923077E-01
    1      -12.577811
    2      -11.537243
    3      -11.464834
    4      -11.183348
    5      -11.027187
    6      -10.981369
    7      -10.879003
    8      -10.796723
    9      -10.765052
   10      -10.666415
   11      -10.643288
   12      -10.100186
   13       -8.769856
   14       -8.721543
   15       -8.474584
   16       -8.122995
   17       -8.097660
   18       -7.751349
   19       -7.605876
   20       -7.548628
   21       -7.320150
   22       -7.286763
   23       -7.214847
   24       -6.568483
   25       -5.153320
   26       -4.952780
   27       -4.723763
   28       -4.539466
   29       -4.407897
   30       -4.264564
   31       -4.099948
   32       -4.011430
   33       -3.952054
   34       -3.889839
   35       -3.863802
   36       -3.636792
   37       -3.571613
   38       -3.506017
   39       -3.292469
   40       -3.200352
   41       -3.035043
   42       -2.992505
   43       -2.724390
   44       -2.592789
   45       -2.392879
   46       -2.297926
   47       -2.216449
   48       -2.110935
   49       -1.758175
   50       -1.604862
   51       -1.551723
   52       -1.370535
   53       -0.794552
   54       -0.440390
   55       -0.101755
   56        0.190744
   57        0.676996
   58        1.108654
   59        1.343863
   60        1.551435
   61        1.624929
   62        1.715148
   63        1.875939
   64        2.029280
   65        2.166174
   66        2.309113
   67        2.364037
   68        2.481011
 
  0.0000000E+00  0.2500000E+00  0.0000000E+00  0.1923077E-01
    1      -14.272072
    2      -13.520488
    3      -13.010537
    4      -12.802668
    5      -12.531837
    6      -12.403204
    7      -11.916114
    8      -11.841864
    9      -11.511987
   10      -11.382994
   11      -11.035118
   12      -10.441607
   13       -8.826816
   14       -8.551221
   15       -7.436600
   16       -7.201181
   17       -6.721927
   18       -6.696252
   19       -6.610049
   20       -6.475676
   21       -5.805352
   22       -5.737761
   23       -4.748859
   24       -4.616621
   25       -4.299713
   26       -4.053744
   27       -3.820804
   28       -3.685921
   29       -3.444668
   30       -3.336486
   31       -3.162739
   32       -3.039721
   33       -2.806337
   34       -2.744839
   35       -2.451750
   36       -2.433263
   37       -2.400997
   38       -2.337862
   39       -2.214228
   40       -2.161276
   41       -2.012016
   42       -1.918899
   43       -1.821551
   44       -1.661015
   45       -1.617941
   46       -1.507689
   47       -1.398056
   48       -1.365178
   49       -1.198663
   50       -1.119244
   51       -1.002278
   52       -0.815091
   53       -0.209471
   54        0.222839
   55        0.384134
   56        0.819462
   57        1.164883
   58        1.322070
   59        1.400338
   60        1.672175
   61        1.764192
   62        1.791583
   63        1.948484
   64        2.218324
   65        2.471161
   66        2.540703
   67        2.612465
   68        2.726966
 
  0.7692308E-01  0.2500000E+00  0.0000000E+00  0.1923077E-01
    1      -14.212717
    2      -13.443624
    3      -12.991405
    4      -12.758484
    5      -12.474701
    6      -12.348323
    7      -11.824127
    8      -11.772545
    9      -11.470612
   10      -11.326968
   11      -10.990695
   12      -10.394271
   13       -8.861376
   14       -8.609835
   15       -7.385561
   16       -7.127250
   17       -6.716390
   18       -6.682039
   19       -6.556797
   20       -6.500939
   21       -5.753862
   22       -5.686547
   23       -4.762485
   24       -4.654768
   25       -4.401921
   26       -4.136653
   27       -4.050879
   28       -3.753161
   29       -3.636004
   30       -3.449765
   31       -3.415758
   32       -3.122531
   33       -3.051397
   34       -2.969810
   35       -2.758763
   36       -2.694144
   37       -2.573511
   38       -2.524935
   39       -2.348592
   40       -2.285508
   41       -2.196303
   42       -2.083454
   43       -2.046153
   44       -1.903202
   45       -1.851016
   46       -1.770810
   47       -1.469879
   48       -1.340181
   49       -1.138435
   50       -1.030518
   51       -0.968754
   52       -0.777094
   53       -0.266637
   54       -0.044983
   55        0.625968
   56        1.016911
   57        1.536141
   58        1.705544
   59        1.754961
   60        1.869419
   61        1.911428
   62        2.172053
   63        2.319439
   64        2.418164
   65        2.485787
   66        2.617462
   67        2.865374
   68        2.932003
 
  0.1538462E+00  0.2500000E+00  0.0000000E+00  0.1923077E-01
    1      -14.039431
    2      -13.247056
    3      -12.854859
    4      -12.603186
    5      -12.308067
    6      -12.184959
    7      -11.649486
    8      -11.595050
    9      -11.331106
   10      -11.181714
   11      -10.849327
   12      -10.284481
   13       -8.834709
   14       -8.675438
   15       -7.349570
   16       -7.113508
   17       -6.753612
   18       -6.691348
   19       -6.541886
   20       -6.464716
   21       -5.700238
   22       -5.634722
   23       -5.039086
   24       -4.877110
   25       -4.716889
   26       -4.418055
   27       -4.363384
   28       -4.273051
   29       -4.014821
   30       -3.887196
   31       -3.677434
   32       -3.568629
   33       -3.495588
   34       -3.318904
   35       -3.158999
   36       -2.997643
   37       -2.983055
   38       -2.839811
   39       -2.807599
   40       -2.648830
   41       -2.579979
   42       -2.372055
   43       -2.342131
   44       -2.150781
   45       -1.961421
   46       -1.898485
   47       -1.546158
   48       -1.457801
   49       -1.202820
   50       -1.135385
   51       -0.986585
   52       -0.831452
   53       -0.580156
   54       -0.176576
   55        0.786201
   56        1.269438
   57        1.520001
   58        1.614132
   59        2.045991
   60        2.148511
   61        2.290680
   62        2.430855
   63        2.689731
   64        2.729145
   65        2.792909
   66        2.932973
   67        3.031132
   68        3.084978
 
  0.2307692E+00  0.2500000E+00  0.0000000E+00  0.1923077E-01
    1      -13.758426
    2      -12.935645
    3      -12.603430
    4      -12.343459
    5      -12.039732
    6      -11.921771
    7      -11.414896
    8      -11.326214
    9      -11.109205
   10      -10.969970
   11      -10.631877
   12      -10.150594
   13       -8.808283
   14       -8.767621
   15       -7.439493
   16       -7.390221
   17       -6.907879
   18       -6.731128
   19       -6.680922
   20       -6.445090
   21       -5.862063
   22       -5.815693
   23       -5.507508
   24       -5.244291
   25       -5.071179
   26       -5.039445
   27       -4.699272
   28       -4.602959
   29       -4.483689
   30       -4.437740
   31       -4.086656
   32       -4.010190
   33       -3.815352
   34       -3.760952
   35       -3.372921
   36       -3.249363
   37       -3.179980
   38       -3.127412
   39       -2.912563
   40       -2.718344
   41       -2.624757
   42       -2.568911
   43       -2.494453
   44       -2.206171
   45       -2.017466
   46       -1.957257
   47       -1.857672
   48       -1.803066
   49       -1.432645
   50       -1.358981
   51       -1.110388
   52       -0.953465
   53       -0.634455
   54       -0.217422
   55        0.380023
   56        0.916017
   57        1.024126
   58        1.416997
   59        1.558956
   60        2.002624
   61        2.169231
   62        2.262909
   63        2.528698
   64        2.636806
   65        2.732714
   66        3.013353
   67        3.139607
   68        3.252390
 
  0.3076923E+00  0.2500000E+00  0.0000000E+00  0.1923077E-01
    1      -13.383949
    2      -12.518937
    3      -12.244305
    4      -11.996432
    5      -11.687350
    6      -11.580672
    7      -11.165711
    8      -11.016340
    9      -10.845283
   10      -10.745418
   11      -10.426142
   12      -10.067521
   13       -9.006085
   14       -8.701397
   15       -7.850375
   16       -7.741207
   17       -7.238032
   18       -7.146983
   19       -6.995514
   20       -6.547916
   21       -6.369699
   22       -6.225020
   23       -6.059903
   24       -5.951732
   25       -5.416149
   26       -5.147554
   27       -4.969868
   28       -4.695778
   29       -4.598906
   30       -4.465551
   31       -4.417635
   32       -4.304082
   33       -4.046660
   34       -3.891945
   35       -3.377735
   36       -3.294769
   37       -3.142418
   38       -3.028876
   39       -2.991089
   40       -2.902903
   41       -2.809962
   42       -2.612249
   43       -2.511724
   44       -2.394849
   45       -2.298423
   46       -2.208234
   47       -1.988076
   48       -1.915163
   49       -1.778283
   50       -1.500841
   51       -1.347211
   52       -1.164608
   53       -0.668658
   54       -0.269727
   55        0.084768
   56        0.364497
   57        0.746688
   58        1.190945
   59        1.252846
   60        1.540292
   61        1.887264
   62        2.136969
   63        2.238234
   64        2.424111
   65        2.526683
   66        2.608116
   67        2.917872
   68        3.068517
 
  0.3846154E+00  0.2500000E+00  0.0000000E+00  0.1923077E-01
    1      -12.951366
    2      -12.015518
    3      -11.794192
    4      -11.615163
    5      -11.293993
    6      -11.239031
    7      -10.999744
    8      -10.760940
    9      -10.633980
   10      -10.602994
   11      -10.502359
   12      -10.064911
   13       -8.995933
   14       -8.689885
   15       -8.148436
   16       -8.058081
   17       -7.815020
   18       -7.669949
   19       -7.391394
   20       -7.060683
   21       -6.893786
   22       -6.728687
   23       -6.694746
   24       -6.479120
   25       -5.379833
   26       -5.135110
   27       -4.821214
   28       -4.718755
   29       -4.508150
   30       -4.436244
   31       -4.229516
   32       -4.143936
   33       -3.924223
   34       -3.893787
   35       -3.485601
   36       -3.388174
   37       -3.314719
   38       -3.267835
   39       -3.162281
   40       -2.999586
   41       -2.960735
   42       -2.808980
   43       -2.677736
   44       -2.523028
   45       -2.370129
   46       -2.296719
   47       -2.116123
   48       -2.088750
   49       -1.884979
   50       -1.649692
   51       -1.505468
   52       -1.365697
   53       -0.733661
   54       -0.375143
   55       -0.042841
   56        0.156464
   57        0.652569
   58        1.078941
   59        1.182497
   60        1.348171
   61        1.687192
   62        1.801098
   63        1.991879
   64        2.128845
   65        2.264831
   66        2.567575
   67        2.626914
   68        2.851755
 
  0.4615385E+00  0.2500000E+00  0.0000000E+00  0.1923077E-01
    1      -12.574994
    2      -11.475213
    3      -11.461675
    4      -11.299347
    5      -11.054915
    6      -10.993418
    7      -10.899948
    8      -10.792748
    9      -10.736405
   10      -10.614528
   11      -10.611453
   12      -10.099688
   13       -8.748882
   14       -8.589335
   15       -8.434390
   16       -8.363852
   17       -8.044077
   18       -7.793187
   19       -7.553595
   20       -7.530336
   21       -7.377572
   22       -7.345244
   23       -7.175193
   24       -6.644595
   25       -5.058834
   26       -5.027322
   27       -4.654353
   28       -4.505688
   29       -4.303494
   30       -4.208712
   31       -4.157053
   32       -4.039383
   33       -3.989306
   34       -3.960247
   35       -3.704723
   36       -3.687330
   37       -3.540108
   38       -3.496909
   39       -3.299206
   40       -3.119297
   41       -3.019748
   42       -3.003304
   43       -2.680519
   44       -2.638397
   45       -2.492339
   46       -2.302018
   47       -2.173436
   48       -2.136887
   49       -1.743099
   50       -1.670110
   51       -1.596254
   52       -1.483569
   53       -0.760118
   54       -0.480441
   55       -0.109944
   56        0.273302
   57        0.634088
   58        0.960810
   59        1.388085
   60        1.477906
   61        1.541771
   62        1.670462
   63        1.811647
   64        2.068770
   65        2.160847
   66        2.397849
   67        2.445746
   68        2.484239
 
 -0.4615385E+00  0.2500000E+00  0.0000000E+00  0.1923077E-01
    1      -12.578352
    2      -11.570770
    3      -11.468996
    4      -11.107361
    5      -11.011621
    6      -10.968525
    7      -10.841758
    8      -10.796780
    9      -10.779965
   10      -10.731231
   11      -10.671385
   12      -10.100364
   13       -8.798344
   14       -8.780081
   15       -8.468656
   16       -8.079481
   17       -7.978377
   18       -7.689192
   19       -7.637754
   20       -7.586228
   21       -7.336826
   22       -7.314617
   23       -7.253513
   24       -6.595186
   25       -4.949858
   26       -4.780574
   27       -4.677020
   28       -4.610528
   29       -4.506366
   30       -4.390588
   31       -4.098352
   32       -4.035978
   33       -4.022350
   34       -3.920886
   35       -3.800435
   36       -3.699164
   37       -3.662776
   38       -3.462837
   39       -3.386536
   40       -3.307622
   41       -3.048071
   42       -2.838016
   43       -2.715901
   44       -2.508195
   45       -2.413773
   46       -2.259839
   47       -2.198831
   48       -2.136572
   49       -1.753538
   50       -1.624552
   51       -1.520251
   52       -1.451059
   53       -0.783702
   54       -0.396321
   55       -0.127285
   56        0.474609
   57        0.614092
   58        1.084908
   59        1.342699
   60        1.611686
   61        1.685179
   62        1.744000
   63        1.888702
   64        1.983464
   65        2.211161
   66        2.327649
   67        2.403764
   68        2.533252
 
 -0.3846154E+00  0.2500000E+00  0.0000000E+00  0.1923077E-01
    1      -12.958877
    2      -12.136915
    3      -11.554308
    4      -11.520792
    5      -11.290910
    6      -11.230580
    7      -11.042859
    8      -10.960027
    9      -10.663895
   10      -10.658708
   11      -10.484846
   12      -10.055888
   13       -8.780449
   14       -8.762286
   15       -8.526024
   16       -7.907077
   17       -7.659115
   18       -7.474375
   19       -7.365176
   20       -7.225550
   21       -6.845617
   22       -6.798618
   23       -6.698895
   24       -6.325559
   25       -5.197635
   26       -5.091756
   27       -4.893090
   28       -4.771176
   29       -4.436049
   30       -4.365470
   31       -4.304399
   32       -4.181461
   33       -4.119132
   34       -4.014962
   35       -3.759807
   36       -3.607990
   37       -3.441532
   38       -3.421935
   39       -3.216022
   40       -3.120771
   41       -2.858342
   42       -2.745977
   43       -2.571661
   44       -2.436220
   45       -2.288149
   46       -2.271962
   47       -2.079949
   48       -1.974749
   49       -1.849865
   50       -1.583187
   51       -1.422891
   52       -1.319185
   53       -0.650216
   54       -0.319752
   55       -0.116821
   56        0.629435
   57        0.807424
   58        1.323160
   59        1.402368
   60        1.719729
   61        1.809157
   62        1.866023
   63        1.946579
   64        2.097189
   65        2.231664
   66        2.393807
   67        2.442667
   68        2.596398
 
 -0.3076923E+00  0.2500000E+00  0.0000000E+00  0.1923077E-01
    1      -13.392444
    2      -12.630998
    3      -11.983011
    4      -11.921870
    5      -11.691134
    6      -11.574939
    7      -11.285216
    8      -11.224268
    9      -10.807801
   10      -10.793121
   11      -10.456072
   12      -10.083983
   13       -8.607440
   14       -8.588659
   15       -8.222447
   16       -7.703183
   17       -7.327160
   18       -7.035570
   19       -6.908732
   20       -6.789108
   21       -6.240818
   22       -6.192341
   23       -6.011218
   24       -5.962410
   25       -5.217692
   26       -5.178740
   27       -4.926366
   28       -4.734390
   29       -4.667032
   30       -4.460082
   31       -4.362483
   32       -4.319176
   33       -4.263709
   34       -3.823832
   35       -3.575403
   36       -3.490704
   37       -3.227360
   38       -3.164279
   39       -3.105652
   40       -2.968509
   41       -2.815258
   42       -2.690873
   43       -2.482657
   44       -2.309746
   45       -2.116389
   46       -2.054371
   47       -1.903875
   48       -1.893413
   49       -1.738614
   50       -1.403487
   51       -1.342407
   52       -1.224644
   53       -0.666667
   54       -0.138810
   55       -0.001729
   56        0.791701
   57        1.104069
   58        1.560364
   59        1.638466
   60        1.877003
   61        1.945071
   62        2.044157
   63        2.208651
   64        2.258702
   65        2.352519
   66        2.544810
   67        2.670951
   68        2.725481
 
 -0.2307692E+00  0.2500000E+00  0.0000000E+00  0.1923077E-01
    1      -13.766007
    2      -13.026256
    3      -12.387421
    4      -12.279166
    5      -12.044840
    6      -11.918194
    7      -11.574741
    8      -11.468393
    9      -11.063203
   10      -11.010301
   11      -10.634757
   12      -10.191941
   13       -8.517835
   14       -8.433656
   15       -7.818490
   16       -7.483149
   17       -6.932578
   18       -6.733850
   19       -6.671422
   20       -6.529213
   21       -5.977635
   22       -5.773545
   23       -5.431770
   24       -5.368849
   25       -5.043310
   26       -4.866807
   27       -4.637484
   28       -4.552932
   29       -4.368676
   30       -4.324375
   31       -4.219424
   32       -4.106439
   33       -3.832814
   34       -3.668760
   35       -3.555278
   36       -3.482812
   37       -3.269612
   38       -3.038203
   39       -2.942089
   40       -2.736729
   41       -2.618937
   42       -2.540229
   43       -2.445399
   44       -2.183361
   45       -1.935941
   46       -1.864319
   47       -1.823959
   48       -1.760840
   49       -1.493092
   50       -1.291743
   51       -1.104790
   52       -1.077592
   53       -0.711861
   54       -0.141818
   55        0.404249
   56        0.918321
   57        1.508491
   58        1.757182
   59        1.893691
   60        1.986987
   61        2.192299
   62        2.336346
   63        2.413169
   64        2.665301
   65        2.697835
   66        2.869570
   67        2.927679
   68        2.962919
 
 -0.1538462E+00  0.2500000E+00  0.0000000E+00  0.1923077E-01
    1      -14.045000
    2      -13.310044
    3      -12.702571
    4      -12.557026
    5      -12.312342
    6      -12.182713
    7      -11.790663
    8      -11.677227
    9      -11.295504
   10      -11.211519
   11      -10.837275
   12      -10.322294
   13       -8.600751
   14       -8.413851
   15       -7.577619
   16       -7.336256
   17       -6.748802
   18       -6.654581
   19       -6.587364
   20       -6.448052
   21       -5.847035
   22       -5.720334
   23       -4.980092
   24       -4.868489
   25       -4.782759
   26       -4.324107
   27       -4.201134
   28       -4.128778
   29       -3.980529
   30       -3.864242
   31       -3.741860
   32       -3.593724
   33       -3.527883
   34       -3.341553
   35       -3.230966
   36       -3.074836
   37       -2.977655
   38       -2.928446
   39       -2.759363
   40       -2.581750
   41       -2.522856
   42       -2.331381
   43       -2.212477
   44       -2.089835
   45       -1.939000
   46       -1.805196
   47       -1.646625
   48       -1.482548
   49       -1.277740
   50       -1.183676
   51       -0.977259
   52       -0.833396
   53       -0.666288
   54       -0.119675
   55        0.712031
   56        1.115135
   57        1.706822
   58        1.801328
   59        2.122394
   60        2.163106
   61        2.270342
   62        2.412377
   63        2.640445
   64        2.746984
   65        2.893571
   66        2.955123
   67        3.079753
   68        3.170754
 
 -0.7692308E-01  0.2500000E+00  0.0000000E+00  0.1923077E-01
    1      -14.215646
    2      -13.475803
    3      -12.912983
    4      -12.734482
    5      -12.477075