 running on    8 total cores
 distrk:  each k-point on    8 cores,    1 groups
 distr:  one band on    2 cores,    4 groups
 using from now: INCAR     
 vasp.5.3.5 31Mar14 (build Oct 29 2014 16:16:03) complex                        
  
 POSCAR found type information on POSCAR  P  Si
 POSCAR found :  2 types and      24 ions
 scaLAPACK will be used

 ----------------------------------------------------------------------------- 
|                                                                             |
|  ADVICE TO THIS USER RUNNING 'VASP/VAMP'   (HEAR YOUR MASTER'S VOICE ...):  |
|                                                                             |
|      You have switched on vdW-DFT.                                          |
|      This routine was written and supplied by Jiri Klimes.                  |
|      We recommed that you carefully read and cite the following             |
|      publication                                                            |
|      J. Klimes, D.R. Bowler, A. Michelides                                  |
|        J. Phys.: Cond Matt. 22 022201 (2010)                                |
|      J. Klimes, D.R. Bowler, A. Michelides                                  |
|        Phys. Rev. B. 83, 195131 (2011)                                      |
|      and references therein.                                                |
|                                                                             |
 ----------------------------------------------------------------------------- 


 ----------------------------------------------------------------------------- 
|                                                                             |
|  ADVICE TO THIS USER RUNNING 'VASP/VAMP'   (HEAR YOUR MASTER'S VOICE ...):  |
|                                                                             |
|      You enforced a specific xc-type in the INCAR file,                     |
|      a different type was found on the POTCAR file                          |
|          I HOPE YOU KNOW, WHAT YOU ARE  DOING                               |
|                                                                             |
 ----------------------------------------------------------------------------- 

 LDA part: xc-table for Pade appr. of Perdew


 VERY BAD NEWS! internal error in subroutine IBZKPT:
 Reciprocal lattice and k-lattice belong to different class of lattices. Often results are still useful...      96


 VERY BAD NEWS! internal error in subroutine IBZKPT:
 Reciprocal lattice and k-lattice belong to different class of lattices. Often results are still useful...      96


 VERY BAD NEWS! internal error in subroutine IBZKPT:
 Reciprocal lattice and k-lattice belong to different class of lattices. Often results are still useful...      96


 VERY BAD NEWS! internal error in subroutine IBZKPT:
 Reciprocal lattice and k-lattice belong to different class of lattices. Often results are still useful...      96


 VERY BAD NEWS! internal error in subroutine IBZKPT:
 Reciprocal lattice and k-lattice belong to different class of lattices. Often results are still useful...      96


 VERY BAD NEWS! internal error in subroutine IBZKPT:
 Reciprocal lattice and k-lattice belong to different class of lattices. Often results are still useful...      96


 VERY BAD NEWS! internal error in subroutine IBZKPT:
 Reciprocal lattice and k-lattice belong to different class of lattices. Often results are still useful...      96


 VERY BAD NEWS! internal error in subroutine IBZKPT:
 Reciprocal lattice and k-lattice belong to different class of lattices. Often results are still useful...      96
 POSCAR, INCAR and KPOINTS ok, starting setup
 WARNING: small aliasing (wrap around) errors must be expected
 FFT: planning ...
 WAVECAR not read
 entering main loop
       N       E                     dE             d eps       ncg     rms          rms(c)
Total vdW correction in eV:     15.9042685
DAV:   1     0.484340018848E+03    0.48434E+03   -0.28612E+04  7360   0.790E+02
DAV:   2    -0.705420584982E+02   -0.55488E+03   -0.54019E+03  9764   0.188E+02
DAV:   3    -0.125636843013E+03   -0.55095E+02   -0.54347E+02  8868   0.615E+01
DAV:   4    -0.128047066407E+03   -0.24102E+01   -0.23957E+01 10904   0.138E+01
DAV:   5    -0.128104656291E+03   -0.57590E-01   -0.57530E-01 10056   0.209E+00    0.981E+00
Total vdW correction in eV:     16.3377003
DAV:   6    -0.126378640942E+03    0.17260E+01   -0.33167E+00  8776   0.460E+00    0.552E+00
Total vdW correction in eV:     16.8917707
DAV:   7    -0.126133396639E+03    0.24524E+00   -0.26657E+00  8680   0.422E+00    0.144E+00
Total vdW correction in eV:     17.0125336
DAV:   8    -0.126113793882E+03    0.19603E-01   -0.30152E-01  8976   0.170E+00    0.482E-01
Total vdW correction in eV:     17.0642252
DAV:   9    -0.126098691327E+03    0.15103E-01   -0.45219E-02  9280   0.669E-01    0.199E-01
Total vdW correction in eV:     17.0776694
DAV:  10    -0.126090020431E+03    0.86709E-02   -0.96604E-03  9096   0.288E-01    0.980E-02
Total vdW correction in eV:     17.0855209
DAV:  11    -0.126083935867E+03    0.60846E-02   -0.22556E-03  8768   0.145E-01    0.427E-02
Total vdW correction in eV:     17.0907683
DAV:  12    -0.126080636526E+03    0.32993E-02   -0.52334E-04  9048   0.678E-02    0.224E-02
Total vdW correction in eV:     17.0953229
DAV:  13    -0.126078905121E+03    0.17314E-02   -0.14373E-04  9864   0.321E-02    0.128E-02
Total vdW correction in eV:     17.0992932
DAV:  14    -0.126077899645E+03    0.10055E-02   -0.57749E-05  8560   0.220E-02    0.736E-03
Total vdW correction in eV:     17.1015512
DAV:  15    -0.126078112236E+03   -0.21259E-03   -0.48859E-05  8184   0.169E-02    0.459E-03
Total vdW correction in eV:     17.1027342
DAV:  16    -0.126078695732E+03   -0.58350E-03   -0.18371E-04  8116   0.244E-02    0.248E-03
Total vdW correction in eV:     17.1026248
DAV:  17    -0.126078853372E+03   -0.15764E-03   -0.77965E-05  7632   0.147E-02    0.140E-03
Total vdW correction in eV:     17.1023846
DAV:  18    -0.126078864123E+03   -0.10751E-04   -0.14149E-05  6200   0.873E-03    0.906E-04
Total vdW correction in eV:     17.1021811
DAV:  19    -0.126078895315E+03   -0.31192E-04   -0.31590E-05  7020   0.101E-02    0.639E-04
Total vdW correction in eV:     17.1020308
DAV:  20    -0.126078866056E+03    0.29259E-04   -0.20563E-05  6720   0.115E-02    0.361E-04
Total vdW correction in eV:     17.1019904
DAV:  21    -0.126078796329E+03    0.69727E-04   -0.12210E-05  6412   0.844E-03    0.211E-04
Total vdW correction in eV:     17.1019841
DAV:  22    -0.126078772399E+03    0.23929E-04   -0.83446E-06  6364   0.791E-03    0.988E-05
Total vdW correction in eV:     17.1019876
DAV:  23    -0.126078748979E+03    0.23421E-04   -0.53142E-06  6696   0.689E-03    0.473E-05
Total vdW correction in eV:     17.1019878
DAV:  24    -0.126078746006E+03    0.29731E-05   -0.37810E-06  5840   0.657E-03    0.253E-05
Total vdW correction in eV:     17.1019879
DAV:  25    -0.126078742578E+03    0.34275E-05   -0.21859E-06  5816   0.526E-03    0.127E-05
Total vdW correction in eV:     17.1019880
DAV:  26    -0.126078741768E+03    0.81069E-06   -0.13905E-06  5512   0.459E-03
Total vdW correction in eV:     17.1019882
Total vdW correction in eV:     17.1019883
   1 F= -.12607874E+03 E0= -.12606140E+03  d E =-.346758E-01
