 vasp.5.3.5 31Mar14 (build Oct 29 2014 16:16:03) complex                        
  
 executed on          Linux-UFHPC date 2016.02.09  17:28:12
 running on    8 total cores
 distrk:  each k-point on    8 cores,    1 groups
 distr:  one band on NCORES_PER_BAND=   2 cores,    4 groups


--------------------------------------------------------------------------------------------------------


 INCAR:
 POTCAR:    PAW_PBE P 17Jan2003                   
 POTCAR:   PAW_PBE Si 05Jan2001                   

 ----------------------------------------------------------------------------- 
|                                                                             |
|  ADVICE TO THIS USER RUNNING 'VASP/VAMP'   (HEAR YOUR MASTER'S VOICE ...):  |
|                                                                             |
|      You have switched on vdW-DFT.                                          |
|      This routine was written and supplied by Jiri Klimes.                  |
|      We recommed that you carefully read and cite the following             |
|      publication                                                            |
|      J. Klimes, D.R. Bowler, A. Michelides                                  |
|        J. Phys.: Cond Matt. 22 022201 (2010)                                |
|      J. Klimes, D.R. Bowler, A. Michelides                                  |
|        Phys. Rev. B. 83, 195131 (2011)                                      |
|      and references therein.                                                |
|                                                                             |
 ----------------------------------------------------------------------------- 

 POTCAR:    PAW_PBE P 17Jan2003                   
   VRHFIN =P : s2p3                                                             
   LEXCH  = PE                                                                  
   EATOM  =   176.0430 eV,   12.9388 Ry                                         
                                                                                
   TITEL  = PAW_PBE P 17Jan2003                                                 
   LULTRA =        F    use ultrasoft PP ?                                      
   IUNSCR =        1    unscreen: 0-lin 1-nonlin 2-no                           
   RPACOR =    1.500    partial core radius                                     
   POMASS =   30.974; ZVAL   =    5.000    mass and valenz                      
   RCORE  =    1.900    outmost cutoff radius                                   
   RWIGS  =    2.330; RWIGS  =    1.233    wigner-seitz radius (au A)           
   ENMAX  =  270.000; ENMIN  =  191.280 eV                                      
   ICORE  =        2    local potential                                         
   LCOR   =        T    correct aug charges                                     
   LPAW   =        T    paw PP                                                  
   EAUG   =  342.924                                                            
   DEXC   =    -.002                                                            
   RMAX   =    2.887    core radius for proj-oper                               
   RAUG   =    1.300    factor for augmentation sphere                          
   RDEP   =    1.931    radius for radial grids                                 
   QCUT   =   -4.330; QGAM   =    8.659    optimization parameters              
                                                                                
   Description                                                                  
     l     E      TYP  RCUT    TYP  RCUT                                        
     0   .000     23  1.900                                                     
     0   .000     23  1.900                                                     
     1   .000     23  1.900                                                     
     1   .000     23  1.900                                                     
     2   .000     23  1.900                                                     
  local pseudopotential read in
  partial core-charges read in
  atomic valenz-charges read in
  non local Contribution for L=           0  read in
    real space projection operators read in
  non local Contribution for L=           0  read in
    real space projection operators read in
  non local Contribution for L=           1  read in
    real space projection operators read in
  non local Contribution for L=           1  read in
    real space projection operators read in
    PAW grid and wavefunctions read in
 
   number of l-projection  operators is LMAX  =           4
   number of lm-projection operators is LMMAX =           8
 
 POTCAR:   PAW_PBE Si 05Jan2001                   
   VRHFIN =Si: s2p2                                                             
   LEXCH  = PE                                                                  
   EATOM  =   103.0669 eV,    7.5752 Ry                                         
                                                                                
   TITEL  = PAW_PBE Si 05Jan2001                                                
   LULTRA =        F    use ultrasoft PP ?                                      
   IUNSCR =        1    unscreen: 0-lin 1-nonlin 2-no                           
   RPACOR =    1.500    partial core radius                                     
   POMASS =   28.085; ZVAL   =    4.000    mass and valenz                      
   RCORE  =    1.900    outmost cutoff radius                                   
   RWIGS  =    2.480; RWIGS  =    1.312    wigner-seitz radius (au A)           
   ENMAX  =  245.345; ENMIN  =  184.009 eV                                      
   ICORE  =        2    local potential                                         
   LCOR   =        T    correct aug charges                                     
   LPAW   =        T    paw PP                                                  
   EAUG   =  322.069                                                            
   DEXC   =    -.007                                                            
   RMAX   =    2.944    core radius for proj-oper                               
   RAUG   =    1.300    factor for augmentation sphere                          
   RDEP   =    1.993    radius for radial grids                                 
   QCUT   =   -4.246; QGAM   =    8.493    optimization parameters              
                                                                                
   Description                                                                  
     l     E      TYP  RCUT    TYP  RCUT                                        
     0   .000     23  1.900                                                     
     0   .000     23  1.900                                                     
     1   .000     23  1.900                                                     
     1   .000     23  1.900                                                     
     2   .000      7  1.900                                                     
  local pseudopotential read in
  partial core-charges read in
  atomic valenz-charges read in
  non local Contribution for L=           0  read in
    real space projection operators read in
  non local Contribution for L=           0  read in
    real space projection operators read in
  non local Contribution for L=           1  read in
    real space projection operators read in
  non local Contribution for L=           1  read in
    real space projection operators read in
    PAW grid and wavefunctions read in
 
   number of l-projection  operators is LMAX  =           4
   number of lm-projection operators is LMMAX =           8
 
 Optimization of the real space projectors (new method)

 maximal supplied QI-value         = 19.84
 optimisation between [QCUT,QGAM] = [  8.73, 17.66] = [ 21.34, 87.33] Ry 
 Optimized for a Real-space Cutoff    1.50 Angstroem

   l    n(q)    QCUT    max X(q) W(low)/X(q) W(high)/X(q)  e(spline) 
   0      8     8.731     6.651    0.16E-04    0.15E-04    0.77E-08
   0      8     8.731    90.285    0.16E-03    0.90E-04    0.16E-06
   1      7     8.731     4.328    0.47E-04    0.36E-04    0.45E-07
   1      7     8.731    54.583    0.13E-03    0.39E-03    0.20E-06
 Optimization of the real space projectors (new method)

 maximal supplied QI-value         = 19.84
 optimisation between [QCUT,QGAM] = [  8.73, 17.66] = [ 21.34, 87.33] Ry 
 Optimized for a Real-space Cutoff    1.46 Angstroem

   l    n(q)    QCUT    max X(q) W(low)/X(q) W(high)/X(q)  e(spline) 
   0      8     8.731     8.708    0.16E-04    0.11E-04    0.68E-08
   0      8     8.731   106.241    0.24E-03    0.77E-04    0.13E-06
   1      7     8.731     5.901    0.34E-04    0.38E-04    0.36E-07
   1      7     8.731    73.241    0.12E-03    0.39E-03    0.15E-06

 ----------------------------------------------------------------------------- 
|                                                                             |
|  ADVICE TO THIS USER RUNNING 'VASP/VAMP'   (HEAR YOUR MASTER'S VOICE ...):  |
|                                                                             |
|      You enforced a specific xc-type in the INCAR file,                     |
|      a different type was found on the POTCAR file                          |
|          I HOPE YOU KNOW, WHAT YOU ARE  DOING                               |
|                                                                             |
 ----------------------------------------------------------------------------- 

  PAW_PBE P 17Jan2003                   :
 energy of atom  1       EATOM= -176.0430
 kinetic energy error for atom=    0.0040 (will be added to EATOM!!)
 PAW_PBE Si 05Jan2001                   :
 energy of atom  2       EATOM= -103.0669
 kinetic energy error for atom=    0.0021 (will be added to EATOM!!)
 
 
 POSCAR: Si12                                    
  positions in direct lattice
  No initial velocities read in
 exchange correlation table for  LEXCH =       42
   RHO(1)=    0.500       N(1)  =     2000
   RHO(2)=  100.500       N(2)  =     4000
 


--------------------------------------------------------------------------------------------------------


 ion  position               nearest neighbor table
   1  0.114  0.228  0.233-  15 2.28  21 2.29  21 2.29
   2  0.314  0.328  0.515-  16 2.28  22 2.29  22 2.29
   3  0.458  0.916  0.209-  21 2.28  13 2.30  13 2.30
   4  0.658  0.016  0.491-  22 2.28  14 2.30  14 2.30
   5  0.311  0.622  0.084-  17 2.28  23 2.30  23 2.30
   6  0.311  0.622  0.366-  18 2.28  24 2.35  24 3.05
   7  0.999  0.998  0.086-  19 2.29  19 2.29  13 2.32
   8  0.999  0.998  0.368-  14 2.05  20 2.29  20 2.29  24 2.87
   9  0.655  0.310  0.060-  19 2.28  17 2.29  17 2.29
  10  0.655  0.310  0.342-  20 2.28  18 2.29  18 2.29
  11  0.770  0.539  0.207-  15 2.29  15 2.29  23 2.32
  12  0.970  0.639  0.489-  16 2.29  16 2.29  24 2.32
  13  0.940  0.879  0.158-   3 2.30   3 2.30   7 2.32  23 2.35
  14  0.140  0.979  0.440-   8 2.05   4 2.30   4 2.30  24 2.35  20 2.40  20 3.08
  15  0.205  0.410  0.186-   1 2.28  11 2.29  11 2.29  17 2.37
  16  0.405  0.510  0.468-   2 2.28  12 2.29  12 2.29  18 2.66
  17  0.202  0.404  0.100-   5 2.28   9 2.29   9 2.29  15 2.37
  18  0.202  0.404  0.382-   6 2.28  10 2.29  10 2.29  16 2.66
  19  0.564  0.128  0.108-   9 2.28   7 2.29   7 2.29  21 2.37
  20  0.564  0.128  0.390-  10 2.28   8 2.29   8 2.29  14 2.40  22 2.66  14 3.08
  21  0.567  0.134  0.194-   3 2.28   1 2.29   1 2.29  19 2.37
  22  0.767  0.234  0.476-   4 2.28   2 2.29   2 2.29  20 2.66
  23  0.829  0.658  0.136-   5 2.30   5 2.30  11 2.32  13 2.35
  24  0.029  0.758  0.418-  12 2.32   6 2.35  14 2.35   8 2.87   6 3.05
 
  LATTYP: Found a base centered orthorhombic cell.
 ALAT       =     3.5404000000
 B/A-ratio  =     5.8153587165
 C/A-ratio  =     7.7678875268
  
  Lattice vectors:
  
 A1 = (   1.7702000000,  10.2943480000,   0.0000000000)
 A2 = (   1.7702000000, -10.2943480000,   0.0000000000)
 A3 = (   0.0000000000,   0.0000000000, -27.5014290000)


Analysis of symmetry for initial positions (statically):
=====================================================================
 Subroutine PRICEL returns:
 Original cell was already a primitive cell.
 

 Routine SETGRP: Setting up the symmetry group for a 
 base centered orthorhombic supercell.


 Subroutine GETGRP returns: Found  1 space group operations
 (whereof  1 operations were pure point group operations)
 out of a pool of  8 trial point group operations.


The static configuration has the point symmetry C_1 .


Analysis of symmetry for dynamics (positions and initial velocities):
=====================================================================
 Subroutine PRICEL returns:
 Original cell was already a primitive cell.
 

 Routine SETGRP: Setting up the symmetry group for a 
 base centered orthorhombic supercell.


 Subroutine GETGRP returns: Found  1 space group operations
 (whereof  1 operations were pure point group operations)
 out of a pool of  8 trial point group operations.


The dynamic configuration has the point symmetry C_1 .
 
 
 KPOINTS: pymatgen generated KPOINTS with grid den

Automatic generation of k-mesh.
Space group operators:
 irot       det(A)        alpha          n_x          n_y          n_z        tau_x        tau_y        tau_z
    1     1.000000     0.000000     1.000000     0.000000     0.000000     0.000000     0.000000     0.000000
 
 Subroutine IBZKPT returns following result:
 ===========================================
 
 Found     54 irreducible k-points:
 
 Following reciprocal coordinates:
            Coordinates               Weight
  0.000000  0.000000  0.000000      1.000000
  0.076923 -0.000000  0.000000      2.000000
  0.153846 -0.000000  0.000000      2.000000
  0.230769 -0.000000  0.000000      2.000000
  0.307692 -0.000000  0.000000      2.000000
  0.384615 -0.000000  0.000000      2.000000
  0.461538 -0.000000  0.000000      2.000000
  0.000000  0.250000  0.000000      2.000000
  0.076923  0.250000  0.000000      2.000000
  0.153846  0.250000  0.000000      2.000000
  0.230769  0.250000  0.000000      2.000000
  0.307692  0.250000  0.000000      2.000000
  0.384615  0.250000  0.000000      2.000000
  0.461538  0.250000  0.000000      2.000000
 -0.461538  0.250000  0.000000      2.000000
 -0.384615  0.250000  0.000000      2.000000
 -0.307692  0.250000  0.000000      2.000000
 -0.230769  0.250000  0.000000      2.000000
 -0.153846  0.250000  0.000000      2.000000
 -0.076923  0.250000  0.000000      2.000000
  0.000000  0.500000  0.000000      1.000000
  0.076923  0.500000  0.000000      2.000000
  0.153846  0.500000  0.000000      2.000000
  0.230769  0.500000  0.000000      2.000000
  0.307692  0.500000  0.000000      2.000000
  0.384615  0.500000  0.000000      2.000000
  0.461538  0.500000  0.000000      2.000000
  0.000000  0.000000  0.500000      1.000000
  0.076923 -0.000000  0.500000      2.000000
  0.153846 -0.000000  0.500000      2.000000
  0.230769 -0.000000  0.500000      2.000000
  0.307692 -0.000000  0.500000      2.000000
  0.384615 -0.000000  0.500000      2.000000
  0.461538 -0.000000  0.500000      2.000000
  0.000000  0.250000  0.500000      2.000000
  0.076923  0.250000  0.500000      2.000000
  0.153846  0.250000  0.500000      2.000000
  0.230769  0.250000  0.500000      2.000000
  0.307692  0.250000  0.500000      2.000000
  0.384615  0.250000  0.500000      2.000000
  0.461538  0.250000  0.500000      2.000000
 -0.461538  0.250000  0.500000      2.000000
 -0.384615  0.250000  0.500000      2.000000
 -0.307692  0.250000  0.500000      2.000000
 -0.230769  0.250000  0.500000      2.000000
 -0.153846  0.250000  0.500000      2.000000
 -0.076923  0.250000  0.500000      2.000000
  0.000000  0.500000  0.500000      1.000000
  0.076923  0.500000  0.500000      2.000000
  0.153846  0.500000  0.500000      2.000000
  0.230769  0.500000  0.500000      2.000000
  0.307692  0.500000  0.500000      2.000000
  0.384615  0.500000  0.500000      2.000000
  0.461538  0.500000  0.500000      2.000000
 
 Following cartesian coordinates:
            Coordinates               Weight
  0.000000  0.000000  0.000000      1.000000
  0.021727  0.003736  0.000000      2.000000
  0.043454  0.007472  0.000000      2.000000
  0.065182  0.011209  0.000000      2.000000
  0.086909  0.014945  0.000000      2.000000
  0.108636  0.018681  0.000000      2.000000
  0.130363  0.022417  0.000000      2.000000
  0.000000  0.024285  0.000000      2.000000
  0.021727  0.028021  0.000000      2.000000
  0.043454  0.031758  0.000000      2.000000
  0.065182  0.035494  0.000000      2.000000
  0.086909  0.039230  0.000000      2.000000
  0.108636  0.042966  0.000000      2.000000
  0.130363  0.046702  0.000000      2.000000
 -0.130363  0.001868  0.000000      2.000000
 -0.108636  0.005604  0.000000      2.000000
 -0.086909  0.009340  0.000000      2.000000
 -0.065182  0.013077  0.000000      2.000000
 -0.043454  0.016813  0.000000      2.000000
 -0.021727  0.020549  0.000000      2.000000
  0.000000  0.048570  0.000000      1.000000
  0.021727  0.052307  0.000000      2.000000
  0.043454  0.056043  0.000000      2.000000
  0.065182  0.059779  0.000000      2.000000
  0.086909  0.063515  0.000000      2.000000
  0.108636  0.067251  0.000000      2.000000
  0.130363  0.070987  0.000000      2.000000
  0.000000  0.000000  0.018181      1.000000
  0.021727  0.003736  0.018181      2.000000
  0.043454  0.007472  0.018181      2.000000
  0.065182  0.011209  0.018181      2.000000
  0.086909  0.014945  0.018181      2.000000
  0.108636  0.018681  0.018181      2.000000
  0.130363  0.022417  0.018181      2.000000
  0.000000  0.024285  0.018181      2.000000
  0.021727  0.028021  0.018181      2.000000
  0.043454  0.031758  0.018181      2.000000
  0.065182  0.035494  0.018181      2.000000
  0.086909  0.039230  0.018181      2.000000
  0.108636  0.042966  0.018181      2.000000
  0.130363  0.046702  0.018181      2.000000
 -0.130363  0.001868  0.018181      2.000000
 -0.108636  0.005604  0.018181      2.000000
 -0.086909  0.009340  0.018181      2.000000
 -0.065182  0.013077  0.018181      2.000000
 -0.043454  0.016813  0.018181      2.000000
 -0.021727  0.020549  0.018181      2.000000
  0.000000  0.048570  0.018181      1.000000
  0.021727  0.052307  0.018181      2.000000
  0.043454  0.056043  0.018181      2.000000
  0.065182  0.059779  0.018181      2.000000
  0.086909  0.063515  0.018181      2.000000
  0.108636  0.067251  0.018181      2.000000
  0.130363  0.070987  0.018181      2.000000
 


--------------------------------------------------------------------------------------------------------




 Dimension of arrays:
   k-points           NKPTS =     54   k-points in BZ     NKDIM =     54   number of bands    NBANDS=     68
   number of dos      NEDOS =    301   number of ions     NIONS =     24
   non local maximal  LDIM  =      4   non local SUM 2l+1 LMDIM =      8
   total plane-waves  NPLWV = 192000
   max r-space proj   IRMAX =   2772   max aug-charges    IRDMAX=   6603
   dimension x,y,z NGX =    20 NGY =   60 NGZ =  160
   dimension x,y,z NGXF=    40 NGYF=  120 NGZF=  320
   support grid    NGXF=    40 NGYF=  120 NGZF=  320
   ions per type =              12  12
 NGX,Y,Z   is equivalent  to a cutoff of   9.39,  9.55,  9.67 a.u.
 NGXF,Y,Z  is equivalent  to a cutoff of  18.78, 19.10, 19.34 a.u.


 I would recommend the setting:
   dimension x,y,z NGX =    20 NGY =   59 NGZ =  155
 SYSTEM =  unknown system                          
 POSCAR =  Si12                                    

 Startparameter for this run:
   NWRITE =      2    write-flag & timer
   PREC   = accura    normal or accurate (medium, high low for compatibility)
   ISTART =      0    job   : 0-new  1-cont  2-samecut
   ICHARG =      2    charge: 1-file 2-atom 10-const
   ISPIN  =      1    spin polarized calculation?
   LNONCOLLINEAR =      F non collinear calculations
   LSORBIT =      F    spin-orbit coupling
   INIWAV =      1    electr: 0-lowe 1-rand  2-diag
   LASPH  =      F    aspherical Exc in radial PAW
   METAGGA=      F    non-selfconsistent MetaGGA calc.

 Electronic Relaxation 1
   ENCUT  =  300.0 eV  22.05 Ry    4.70 a.u.   5.00 14.75 38.84*2*pi/ulx,y,z
   ENINI  =  300.0     initial cutoff
   ENAUG  =  342.9 eV  augmentation charge cutoff
   NELM   =     60;   NELMIN=  2; NELMDL= -5     # of ELM steps 
   EDIFF  = 0.1E-05   stopping-criterion for ELM
   LREAL  =      T    real-space projection
   NLSPLINE    = F    spline interpolate recip. space projectors
   LCOMPAT=      F    compatible to vasp.4.4
   GGA_COMPAT  = T    GGA compatible to vasp.4.4-vasp.4.6
   LMAXPAW     = -100 max onsite density
   LMAXMIX     =    2 max onsite mixed and CHGCAR
   VOSKOWN=      0    Vosko Wilk Nusair interpolation
   ROPT   =   -0.00025  -0.00025
 Ionic relaxation
   EDIFFG = 0.1E-04   stopping-criterion for IOM
   NSW    =      0    number of steps for IOM
   NBLOCK =      1;   KBLOCK =      1    inner block; outer block 
   IBRION =     -1    ionic relax: 0-MD 1-quasi-New 2-CG
   NFREE  =      1    steps in history (QN), initial steepest desc. (CG)
   ISIF   =      3    stress and relaxation
   IWAVPR =     10    prediction:  0-non 1-charg 2-wave 3-comb
   ISYM   =      2    0-nonsym 1-usesym 2-fastsym
   LCORR  =      T    Harris-Foulkes like correction to forces

   POTIM  = 0.5000    time-step for ionic-motion
   TEIN   =    0.0    initial temperature
   TEBEG  =    0.0;   TEEND  =   0.0 temperature during run
   SMASS  =  -3.00    Nose mass-parameter (am)
   estimated Nose-frequenzy (Omega)   =  0.10E-29 period in steps =****** mass=  -0.286E-27a.u.
   SCALEE = 1.0000    scale energy and forces
   NPACO  =    256;   APACO  = 16.0  distance and # of slots for P.C.
   PSTRESS=    0.0 pullay stress

  Mass of Ions in am
   POMASS =  30.97 28.09
  Ionic Valenz
   ZVAL   =   5.00  4.00
  Atomic Wigner-Seitz radii
   RWIGS  =  -1.00 -1.00
  virtual crystal weights 
   VCA    =   1.00  1.00
   NELECT =     108.0000    total number of electrons
   NUPDOWN=      -1.0000    fix difference up-down

 DOS related values:
   EMIN   =  10.00;   EMAX   =-10.00  energy-range for DOS
   EFERMI =   0.00
   ISMEAR =     0;   SIGMA  =   0.10  broadening in eV -4-tet -1-fermi 0-gaus

 Electronic relaxation 2 (details)
   IALGO  =     38    algorithm
   LDIAG  =      T    sub-space diagonalisation (order eigenvalues)
   LSUBROT=      F    optimize rotation matrix (better conditioning)
   TURBO    =      0    0=normal 1=particle mesh
   IRESTART =      0    0=no restart 2=restart with 2 vectors
   NREBOOT  =      0    no. of reboots
   NMIN     =      0    reboot dimension
   EREF     =   0.00    reference energy to select bands
   IMIX   =      4    mixing-type and parameters
     AMIX     =   0.40;   BMIX     =  1.00
     AMIX_MAG =   1.60;   BMIX_MAG =  1.00
     AMIN     =   0.10
     WC   =   100.;   INIMIX=   1;  MIXPRE=   1;  MAXMIX= -45

 Intra band minimization:
   WEIMIN = 0.0000     energy-eigenvalue tresh-hold
   EBREAK =  0.37E-08  absolut break condition
   DEPER  =   0.30     relativ break condition  

   TIME   =   0.40     timestep for ELM

  volume/ion in A,a.u.               =      41.76       281.83
  Fermi-wavevector in a.u.,A,eV,Ry     =   0.779018  1.472130  8.256946  0.606868
  Thomas-Fermi vector in A             =   1.882034
 
 Write flags
   LWAVE  =      F    write WAVECAR
   LCHARG =      F    write CHGCAR
   LVTOT  =      F    write LOCPOT, total local potential
   LVHAR  =      F    write LOCPOT, Hartree potential only
   LELF   =      F    write electronic localiz. function (ELF)
   LORBIT =      0    0 simple, 1 ext, 2 COOP (PROOUT)


 Dipole corrections
   LMONO  =      F    monopole corrections only (constant potential shift)
   LDIPOL =      F    correct potential (dipole corrections)
   IDIPOL =      0    1-x, 2-y, 3-z, 4-all directions 
   EPSILON=  1.0000000 bulk dielectric constant

 Exchange correlation treatment:
   GGA     =    BO    GGA type
   LEXCH   =    42    internal setting for exchange type
   VOSKOWN=      0    Vosko Wilk Nusair interpolation
   LHFCALC =     F    Hartree Fock is set to
   LHFONE  =     F    Hartree Fock one center treatment
   AEXX    =    0.0000 exact exchange contribution

 vdW DFT:
   LUSE_VDW   =     T    switch on vdW DFT
   Zab_VDW    =-.8491    correlation parameter
   PARAM1     =0.1833
   PARAM2     =0.2200
   PARAM3     =0.0000

 Linear response parameters
   LEPSILON=     F    determine dielectric tensor
   LRPA    =     F    only Hartree local field effects (RPA)
   LNABLA  =     F    use nabla operator in PAW spheres
   LVEL    =     F    velocity operator in full k-point grid
   LINTERFAST=   F  fast interpolation
   KINTER  =     0    interpolate to denser k-point grid
   CSHIFT  =0.1000    complex shift for real part using Kramers Kronig
   OMEGAMAX=  -1.0    maximum frequency
   DEG_THRESHOLD= 0.2000000E-02 threshold for treating states as degnerate
   RTIME   =    0.100 relaxation time in fs

 Orbital magnetization related:
   ORBITALMAG=     F  switch on orbital magnetization
   LCHIMAG   =     F  perturbation theory with respect to B field
   DQ        =  0.001000  dq finite difference perturbation B field



--------------------------------------------------------------------------------------------------------


 Static calculation
 charge density and potential will be updated during run
 non-spin polarized calculation
 Variant of blocked Davidson
 Davidson routine will perform the subspace rotation
 perform sub-space diagonalisation
    after iterative eigenvector-optimisation
 modified Broyden-mixing scheme, WC =      100.0
 initial mixing is a Kerker type mixing with AMIX =  0.4000 and BMIX =      1.0000
 Hartree-type preconditioning will be used
 using additional bands           14
 real space projection scheme for non local part
 use partial core corrections
 calculate Harris-corrections to forces 
   (improved forces if not selfconsistent)
 use gradient corrections 
 use of overlap-Matrix (Vanderbilt PP)
 Gauss-broadening in eV      SIGMA  =   0.10


--------------------------------------------------------------------------------------------------------


  energy-cutoff  :      300.00
  volume of cell :     1002.32
      direct lattice vectors                 reciprocal lattice vectors
     3.540400000  0.000000000  0.000000000     0.282453960  0.048570342  0.000000000
    -1.770200000 10.294348000  0.000000000     0.000000000  0.097140683  0.000000000
     0.000000000  0.000000000 27.501429000     0.000000000  0.000000000  0.036361747

  length of vectors
     3.540400000 10.445439617 27.501429000     0.286599577  0.097140683  0.036361747


 
 k-points in units of 2pi/SCALE and weight: pymatgen generated KPOINTS with grid den
   0.00000000  0.00000000  0.00000000       0.010
   0.02172723  0.00373618  0.00000000       0.019
   0.04345446  0.00747236  0.00000000       0.019
   0.06518168  0.01120854  0.00000000       0.019
   0.08690891  0.01494472  0.00000000       0.019
   0.10863614  0.01868090  0.00000000       0.019
   0.13036337  0.02241708  0.00000000       0.019
   0.00000000  0.02428517  0.00000000       0.019
   0.02172723  0.02802135  0.00000000       0.019
   0.04345446  0.03175753  0.00000000       0.019
   0.06518168  0.03549371  0.00000000       0.019
   0.08690891  0.03922989  0.00000000       0.019
   0.10863614  0.04296607  0.00000000       0.019
   0.13036337  0.04670225  0.00000000       0.019
  -0.13036337  0.00186809  0.00000000       0.019
  -0.10863614  0.00560427  0.00000000       0.019
  -0.08690891  0.00934045  0.00000000       0.019
  -0.06518168  0.01307663  0.00000000       0.019
  -0.04345446  0.01681281  0.00000000       0.019
  -0.02172723  0.02054899  0.00000000       0.019
   0.00000000  0.04857034  0.00000000       0.010
   0.02172723  0.05230652  0.00000000       0.019
   0.04345446  0.05604270  0.00000000       0.019
   0.06518168  0.05977888  0.00000000       0.019
   0.08690891  0.06351506  0.00000000       0.019
   0.10863614  0.06725124  0.00000000       0.019
   0.13036337  0.07098742  0.00000000       0.019
   0.00000000  0.00000000  0.01818087       0.010
   0.02172723  0.00373618  0.01818087       0.019
   0.04345446  0.00747236  0.01818087       0.019
   0.06518168  0.01120854  0.01818087       0.019
   0.08690891  0.01494472  0.01818087       0.019
   0.10863614  0.01868090  0.01818087       0.019
   0.13036337  0.02241708  0.01818087       0.019
   0.00000000  0.02428517  0.01818087       0.019
   0.02172723  0.02802135  0.01818087       0.019
   0.04345446  0.03175753  0.01818087       0.019
   0.06518168  0.03549371  0.01818087       0.019
   0.08690891  0.03922989  0.01818087       0.019
   0.10863614  0.04296607  0.01818087       0.019
   0.13036337  0.04670225  0.01818087       0.019
  -0.13036337  0.00186809  0.01818087       0.019
  -0.10863614  0.00560427  0.01818087       0.019
  -0.08690891  0.00934045  0.01818087       0.019
  -0.06518168  0.01307663  0.01818087       0.019
  -0.04345446  0.01681281  0.01818087       0.019
  -0.02172723  0.02054899  0.01818087       0.019
   0.00000000  0.04857034  0.01818087       0.010
   0.02172723  0.05230652  0.01818087       0.019
   0.04345446  0.05604270  0.01818087       0.019
   0.06518168  0.05977888  0.01818087       0.019
   0.08690891  0.06351506  0.01818087       0.019
   0.10863614  0.06725124  0.01818087       0.019
   0.13036337  0.07098742  0.01818087       0.019
 
 k-points in reciprocal lattice and weights: pymatgen generated KPOINTS with grid den
   0.00000000  0.00000000  0.00000000       0.010
   0.07692308 -0.00000000  0.00000000       0.019
   0.15384615 -0.00000000  0.00000000       0.019
   0.23076923 -0.00000000  0.00000000       0.019
   0.30769231 -0.00000000  0.00000000       0.019
   0.38461538 -0.00000000  0.00000000       0.019
   0.46153846 -0.00000000  0.00000000       0.019
   0.00000000  0.25000000  0.00000000       0.019
   0.07692308  0.25000000  0.00000000       0.019
   0.15384615  0.25000000  0.00000000       0.019
   0.23076923  0.25000000  0.00000000       0.019
   0.30769231  0.25000000  0.00000000       0.019
   0.38461538  0.25000000  0.00000000       0.019
   0.46153846  0.25000000  0.00000000       0.019
  -0.46153846  0.25000000  0.00000000       0.019
  -0.38461538  0.25000000  0.00000000       0.019
  -0.30769231  0.25000000  0.00000000       0.019
  -0.23076923  0.25000000  0.00000000       0.019
  -0.15384615  0.25000000  0.00000000       0.019
  -0.07692308  0.25000000  0.00000000       0.019
   0.00000000  0.50000000  0.00000000       0.010
   0.07692308  0.50000000  0.00000000       0.019
   0.15384615  0.50000000  0.00000000       0.019
   0.23076923  0.50000000  0.00000000       0.019
   0.30769231  0.50000000  0.00000000       0.019
   0.38461538  0.50000000  0.00000000       0.019
   0.46153846  0.50000000  0.00000000       0.019
   0.00000000  0.00000000  0.50000000       0.010
   0.07692308 -0.00000000  0.50000000       0.019
   0.15384615 -0.00000000  0.50000000       0.019
   0.23076923 -0.00000000  0.50000000       0.019
   0.30769231 -0.00000000  0.50000000       0.019
   0.38461538 -0.00000000  0.50000000       0.019
   0.46153846 -0.00000000  0.50000000       0.019
   0.00000000  0.25000000  0.50000000       0.019
   0.07692308  0.25000000  0.50000000       0.019
   0.15384615  0.25000000  0.50000000       0.019
   0.23076923  0.25000000  0.50000000       0.019
   0.30769231  0.25000000  0.50000000       0.019
   0.38461538  0.25000000  0.50000000       0.019
   0.46153846  0.25000000  0.50000000       0.019
  -0.46153846  0.25000000  0.50000000       0.019
  -0.38461538  0.25000000  0.50000000       0.019
  -0.30769231  0.25000000  0.50000000       0.019
  -0.23076923  0.25000000  0.50000000       0.019
  -0.15384615  0.25000000  0.50000000       0.019
  -0.07692308  0.25000000  0.50000000       0.019
   0.00000000  0.50000000  0.50000000       0.010
   0.07692308  0.50000000  0.50000000       0.019
   0.15384615  0.50000000  0.50000000       0.019
   0.23076923  0.50000000  0.50000000       0.019
   0.30769231  0.50000000  0.50000000       0.019
   0.38461538  0.50000000  0.50000000       0.019
   0.46153846  0.50000000  0.50000000       0.019
 
 position of ions in fractional coordinates (direct lattice) 
   0.11402300  0.22804500  0.23316207
   0.31402300  0.32804500  0.51499159
   0.45808900  0.91617900  0.20939482
   0.65808900  0.01617900  0.49122434
   0.31085400  0.62170900  0.08414979
   0.31085400  0.62170900  0.36597930
   0.99923000  0.99846000  0.08631254
   0.99923000  0.99846000  0.36814206
   0.65492700  0.30985400  0.06041748
   0.65492700  0.30985400  0.34224700
   0.76973800  0.53947500  0.20725292
   0.96973800  0.63947500  0.48908244
   0.93971600  0.87943300  0.15783749
   0.13971600  0.97943300  0.43966701
   0.20515200  0.41030300  0.18578822
   0.40515200  0.51030300  0.46761774
   0.20184900  0.40369900  0.09969156
   0.20184900  0.40369900  0.38152107
   0.56380500  0.12761000  0.10779021
   0.56380500  0.12761000  0.38961973
   0.56710600  0.13421200  0.19387616
   0.76710600  0.23421200  0.47570568
   0.82923400  0.65846800  0.13571444
   0.02923400  0.75846800  0.41754396
 
 position of ions in cartesian coordinates  (Angst):
   0.00000177  2.34757459  6.41229012
   0.53106177  3.37700939 14.16300462
  -0.00000177  9.43146546  5.75865686
   2.30125823  0.16655226 13.50937136
  -0.00000177  6.40008880  2.31423934
  -0.00000177  6.40008880 10.06495384
   1.77020000 10.27849470  2.37371832
   1.77020000 10.27849470 10.12443282
   1.77020000  3.18974491  1.66156717
   1.77020000  3.18974491  9.41228167
   1.77020177  5.55354339  5.69975143
   2.30126177  6.58297819 13.45046593
   1.77019823  9.05318934  4.34075665
  -1.23914177 10.08262414 12.09147115
   0.00000177  4.22380187  5.10944151
   0.53106177  5.25323667 12.86015601
  -0.00000177  4.15581799  2.74166024
  -0.00000177  4.15581799 10.49237474
   1.77020000  1.31366175  2.96438477
   1.77020000  1.31366175 10.71509927
   1.77020000  1.38162503  5.33187152
   2.30126000  2.41105983 13.08258602
   1.77020000  6.77849874  3.73234107
  -1.23914000  7.80793354 11.48305557
 


--------------------------------------------------------------------------------------------------------


 k-point  1 :   0.0000 0.0000 0.0000  plane waves:   11717
 k-point  2 :   0.0769-0.0000 0.0000  plane waves:   11762
 k-point  3 :   0.1538-0.0000 0.0000  plane waves:   11805
 k-point  4 :   0.2308-0.0000 0.0000  plane waves:   11824
 k-point  5 :   0.3077-0.0000 0.0000  plane waves:   11875
 k-point  6 :   0.3846-0.0000 0.0000  plane waves:   11864
 k-point  7 :   0.4615-0.0000 0.0000  plane waves:   11883
 k-point  8 :   0.0000 0.2500 0.0000  plane waves:   11683
 k-point  9 :   0.0769 0.2500 0.0000  plane waves:   11756
 k-point 10 :   0.1538 0.2500 0.0000  plane waves:   11807
 k-point 11 :   0.2308 0.2500 0.0000  plane waves:   11853
 k-point 12 :   0.3077 0.2500 0.0000  plane waves:   11866
 k-point 13 :   0.3846 0.2500 0.0000  plane waves:   11889
 k-point 14 :   0.4615 0.2500 0.0000  plane waves:   11885
 k-point 15 :  -0.4615 0.2500 0.0000  plane waves:   11886
 k-point 16 :  -0.3846 0.2500 0.0000  plane waves:   11867
 k-point 17 :  -0.3077 0.2500 0.0000  plane waves:   11849
 k-point 18 :  -0.2308 0.2500 0.0000  plane waves:   11827
 k-point 19 :  -0.1538 0.2500 0.0000  plane waves:   11801
 k-point 20 :  -0.0769 0.2500 0.0000  plane waves:   11757
 k-point 21 :   0.0000 0.5000 0.0000  plane waves:   11710
 k-point 22 :   0.0769 0.5000 0.0000  plane waves:   11762
 k-point 23 :   0.1538 0.5000 0.0000  plane waves:   11782
 k-point 24 :   0.2308 0.5000 0.0000  plane waves:   11841
 k-point 25 :   0.3077 0.5000 0.0000  plane waves:   11876
 k-point 26 :   0.3846 0.5000 0.0000  plane waves:   11889
 k-point 27 :   0.4615 0.5000 0.0000  plane waves:   11881
 k-point 28 :   0.0000 0.0000 0.5000  plane waves:   11698
 k-point 29 :   0.0769-0.0000 0.5000  plane waves:   11752
 k-point 30 :   0.1538-0.0000 0.5000  plane waves:   11800
 k-point 31 :   0.2308-0.0000 0.5000  plane waves:   11834
 k-point 32 :   0.3077-0.0000 0.5000  plane waves:   11850
 k-point 33 :   0.3846-0.0000 0.5000  plane waves:   11888
 k-point 34 :   0.4615-0.0000 0.5000  plane waves:   11896
 k-point 35 :   0.0000 0.2500 0.5000  plane waves:   11714
 k-point 36 :   0.0769 0.2500 0.5000  plane waves:   11754
 k-point 37 :   0.1538 0.2500 0.5000  plane waves:   11802
 k-point 38 :   0.2308 0.2500 0.5000  plane waves:   11840
 k-point 39 :   0.3077 0.2500 0.5000  plane waves:   11858
 k-point 40 :   0.3846 0.2500 0.5000  plane waves:   11896
 k-point 41 :   0.4615 0.2500 0.5000  plane waves:   11886
 k-point 42 :  -0.4615 0.2500 0.5000  plane waves:   11852
 k-point 43 :  -0.3846 0.2500 0.5000  plane waves:   11838
 k-point 44 :  -0.3077 0.2500 0.5000  plane waves:   11842
 k-point 45 :  -0.2308 0.2500 0.5000  plane waves:   11840
 k-point 46 :  -0.1538 0.2500 0.5000  plane waves:   11804
 k-point 47 :  -0.0769 0.2500 0.5000  plane waves:   11748
 k-point 48 :   0.0000 0.5000 0.5000  plane waves:   11724
 k-point 49 :   0.0769 0.5000 0.5000  plane waves:   11748
 k-point 50 :   0.1538 0.5000 0.5000  plane waves:   11814
 k-point 51 :   0.2308 0.5000 0.5000  plane waves:   11832
 k-point 52 :   0.3077 0.5000 0.5000  plane waves:   11868
 k-point 53 :   0.3846 0.5000 0.5000  plane waves:   11892
 k-point 54 :   0.4615 0.5000 0.5000  plane waves:   11878

 maximum and minimum number of plane-waves per node :      5964     5832

 maximum number of plane-waves:     11896
 maximum index in each direction: 
   IXMAX=    5   IYMAX=   14   IZMAX=   38
   IXMIN=   -5   IYMIN=  -15   IZMIN=  -39

 WARNING: aliasing errors must be expected set NGX to  22 to avoid them
 NGY is ok and might be reduce to  60
 NGZ is ok and might be reduce to 156
 aliasing errors are usually negligible using standard VASP settings
 and one can safely disregard these warnings

 real space projection operators:
  total allocation   :       3793.25 KBytes
  max/ min on nodes  :       1899.38       1893.88


 parallel 3D FFT for wavefunctions:
    minimum data exchange during FFTs selected (reduces bandwidth)
 parallel 3D FFT for charge:
    minimum data exchange during FFTs selected (reduces bandwidth)


 total amount of memory used by VASP on root node   146493. kBytes
========================================================================

   base      :      30000. kBytes
   nonlr-proj:       3452. kBytes
   fftplans  :       9347. kBytes
   grid      :      14649. kBytes
   one-center:         36. kBytes
   wavefun   :      89009. kBytes
 
     INWAV:  cpu time    0.00: real time    0.00
 Broyden mixing: mesh for mixing (old mesh)
   NGX =  9   NGY = 29   NGZ = 77
  (NGX  = 40   NGY  =120   NGZ  =320)
  gives a total of  20097 points

 initial charge density was supplied:
 charge density of overlapping atoms calculated
 number of electron     108.0000000 magnetization 
 keeping initial charge density in first step


--------------------------------------------------------------------------------------------------------


 Maximum index for non-local projection operator         1333
 Maximum index for augmentation-charges          822 (set IRDMAX)


--------------------------------------------------------------------------------------------------------


 First call to EWALD:  gamma=   0.177
 Maximum number of real-space cells 7x 3x 1
 Maximum number of reciprocal cells 1x 3x 7

 FEWALD executed in parallel
    FEWALD:  cpu time    0.00: real time    0.00


----------------------------------------- Iteration    1(   1)  ---------------------------------------


vdW kernel read from vdw_kernel.bindat
  0.0000  0.2424  0.5071  0.7962  1.1119  1.4567  1.8333  2.2446  2.6937  3.1842
  3.7199  4.3049  4.9438  5.6415  6.4036  7.2358  8.1446  9.1372 10.2212 11.4050
 12.6979 14.1099 15.6519 17.3360 19.1751 21.1837 23.3773 25.7729 28.3892 31.2465
 34.3669 37.7748 41.4965 45.5611 50.0000
 
    POTLOK:  cpu time   16.42: real time   16.49
    SETDIJ:  cpu time    0.01: real time    0.01
     EDDAV:  cpu time   77.87: real time   78.28
       DOS:  cpu time    0.01: real time    0.01
    --------------------------------------------
      LOOP:  cpu time   94.31: real time   94.80

 eigenvalue-minimisations  :  7360
 total energy-change (2. order) : 0.4843400E+03  (-0.2861202E+04)
 number of electron     108.0000000 magnetization 
 augmentation part      108.0000000 magnetization 

 Free energy of the ion-electron system (eV)
  ---------------------------------------------------
  alpha Z        PSCENC =        36.80884744
  Ewald energy   TEWEN  =     11893.31994763
  -Hartree energ DENC   =    -14950.73891898
  -exchange      EXHF   =         0.00000000
  -V(xc)+E(xc)   XCENC  =       -88.23544097
  PAW double counting   =      1056.43050070     -732.41190547
  entropy T*S    EENTRO =        -0.04175710
  eigenvalues    EBANDS =       -84.83251485
  atomic energy  EATOM  =      3354.04126044
  ---------------------------------------------------
  free energy    TOTEN  =       484.34001885 eV

  energy without entropy =      484.38177595  energy(sigma->0) =      484.36089740


--------------------------------------------------------------------------------------------------------




----------------------------------------- Iteration    1(   2)  ---------------------------------------


     EDDAV:  cpu time   97.20: real time   97.77
       DOS:  cpu time    0.01: real time    0.01
    --------------------------------------------
      LOOP:  cpu time   97.22: real time   97.78

 eigenvalue-minimisations  :  9764
 total energy-change (2. order) :-0.5548821E+03  (-0.5401868E+03)
 number of electron     108.0000000 magnetization 
 augmentation part      108.0000000 magnetization 

 Free energy of the ion-electron system (eV)
  ---------------------------------------------------
  alpha Z        PSCENC =        36.80884744
  Ewald energy   TEWEN  =     11893.31994763
  -Hartree energ DENC   =    -14950.73891898
  -exchange      EXHF   =         0.00000000
  -V(xc)+E(xc)   XCENC  =       -88.23544097
  PAW double counting   =      1056.43050070     -732.41190547
  entropy T*S    EENTRO =        -0.01747132
  eigenvalues    EBANDS =      -639.73887797
  atomic energy  EATOM  =      3354.04126044
  ---------------------------------------------------
  free energy    TOTEN  =       -70.54205850 eV

  energy without entropy =      -70.52458718  energy(sigma->0) =      -70.53332284


--------------------------------------------------------------------------------------------------------




----------------------------------------- Iteration    1(   3)  ---------------------------------------


     EDDAV:  cpu time   90.08: real time   90.44
       DOS:  cpu time    0.01: real time    0.01
    --------------------------------------------
      LOOP:  cpu time   90.10: real time   90.45

 eigenvalue-minimisations  :  8868
 total energy-change (2. order) :-0.5509478E+02  (-0.5434667E+02)
 number of electron     108.0000000 magnetization 
 augmentation part      108.0000000 magnetization 

 Free energy of the ion-electron system (eV)
  ---------------------------------------------------
  alpha Z        PSCENC =        36.80884744
  Ewald energy   TEWEN  =     11893.31994763
  -Hartree energ DENC   =    -14950.73891898
  -exchange      EXHF   =         0.00000000
  -V(xc)+E(xc)   XCENC  =       -88.23544097
  PAW double counting   =      1056.43050070     -732.41190547
  entropy T*S    EENTRO =        -0.02449163
  eigenvalues    EBANDS =      -694.82664219
  atomic energy  EATOM  =      3354.04126044
  ---------------------------------------------------
  free energy    TOTEN  =      -125.63684301 eV

  energy without entropy =     -125.61235139  energy(sigma->0) =     -125.62459720


--------------------------------------------------------------------------------------------------------




----------------------------------------- Iteration    1(   4)  ---------------------------------------


     EDDAV:  cpu time  106.43: real time  106.97
       DOS:  cpu time    0.01: real time    0.01
    --------------------------------------------
      LOOP:  cpu time  106.44: real time  106.98

 eigenvalue-minimisations  : 10904
 total energy-change (2. order) :-0.2410223E+01  (-0.2395741E+01)
 number of electron     108.0000000 magnetization 
 augmentation part      108.0000000 magnetization 

 Free energy of the ion-electron system (eV)
  ---------------------------------------------------
  alpha Z        PSCENC =        36.80884744
  Ewald energy   TEWEN  =     11893.31994763
  -Hartree energ DENC   =    -14950.73891898
  -exchange      EXHF   =         0.00000000
  -V(xc)+E(xc)   XCENC  =       -88.23544097
  PAW double counting   =      1056.43050070     -732.41190547
  entropy T*S    EENTRO =        -0.02505640
  eigenvalues    EBANDS =      -697.23630080
  atomic energy  EATOM  =      3354.04126044
  ---------------------------------------------------
  free energy    TOTEN  =      -128.04706641 eV

  energy without entropy =     -128.02201001  energy(sigma->0) =     -128.03453821


--------------------------------------------------------------------------------------------------------




----------------------------------------- Iteration    1(   5)  ---------------------------------------


     EDDAV:  cpu time   99.86: real time  100.26
       DOS:  cpu time    0.01: real time    0.01
    CHARGE:  cpu time    5.11: real time    5.12
    MIXING:  cpu time    0.01: real time    0.01
    --------------------------------------------
      LOOP:  cpu time  105.00: real time  105.41

 eigenvalue-minimisations  : 10056
 total energy-change (2. order) :-0.5758988E-01  (-0.5752985E-01)
 number of electron     107.9999995 magnetization 
 augmentation part       -9.5276133 magnetization 

 Broyden mixing:
  rms(total) = 0.98145E+00    rms(broyden)= 0.98124E+00
  rms(prec ) = 0.10373E+01
  weight for this iteration     100.00

 Free energy of the ion-electron system (eV)
  ---------------------------------------------------
  alpha Z        PSCENC =        36.80884744
  Ewald energy   TEWEN  =     11893.31994763
  -Hartree energ DENC   =    -14950.73891898
  -exchange      EXHF   =         0.00000000
  -V(xc)+E(xc)   XCENC  =       -88.23544097
  PAW double counting   =      1056.43050070     -732.41190547
  entropy T*S    EENTRO =        -0.02510673
  eigenvalues    EBANDS =      -697.29384035
  atomic energy  EATOM  =      3354.04126044
  ---------------------------------------------------
  free energy    TOTEN  =      -128.10465629 eV

  energy without entropy =     -128.07954956  energy(sigma->0) =     -128.09210292


--------------------------------------------------------------------------------------------------------




----------------------------------------- Iteration    1(   6)  ---------------------------------------


    POTLOK:  cpu time   14.91: real time   14.98
    SETDIJ:  cpu time    0.01: real time    0.01
     EDDAV:  cpu time   89.56: real time   89.91
       DOS:  cpu time    0.01: real time    0.01
    CHARGE:  cpu time    5.06: real time    5.07
    MIXING:  cpu time    0.01: real time    0.01
    --------------------------------------------
      LOOP:  cpu time  109.57: real time  110.00

 eigenvalue-minimisations  :  8776
 total energy-change (2. order) : 0.1726015E+01  (-0.3316742E+00)
 number of electron     107.9999995 magnetization 
 augmentation part       -9.3929942 magnetization 

 Broyden mixing:
  rms(total) = 0.55215E+00    rms(broyden)= 0.55213E+00
  rms(prec ) = 0.57934E+00
  weight for this iteration     100.00

 eigenvalues of (default mixing * dielectric matrix)
  average eigenvalue GAMMA=   2.0556
  2.0556

 Free energy of the ion-electron system (eV)
  ---------------------------------------------------
  alpha Z        PSCENC =        36.80884744
  Ewald energy   TEWEN  =     11893.31994763
  -Hartree energ DENC   =    -14982.35306391
  -exchange      EXHF   =         0.00000000
  -V(xc)+E(xc)   XCENC  =       -85.17560498
  PAW double counting   =      1113.88136958     -791.39163612
  entropy T*S    EENTRO =        -0.03269075
  eigenvalues    EBANDS =      -665.47707028
  atomic energy  EATOM  =      3354.04126044
  ---------------------------------------------------
  free energy    TOTEN  =      -126.37864094 eV

  energy without entropy =     -126.34595019  energy(sigma->0) =     -126.36229557


--------------------------------------------------------------------------------------------------------




----------------------------------------- Iteration    1(   7)  ---------------------------------------


    POTLOK:  cpu time   14.87: real time   14.95
    SETDIJ:  cpu time    0.01: real time    0.01
     EDDAV:  cpu time   88.80: real time   89.28
       DOS:  cpu time    0.01: real time    0.01
    CHARGE:  cpu time    5.18: real time    5.18
    MIXING:  cpu time    0.01: real time    0.01
    --------------------------------------------
      LOOP:  cpu time  108.89: real time  109.45

 eigenvalue-minimisations  :  8680
 total energy-change (2. order) : 0.2452443E+00  (-0.2665716E+00)
 number of electron     107.9999995 magnetization 
 augmentation part       -9.2581250 magnetization 

 Broyden mixing:
  rms(total) = 0.14430E+00    rms(broyden)= 0.14428E+00
  rms(prec ) = 0.15098E+00
  weight for this iteration     100.00

 eigenvalues of (default mixing * dielectric matrix)
  average eigenvalue GAMMA=   1.9044
  1.4349  2.3740

 Free energy of the ion-electron system (eV)
  ---------------------------------------------------
  alpha Z        PSCENC =        36.80884744
  Ewald energy   TEWEN  =     11893.31994763
  -Hartree energ DENC   =    -15021.23764350
  -exchange      EXHF   =         0.00000000
  -V(xc)+E(xc)   XCENC  =       -81.61001702
  PAW double counting   =      1163.48366053     -842.37173534
  entropy T*S    EENTRO =        -0.03550522
  eigenvalues    EBANDS =      -628.53221162
  atomic energy  EATOM  =      3354.04126044
  ---------------------------------------------------
  free energy    TOTEN  =      -126.13339664 eV

  energy without entropy =     -126.09789142  energy(sigma->0) =     -126.11564403


--------------------------------------------------------------------------------------------------------




----------------------------------------- Iteration    1(   8)  ---------------------------------------


    POTLOK:  cpu time   14.91: real time   15.00
    SETDIJ:  cpu time    0.01: real time    0.01
     EDDAV:  cpu time   91.47: real time   91.75
       DOS:  cpu time    0.01: real time    0.01
    CHARGE:  cpu time    5.18: real time    5.20
    MIXING:  cpu time    0.02: real time    0.02
    --------------------------------------------
      LOOP:  cpu time  111.61: real time  111.99

 eigenvalue-minimisations  :  8976
 total energy-change (2. order) : 0.1960276E-01  (-0.3015243E-01)
 number of electron     107.9999995 magnetization 
 augmentation part       -9.2795875 magnetization 

 Broyden mixing:
  rms(total) = 0.48153E-01    rms(broyden)= 0.48147E-01
  rms(prec ) = 0.51449E-01
  weight for this iteration     100.00

 eigenvalues of (default mixing * dielectric matrix)
  average eigenvalue GAMMA=   1.7578
  2.6146  1.0764  1.5824

 Free energy of the ion-electron system (eV)
  ---------------------------------------------------
  alpha Z        PSCENC =        36.80884744
  Ewald energy   TEWEN  =     11893.31994763
  -Hartree energ DENC   =    -15025.99688423
  -exchange      EXHF   =         0.00000000
  -V(xc)+E(xc)   XCENC  =       -81.01503910
  PAW double counting   =      1158.90381795     -837.69775851
  entropy T*S    EENTRO =        -0.03423429
  eigenvalues    EBANDS =      -624.44375122
  atomic energy  EATOM  =      3354.04126044
  ---------------------------------------------------
  free energy    TOTEN  =      -126.11379388 eV

  energy without entropy =     -126.07955959  energy(sigma->0) =     -126.09667674


--------------------------------------------------------------------------------------------------------




----------------------------------------- Iteration    1(   9)  ---------------------------------------


    POTLOK:  cpu time   14.90: real time   14.96
    SETDIJ:  cpu time    0.01: real time    0.01
     EDDAV:  cpu time   93.77: real time   94.17
       DOS:  cpu time    0.01: real time    0.01
    CHARGE:  cpu time    5.16: real time    5.16
    MIXING:  cpu time    0.02: real time    0.02
    --------------------------------------------
      LOOP:  cpu time  113.88: real time  114.34

 eigenvalue-minimisations  :  9280
 total energy-change (2. order) : 0.1510256E-01  (-0.4521900E-02)
 number of electron     107.9999995 magnetization 
 augmentation part       -9.2838508 magnetization 

 Broyden mixing:
  rms(total) = 0.19899E-01    rms(broyden)= 0.19897E-01
  rms(prec ) = 0.23142E-01
  weight for this iteration     100.00

 eigenvalues of (default mixing * dielectric matrix)
  average eigenvalue GAMMA=   1.6007
  2.6313  1.5942  1.3830  0.7945

 Free energy of the ion-electron system (eV)
  ---------------------------------------------------
  alpha Z        PSCENC =        36.80884744
  Ewald energy   TEWEN  =     11893.31994763
  -Hartree energ DENC   =    -15027.86238992
  -exchange      EXHF   =         0.00000000
  -V(xc)+E(xc)   XCENC  =       -80.80253653
  PAW double counting   =      1156.95448499     -835.69095879
  entropy T*S    EENTRO =        -0.03562516
  eigenvalues    EBANDS =      -622.83172145
  atomic energy  EATOM  =      3354.04126044
  ---------------------------------------------------
  free energy    TOTEN  =      -126.09869133 eV

  energy without entropy =     -126.06306617  energy(sigma->0) =     -126.08087875


--------------------------------------------------------------------------------------------------------




----------------------------------------- Iteration    1(  10)  ---------------------------------------


    POTLOK:  cpu time   14.98: real time   15.01
    SETDIJ:  cpu time    0.01: real time    0.01
     EDDAV:  cpu time   92.39: real time   92.82
       DOS:  cpu time    0.01: real time    0.01
    CHARGE:  cpu time    5.15: real time    5.17
    MIXING:  cpu time    0.01: real time    0.02
    --------------------------------------------
      LOOP:  cpu time  112.55: real time  113.04

 eigenvalue-minimisations  :  9096
 total energy-change (2. order) : 0.8670896E-02  (-0.9660436E-03)
 number of electron     107.9999995 magnetization 
 augmentation part       -9.2838156 magnetization 

 Broyden mixing:
  rms(total) = 0.98005E-02    rms(broyden)= 0.97992E-02
  rms(prec ) = 0.11437E-01
  weight for this iteration     100.00

 eigenvalues of (default mixing * dielectric matrix)
  average eigenvalue GAMMA=   1.5270
  2.6298  1.8547  1.4416  1.0581  0.6510

 Free energy of the ion-electron system (eV)
  ---------------------------------------------------
  alpha Z        PSCENC =        36.80884744
  Ewald energy   TEWEN  =     11893.31994763
  -Hartree energ DENC   =    -15029.37816038
  -exchange      EXHF   =         0.00000000
  -V(xc)+E(xc)   XCENC  =       -80.76635132
  PAW double counting   =      1156.10414216     -834.81211333
  entropy T*S    EENTRO =        -0.03447115
  eigenvalues    EBANDS =      -621.37312193
  atomic energy  EATOM  =      3354.04126044
  ---------------------------------------------------
  free energy    TOTEN  =      -126.09002043 eV

  energy without entropy =     -126.05554928  energy(sigma->0) =     -126.07278486


--------------------------------------------------------------------------------------------------------




----------------------------------------- Iteration    1(  11)  ---------------------------------------


    POTLOK:  cpu time   14.87: real time   14.95
    SETDIJ:  cpu time    0.01: real time    0.01
     EDDAV:  cpu time   89.76: real time   90.16
       DOS:  cpu time    0.01: real time    0.01
    CHARGE:  cpu time    5.14: real time    5.15
    MIXING:  cpu time    0.02: real time    0.02
    --------------------------------------------
      LOOP:  cpu time  109.81: real time  110.30

 eigenvalue-minimisations  :  8768
 total energy-change (2. order) : 0.6084564E-02  (-0.2255647E-03)
 number of electron     107.9999995 magnetization 
 augmentation part       -9.2832895 magnetization 

 Broyden mixing:
  rms(total) = 0.42708E-02    rms(broyden)= 0.42703E-02
  rms(prec ) = 0.56358E-02
  weight for this iteration     100.00

 eigenvalues of (default mixing * dielectric matrix)
  average eigenvalue GAMMA=   1.5030
  2.6829  2.0935  1.3468  1.3468  0.9300  0.6178

 Free energy of the ion-electron system (eV)
  ---------------------------------------------------
  alpha Z        PSCENC =        36.80884744
  Ewald energy   TEWEN  =     11893.31994763
  -Hartree energ DENC   =    -15030.33513905
  -exchange      EXHF   =         0.00000000
  -V(xc)+E(xc)   XCENC  =       -80.75590335
  PAW double counting   =      1155.25214076     -833.93516488
  entropy T*S    EENTRO =        -0.03485755
  eigenvalues    EBANDS =      -620.44506731
  atomic energy  EATOM  =      3354.04126044
  ---------------------------------------------------
  free energy    TOTEN  =      -126.08393587 eV

  energy without entropy =     -126.04907832  energy(sigma->0) =     -126.06650709


--------------------------------------------------------------------------------------------------------




----------------------------------------- Iteration    1(  12)  ---------------------------------------


    POTLOK:  cpu time   14.87: real time   15.02
    SETDIJ:  cpu time    0.01: real time    0.01
     EDDAV:  cpu time   92.00: real time   92.27
       DOS:  cpu time    0.01: real time    0.01
    CHARGE:  cpu time    5.14: real time    5.16
    MIXING:  cpu time    0.01: real time    0.01
    --------------------------------------------
      LOOP:  cpu time  112.05: real time  112.49

 eigenvalue-minimisations  :  9048
 total energy-change (2. order) : 0.3299340E-02  (-0.5233392E-04)
 number of electron     107.9999995 magnetization 
 augmentation part       -9.2829245 magnetization 

 Broyden mixing:
  rms(total) = 0.22440E-02    rms(broyden)= 0.22437E-02
  rms(prec ) = 0.34003E-02
  weight for this iteration     100.00

 eigenvalues of (default mixing * dielectric matrix)
  average eigenvalue GAMMA=   1.5141
  2.7423  2.1490  1.4451  1.4451  1.3253  0.8645  0.6272

 Free energy of the ion-electron system (eV)
  ---------------------------------------------------
  alpha Z        PSCENC =        36.80884744
  Ewald energy   TEWEN  =     11893.31994763
  -Hartree energ DENC   =    -15031.27927894
  -exchange      EXHF   =         0.00000000
  -V(xc)+E(xc)   XCENC  =       -80.75032282
  PAW double counting   =      1154.65926897     -833.32730390
  entropy T*S    EENTRO =        -0.03474343
  eigenvalues    EBANDS =      -619.51831193
  atomic energy  EATOM  =      3354.04126044
  ---------------------------------------------------
  free energy    TOTEN  =      -126.08063653 eV

  energy without entropy =     -126.04589310  energy(sigma->0) =     -126.06326481


--------------------------------------------------------------------------------------------------------




----------------------------------------- Iteration    1(  13)  ---------------------------------------


    POTLOK:  cpu time   14.87: real time   14.96
    SETDIJ:  cpu time    0.01: real time    0.01
     EDDAV:  cpu time   98.51: real time   98.99
       DOS:  cpu time    0.01: real time    0.01
    CHARGE:  cpu time    5.20: real time    5.20
    MIXING:  cpu time    0.02: real time    0.02
    --------------------------------------------
      LOOP:  cpu time  118.62: real time  119.20

 eigenvalue-minimisations  :  9864
 total energy-change (2. order) : 0.1731405E-02  (-0.1437326E-04)
 number of electron     107.9999995 magnetization 
 augmentation part       -9.2827660 magnetization 

 Broyden mixing:
  rms(total) = 0.12840E-02    rms(broyden)= 0.12839E-02
  rms(prec ) = 0.21981E-02
  weight for this iteration     100.00

 eigenvalues of (default mixing * dielectric matrix)
  average eigenvalue GAMMA=   1.5585
  2.9145  2.5535  1.7126  1.3412  1.3412  0.9854  0.9854  0.6341

 Free energy of the ion-electron system (eV)
  ---------------------------------------------------
  alpha Z        PSCENC =        36.80884744
  Ewald energy   TEWEN  =     11893.31994763
  -Hartree energ DENC   =    -15032.18313578
  -exchange      EXHF   =         0.00000000
  -V(xc)+E(xc)   XCENC  =       -80.74376577
  PAW double counting   =      1154.41576189     -833.07772926
  entropy T*S    EENTRO =        -0.03466973
  eigenvalues    EBANDS =      -618.62542198
  atomic energy  EATOM  =      3354.04126044
  ---------------------------------------------------
  free energy    TOTEN  =      -126.07890512 eV

  energy without entropy =     -126.04423539  energy(sigma->0) =     -126.06157025


--------------------------------------------------------------------------------------------------------




----------------------------------------- Iteration    1(  14)  ---------------------------------------


    POTLOK:  cpu time   14.82: real time   14.98
    SETDIJ:  cpu time    0.01: real time    0.01
     EDDAV:  cpu time   88.04: real time   88.33
       DOS:  cpu time    0.01: real time    0.01
    CHARGE:  cpu time    5.10: real time    5.11
    MIXING:  cpu time    0.02: real time    0.02
    --------------------------------------------
      LOOP:  cpu time  108.00: real time  108.47

 eigenvalue-minimisations  :  8560
 total energy-change (2. order) : 0.1005476E-02  (-0.5774860E-05)
 number of electron     107.9999995 magnetization 
 augmentation part       -9.2826350 magnetization 

 Broyden mixing:
  rms(total) = 0.73625E-03    rms(broyden)= 0.73622E-03
  rms(prec ) = 0.13638E-02
  weight for this iteration     100.00

 eigenvalues of (default mixing * dielectric matrix)
  average eigenvalue GAMMA=   1.5943
  3.1513  2.6004  1.7628  1.7628  1.2566  1.2566  1.0502  0.8726  0.6354

 Free energy of the ion-electron system (eV)
  ---------------------------------------------------
  alpha Z        PSCENC =        36.80884744
  Ewald energy   TEWEN  =     11893.31994763
  -Hartree energ DENC   =    -15033.02187135
  -exchange      EXHF   =         0.00000000
  -V(xc)+E(xc)   XCENC  =       -80.73845613
  PAW double counting   =      1154.26575539     -832.92383981
  entropy T*S    EENTRO =        -0.03470464
  eigenvalues    EBANDS =      -617.79483863
  atomic energy  EATOM  =      3354.04126044
  ---------------------------------------------------
  free energy    TOTEN  =      -126.07789964 eV

  energy without entropy =     -126.04319500  energy(sigma->0) =     -126.06054732


--------------------------------------------------------------------------------------------------------




----------------------------------------- Iteration    1(  15)  ---------------------------------------


    POTLOK:  cpu time   14.95: real time   14.99
    SETDIJ:  cpu time    0.01: real time    0.01
     EDDAV:  cpu time   85.19: real time   85.64
       DOS:  cpu time    0.01: real time    0.01
    CHARGE:  cpu time    5.11: real time    5.13
    MIXING:  cpu time    0.02: real time    0.02
    --------------------------------------------
      LOOP:  cpu time  105.29: real time  105.80

 eigenvalue-minimisations  :  8184
 total energy-change (2. order) :-0.2125909E-03  (-0.4885863E-05)
 number of electron     107.9999995 magnetization 
 augmentation part       -9.2825247 magnetization 

 Broyden mixing:
  rms(total) = 0.45922E-03    rms(broyden)= 0.45920E-03
  rms(prec ) = 0.82899E-03
  weight for this iteration     100.00

 eigenvalues of (default mixing * dielectric matrix)
  average eigenvalue GAMMA=   1.7315
  4.2471  2.7240  2.3723  1.6992  1.2764  1.2764  0.6355  1.1652  0.9595  0.9595

 Free energy of the ion-electron system (eV)
  ---------------------------------------------------
  alpha Z        PSCENC =        36.80884744
  Ewald energy   TEWEN  =     11893.31994763
  -Hartree energ DENC   =    -15033.68490198
  -exchange      EXHF   =         0.00000000
  -V(xc)+E(xc)   XCENC  =       -80.73453918
  PAW double counting   =      1154.25625393     -832.91424806
  entropy T*S    EENTRO =        -0.03467733
  eigenvalues    EBANDS =      -617.13605513
  atomic energy  EATOM  =      3354.04126044
  ---------------------------------------------------
  free energy    TOTEN  =      -126.07811224 eV

  energy without entropy =     -126.04343491  energy(sigma->0) =     -126.06077357


--------------------------------------------------------------------------------------------------------




----------------------------------------- Iteration    1(  16)  ---------------------------------------


    POTLOK:  cpu time   14.94: real time   14.96
    SETDIJ:  cpu time    0.01: real time    0.01
     EDDAV:  cpu time   84.59: real time   84.92
       DOS:  cpu time    0.01: real time    0.01
    CHARGE:  cpu time    5.20: real time    5.20
    MIXING:  cpu time    0.02: real time    0.02
    --------------------------------------------
      LOOP:  cpu time  104.78: real time  105.14

 eigenvalue-minimisations  :  8116
 total energy-change (2. order) :-0.5834957E-03  (-0.1837094E-04)
 number of electron     107.9999995 magnetization 
 augmentation part       -9.2824313 magnetization 

 Broyden mixing:
  rms(total) = 0.24840E-03    rms(broyden)= 0.24838E-03
  rms(prec ) = 0.42797E-03
  weight for this iteration     100.00

 eigenvalues of (default mixing * dielectric matrix)
  average eigenvalue GAMMA=   1.8586
  5.4476  2.8454  2.4967  1.7316  1.7316  1.2964  1.2964  0.6355  1.0130  1.0130
  0.9372

 Free energy of the ion-electron system (eV)
  ---------------------------------------------------
  alpha Z        PSCENC =        36.80884744
  Ewald energy   TEWEN  =     11893.31994763
  -Hartree energ DENC   =    -15034.26157893
  -exchange      EXHF   =         0.00000000
  -V(xc)+E(xc)   XCENC  =       -80.73165718
  PAW double counting   =      1154.28630538     -832.94515654
  entropy T*S    EENTRO =        -0.03467806
  eigenvalues    EBANDS =      -616.56198591
  atomic energy  EATOM  =      3354.04126044
  ---------------------------------------------------
  free energy    TOTEN  =      -126.07869573 eV

  energy without entropy =     -126.04401767  energy(sigma->0) =     -126.06135670


--------------------------------------------------------------------------------------------------------




----------------------------------------- Iteration    1(  17)  ---------------------------------------


    POTLOK:  cpu time   14.98: real time   15.02
    SETDIJ:  cpu time    0.01: real time    0.01
     EDDAV:  cpu time   80.87: real time   81.23
       DOS:  cpu time    0.01: real time    0.01
    CHARGE:  cpu time    5.22: real time    5.23
    MIXING:  cpu time    0.02: real time    0.02
    --------------------------------------------
      LOOP:  cpu time  101.12: real time  101.53

 eigenvalue-minimisations  :  7632
 total energy-change (2. order) :-0.1576402E-03  (-0.7796462E-05)
 number of electron     107.9999995 magnetization 
 augmentation part       -9.2824126 magnetization 

 Broyden mixing:
  rms(total) = 0.14006E-03    rms(broyden)= 0.14005E-03
  rms(prec ) = 0.25556E-03
  weight for this iteration     100.00

 eigenvalues of (default mixing * dielectric matrix)
  average eigenvalue GAMMA=   1.9137
  6.2508  2.9113  2.6298  2.1201  1.5193  1.3278  1.3278  1.2826  0.6355  1.0181
  0.9949  0.9459

 Free energy of the ion-electron system (eV)
  ---------------------------------------------------
  alpha Z        PSCENC =        36.80884744
  Ewald energy   TEWEN  =     11893.31994763
  -Hartree energ DENC   =    -15034.51812216
  -exchange      EXHF   =         0.00000000
  -V(xc)+E(xc)   XCENC  =       -80.73070896
  PAW double counting   =      1154.30142188     -832.96052152
  entropy T*S    EENTRO =        -0.03467459
  eigenvalues    EBANDS =      -616.30630354
  atomic energy  EATOM  =      3354.04126044
  ---------------------------------------------------
  free energy    TOTEN  =      -126.07885337 eV

  energy without entropy =     -126.04417879  energy(sigma->0) =     -126.06151608


--------------------------------------------------------------------------------------------------------




----------------------------------------- Iteration    1(  18)  ---------------------------------------


    POTLOK:  cpu time   14.92: real time   14.99
    SETDIJ:  cpu time    0.01: real time    0.01
     EDDAV:  cpu time   69.39: real time   69.58
       DOS:  cpu time    0.01: real time    0.01
    CHARGE:  cpu time    5.19: real time    5.19
    MIXING:  cpu time    0.02: real time    0.02
    --------------------------------------------
      LOOP:  cpu time   89.55: real time   89.81

 eigenvalue-minimisations  :  6200
 total energy-change (2. order) :-0.1075147E-04  (-0.1414865E-05)
 number of electron     107.9999995 magnetization 
 augmentation part       -9.2824199 magnetization 

 Broyden mixing:
  rms(total) = 0.90588E-04    rms(broyden)= 0.90582E-04
  rms(prec ) = 0.16748E-03
  weight for this iteration     100.00

 eigenvalues of (default mixing * dielectric matrix)
  average eigenvalue GAMMA=   1.9475
  6.6503  3.0712  2.7306  2.1933  1.6820  1.6820  1.3153  1.3153  0.6355  1.1454
  0.9109  0.9929  0.9929

 Free energy of the ion-electron system (eV)
  ---------------------------------------------------
  alpha Z        PSCENC =        36.80884744
  Ewald energy   TEWEN  =     11893.31994763
  -Hartree energ DENC   =    -15034.62673892
  -exchange      EXHF   =         0.00000000
  -V(xc)+E(xc)   XCENC  =       -80.73038864
  PAW double counting   =      1154.29978276     -832.95874885
  entropy T*S    EENTRO =        -0.03467474
  eigenvalues    EBANDS =      -616.19815125
  atomic energy  EATOM  =      3354.04126044
  ---------------------------------------------------
  free energy    TOTEN  =      -126.07886412 eV

  energy without entropy =     -126.04418938  energy(sigma->0) =     -126.06152675


--------------------------------------------------------------------------------------------------------




----------------------------------------- Iteration    1(  19)  ---------------------------------------


    POTLOK:  cpu time   14.93: real time   15.00
    SETDIJ:  cpu time    0.01: real time    0.01
     EDDAV:  cpu time   75.98: real time   76.17
       DOS:  cpu time    0.01: real time    0.01
    CHARGE:  cpu time    5.08: real time    5.10
    MIXING:  cpu time    0.02: real time    0.02
    --------------------------------------------
      LOOP:  cpu time   96.04: real time   96.32

 eigenvalue-minimisations  :  7020
 total energy-change (2. order) :-0.3119211E-04  (-0.3158998E-05)
 number of electron     107.9999995 magnetization 
 augmentation part       -9.2824172 magnetization 

 Broyden mixing:
  rms(total) = 0.63937E-04    rms(broyden)= 0.63934E-04
  rms(prec ) = 0.10728E-03
  weight for this iteration     100.00

 eigenvalues of (default mixing * dielectric matrix)
  average eigenvalue GAMMA=   1.9957
  6.8982  3.6116  2.7225  2.5016  1.9889  1.3579  1.3579  1.4380  1.4380  0.6355
  1.1057  0.9249  0.9795  0.9795

 Free energy of the ion-electron system (eV)
  ---------------------------------------------------
  alpha Z        PSCENC =        36.80884744
  Ewald energy   TEWEN  =     11893.31994763
  -Hartree energ DENC   =    -15034.68286099
  -exchange      EXHF   =         0.00000000
  -V(xc)+E(xc)   XCENC  =       -80.73038140
  PAW double counting   =      1154.29722799     -832.95613382
  entropy T*S    EENTRO =        -0.03467527
  eigenvalues    EBANDS =      -616.14212735
  atomic energy  EATOM  =      3354.04126044
  ---------------------------------------------------
  free energy    TOTEN  =      -126.07889532 eV

  energy without entropy =     -126.04422005  energy(sigma->0) =     -126.06155768


--------------------------------------------------------------------------------------------------------




----------------------------------------- Iteration    1(  20)  ---------------------------------------


    POTLOK:  cpu time   14.88: real time   15.03
    SETDIJ:  cpu time    0.01: real time    0.01
     EDDAV:  cpu time   73.56: real time   73.91
       DOS:  cpu time    0.01: real time    0.01
    CHARGE:  cpu time    5.17: real time    5.23
    MIXING:  cpu time    0.02: real time    0.02
    --------------------------------------------
      LOOP:  cpu time   93.65: real time   94.21

 eigenvalue-minimisations  :  6720
 total energy-change (2. order) : 0.2925929E-04  (-0.2056323E-05)
 number of electron     107.9999995 magnetization 
 augmentation part       -9.2824176 magnetization 

 Broyden mixing:
  rms(total) = 0.36111E-04    rms(broyden)= 0.36110E-04
  rms(prec ) = 0.53748E-04
  weight for this iteration     100.00

 eigenvalues of (default mixing * dielectric matrix)
  average eigenvalue GAMMA=   2.1021
  7.1813  5.0526  2.9025  2.5847  1.9287  1.9287  1.3323  1.3323  1.3608  1.3608
  0.6355  1.0092  1.0092  0.9186  0.9937

 Free energy of the ion-electron system (eV)
  ---------------------------------------------------
  alpha Z        PSCENC =        36.80884744
  Ewald energy   TEWEN  =     11893.31994763
  -Hartree energ DENC   =    -15034.70340023
  -exchange      EXHF   =         0.00000000
  -V(xc)+E(xc)   XCENC  =       -80.73054093
  PAW double counting   =      1154.29518309     -832.95405730
  entropy T*S    EENTRO =        -0.03467576
  eigenvalues    EBANDS =      -616.12143044
  atomic energy  EATOM  =      3354.04126044
  ---------------------------------------------------
  free energy    TOTEN  =      -126.07886606 eV

  energy without entropy =     -126.04419030  energy(sigma->0) =     -126.06152818


--------------------------------------------------------------------------------------------------------




----------------------------------------- Iteration    1(  21)  ---------------------------------------


    POTLOK:  cpu time   14.95: real time   14.99
    SETDIJ:  cpu time    0.01: real time    0.01
     EDDAV:  cpu time   71.13: real time   71.44
       DOS:  cpu time    0.01: real time    0.01
    CHARGE:  cpu time    5.13: real time    5.23
    MIXING:  cpu time    0.02: real time    0.02
    --------------------------------------------
      LOOP:  cpu time   91.26: real time   91.70

 eigenvalue-minimisations  :  6412
 total energy-change (2. order) : 0.6972746E-04  (-0.1220981E-05)
 number of electron     107.9999995 magnetization 
 augmentation part       -9.2824179 magnetization 

 Broyden mixing:
  rms(total) = 0.21081E-04    rms(broyden)= 0.21078E-04
  rms(prec ) = 0.26637E-04
  weight for this iteration     100.00

 eigenvalues of (default mixing * dielectric matrix)
  average eigenvalue GAMMA=   2.1877
  8.0041  5.8789  2.9789  2.6946  2.2483  1.6997  1.5456  1.5456  1.3389  1.3389
  0.6355  0.9212  0.9926  0.9926  1.0939  1.0939

 Free energy of the ion-electron system (eV)
  ---------------------------------------------------
  alpha Z        PSCENC =        36.80884744
  Ewald energy   TEWEN  =     11893.31994763
  -Hartree energ DENC   =    -15034.72052267
  -exchange      EXHF   =         0.00000000
  -V(xc)+E(xc)   XCENC  =       -80.73052202
  PAW double counting   =      1154.29313966     -832.95197349
  entropy T*S    EENTRO =        -0.03467556
  eigenvalues    EBANDS =      -616.10429776
  atomic energy  EATOM  =      3354.04126044
  ---------------------------------------------------
  free energy    TOTEN  =      -126.07879633 eV

  energy without entropy =     -126.04412077  energy(sigma->0) =     -126.06145855


--------------------------------------------------------------------------------------------------------




----------------------------------------- Iteration    1(  22)  ---------------------------------------


    POTLOK:  cpu time   14.96: real time   15.00
    SETDIJ:  cpu time    0.01: real time    0.01
     EDDAV:  cpu time   70.80: real time   70.98
       DOS:  cpu time    0.01: real time    0.01
    CHARGE:  cpu time    5.08: real time    5.15
    MIXING:  cpu time    0.02: real time    0.02
    --------------------------------------------
      LOOP:  cpu time   90.88: real time   91.17

 eigenvalue-minimisations  :  6364
 total energy-change (2. order) : 0.2392913E-04  (-0.8344634E-06)
 number of electron     107.9999995 magnetization 
 augmentation part       -9.2824176 magnetization 

 Broyden mixing:
  rms(total) = 0.98767E-05    rms(broyden)= 0.98740E-05
  rms(prec ) = 0.12161E-04
  weight for this iteration     100.00

 eigenvalues of (default mixing * dielectric matrix)
  average eigenvalue GAMMA=   2.2620
  8.7871  6.6193  3.1048  2.7057  2.3257  1.9001  1.9001  1.3272  1.3272  1.3964
  1.3964  0.6355  0.9255  1.0120  1.0120  1.0973  0.9811

 Free energy of the ion-electron system (eV)
  ---------------------------------------------------
  alpha Z        PSCENC =        36.80884744
  Ewald energy   TEWEN  =     11893.31994763
  -Hartree energ DENC   =    -15034.71926787
  -exchange      EXHF   =         0.00000000
  -V(xc)+E(xc)   XCENC  =       -80.73056344
  PAW double counting   =      1154.29364075     -832.95249595
  entropy T*S    EENTRO =        -0.03467581
  eigenvalues    EBANDS =      -616.10546560
  atomic energy  EATOM  =      3354.04126044
  ---------------------------------------------------
  free energy    TOTEN  =      -126.07877240 eV

  energy without entropy =     -126.04409659  energy(sigma->0) =     -126.06143449


--------------------------------------------------------------------------------------------------------




----------------------------------------- Iteration    1(  23)  ---------------------------------------


    POTLOK:  cpu time   14.95: real time   14.98
    SETDIJ:  cpu time    0.01: real time    0.01
     EDDAV:  cpu time   73.57: real time   73.75
       DOS:  cpu time    0.01: real time    0.01
    CHARGE:  cpu time    5.14: real time    5.16
    MIXING:  cpu time    0.02: real time    0.02
    --------------------------------------------
      LOOP:  cpu time   93.70: real time   93.94

 eigenvalue-minimisations  :  6696
 total energy-change (2. order) : 0.2342059E-04  (-0.5314220E-06)
 number of electron     107.9999995 magnetization 
 augmentation part       -9.2824171 magnetization 

 Broyden mixing:
  rms(total) = 0.47307E-05    rms(broyden)= 0.47277E-05
  rms(prec ) = 0.57541E-05
  weight for this iteration     100.00

 eigenvalues of (default mixing * dielectric matrix)
  average eigenvalue GAMMA=   2.2379
  8.8910  6.8236  3.2524  2.7590  2.4402  2.0665  1.5634  1.5634  1.3403  1.3403
  1.3569  1.3569  0.6355  1.0280  1.0280  0.9132  0.9622  0.9622

 Free energy of the ion-electron system (eV)
  ---------------------------------------------------
  alpha Z        PSCENC =        36.80884744
  Ewald energy   TEWEN  =     11893.31994763
  -Hartree energ DENC   =    -15034.72215269
  -exchange      EXHF   =         0.00000000
  -V(xc)+E(xc)   XCENC  =       -80.73054557
  PAW double counting   =      1154.29392220     -832.95278142
  entropy T*S    EENTRO =        -0.03467584
  eigenvalues    EBANDS =      -616.10257117
  atomic energy  EATOM  =      3354.04126044
  ---------------------------------------------------
  free energy    TOTEN  =      -126.07874898 eV

  energy without entropy =     -126.04407314  energy(sigma->0) =     -126.06141106


[...]
     31      -4.0633      2.00000
     32      -4.0220      2.00000
     33      -3.8711      2.00000
     34      -3.7497      2.00000
     35      -3.3384      2.00000
     36      -3.2684      2.00000
     37      -3.1943      2.00000
     38      -3.0986      2.00000
     39      -2.8542      2.00000
     40      -2.7147      2.00000
     41      -2.5809      2.00000
     42      -2.5396      2.00000
     43      -2.4794      2.00000
     44      -2.2057      2.00000
     45      -2.0460      2.00000
     46      -1.9966      2.00000
     47      -1.8834      2.00000
     48      -1.8004      2.00000
     49      -1.4436      2.00000
     50      -1.3968      2.00000
     51      -1.0939      2.00000
     52      -0.9497      2.00000
     53      -0.6576      2.00000
     54      -0.1575      1.77885
     55       0.3752      0.00000
     56       0.7165      0.00000
     57       1.1183      0.00000
     58       1.3986      0.00000
     59       1.5421      0.00000
     60       1.9693      0.00000
     61       2.1722      0.00000
     62       2.2904      0.00000
     63       2.5357      0.00000
     64       2.6715      0.00000
     65       2.9890      0.00000
     66       3.0441      0.00000
     67       3.1067      0.00000
     68       3.1823      0.00000

 k-point    52 :       0.3077    0.5000    0.5000
  band No.  band energies     occupation 
      1     -13.3845      2.00000
      2     -12.5447      2.00000
      3     -12.2000      2.00000
      4     -11.9949      2.00000
      5     -11.6889      2.00000
      6     -11.5832      2.00000
      7     -11.1571      2.00000
      8     -11.0490      2.00000
      9     -10.8428      2.00000
     10     -10.7471      2.00000
     11     -10.4292      2.00000
     12     -10.0728      2.00000
     13      -8.9581      2.00000
     14      -8.7778      2.00000
     15      -7.8116      2.00000
     16      -7.6932      2.00000
     17      -7.1278      2.00000
     18      -7.0943      2.00000
     19      -6.9992      2.00000
     20      -6.8241      2.00000
     21      -6.3827      2.00000
     22      -6.2222      2.00000
     23      -6.0126      2.00000
     24      -5.9585      2.00000
     25      -5.3939      2.00000
     26      -5.0857      2.00000
     27      -4.9318      2.00000
     28      -4.6514      2.00000
     29      -4.5649      2.00000
     30      -4.5230      2.00000
     31      -4.4080      2.00000
     32      -4.3505      2.00000
     33      -4.1164      2.00000
     34      -3.9826      2.00000
     35      -3.3058      2.00000
     36      -3.2620      2.00000
     37      -3.1539      2.00000
     38      -3.0822      2.00000
     39      -2.9532      2.00000
     40      -2.9227      2.00000
     41      -2.8248      2.00000
     42      -2.6178      2.00000
     43      -2.5207      2.00000
     44      -2.3915      2.00000
     45      -2.2463      2.00000
     46      -2.2127      2.00000
     47      -1.9794      2.00000
     48      -1.9070      2.00000
     49      -1.7756      2.00000
     50      -1.5023      2.00000
     51      -1.3410      2.00000
     52      -1.2703      2.00000
     53      -0.6852      2.00000
     54      -0.1907      1.90976
     55       0.1296      0.00456
     56       0.3717      0.00000
     57       0.8096      0.00000
     58       1.2505      0.00000
     59       1.3256      0.00000
     60       1.5704      0.00000
     61       1.8531      0.00000
     62       2.1256      0.00000
     63       2.2467      0.00000
     64       2.4246      0.00000
     65       2.5178      0.00000
     66       2.6414      0.00000
     67       2.8756      0.00000
     68       2.9575      0.00000

 k-point    53 :       0.3846    0.5000    0.5000
  band No.  band energies     occupation 
      1     -12.9527      2.00000
      2     -12.0684      2.00000
      3     -11.7032      2.00000
      4     -11.6124      2.00000
      5     -11.2950      2.00000
      6     -11.2356      2.00000
      7     -10.9874      2.00000
      8     -10.8077      2.00000
      9     -10.6513      2.00000
     10     -10.6143      2.00000
     11     -10.4957      2.00000
     12     -10.0774      2.00000
     13      -8.9423      2.00000
     14      -8.7578      2.00000
     15      -8.2857      2.00000
     16      -7.9513      2.00000
     17      -7.6520      2.00000
     18      -7.5279      2.00000
     19      -7.4142      2.00000
     20      -7.2904      2.00000
     21      -6.9158      2.00000
     22      -6.7547      2.00000
     23      -6.6926      2.00000
     24      -6.4132      2.00000
     25      -5.3362      2.00000
     26      -5.0620      2.00000
     27      -4.7119      2.00000
     28      -4.7066      2.00000
     29      -4.5262      2.00000
     30      -4.4016      2.00000
     31      -4.2619      2.00000
     32      -4.1697      2.00000
     33      -4.0727      2.00000
     34      -4.0055      2.00000
     35      -3.5720      2.00000
     36      -3.4943      2.00000
     37      -3.3735      2.00000
     38      -3.2257      2.00000
     39      -3.1679      2.00000
     40      -3.0164      2.00000
     41      -2.9145      2.00000
     42      -2.8210      2.00000
     43      -2.5966      2.00000
     44      -2.4531      2.00000
     45      -2.3331      2.00000
     46      -2.3049      2.00000
     47      -2.1247      2.00000
     48      -2.0721      2.00000
     49      -1.8834      2.00000
     50      -1.6385      2.00000
     51      -1.5047      2.00000
     52      -1.4356      2.00000
     53      -0.7149      2.00000
     54      -0.2891      1.99797
     55      -0.1351      1.63574
     56       0.4641      0.00000
     57       0.6172      0.00000
     58       1.1665      0.00000
     59       1.2672      0.00000
     60       1.5254      0.00000
     61       1.6584      0.00000
     62       1.8003      0.00000
     63       2.0532      0.00000
     64       2.1190      0.00000
     65       2.2201      0.00000
     66       2.3056      0.00000
     67       2.6173      0.00000
     68       2.7005      0.00000

 k-point    54 :       0.4615    0.5000    0.5000
  band No.  band energies     occupation 
      1     -12.5755      2.00000
      2     -11.5261      2.00000
      3     -11.4741      2.00000
      4     -11.2053      2.00000
      5     -11.0405      2.00000
      6     -10.9838      2.00000
      7     -10.8846      2.00000
      8     -10.7834      2.00000
      9     -10.7570      2.00000
     10     -10.6537      2.00000
     11     -10.6348      2.00000
     12     -10.0998      2.00000
     13      -8.7698      2.00000
     14      -8.6994      2.00000
     15      -8.4755      2.00000
     16      -8.1548      2.00000
     17      -7.9923      2.00000
     18      -7.7436      2.00000
     19      -7.6074      2.00000
     20      -7.5871      2.00000
     21      -7.4114      2.00000
     22      -7.3234      2.00000
     23      -7.2051      2.00000
     24      -6.6456      2.00000
     25      -4.9857      2.00000
     26      -4.9113      2.00000
     27      -4.5973      2.00000
     28      -4.5106      2.00000
     29      -4.3465      2.00000
     30      -4.2409      2.00000
     31      -4.1413      2.00000
     32      -4.0714      2.00000
     33      -4.0021      2.00000
     34      -3.9602      2.00000
     35      -3.8039      2.00000
     36      -3.7212      2.00000
     37      -3.5888      2.00000
     38      -3.4935      2.00000
     39      -3.2975      2.00000
     40      -3.2512      2.00000
     41      -3.0768      2.00000
     42      -3.0430      2.00000
     43      -2.7267      2.00000
     44      -2.4861      2.00000
     45      -2.4026      2.00000
     46      -2.2462      2.00000
     47      -2.2056      2.00000
     48      -2.1240      2.00000
     49      -1.7554      2.00000
     50      -1.6730      2.00000
     51      -1.5652      2.00000
     52      -1.4921      2.00000
     53      -0.7899      2.00000
     54      -0.4291      2.00000
     55      -0.1411      1.67905
     56       0.5003      0.00000
     57       0.5920      0.00000
     58       1.0112      0.00000
     59       1.3183      0.00000
     60       1.5555      0.00000
     61       1.6026      0.00000
     62       1.7055      0.00000
     63       1.8252      0.00000
     64       1.9226      0.00000
     65       2.0326      0.00000
     66       2.3468      0.00000
     67       2.4463      0.00000
     68       2.6206      0.00000


--------------------------------------------------------------------------------------------------------


 soft charge-density along one line, spin component           1
         0         1         2         3         4         5         6         7         8         9
 total charge-density along one line
 
 pseudopotential strength for first ion, spin component:           1
 29.785   0.008  -0.000  -0.023   0.000  -0.000  -0.001   0.000
  0.008   0.009  -0.000  -0.000  -0.000   0.000   0.000   0.000
 -0.000  -0.000   6.550  -0.001   0.000  -0.003   0.000  -0.000
 -0.023  -0.000  -0.001   6.545   0.000   0.000  -0.002  -0.000
  0.000  -0.000   0.000   0.000   6.551  -0.000  -0.000  -0.003
 -0.000   0.000  -0.003   0.000  -0.000   0.015  -0.000   0.000
 -0.001   0.000   0.000  -0.002  -0.000  -0.000   0.015  -0.000
  0.000   0.000  -0.000  -0.000  -0.003   0.000  -0.000   0.015
 total augmentation occupancy for first ion, spin component:           1
  1.814  -0.355   0.007   0.254  -0.000   0.005   0.114   0.000
 -0.355   1.289   0.027   0.855  -0.001   0.002  -0.432  -0.000
  0.007   0.027   1.143   0.010  -0.000  -0.503   0.015  -0.000
  0.254   0.855   0.010   1.289  -0.001   0.015  -0.419  -0.000
 -0.000  -0.001  -0.000  -0.001   1.144   0.000   0.000  -0.527
  0.005   0.002  -0.503   0.015   0.000   0.291  -0.016  -0.000
  0.114  -0.432   0.015  -0.419   0.000  -0.016   0.227   0.000
  0.000  -0.000  -0.000  -0.000  -0.527  -0.000   0.000   0.325


------------------------ aborting loop because EDIFF is reached ----------------------------------------


    CHARGE:  cpu time    5.11: real time    5.12
    FORLOC:  cpu time    0.06: real time    0.06
    FORNL :  cpu time   21.44: real time   21.50
    STRESS:  cpu time   64.79: real time   64.99
    FORCOR:  cpu time   14.99: real time   15.05
    FORHAR:  cpu time    0.15: real time    0.15
    MIXING:  cpu time    0.02: real time    0.02
    OFIELD:  cpu time    0.00: real time    0.00

  FORCE on cell =-STRESS in cart. coord.  units (eV):
  Direction    XX          YY          ZZ          XY          YZ          ZX
  --------------------------------------------------------------------------------------
  Alpha Z    36.80885    36.80885    36.80885
  Ewald   14339.35901 13974.70691-16420.75329    -8.38124   -14.21524     9.66467
  Hartree 14868.65615 14591.61164-14425.54553    -3.05275    -5.81458     1.60579
  E(xc)    -356.37800  -356.02907  -354.64390     0.08834     0.05839     0.17578
  Local  -30748.52069-30121.80599 29258.27061    12.58823    18.14936    -7.59860
  n-local  1144.19804  1149.38998  1141.14848    -1.63263     1.22449    -1.45518
  augment  -199.78834  -201.91688  -204.30842     0.11583     0.48305     0.47238
  Kinetic   911.80713   929.22948   978.25636     0.53148   -13.28501    -1.40666
  Fock        0.00000     0.00000     0.00000     0.00000     0.00000     0.00000
  -------------------------------------------------------------------------------------
  Total      -3.85785     1.99491     9.23315     0.25725   -13.39953     1.45819
  in kB      -6.16665     3.18881    14.75891     0.41121   -21.41873     2.33087
  external pressure =        3.93 kB  Pullay stress =        0.00 kB


 VOLUME and BASIS-vectors are now :
 -----------------------------------------------------------------------------
  energy-cutoff  :      300.00
  volume of cell :     1002.32
      direct lattice vectors                 reciprocal lattice vectors
     3.540400000  0.000000000  0.000000000     0.282453960  0.048570342  0.000000000
    -1.770200000 10.294348000  0.000000000     0.000000000  0.097140683  0.000000000
     0.000000000  0.000000000 27.501429000     0.000000000  0.000000000  0.036361747

  length of vectors
     3.540400000 10.445439617 27.501429000     0.286599577  0.097140683  0.036361747


 FORCES acting on ions
    electron-ion (+dipol)            ewald-force                    non-local-force                 convergence-correction
 -----------------------------------------------------------------------------------------------
   -.135E-01 0.594E+01 0.272E+02   -.230E-02 -.582E+01 -.226E+02   0.191E-01 -.171E+00 -.456E+01   -.167E-07 0.109E-05 0.346E-06
   0.672E-02 -.875E+01 -.571E+03   0.109E+00 0.927E+01 0.575E+03   0.120E+00 -.942E+00 -.352E+01   0.288E-06 -.127E-05 0.821E-05
   -.783E-02 0.631E+02 0.505E+02   0.650E-02 -.646E+02 -.463E+02   0.217E-02 0.151E+01 -.412E+01   0.231E-09 -.494E-05 -.517E-05
   -.641E+00 0.588E+02 -.544E+03   0.481E+00 -.605E+02 0.549E+03   0.646E+00 0.949E+00 -.392E+01   -.123E-05 0.246E-05 0.128E-04
   0.876E-03 -.570E+02 0.526E+03   0.970E-04 0.586E+02 -.531E+03   -.211E-03 -.154E+01 0.429E+01   -.115E-06 0.739E-06 -.123E-04
   -.606E+01 -.456E+02 -.652E+02   0.791E+01 0.479E+02 0.581E+02   -.151E+01 -.643E+00 0.620E+01   0.406E-06 -.456E-05 0.497E-05
   -.250E-02 0.538E+02 0.526E+03   0.376E-05 -.557E+02 -.530E+03   0.105E-02 0.191E+01 0.417E+01   -.153E-07 -.375E-05 -.932E-05
   0.108E+02 0.670E+02 -.308E+02   -.104E+02 -.704E+02 0.307E+02   -.155E+01 0.431E+01 -.396E+01   -.115E-06 0.393E-05 0.804E-05
   -.226E-03 0.170E+01 0.572E+03   -.863E-04 -.190E+01 -.577E+03   0.160E-02 0.200E+00 0.478E+01   0.385E-08 0.601E-05 -.157E-04
   0.459E+00 -.204E+02 -.277E+02   -.344E-01 0.200E+02 0.235E+02   -.641E+00 0.105E+01 0.354E+01   0.387E-06 0.217E-05 0.141E-04
   0.429E-02 -.629E+02 0.580E+02   -.272E-02 0.648E+02 -.538E+02   0.284E-03 -.196E+01 -.408E+01   -.162E-07 0.399E-05 -.324E-05
   0.625E+00 -.482E+02 -.515E+03   -.905E+00 0.505E+02 0.519E+03   0.948E-01 -.277E+01 -.320E+01   0.204E-06 -.860E-07 0.652E-05
   -.593E-03 0.309E+02 0.209E+03   -.463E-03 -.331E+02 -.210E+03   0.383E-02 0.215E+01 0.371E+00   0.101E-07 -.208E-05 -.394E-05
   -.447E+01 0.423E+02 -.295E+03   0.342E+01 -.441E+02 0.294E+03   0.921E+00 -.205E+00 0.594E+01   0.404E-07 0.742E-06 0.417E-05
   -.217E-02 -.122E+02 0.138E+03   0.235E-03 0.125E+02 -.140E+03   -.863E-03 -.309E+00 0.256E+01   0.185E-08 0.394E-05 -.427E-05
   -.335E+01 -.169E+02 -.317E+03   0.304E+01 0.169E+02 0.317E+03   0.104E+00 -.417E+00 -.120E+01   0.189E-06 0.727E-06 0.430E-05
   0.237E-03 -.520E+01 0.345E+03   0.766E-04 0.566E+01 -.343E+03   -.679E-03 -.472E+00 -.252E+01   -.540E-11 0.709E-05 -.954E-05
   0.126E+01 -.212E+02 -.139E+03   -.118E+01 0.218E+02 0.139E+03   -.348E-01 0.195E+00 0.607E+00   -.130E-06 -.445E-06 0.450E-05
   0.962E-03 0.955E+01 0.335E+03   0.857E-05 -.977E+01 -.333E+03   -.319E-02 0.220E+00 -.253E+01   0.464E-08 -.211E-05 -.601E-05
   -.274E+01 -.454E+00 -.135E+03   0.307E+01 0.294E+01 0.136E+03   0.505E+00 0.240E+00 -.172E+01   0.290E-06 0.363E-05 0.434E-05
   -.257E-02 0.102E+02 0.127E+03   0.864E-03 -.106E+02 -.129E+03   0.102E-03 0.361E+00 0.251E+01   0.244E-07 -.224E-05 -.475E-05
   -.153E+01 -.825E+01 -.339E+03   0.136E+01 0.826E+01 0.339E+03   0.598E-01 -.321E+00 -.370E+00   -.273E-06 0.572E-06 0.493E-05
   -.158E-02 -.310E+02 0.254E+03   -.215E-03 0.331E+02 -.254E+03   0.347E-02 -.208E+01 -.389E+00   0.393E-07 -.986E-06 -.920E-05
   0.776E+01 -.262E+01 -.187E+03   -.691E+01 0.408E+01 0.190E+03   -.860E+00 -.384E+01 -.288E+01   -.236E-06 -.263E-05 0.657E-05
 -----------------------------------------------------------------------------------------------
   0.212E+01 0.259E+01 0.401E+01   -.124E-13 0.471E-13 -.114E-12   -.212E+01 -.259E+01 -.401E+01   -.259E-06 0.120E-04 0.315E-06
 
 
 POSITION                                       TOTAL-FORCE (eV/Angst)
 -----------------------------------------------------------------------------------
      0.00000      2.34757      6.41229         0.003005     -0.048329      0.023756
      0.53106      3.37701     14.16300         0.235851     -0.422248      0.342205
     -0.00000      9.43147      5.75866         0.000599     -0.011081      0.081502
      2.30126      0.16655     13.50937         0.486177     -0.744035      1.044127
     -0.00000      6.40009      2.31424         0.000525     -0.003718      0.004554
     -0.00000      6.40009     10.06495         0.349558      1.671701     -0.855601
      1.77020     10.27849      2.37372        -0.001679     -0.003304      0.004926
      1.77020     10.27849     10.12443        -1.099682      0.977080     -4.009771
      1.77020      3.18974      1.66157         0.001051     -0.001500      0.014331
      1.77020      3.18974      9.41228        -0.217121      0.640186     -0.618311
      1.77020      5.55354      5.69975         0.001613      0.008262      0.096203
      2.30126      6.58298     13.45047        -0.185549     -0.505701      0.094778
      1.77020      9.05319      4.34076         0.002542     -0.006162      0.010647
     -1.23914     10.08262     12.09147        -0.128785     -1.986320      4.142095
      0.00000      4.22380      5.10944        -0.003037      0.033561      0.070455
      0.53106      5.25324     12.86016        -0.207866     -0.419658     -0.390976
     -0.00000      4.15582      2.74166        -0.000601     -0.005144     -0.026517
     -0.00000      4.15582     10.49237         0.046894      0.817314      0.968028
      1.77020      1.31366      2.96438        -0.002451     -0.005640     -0.021501
      1.77020      1.31366     10.71510         0.836068      2.727923     -0.726361
      1.77020      1.38163      5.33187        -0.001838     -0.022597     -0.003833
      2.30126      2.41106     13.08259        -0.111076     -0.304641     -0.648437
      1.77020      6.77850      3.73234         0.001434     -0.003036      0.001643
     -1.23914      7.80793     11.48306        -0.005631     -2.382914      0.402058
 -----------------------------------------------------------------------------------
    total drift:                                0.005680      0.000240      0.002707


--------------------------------------------------------------------------------------------------------



  FREE ENERGIE OF THE ION-ELECTRON SYSTEM (eV)
  ---------------------------------------------------
  free  energy   TOTEN  =      -126.07874177 eV

  energy  without entropy=     -126.04406597  energy(sigma->0) =     -126.06140387
 


--------------------------------------------------------------------------------------------------------


    POTLOK:  cpu time   14.98: real time   15.00


--------------------------------------------------------------------------------------------------------


     LOOP+:  cpu time 2738.02: real time 2749.53
    4ORBIT:  cpu time    0.00: real time    0.00

 total amount of memory used by VASP on root node   146493. kBytes
========================================================================

   base      :      30000. kBytes
   nonlr-proj:       3452. kBytes
   fftplans  :       9347. kBytes
   grid      :      14649. kBytes
   one-center:         36. kBytes
   wavefun   :      89009. kBytes
 
  
  
 General timing and accounting informations for this job:
 ========================================================
  
                  Total CPU time used (sec):     2754.470
                            User time (sec):     2716.587
                          System time (sec):       37.883
                         Elapsed time (sec):     2767.103
  
                   Maximum memory used (kb):      334836.
                   Average memory used (kb):           0.
  
                          Minor page faults:      7627263
                          Major page faults:           16
                 Voluntary context switches:         1768
