<?xml version="1.0" encoding="ISO-8859-1"?>
<modeling>
 <generator>
  <i name="program" type="string">vasp </i>
  <i name="version" type="string">5.3.5  </i>
  <i name="subversion" type="string">31Mar14 (build Oct 29 2014 16:16:03) complex                          parallel </i>
  <i name="platform" type="string">Linux-UFHPC </i>
  <i name="date" type="string">2016 02 09 </i>
  <i name="time" type="string">18:08:21 </i>
 </generator>
 <incar>
  <i type="string" name="PREC">accurate</i>
  <i type="int" name="IBRION">     2</i>
  <i name="EDIFF">      0.00000100</i>
  <i type="int" name="NSW">     0</i>
  <i type="int" name="ISIF">     3</i>
  <i name="ENCUT">    300.00000000</i>
  <i type="string" name="LREAL"> Auto</i>
  <i type="int" name="ISMEAR">     0</i>
  <i name="SIGMA">      0.10000000</i>
  <i type="logical" name="LWAVE"> F  </i>
  <i type="logical" name="LCHARG"> F  </i>
  <i type="logical" name="LAECHG"> F  </i>
  <i type="string" name="GGA"> Bo</i>
  <i name="PARAM1">      0.18333333</i>
  <i name="PARAM2">      0.22000000</i>
  <i type="logical" name="LUSE_VDW"> T  </i>
  <i name="AGGAC">      0.00000000</i>
 </incar>
 <kpoints>
  <generation param="Gamma">
   <v type="int" name="divisions">      13        4        2 </v>
   <v name="usershift">      0.00000000       0.00000000       0.00000000 </v>
   <v name="genvec1">      0.07692308      -0.00000000       0.00000000 </v>
   <v name="genvec2">      0.00000000       0.25000000       0.00000000 </v>
   <v name="genvec3">      0.00000000       0.00000000       0.50000000 </v>
   <v name="shift">      0.00000000       0.00000000       0.00000000 </v>
  </generation>
  <varray name="kpointlist" >
   <v>       0.00000000       0.00000000       0.00000000 </v>
   <v>       0.07692308      -0.00000000       0.00000000 </v>
   <v>       0.15384615      -0.00000000       0.00000000 </v>
   <v>       0.23076923      -0.00000000       0.00000000 </v>
   <v>       0.30769231      -0.00000000       0.00000000 </v>
   <v>       0.38461538      -0.00000000       0.00000000 </v>
   <v>       0.46153846      -0.00000000       0.00000000 </v>
   <v>       0.00000000       0.25000000       0.00000000 </v>
   <v>       0.07692308       0.25000000       0.00000000 </v>
   <v>       0.15384615       0.25000000       0.00000000 </v>
   <v>       0.23076923       0.25000000       0.00000000 </v>
   <v>       0.30769231       0.25000000       0.00000000 </v>
   <v>       0.38461538       0.25000000       0.00000000 </v>
   <v>       0.46153846       0.25000000       0.00000000 </v>
   <v>      -0.46153846       0.25000000       0.00000000 </v>
   <v>      -0.38461538       0.25000000       0.00000000 </v>
   <v>      -0.30769231       0.25000000       0.00000000 </v>
   <v>      -0.23076923       0.25000000       0.00000000 </v>
   <v>      -0.15384615       0.25000000       0.00000000 </v>
   <v>      -0.07692308       0.25000000       0.00000000 </v>
   <v>       0.00000000       0.50000000       0.00000000 </v>
   <v>       0.07692308       0.50000000       0.00000000 </v>
   <v>       0.15384615       0.50000000       0.00000000 </v>
   <v>       0.23076923       0.50000000       0.00000000 </v>
   <v>       0.30769231       0.50000000       0.00000000 </v>
   <v>       0.38461538       0.50000000       0.00000000 </v>
   <v>       0.46153846       0.50000000       0.00000000 </v>
   <v>       0.00000000       0.00000000       0.50000000 </v>
   <v>       0.07692308      -0.00000000       0.50000000 </v>
   <v>       0.15384615      -0.00000000       0.50000000 </v>
   <v>       0.23076923      -0.00000000       0.50000000 </v>
   <v>       0.30769231      -0.00000000       0.50000000 </v>
   <v>       0.38461538      -0.00000000       0.50000000 </v>
   <v>       0.46153846      -0.00000000       0.50000000 </v>
   <v>       0.00000000       0.25000000       0.50000000 </v>
   <v>       0.07692308       0.25000000       0.50000000 </v>
   <v>       0.15384615       0.25000000       0.50000000 </v>
   <v>       0.23076923       0.25000000       0.50000000 </v>
   <v>       0.30769231       0.25000000       0.50000000 </v>
   <v>       0.38461538       0.25000000       0.50000000 </v>
   <v>       0.46153846       0.25000000       0.50000000 </v>
   <v>      -0.46153846       0.25000000       0.50000000 </v>
   <v>      -0.38461538       0.25000000       0.50000000 </v>
   <v>      -0.30769231       0.25000000       0.50000000 </v>
   <v>      -0.23076923       0.25000000       0.50000000 </v>
   <v>      -0.15384615       0.25000000       0.50000000 </v>
   <v>      -0.07692308       0.25000000       0.50000000 </v>
   <v>       0.00000000       0.50000000       0.50000000 </v>
   <v>       0.07692308       0.50000000       0.50000000 </v>
   <v>       0.15384615       0.50000000       0.50000000 </v>
   <v>       0.23076923       0.50000000       0.50000000 </v>
   <v>       0.30769231       0.50000000       0.50000000 </v>
   <v>       0.38461538       0.50000000       0.50000000 </v>
   <v>       0.46153846       0.50000000       0.50000000 </v>
  </varray>
  <varray name="weights" >
   <v>       0.00961538 </v>
   <v>       0.01923077 </v>
   <v>       0.01923077 </v>
   <v>       0.01923077 </v>
   <v>       0.01923077 </v>
   <v>       0.01923077 </v>
   <v>       0.01923077 </v>
   <v>       0.01923077 </v>
   <v>       0.01923077 </v>
   <v>       0.01923077 </v>
   <v>       0.01923077 </v>
   <v>       0.01923077 </v>
   <v>       0.01923077 </v>
   <v>       0.01923077 </v>
   <v>       0.01923077 </v>
   <v>       0.01923077 </v>
   <v>       0.01923077 </v>
   <v>       0.01923077 </v>
   <v>       0.01923077 </v>
   <v>       0.01923077 </v>
   <v>       0.00961538 </v>
   <v>       0.01923077 </v>
   <v>       0.01923077 </v>
   <v>       0.01923077 </v>
   <v>       0.01923077 </v>
   <v>       0.01923077 </v>
   <v>       0.01923077 </v>
   <v>       0.00961538 </v>
   <v>       0.01923077 </v>
   <v>       0.01923077 </v>
   <v>       0.01923077 </v>
   <v>       0.01923077 </v>
   <v>       0.01923077 </v>
   <v>       0.01923077 </v>
   <v>       0.01923077 </v>
   <v>       0.01923077 </v>
   <v>       0.01923077 </v>
   <v>       0.01923077 </v>
   <v>       0.01923077 </v>
   <v>       0.01923077 </v>
   <v>       0.01923077 </v>
   <v>       0.01923077 </v>
   <v>       0.01923077 </v>
   <v>       0.01923077 </v>
   <v>       0.01923077 </v>
   <v>       0.01923077 </v>
   <v>       0.01923077 </v>
   <v>       0.00961538 </v>
   <v>       0.01923077 </v>
   <v>       0.01923077 </v>
   <v>       0.01923077 </v>
   <v>       0.01923077 </v>
   <v>       0.01923077 </v>
   <v>       0.01923077 </v>
  </varray>
 </kpoints>
 <parameters>
  <separator name="general" >
   <i type="string" name="SYSTEM">unknown system</i>
   <i type="logical" name="LCOMPAT"> F  </i>
  </separator>
  <separator name="electronic" >
   <i type="string" name="PREC">accura</i>
   <i name="ENMAX">    300.00000000</i>
   <i name="ENAUG">    342.92400000</i>
   <i name="EDIFF">      0.00000100</i>
   <i type="int" name="IALGO">    38</i>
   <i type="int" name="IWAVPR">    10</i>
   <i type="int" name="NBANDS">    68</i>
   <i name="NELECT">    108.00000000</i>
   <i type="int" name="TURBO">     0</i>
   <i type="int" name="IRESTART">     0</i>
   <i type="int" name="NREBOOT">     0</i>
   <i type="int" name="NMIN">     0</i>
   <i name="EREF">      0.00000000</i>
   <separator name="electronic smearing" >
    <i type="int" name="ISMEAR">     0</i>
    <i name="SIGMA">      0.10000000</i>
    <i name="KSPACING">      0.50000000</i>
    <i type="logical" name="KGAMMA"> T  </i>
   </separator>
   <separator name="electronic projectors" >
    <i type="logical" name="LREAL"> T  </i>
    <v name="ROPT">     -0.00025000     -0.00025000</v>
    <i type="int" name="LMAXPAW">  -100</i>
    <i type="int" name="LMAXMIX">     2</i>
    <i type="logical" name="NLSPLINE"> F  </i>
   </separator>
   <separator name="electronic startup" >
    <i type="int" name="ISTART">     0</i>
    <i type="int" name="ICHARG">     2</i>
    <i type="int" name="INIWAV">     1</i>
   </separator>
   <separator name="electronic spin" >
    <i type="int" name="ISPIN">     1</i>
    <i type="logical" name="LNONCOLLINEAR"> F  </i>
    <v name="MAGMOM">      1.00000000      1.00000000      1.00000000      1.00000000      1.00000000      1.00000000      1.00000000      1.00000000      1.00000000      1.00000000      1.00000000      1.00000000      1.00000000      1.00000000      1.00000000      1.00000000      1.00000000      1.00000000      1.00000000      1.00000000
      1.00000000      1.00000000      1.00000000      1.00000000</v>
    <i name="NUPDOWN">     -1.00000000</i>
    <i type="logical" name="LSORBIT"> F  </i>
    <v name="SAXIS">      0.00000000      0.00000000      1.00000000</v>
    <i type="logical" name="LSPIRAL"> F  </i>
    <v name="QSPIRAL">      0.00000000      0.00000000      0.00000000</v>
    <i type="logical" name="LZEROZ"> F  </i>
   </separator>
   <separator name="electronic exchange-correlation" >
    <i type="logical" name="LASPH"> F  </i>
    <i type="logical" name="LMETAGGA"> F  </i>
   </separator>
   <separator name="electronic convergence" >
    <i type="int" name="NELM">    60</i>
    <i type="int" name="NELMDL">    -5</i>
    <i type="int" name="NELMIN">     2</i>
    <i name="ENINI">    300.00000000</i>
    <separator name="electronic convergence detail" >
     <i type="logical" name="LDIAG"> T  </i>
     <i type="logical" name="LSUBROT"> F  </i>
     <i name="WEIMIN">      0.00000000</i>
     <i name="EBREAK">      0.00000000</i>
     <i name="DEPER">      0.30000000</i>
     <i type="int" name="NRMM">     4</i>
     <i name="TIME">      0.40000000</i>
    </separator>
   </separator>
   <separator name="electronic mixer" >
    <i name="AMIX">      0.40000000</i>
    <i name="BMIX">      1.00000000</i>
    <i name="AMIN">      0.10000000</i>
    <i name="AMIX_MAG">      1.60000000</i>
    <i name="BMIX_MAG">      1.00000000</i>
    <separator name="electronic mixer details" >
     <i type="int" name="IMIX">     4</i>
     <i type="int" name="MAXMIX">   -45</i>
     <i name="WC">    100.00000000</i>
     <i type="int" name="INIMIX">     1</i>
     <i type="int" name="MIXPRE">     1</i>
     <i type="int" name="MREMOVE">     5</i>
    </separator>
   </separator>
   <separator name="electronic dipolcorrection" >
    <i type="logical" name="LDIPOL"> F  </i>
    <i type="logical" name="LMONO"> F  </i>
    <i type="int" name="IDIPOL">     0</i>
    <i name="EPSILON">      1.00000000</i>
    <v name="DIPOL">   -100.00000000   -100.00000000   -100.00000000</v>
    <i name="EFIELD">      0.00000000</i>
   </separator>
  </separator>
  <separator name="grids" >
   <i type="int" name="NGX">    20</i>
   <i type="int" name="NGY">    60</i>
   <i type="int" name="NGZ">   160</i>
   <i type="int" name="NGXF">    40</i>
   <i type="int" name="NGYF">   120</i>
   <i type="int" name="NGZF">   320</i>
   <i type="logical" name="ADDGRID"> F  </i>
  </separator>
  <separator name="ionic" >
   <i type="int" name="NSW">     0</i>
   <i type="int" name="IBRION">    -1</i>
   <i type="int" name="ISIF">     3</i>
   <i name="PSTRESS">      0.00000000</i>
   <i name="EDIFFG">      0.00001000</i>
   <i type="int" name="NFREE">     1</i>
   <i name="POTIM">      0.50000000</i>
   <i name="SMASS">     -3.00000000</i>
   <i name="SCALEE">      1.00000000</i>
  </separator>
  <separator name="ionic md" >
   <i name="TEBEG">      0.00010000</i>
   <i name="TEEND">      0.00010000</i>
   <i type="int" name="NBLOCK">     1</i>
   <i type="int" name="KBLOCK">     1</i>
   <i type="int" name="NPACO">   256</i>
   <i name="APACO">     16.00000000</i>
  </separator>
  <separator name="symmetry" >
   <i type="int" name="ISYM">     2</i>
   <i name="SYMPREC">      0.00001000</i>
  </separator>
  <separator name="dos" >
   <i type="logical" name="LORBIT"> F  </i>
   <v name="RWIGS">     -1.00000000     -1.00000000</v>
   <i type="int" name="NEDOS">   301</i>
   <i name="EMIN">     10.00000000</i>
   <i name="EMAX">    -10.00000000</i>
   <i name="EFERMI">      0.00000000</i>
  </separator>
  <separator name="writing" >
   <i type="int" name="NWRITE">     2</i>
   <i type="logical" name="LWAVE"> F  </i>
   <i type="logical" name="LCHARG"> F  </i>
   <i type="logical" name="LPARD"> F  </i>
   <i type="logical" name="LVTOT"> F  </i>
   <i type="logical" name="LVHAR"> F  </i>
   <i type="logical" name="LELF"> F  </i>
   <i type="logical" name="LOPTICS"> F  </i>
   <v name="STM">      0.00000000      0.00000000      0.00000000      0.00000000      0.00000000      0.00000000      0.00000000</v>
  </separator>
  <separator name="performance" >
   <i type="int" name="NPAR">     4</i>
   <i type="int" name="NSIM">     4</i>
   <i type="int" name="NBLK">    -1</i>
   <i type="logical" name="LPLANE"> T  </i>
   <i type="logical" name="LSCALAPACK"> T  </i>
   <i type="logical" name="LSCAAWARE"> F  </i>
   <i type="logical" name="LSCALU"> F  </i>
   <i type="logical" name="LASYNC"> F  </i>
   <i type="logical" name="LORBITALREAL"> F  </i>
  </separator>
  <separator name="miscellaneous" >
   <i type="int" name="IDIOT">     3</i>
   <i type="logical" name="LMUSIC"> F  </i>
   <v name="POMASS">     30.97400000     28.08500000</v>
   <v name="DARWINR">      0.00000000      0.00000000</v>
   <v name="DARWINV">      1.00000000      1.00000000</v>
   <i type="logical" name="LCORR"> T  </i>
  </separator>
  <i type="logical" name="GGA_COMPAT"> T  </i>
  <i type="logical" name="LBERRY"> F  </i>
  <i type="int" name="ICORELEVEL">     0</i>
  <i type="logical" name="LDAU"> F  </i>
  <i type="int" name="I_CONSTRAINED_M">     0</i>
  <separator name="electronic exchange-correlation" >
   <i type="string" name="GGA">BO</i>
   <i type="int" name="VOSKOWN">     0</i>
   <i type="logical" name="LHFCALC"> F  </i>
   <i type="string" name="PRECFOCK"></i>
   <i type="logical" name="LSYMGRAD"> F  </i>
   <i type="logical" name="LHFONE"> F  </i>
   <i type="logical" name="LRHFCALC"> F  </i>
   <i type="logical" name="LTHOMAS"> F  </i>
   <i type="logical" name="LMODELHF"> F  </i>
   <i name="ENCUT4O">     -1.00000000</i>
   <i type="int" name="EXXOEP">     0</i>
   <i type="int" name="FOURORBIT">     0</i>
   <i name="AEXX">      0.00000000</i>
   <i name="HFALPHA">      0.00000000</i>
   <i name="MCALPHA">      0.00000000</i>
   <i name="ALDAX">      1.00000000</i>
   <i name="AGGAX">      1.00000000</i>
   <i name="ALDAC">      1.00000000</i>
   <i name="AGGAC">      0.00000000</i>
   <i type="int" name="NKREDX">     1</i>
   <i type="int" name="NKREDY">     1</i>
   <i type="int" name="NKREDZ">     1</i>
   <i type="logical" name="SHIFTRED"> F  </i>
   <i type="logical" name="ODDONLY"> F  </i>
   <i type="logical" name="EVENONLY"> F  </i>
   <i type="int" name="LMAXFOCK">     0</i>
   <i type="int" name="NMAXFOCKAE">     0</i>
   <i type="logical" name="LFOCKAEDFT"> F  </i>
   <i name="HFSCREEN">      0.00000000</i>
   <i name="HFSCREENC">      0.00000000</i>
   <i type="int" name="NBANDSGWLOW">     0</i>
  </separator>
  <separator name="vdW DFT" >
   <i type="logical" name="LUSE_VDW"> T  </i>
   <i name="Zab_VDW">     -0.84910000</i>
   <i name="PARAM1">      0.18333333</i>
   <i name="PARAM2">      0.22000000</i>
   <i name="PARAM3">      0.00000000</i>
  </separator>
  <separator name="model GW" >
   <i type="int" name="MODEL_GW">     0</i>
   <i name="MODEL_EPS0">     25.05800243</i>
   <i name="MODEL_ALPHA">      1.00000000</i>
  </separator>
  <separator name="linear response parameters" >
   <i type="logical" name="LEPSILON"> F  </i>
   <i type="logical" name="LRPA"> F  </i>
   <i type="logical" name="LNABLA"> F  </i>
   <i type="logical" name="LVEL"> F  </i>
   <i type="int" name="KINTER">     0</i>
   <i name="CSHIFT">      0.10000000</i>
   <i name="OMEGAMAX">     -1.00000000</i>
   <i name="DEG_THRESHOLD">      0.00200000</i>
  </separator>
  <separator name="orbital magnetization" >
   <i type="logical" name="NUCIND"> F  </i>
   <v name="MAGPOS">      0.00000000      0.00000000      0.00000000</v>
   <i type="logical" name="LNICSALL"> T  </i>
   <i type="logical" name="ORBITALMAG"> F  </i>
   <i type="logical" name="LMAGBLOCH"> F  </i>
   <i type="logical" name="LCHIMAG"> F  </i>
   <i type="logical" name="LGAUGE"> T  </i>
   <i type="int" name="MAGATOM">     0</i>
   <v name="MAGDIPOL">      0.00000000      0.00000000      0.00000000</v>
   <v name="AVECCONST">      0.00000000      0.00000000      0.00000000</v>
  </separator>
  <separator name="response functions" >
   <i type="logical" name="LADDER"> F  </i>
   <i type="logical" name="LFXC"> F  </i>
   <i type="logical" name="LHARTREE"> T  </i>
   <i type="int" name="IBSE">     0</i>
   <i type="logical" name="LTCTE"> F  </i>
   <i type="logical" name="LTETE"> F  </i>
   <i type="logical" name="LTRIPLET"> F  </i>
   <i type="logical" name="LFXCEPS"> F  </i>
   <i type="logical" name="LFXHEG"> F  </i>
   <i type="logical" name="L2ORDER"> F  </i>
   <i type="logical" name="LUSEW"> F  </i>
   <i name="ENCUTGW">     -2.00000000</i>
   <i name="ENCUTGWSOFT">     -2.00000000</i>
   <i name="ENCUTLF">     -1.00000000</i>
   <i type="int" name="LMAXMP2">    -1</i>
   <i name="SCISSOR">      0.00000000</i>
   <i type="int" name="NOMEGA">     0</i>
   <i type="int" name="NOMEGAR">     0</i>
   <i type="int" name="NBANDSGW">    -1</i>
   <i type="int" name="NBANDSO">    -1</i>
   <i type="int" name="NBANDSV">    -1</i>
   <i type="int" name="NELM">     1</i>
   <i type="int" name="DIM">     3</i>
   <i type="int" name="ANTIRES">     0</i>
   <i name="OMEGAMAX">    -30.00000000</i>
   <i name="OMEGAMIN">    -30.00000000</i>
   <i name="OMEGATL">   -200.00000000</i>
   <i type="int" name="OMEGAGRID">     0</i>
   <i name="CSHIFT">     -0.10000000</i>
   <i type="logical" name="SELFENERGY"> F  </i>
   <i type="logical" name="LSPECTRAL"> F  </i>
   <i type="logical" name="ODDONLYGW"> F  </i>
   <i type="logical" name="EVENONLYGW"> F  </i>
   <i type="int" name="NKREDLFX">     1</i>
   <i type="int" name="NKREDLFY">     1</i>
   <i type="int" name="NKREDLFZ">     1</i>
   <i type="int" name="MAXMEM">  1800</i>
   <i type="int" name="TELESCOPE">     0</i>
   <i type="int" name="TAUPAR">     1</i>
  </separator>
  <separator name="External order field" >
   <i name="OFIELD_KAPPA">      0.00000000</i>
   <v name="OFIELD_K">      0.00000000      0.00000000      0.00000000</v>
   <i name="OFIELD_Q6_NEAR">      0.00000000</i>
   <i name="OFIELD_Q6_FAR">      0.00000000</i>
   <i name="OFIELD_A">      0.00000000</i>
  </separator>
 </parameters>
 <atominfo>
  <atoms>      24 </atoms>
  <types>       2 </types>
  <array name="atoms" >
   <dimension dim="1">ion</dimension>
   <field type="string">element</field>
   <field type="int">atomtype</field>
   <set>
    <rc><c>P </c><c>   1</c></rc>
    <rc><c>P </c><c>   1</c></rc>
    <rc><c>P </c><c>   1</c></rc>
    <rc><c>P </c><c>   1</c></rc>
    <rc><c>P </c><c>   1</c></rc>
    <rc><c>P </c><c>   1</c></rc>
    <rc><c>P </c><c>   1</c></rc>
    <rc><c>P </c><c>   1</c></rc>
    <rc><c>P </c><c>   1</c></rc>
    <rc><c>P </c><c>   1</c></rc>
    <rc><c>P </c><c>   1</c></rc>
    <rc><c>P </c><c>   1</c></rc>
    <rc><c>Si</c><c>   2</c></rc>
    <rc><c>Si</c><c>   2</c></rc>
    <rc><c>Si</c><c>   2</c></rc>
    <rc><c>Si</c><c>   2</c></rc>
    <rc><c>Si</c><c>   2</c></rc>
    <rc><c>Si</c><c>   2</c></rc>
    <rc><c>Si</c><c>   2</c></rc>
    <rc><c>Si</c><c>   2</c></rc>
    <rc><c>Si</c><c>   2</c></rc>
    <rc><c>Si</c><c>   2</c></rc>
    <rc><c>Si</c><c>   2</c></rc>
    <rc><c>Si</c><c>   2</c></rc>
   </set>
  </array>
  <array name="atomtypes" >
   <dimension dim="1">type</dimension>
   <field type="int">atomspertype</field>
   <field type="string">element</field>
   <field>mass</field>
   <field>valence</field>
   <field type="string">pseudopotential</field>
   <set>
    <rc><c>  12</c><c>P </c><c>     30.97400000</c><c>      5.00000000</c><c>  PAW_PBE P 17Jan2003                   </c></rc>
    <rc><c>  12</c><c>Si</c><c>     28.08500000</c><c>      4.00000000</c><c> PAW_PBE Si 05Jan2001                   </c></rc>
   </set>
  </array>
 </atominfo>
 <structure name="initialpos" >
  <crystal>
   <varray name="basis" >
    <v>       3.54040000       0.00000000       0.00000000 </v>
    <v>      -1.77020000      10.29434800       0.00000000 </v>
    <v>       0.00000000       0.00000000      27.50142900 </v>
   </varray>
   <i name="volume">   1002.32009712 </i>
   <varray name="rec_basis" >
    <v>       0.28245396       0.04857034       0.00000000 </v>
    <v>       0.00000000       0.09714068       0.00000000 </v>
    <v>       0.00000000       0.00000000       0.03636175 </v>
   </varray>
  </crystal>
  <varray name="positions" >
   <v>       0.11402300       0.22804500       0.23316207 </v>
   <v>       0.61402300       0.42804500       0.51499159 </v>
   <v>       0.45808900       0.91617900       0.20939482 </v>
   <v>       0.95808900       0.11617900       0.49122434 </v>
   <v>       0.31085400       0.62170900       0.08414979 </v>
   <v>       0.31085400       0.62170900       0.36597930 </v>
   <v>       0.99923000       0.99846000       0.08631254 </v>
   <v>       0.99923000       0.99846000       0.36814206 </v>
   <v>       0.65492700       0.30985400       0.06041748 </v>
   <v>       0.65492700       0.30985400       0.34224700 </v>
   <v>       0.76973800       0.53947500       0.20725292 </v>
   <v>       0.26973800       0.73947500       0.48908244 </v>
   <v>       0.93971600       0.87943300       0.15783749 </v>
   <v>       0.43971600       0.07943300       0.43966701 </v>
   <v>       0.20515200       0.41030300       0.18578822 </v>
   <v>       0.70515200       0.61030300       0.46761774 </v>
   <v>       0.20184900       0.40369900       0.09969156 </v>
   <v>       0.20184900       0.40369900       0.38152107 </v>
   <v>       0.56380500       0.12761000       0.10779021 </v>
   <v>       0.56380500       0.12761000       0.38961973 </v>
   <v>       0.56710600       0.13421200       0.19387616 </v>
   <v>       0.06710600       0.33421200       0.47570568 </v>
   <v>       0.82923400       0.65846800       0.13571444 </v>
   <v>       0.32923400       0.85846800       0.41754396 </v>
  </varray>
 </structure>
 <calculation>
  <scstep>
   <time name="dav">   61.67   61.69</time>
   <time name="total">   77.75   77.78</time>
   <energy>
    <i name="alphaZ">     36.80884744 </i>
    <i name="ewald">  11933.72372469 </i>
    <i name="hartreedc"> -14972.94721389 </i>
    <i name="XCdc">    -88.12508691 </i>
    <i name="pawpsdc">   1056.43050070 </i>
    <i name="pawaedc">   -732.41190547 </i>
    <i name="eentropy">     -0.04620492 </i>
    <i name="bandstr">    -88.96482618 </i>
    <i name="atom">   3354.04126044 </i>
    <i name="e_fr_energy">    498.50909591 </i>
    <i name="e_wo_entrp">    498.55530083 </i>
    <i name="e_0_energy">    498.53219837 </i>
   </energy>
  </scstep>
  <scstep>
   <time name="dav">   77.08   77.09</time>
   <time name="total">   77.09   77.11</time>
   <energy>
    <i name="e_fr_energy">    -60.40425089 </i>
    <i name="e_wo_entrp">    -60.38164946 </i>
    <i name="e_0_energy">    -60.39295018 </i>
   </energy>
  </scstep>
  <scstep>
   <time name="dav">   70.32   70.33</time>
   <time name="total">   70.33   70.35</time>
   <energy>
    <i name="e_fr_energy">   -116.86258237 </i>
    <i name="e_wo_entrp">   -116.82410036 </i>
    <i name="e_0_energy">   -116.84334136 </i>
   </energy>
  </scstep>
  <scstep>
   <time name="dav">   87.12   87.15</time>
   <time name="total">   87.14   87.16</time>
   <energy>
    <i name="e_fr_energy">   -119.52598099 </i>
    <i name="e_wo_entrp">   -119.48436124 </i>
    <i name="e_0_energy">   -119.50517111 </i>
   </energy>
  </scstep>
  <scstep>
   <time name="dav">   77.48   77.50</time>
   <time name="total">   81.54   81.56</time>
   <energy>
    <i name="e_fr_energy">   -119.57490682 </i>
    <i name="e_wo_entrp">   -119.53325168 </i>
    <i name="e_0_energy">   -119.55407925 </i>
   </energy>
  </scstep>
  <scstep>
   <time name="dav">   74.29   74.30</time>
   <time name="total">   93.21   93.23</time>
   <energy>
    <i name="e_fr_energy">   -115.66722720 </i>
    <i name="e_wo_entrp">   -115.64437024 </i>
    <i name="e_0_energy">   -115.65579872 </i>
   </energy>
  </scstep>
  <scstep>
   <time name="dav">   73.59   73.61</time>
   <time name="total">   92.43   92.46</time>
   <energy>
    <i name="e_fr_energy">   -115.76127151 </i>
    <i name="e_wo_entrp">   -115.73253473 </i>
    <i name="e_0_energy">   -115.74690312 </i>
   </energy>
  </scstep>
  <scstep>
   <time name="dav">   79.01   79.02</time>
   <time name="total">   97.83   97.85</time>
   <energy>
    <i name="e_fr_energy">   -115.69435519 </i>
    <i name="e_wo_entrp">   -115.67253775 </i>
    <i name="e_0_energy">   -115.68344647 </i>
   </energy>
  </scstep>
  <scstep>
   <time name="dav">   71.03   71.04</time>
   <time name="total">   89.77   89.79</time>
   <energy>
    <i name="e_fr_energy">   -115.67625250 </i>
    <i name="e_wo_entrp">   -115.65549294 </i>
    <i name="e_0_energy">   -115.66587272 </i>
   </energy>
  </scstep>
  <scstep>
   <time name="dav">   70.69   70.70</time>
   <time name="total">   89.42   89.44</time>
   <energy>
    <i name="e_fr_energy">   -115.67752290 </i>
    <i name="e_wo_entrp">   -115.65489824 </i>
    <i name="e_0_energy">   -115.66621057 </i>
   </energy>
  </scstep>
  <scstep>
   <time name="dav">   73.35   73.37</time>
   <time name="total">   92.45   92.48</time>
   <energy>
    <i name="e_fr_energy">   -115.67116924 </i>
    <i name="e_wo_entrp">   -115.64963870 </i>
    <i name="e_0_energy">   -115.66040397 </i>
   </energy>
  </scstep>
  <scstep>
   <time name="dav">   74.63   74.64</time>
   <time name="total">   93.54   93.56</time>
   <energy>
    <i name="e_fr_energy">   -115.66191735 </i>
    <i name="e_wo_entrp">   -115.64049938 </i>
    <i name="e_0_energy">   -115.65120836 </i>
   </energy>
  </scstep>
  <scstep>
   <time name="dav">   78.09   78.11</time>
   <time name="total">   96.82   96.84</time>
   <energy>
    <i name="e_fr_energy">   -115.65672232 </i>
    <i name="e_wo_entrp">   -115.63521026 </i>
    <i name="e_0_energy">   -115.64596629 </i>
   </energy>
  </scstep>
  <scstep>
   <time name="dav">   82.40   82.42</time>
   <time name="total">  101.48  101.50</time>
   <energy>
    <i name="e_fr_energy">   -115.65432927 </i>
    <i name="e_wo_entrp">   -115.63288621 </i>
    <i name="e_0_energy">   -115.64360774 </i>
   </energy>
  </scstep>
  <scstep>
   <time name="dav">   77.35   77.37</time>
   <time name="total">   97.44   97.46</time>
   <energy>
    <i name="e_fr_energy">   -115.65396351 </i>
    <i name="e_wo_entrp">   -115.63253058 </i>
    <i name="e_0_energy">   -115.64324704 </i>
   </energy>
  </scstep>
  <scstep>
   <time name="dav">   73.53   73.55</time>
   <time name="total">   93.64   93.66</time>
   <energy>
    <i name="e_fr_energy">   -115.65392215 </i>
    <i name="e_wo_entrp">   -115.63247831 </i>
    <i name="e_0_energy">   -115.64320023 </i>
   </energy>
  </scstep>
  <scstep>
   <time name="dav">   73.58   73.60</time>
   <time name="total">   93.00   93.02</time>
   <energy>
    <i name="e_fr_energy">   -115.65442940 </i>
    <i name="e_wo_entrp">   -115.63299351 </i>
    <i name="e_0_energy">   -115.64371145 </i>
   </energy>
  </scstep>
  <scstep>
   <time name="dav">   75.34   75.35</time>
   <time name="total">   94.71   94.73</time>
   <energy>
    <i name="e_fr_energy">   -115.65470072 </i>
    <i name="e_wo_entrp">   -115.63326042 </i>
    <i name="e_0_energy">   -115.64398057 </i>
   </energy>
  </scstep>
  <scstep>
   <time name="dav">   72.91   72.93</time>
   <time name="total">   93.65   93.67</time>
   <energy>
    <i name="e_fr_energy">   -115.65473486 </i>
    <i name="e_wo_entrp">   -115.63329402 </i>
    <i name="e_0_energy">   -115.64401444 </i>
   </energy>
  </scstep>
  <scstep>
   <time name="dav">   82.30   82.32</time>
   <time name="total">  102.73  102.76</time>
   <energy>
    <i name="e_fr_energy">   -115.65475784 </i>
    <i name="e_wo_entrp">   -115.63331687 </i>
    <i name="e_0_energy">   -115.64403736 </i>
   </energy>
  </scstep>
  <scstep>
   <time name="dav">   76.50   76.52</time>
   <time name="total">   97.30   97.32</time>
   <energy>
    <i name="e_fr_energy">   -115.65471842 </i>
    <i name="e_wo_entrp">   -115.63327635 </i>
    <i name="e_0_energy">   -115.64399738 </i>
   </energy>
  </scstep>
  <scstep>
   <time name="dav">   80.11   80.13</time>
   <time name="total">  100.76  100.79</time>
   <energy>
    <i name="e_fr_energy">   -115.65465216 </i>
    <i name="e_wo_entrp">   -115.63321073 </i>
    <i name="e_0_energy">   -115.64393145 </i>
   </energy>
  </scstep>
  <scstep>
   <time name="dav">   76.55   76.56</time>
   <time name="total">   97.36   97.38</time>
   <energy>
    <i name="e_fr_energy">   -115.65461730 </i>
    <i name="e_wo_entrp">   -115.63317563 </i>
    <i name="e_0_energy">   -115.64389647 </i>
   </energy>
  </scstep>
  <scstep>
   <time name="dav">   82.68   82.70</time>
   <time name="total">  103.29  103.31</time>
   <energy>
    <i name="e_fr_energy">   -115.65459324 </i>
    <i name="e_wo_entrp">   -115.63315180 </i>
    <i name="e_0_energy">   -115.64387252 </i>
   </energy>
  </scstep>
  <scstep>
   <time name="dav">   72.49   72.51</time>
   <time name="total">   87.57   87.59</time>
   <energy>
    <i name="alphaZ">     36.80884744 </i>
    <i name="ewald">  11933.72372469 </i>
    <i name="hartreedc"> -15066.87159526 </i>
    <i name="XCdc">    -80.42707444 </i>
    <i name="pawpsdc">   1175.37433705 </i>
    <i name="pawaedc">   -854.89730282 </i>
    <i name="eentropy">     -0.02144154 </i>
    <i name="bandstr">   -613.38534939 </i>
    <i name="atom">   3354.04126044 </i>
    <i name="e_fr_energy">   -115.65459381 </i>
    <i name="e_wo_entrp">   -115.63315228 </i>
    <i name="e_0_energy">   -115.64387304 </i>
   </energy>
  </scstep>
  <structure>
   <crystal>
    <varray name="basis" >
     <v>       3.54040000       0.00000000       0.00000000 </v>
     <v>      -1.77020000      10.29434800       0.00000000 </v>
     <v>       0.00000000       0.00000000      27.50142900 </v>
    </varray>
    <i name="volume">   1002.32009712 </i>
    <varray name="rec_basis" >
     <v>       0.28245396       0.04857034       0.00000000 </v>
     <v>       0.00000000       0.09714068       0.00000000 </v>
     <v>       0.00000000       0.00000000       0.03636175 </v>
    </varray>
   </crystal>
   <varray name="positions" >
    <v>       0.11402300       0.22804500       0.23316207 </v>
    <v>       0.61402300       0.42804500       0.51499159 </v>
    <v>       0.45808900       0.91617900       0.20939482 </v>
    <v>       0.95808900       0.11617900       0.49122434 </v>
    <v>       0.31085400       0.62170900       0.08414979 </v>
    <v>       0.31085400       0.62170900       0.36597930 </v>
    <v>       0.99923000       0.99846000       0.08631254 </v>
    <v>       0.99923000       0.99846000       0.36814206 </v>
    <v>       0.65492700       0.30985400       0.06041748 </v>
    <v>       0.65492700       0.30985400       0.34224700 </v>
    <v>       0.76973800       0.53947500       0.20725292 </v>
    <v>       0.26973800       0.73947500       0.48908244 </v>
    <v>       0.93971600       0.87943300       0.15783749 </v>
    <v>       0.43971600       0.07943300       0.43966701 </v>
    <v>       0.20515200       0.41030300       0.18578822 </v>
    <v>       0.70515200       0.61030300       0.46761774 </v>
    <v>       0.20184900       0.40369900       0.09969156 </v>
    <v>       0.20184900       0.40369900       0.38152107 </v>
    <v>       0.56380500       0.12761000       0.10779021 </v>
    <v>       0.56380500       0.12761000       0.38961973 </v>
    <v>       0.56710600       0.13421200       0.19387616 </v>
    <v>       0.06710600       0.33421200       0.47570568 </v>
    <v>       0.82923400       0.65846800       0.13571444 </v>
    <v>       0.32923400       0.85846800       0.41754396 </v>
   </varray>
  </structure>
  <varray name="forces" >
   <v>      -0.01362833      -0.05720869      -0.00692094 </v>
   <v>      -0.04989850       0.32728796      -0.21528254 </v>
   <v>      -0.00083003      -0.01450551       0.08477714 </v>
   <v>       0.52109459       0.39784954       0.87362439 </v>
   <v>      -0.00091401      -0.00558305       0.00630714 </v>
   <v>       0.80006229      -0.33370398       0.57879948 </v>
   <v>      -0.00167252       0.00238396      -0.00079329 </v>
   <v>      -0.42928105      -1.32498989      -1.41983332 </v>
   <v>       0.00140467       0.00048818       0.01917868 </v>
   <v>      -0.06859287       0.00609410      -0.25334645 </v>
   <v>       0.00115942       0.00763385       0.09163791 </v>
   <v>      -0.59212112       0.23801476       0.57185637 </v>
   <v>       0.00261794       0.00049197       0.00929226 </v>
   <v>     -10.25394295     -13.84465570      41.34482204 </v>
   <v>      -0.00292453       0.01768029       0.06938595 </v>
   <v>      -0.27754734       0.30736515      -0.76703572 </v>
   <v>       0.00073762       0.00175872      -0.03071734 </v>
   <v>      -0.46608786       0.16734522       1.22161558 </v>
   <v>      -0.00441663      -0.01554984      -0.02247002 </v>
   <v>      10.16986897      14.72723562     -40.52085628 </v>
   <v>       0.00385116      -0.02406204       0.01521118 </v>
   <v>       0.44843569      -0.03122013      -1.06673623 </v>
   <v>       0.00167576       0.00848185      -0.00052381 </v>
   <v>       0.21094963      -0.55863233      -0.58199221 </v>
  </varray>
  <varray name="stress" >
   <v>       6.29972973      11.07302739     -22.10544461 </v>
   <v>      11.07302745       7.44848291     -23.47238902 </v>
   <v>     -22.10544453     -23.47238896      86.10582439 </v>
  </varray>
  <energy>
   <i name="e_fr_energy">   -115.65459381 </i>
   <i name="e_wo_entrp">   -115.64387304 </i>
   <i name="e_0_energy">     -0.02144154 </i>
  </energy>
  <time name="totalsc"> 2458.39 2458.97</time>
  <eigenvalues>
   <array>
    <dimension dim="1">band</dimension>
    <dimension dim="2">kpoint</dimension>
    <dimension dim="3">spin</dimension>
    <field>eigene</field>
    <field>occ</field>
    <set>
     <set comment="spin 1">
      <set comment="kpoint 1">
       <r>  -14.3354    1.0000 </r>
       <r>  -13.5590    1.0000 </r>
       <r>  -12.8339    1.0000 </r>
       <r>  -12.8186    1.0000 </r>
       <r>  -12.5098    1.0000 </r>
       <r>  -12.2175    1.0000 </r>
       <r>  -12.1009    1.0000 </r>
       <r>  -12.0769    1.0000 </r>
       <r>  -11.4511    1.0000 </r>
       <r>  -11.1688    1.0000 </r>
       <r>  -11.0087    1.0000 </r>
       <r>  -10.1399    1.0000 </r>
       <r>   -8.3857    1.0000 </r>
       <r>   -8.0507    1.0000 </r>
       <r>   -7.8481    1.0000 </r>
       <r>   -7.5680    1.0000 </r>
       <r>   -6.9665    1.0000 </r>
       <r>   -6.8546    1.0000 </r>
       <r>   -6.5479    1.0000 </r>
       <r>   -6.5102    1.0000 </r>
       <r>   -5.8448    1.0000 </r>
       <r>   -5.7093    1.0000 </r>
       <r>   -4.7794    1.0000 </r>
       <r>   -4.5022    1.0000 </r>
       <r>   -4.1115    1.0000 </r>
       <r>   -4.0315    1.0000 </r>
       <r>   -3.7144    1.0000 </r>
       <r>   -3.7057    1.0000 </r>
       <r>   -3.4875    1.0000 </r>
       <r>   -3.1586    1.0000 </r>
       <r>   -3.0747    1.0000 </r>
       <r>   -2.8615    1.0000 </r>
       <r>   -2.8582    1.0000 </r>
       <r>   -2.7046    1.0000 </r>
       <r>   -2.4786    1.0000 </r>
       <r>   -2.4277    1.0000 </r>
       <r>   -2.4136    1.0000 </r>
       <r>   -2.2385    1.0000 </r>
       <r>   -2.1917    1.0000 </r>
       <r>   -2.0168    1.0000 </r>
       <r>   -1.9565    1.0000 </r>
       <r>   -1.8768    1.0000 </r>
       <r>   -1.7458    1.0000 </r>
       <r>   -1.6864    1.0000 </r>
       <r>   -1.6604    1.0000 </r>
       <r>   -1.5913    1.0000 </r>
       <r>   -1.4499    1.0000 </r>
       <r>   -1.4172    1.0000 </r>
       <r>   -1.1833    1.0000 </r>
       <r>   -1.1314    1.0000 </r>
       <r>   -0.9635    1.0000 </r>
       <r>   -0.5847    1.0000 </r>
       <r>   -0.2975    0.9599 </r>
       <r>   -0.0881    0.1130 </r>
       <r>    0.8119    0.0000 </r>
       <r>    0.9674    0.0000 </r>
       <r>    1.1677    0.0000 </r>
       <r>    1.2534    0.0000 </r>
       <r>    1.3180    0.0000 </r>
       <r>    1.6578    0.0000 </r>
       <r>    1.7651    0.0000 </r>
       <r>    1.8241    0.0000 </r>
       <r>    1.9615    0.0000 </r>
       <r>    2.0296    0.0000 </r>
       <r>    2.0768    0.0000 </r>
       <r>    2.1547    0.0000 </r>
       <r>    2.4139    0.0000 </r>
       <r>    2.5287    0.0000 </r>
      </set>
      <set comment="kpoint 2">
       <r>  -14.2746    1.0000 </r>
       <r>  -13.4976    1.0000 </r>
       <r>  -12.7782    1.0000 </r>
       <r>  -12.7663    1.0000 </r>
       <r>  -12.4541    1.0000 </r>
       <r>  -12.1618    1.0000 </r>
       <r>  -12.0422    1.0000 </r>
       <r>  -12.0171    1.0000 </r>
       <r>  -11.4022    1.0000 </r>
       <r>  -11.1221    1.0000 </r>
       <r>  -10.9603    1.0000 </r>
       <r>  -10.1072    1.0000 </r>
       <r>   -8.3606    1.0000 </r>
       <r>   -8.0875    1.0000 </r>
       <r>   -7.8112    1.0000 </r>
       <r>   -7.6175    1.0000 </r>
       <r>   -6.9454    1.0000 </r>
       <r>   -6.8248    1.0000 </r>
       <r>   -6.5398    1.0000 </r>
       <r>   -6.5045    1.0000 </r>
       <r>   -5.8109    1.0000 </r>
       <r>   -5.6886    1.0000 </r>
       <r>   -4.7848    1.0000 </r>
       <r>   -4.6504    1.0000 </r>
       <r>   -4.2548    1.0000 </r>
       <r>   -4.0329    1.0000 </r>
       <r>   -3.7496    1.0000 </r>
       <r>   -3.6941    1.0000 </r>
       <r>   -3.5860    1.0000 </r>
       <r>   -3.4360    1.0000 </r>
       <r>   -3.2955    1.0000 </r>
       <r>   -3.2419    1.0000 </r>
       <r>   -3.0666    1.0000 </r>
       <r>   -2.9283    1.0000 </r>
       <r>   -2.7583    1.0000 </r>
       <r>   -2.5790    1.0000 </r>
       <r>   -2.4992    1.0000 </r>
       <r>   -2.4832    1.0000 </r>
       <r>   -2.2676    1.0000 </r>
       <r>   -2.2120    1.0000 </r>
       <r>   -2.1694    1.0000 </r>
       <r>   -2.0055    1.0000 </r>
       <r>   -1.9807    1.0000 </r>
       <r>   -1.8738    1.0000 </r>
       <r>   -1.7905    1.0000 </r>
       <r>   -1.7541    1.0000 </r>
       <r>   -1.5297    1.0000 </r>
       <r>   -1.3997    1.0000 </r>
       <r>   -1.2256    1.0000 </r>
       <r>   -1.0985    1.0000 </r>
       <r>   -0.9149    1.0000 </r>
       <r>   -0.4075    0.9995 </r>
       <r>   -0.2568    0.8800 </r>
       <r>   -0.0690    0.0693 </r>
       <r>    0.6077    0.0000 </r>
       <r>    1.0407    0.0000 </r>
       <r>    1.2766    0.0000 </r>
       <r>    1.5478    0.0000 </r>
       <r>    1.7440    0.0000 </r>
       <r>    1.7918    0.0000 </r>
       <r>    1.9527    0.0000 </r>
       <r>    2.1015    0.0000 </r>
       <r>    2.1776    0.0000 </r>
       <r>    2.2432    0.0000 </r>
       <r>    2.3009    0.0000 </r>
       <r>    2.4998    0.0000 </r>
       <r>    2.5936    0.0000 </r>
       <r>    2.7713    0.0000 </r>
      </set>
      <set comment="kpoint 3">
       <r>  -14.0935    1.0000 </r>
       <r>  -13.3146    1.0000 </r>
       <r>  -12.6134    1.0000 </r>
       <r>  -12.6095    1.0000 </r>
       <r>  -12.2892    1.0000 </r>
       <r>  -11.9975    1.0000 </r>
       <r>  -11.8708    1.0000 </r>
       <r>  -11.8400    1.0000 </r>
       <r>  -11.2602    1.0000 </r>
       <r>  -10.9874    1.0000 </r>
       <r>  -10.8216    1.0000 </r>
       <r>  -10.0170    1.0000 </r>
       <r>   -8.3464    1.0000 </r>
       <r>   -8.1840    1.0000 </r>
       <r>   -7.7818    1.0000 </r>
       <r>   -7.7628    1.0000 </r>
       <r>   -6.9246    1.0000 </r>
       <r>   -6.7538    1.0000 </r>
       <r>   -6.5277    1.0000 </r>
       <r>   -6.5170    1.0000 </r>
       <r>   -5.7372    1.0000 </r>
       <r>   -5.6742    1.0000 </r>
       <r>   -5.1192    1.0000 </r>
       <r>   -4.8861    1.0000 </r>
       <r>   -4.3318    1.0000 </r>
       <r>   -4.2145    1.0000 </r>
       <r>   -4.1420    1.0000 </r>
       <r>   -4.0933    1.0000 </r>
       <r>   -3.9923    1.0000 </r>
       <r>   -3.7927    1.0000 </r>
       <r>   -3.7588    1.0000 </r>
       <r>   -3.6618    1.0000 </r>
       <r>   -3.5065    1.0000 </r>
       <r>   -3.3679    1.0000 </r>
       <r>   -3.2026    1.0000 </r>
       <r>   -3.0689    1.0000 </r>
       <r>   -2.9847    1.0000 </r>
       <r>   -2.9278    1.0000 </r>
       <r>   -2.7548    1.0000 </r>
       <r>   -2.5588    1.0000 </r>
       <r>   -2.3917    1.0000 </r>
       <r>   -2.2228    1.0000 </r>
       <r>   -2.1655    1.0000 </r>
       <r>   -2.0252    1.0000 </r>
       <r>   -1.8741    1.0000 </r>
       <r>   -1.7802    1.0000 </r>
       <r>   -1.6688    1.0000 </r>
       <r>   -1.4958    1.0000 </r>
       <r>   -1.2680    1.0000 </r>
       <r>   -1.1074    1.0000 </r>
       <r>   -0.8893    1.0000 </r>
       <r>   -0.4948    1.0000 </r>
       <r>   -0.2370    0.8147 </r>
       <r>   -0.0390    0.0283 </r>
       <r>    0.1930    0.0000 </r>
       <r>    0.9799    0.0000 </r>
       <r>    1.3576    0.0000 </r>
       <r>    1.7593    0.0000 </r>
       <r>    1.9169    0.0000 </r>
       <r>    2.1377    0.0000 </r>
       <r>    2.2380    0.0000 </r>
       <r>    2.4050    0.0000 </r>
       <r>    2.5915    0.0000 </r>
       <r>    2.6550    0.0000 </r>
       <r>    2.7744    0.0000 </r>
       <r>    2.9232    0.0000 </r>
       <r>    2.9577    0.0000 </r>
       <r>    3.0396    0.0000 </r>
      </set>
      <set comment="kpoint 4">
       <r>  -13.7956    1.0000 </r>
       <r>  -13.0136    1.0000 </r>
       <r>  -12.3549    1.0000 </r>
       <r>  -12.3413    1.0000 </r>
       <r>  -12.0220    1.0000 </r>
       <r>  -11.7341    1.0000 </r>
       <r>  -11.6016    1.0000 </r>
       <r>  -11.5571    1.0000 </r>
       <r>  -11.0433    1.0000 </r>
       <r>  -10.7863    1.0000 </r>
       <r>  -10.6185    1.0000 </r>
       <r>   -9.8981    1.0000 </r>
       <r>   -8.6665    1.0000 </r>
       <r>   -8.3770    1.0000 </r>
       <r>   -7.8442    1.0000 </r>
       <r>   -7.8096    1.0000 </r>
       <r>   -7.0441    1.0000 </r>
       <r>   -6.7210    1.0000 </r>
       <r>   -6.6515    1.0000 </r>
       <r>   -6.5521    1.0000 </r>
       <r>   -5.9008    1.0000 </r>
       <r>   -5.7540    1.0000 </r>
       <r>   -5.3570    1.0000 </r>
       <r>   -5.3046    1.0000 </r>
       <r>   -4.8362    1.0000 </r>
       <r>   -4.7260    1.0000 </r>
       <r>   -4.6302    1.0000 </r>
       <r>   -4.5921    1.0000 </r>
       <r>   -4.5244    1.0000 </r>
       <r>   -4.2548    1.0000 </r>
       <r>   -4.2062    1.0000 </r>
       <r>   -4.0336    1.0000 </r>
       <r>   -3.8016    1.0000 </r>
       <r>   -3.6106    1.0000 </r>
       <r>   -3.4835    1.0000 </r>
       <r>   -3.4615    1.0000 </r>
       <r>   -3.2172    1.0000 </r>
       <r>   -3.0148    1.0000 </r>
       <r>   -2.8286    1.0000 </r>
       <r>   -2.6606    1.0000 </r>
       <r>   -2.6050    1.0000 </r>
       <r>   -2.4747    1.0000 </r>
       <r>   -2.3845    1.0000 </r>
       <r>   -1.9630    1.0000 </r>
       <r>   -1.9164    1.0000 </r>
       <r>   -1.8625    1.0000 </r>
       <r>   -1.7906    1.0000 </r>
       <r>   -1.6970    1.0000 </r>
       <r>   -1.4866    1.0000 </r>
       <r>   -1.1830    1.0000 </r>
       <r>   -1.0823    1.0000 </r>
       <r>   -0.8781    1.0000 </r>
       <r>   -0.5117    1.0000 </r>
       <r>   -0.3321    0.9874 </r>
       <r>    0.0480    0.0009 </r>
       <r>    0.7986    0.0000 </r>
       <r>    1.5001    0.0000 </r>
       <r>    1.8314    0.0000 </r>
       <r>    1.8793    0.0000 </r>
       <r>    1.9973    0.0000 </r>
       <r>    2.1396    0.0000 </r>
       <r>    2.2583    0.0000 </r>
       <r>    2.3630    0.0000 </r>
       <r>    2.5463    0.0000 </r>
       <r>    2.6660    0.0000 </r>
       <r>    2.8595    0.0000 </r>
       <r>    2.8880    0.0000 </r>
       <r>    2.9525    0.0000 </r>
      </set>
      <set comment="kpoint 5">
       <r>  -13.3900    1.0000 </r>
       <r>  -12.6018    1.0000 </r>
       <r>  -12.0064    1.0000 </r>
       <r>  -11.9789    1.0000 </r>
       <r>  -11.6694    1.0000 </r>
       <r>  -11.3920    1.0000 </r>
       <r>  -11.2690    1.0000 </r>
       <r>  -11.2028    1.0000 </r>
       <r>  -10.7990    1.0000 </r>
       <r>  -10.5770    1.0000 </r>
       <r>  -10.4326    1.0000 </r>
       <r>   -9.8277    1.0000 </r>
       <r>   -9.2921    1.0000 </r>
       <r>   -8.6721    1.0000 </r>
       <r>   -8.1031    1.0000 </r>
       <r>   -7.6696    1.0000 </r>
       <r>   -7.3896    1.0000 </r>
       <r>   -7.0155    1.0000 </r>
       <r>   -6.9179    1.0000 </r>
       <r>   -6.6963    1.0000 </r>
       <r>   -6.4475    1.0000 </r>
       <r>   -6.1792    1.0000 </r>
       <r>   -5.9819    1.0000 </r>
       <r>   -5.5273    1.0000 </r>
       <r>   -5.2305    1.0000 </r>
       <r>   -5.0913    1.0000 </r>
       <r>   -4.8826    1.0000 </r>
       <r>   -4.8142    1.0000 </r>
       <r>   -4.7179    1.0000 </r>
       <r>   -4.4566    1.0000 </r>
       <r>   -4.3298    1.0000 </r>
       <r>   -4.2424    1.0000 </r>
       <r>   -4.1907    1.0000 </r>
       <r>   -3.5951    1.0000 </r>
       <r>   -3.4434    1.0000 </r>
       <r>   -3.3749    1.0000 </r>
       <r>   -3.1169    1.0000 </r>
       <r>   -3.0629    1.0000 </r>
       <r>   -3.0345    1.0000 </r>
       <r>   -2.8666    1.0000 </r>
       <r>   -2.6941    1.0000 </r>
       <r>   -2.6300    1.0000 </r>
       <r>   -2.4336    1.0000 </r>
       <r>   -2.2284    1.0000 </r>
       <r>   -2.0811    1.0000 </r>
       <r>   -1.9505    1.0000 </r>
       <r>   -1.8907    1.0000 </r>
       <r>   -1.8690    1.0000 </r>
       <r>   -1.7240    1.0000 </r>
       <r>   -1.6224    1.0000 </r>
       <r>   -1.3208    1.0000 </r>
       <r>   -1.0475    1.0000 </r>
       <r>   -0.7970    1.0000 </r>
       <r>   -0.5611    1.0000 </r>
       <r>   -0.1660    0.4562 </r>
       <r>    0.6638    0.0000 </r>
       <r>    1.3041    0.0000 </r>
       <r>    1.5535    0.0000 </r>
       <r>    1.7356    0.0000 </r>
       <r>    1.8156    0.0000 </r>
       <r>    1.9546    0.0000 </r>
       <r>    2.0632    0.0000 </r>
       <r>    2.2257    0.0000 </r>
       <r>    2.3404    0.0000 </r>
       <r>    2.4192    0.0000 </r>
       <r>    2.6214    0.0000 </r>
       <r>    2.7659    0.0000 </r>
       <r>    2.8093    0.0000 </r>
      </set>
      <set comment="kpoint 6">
       <r>  -12.9000    1.0000 </r>
       <r>  -12.0933    1.0000 </r>
       <r>  -11.5872    1.0000 </r>
       <r>  -11.5543    1.0000 </r>
       <r>  -11.2700    1.0000 </r>
       <r>  -11.0386    1.0000 </r>
       <r>  -10.9871    1.0000 </r>
       <r>  -10.8654    1.0000 </r>
       <r>  -10.6442    1.0000 </r>
       <r>  -10.5150    1.0000 </r>
       <r>  -10.4727    1.0000 </r>
       <r>  -10.0143    1.0000 </r>
       <r>   -9.6403    1.0000 </r>
       <r>   -8.8484    1.0000 </r>
       <r>   -8.3955    1.0000 </r>
       <r>   -7.8350    1.0000 </r>
       <r>   -7.5842    1.0000 </r>
       <r>   -7.4761    1.0000 </r>
       <r>   -7.4320    1.0000 </r>
       <r>   -7.0516    1.0000 </r>
       <r>   -6.8419    1.0000 </r>
       <r>   -6.7765    1.0000 </r>
       <r>   -6.6769    1.0000 </r>
       <r>   -6.1842    1.0000 </r>
       <r>   -5.2301    1.0000 </r>
       <r>   -4.9391    1.0000 </r>
       <r>   -4.7401    1.0000 </r>
       <r>   -4.6594    1.0000 </r>
       <r>   -4.5438    1.0000 </r>
       <r>   -4.3404    1.0000 </r>
       <r>   -4.2324    1.0000 </r>
       <r>   -4.1778    1.0000 </r>
       <r>   -4.0852    1.0000 </r>
       <r>   -3.8150    1.0000 </r>
       <r>   -3.6729    1.0000 </r>
       <r>   -3.4064    1.0000 </r>
       <r>   -3.2919    1.0000 </r>
       <r>   -3.2583    1.0000 </r>
       <r>   -3.1621    1.0000 </r>
       <r>   -2.8610    1.0000 </r>
       <r>   -2.8078    1.0000 </r>
       <r>   -2.6217    1.0000 </r>
       <r>   -2.5121    1.0000 </r>
       <r>   -2.4094    1.0000 </r>
       <r>   -2.2781    1.0000 </r>
       <r>   -2.1329    1.0000 </r>
       <r>   -2.0596    1.0000 </r>
       <r>   -2.0433    1.0000 </r>
       <r>   -1.9178    1.0000 </r>
       <r>   -1.8224    1.0000 </r>
       <r>   -1.4476    1.0000 </r>
       <r>   -1.3188    1.0000 </r>
       <r>   -1.0069    1.0000 </r>
       <r>   -0.5942    1.0000 </r>
       <r>   -0.3066    0.9698 </r>
       <r>    0.4939    0.0000 </r>
       <r>    0.9707    0.0000 </r>
       <r>    1.3725    0.0000 </r>
       <r>    1.5793    0.0000 </r>
       <r>    1.6891    0.0000 </r>
       <r>    1.7385    0.0000 </r>
       <r>    1.9863    0.0000 </r>
       <r>    2.0931    0.0000 </r>
       <r>    2.2170    0.0000 </r>
       <r>    2.2598    0.0000 </r>
       <r>    2.3598    0.0000 </r>
       <r>    2.4939    0.0000 </r>
       <r>    2.7042    0.0000 </r>
      </set>
      <set comment="kpoint 7">
       <r>  -12.4254    1.0000 </r>
       <r>  -11.5197    1.0000 </r>
       <r>  -11.2723    1.0000 </r>
       <r>  -11.1644    1.0000 </r>
       <r>  -11.0701    1.0000 </r>
       <r>  -10.9654    1.0000 </r>
       <r>  -10.8618    1.0000 </r>
       <r>  -10.8234    1.0000 </r>
       <r>  -10.7471    1.0000 </r>
       <r>  -10.6530    1.0000 </r>
       <r>  -10.5116    1.0000 </r>
       <r>  -10.0410    1.0000 </r>
       <r>   -9.8031    1.0000 </r>
       <r>   -8.7058    1.0000 </r>
       <r>   -8.4584    1.0000 </r>
       <r>   -8.0980    1.0000 </r>
       <r>   -8.0020    1.0000 </r>
       <r>   -7.8063    1.0000 </r>
       <r>   -7.5890    1.0000 </r>
       <r>   -7.3464    1.0000 </r>
       <r>   -7.3003    1.0000 </r>
       <r>   -7.1969    1.0000 </r>
       <r>   -6.9263    1.0000 </r>
       <r>   -6.5247    1.0000 </r>
       <r>   -4.9351    1.0000 </r>
       <r>   -4.6821    1.0000 </r>
       <r>   -4.6178    1.0000 </r>
       <r>   -4.5198    1.0000 </r>
       <r>   -4.3544    1.0000 </r>
       <r>   -4.2819    1.0000 </r>
       <r>   -4.0925    1.0000 </r>
       <r>   -3.9958    1.0000 </r>
       <r>   -3.9227    1.0000 </r>
       <r>   -3.8761    1.0000 </r>
       <r>   -3.8437    1.0000 </r>
       <r>   -3.6131    1.0000 </r>
       <r>   -3.5405    1.0000 </r>
       <r>   -3.3462    1.0000 </r>
       <r>   -3.2693    1.0000 </r>
       <r>   -3.1161    1.0000 </r>
       <r>   -3.0073    1.0000 </r>
       <r>   -2.7980    1.0000 </r>
       <r>   -2.7028    1.0000 </r>
       <r>   -2.3792    1.0000 </r>
       <r>   -2.2655    1.0000 </r>
       <r>   -2.2454    1.0000 </r>
       <r>   -2.1582    1.0000 </r>
       <r>   -2.0457    1.0000 </r>
       <r>   -1.9458    1.0000 </r>
       <r>   -1.7253    1.0000 </r>
       <r>   -1.6515    1.0000 </r>
       <r>   -1.5343    1.0000 </r>
       <r>   -0.9457    1.0000 </r>
       <r>   -0.6534    1.0000 </r>
       <r>   -0.4117    0.9996 </r>
       <r>    0.3679    0.0000 </r>
       <r>    0.7750    0.0000 </r>
       <r>    1.3216    0.0000 </r>
       <r>    1.4065    0.0000 </r>
       <r>    1.5839    0.0000 </r>
       <r>    1.6478    0.0000 </r>
       <r>    1.8440    0.0000 </r>
       <r>    1.9702    0.0000 </r>
       <r>    2.0687    0.0000 </r>
       <r>    2.2628    0.0000 </r>
       <r>    2.3382    0.0000 </r>
       <r>    2.4153    0.0000 </r>
       <r>    2.5535    0.0000 </r>
      </set>
      <set comment="kpoint 8">
       <r>  -14.3297    1.0000 </r>
       <r>  -13.5037    1.0000 </r>
       <r>  -12.9926    1.0000 </r>
       <r>  -12.8891    1.0000 </r>
       <r>  -12.5085    1.0000 </r>
       <r>  -12.2160    1.0000 </r>
       <r>  -11.9926    1.0000 </r>
       <r>  -11.8844    1.0000 </r>
       <r>  -11.4962    1.0000 </r>
       <r>  -11.2042    1.0000 </r>
       <r>  -11.0176    1.0000 </r>
       <r>  -10.0898    1.0000 </r>
       <r>   -8.5387    1.0000 </r>
       <r>   -8.4938    1.0000 </r>
       <r>   -7.7747    1.0000 </r>
       <r>   -7.4063    1.0000 </r>
       <r>   -6.7859    1.0000 </r>
       <r>   -6.6880    1.0000 </r>
       <r>   -6.6126    1.0000 </r>
       <r>   -6.4198    1.0000 </r>
       <r>   -5.7670    1.0000 </r>
       <r>   -5.6159    1.0000 </r>
       <r>   -4.6791    1.0000 </r>
       <r>   -4.4651    1.0000 </r>
       <r>   -4.0783    1.0000 </r>
       <r>   -4.0267    1.0000 </r>
       <r>   -3.9236    1.0000 </r>
       <r>   -3.7538    1.0000 </r>
       <r>   -3.5110    1.0000 </r>
       <r>   -3.3569    1.0000 </r>
       <r>   -3.1462    1.0000 </r>
       <r>   -3.0289    1.0000 </r>
       <r>   -2.7270    1.0000 </r>
       <r>   -2.7040    1.0000 </r>
       <r>   -2.5216    1.0000 </r>
       <r>   -2.4146    1.0000 </r>
       <r>   -2.3975    1.0000 </r>
       <r>   -2.3090    1.0000 </r>
       <r>   -2.1718    1.0000 </r>
       <r>   -2.1455    1.0000 </r>
       <r>   -2.0115    1.0000 </r>
       <r>   -1.9676    1.0000 </r>
       <r>   -1.8979    1.0000 </r>
       <r>   -1.6583    1.0000 </r>
       <r>   -1.6456    1.0000 </r>
       <r>   -1.5366    1.0000 </r>
       <r>   -1.3803    1.0000 </r>
       <r>   -1.3596    1.0000 </r>
       <r>   -1.1686    1.0000 </r>
       <r>   -1.0694    1.0000 </r>
       <r>   -0.9417    1.0000 </r>
       <r>   -0.5602    1.0000 </r>
       <r>   -0.2591    0.8862 </r>
       <r>    0.0787    0.0002 </r>
       <r>    0.8410    0.0000 </r>
       <r>    1.0251    0.0000 </r>
       <r>    1.1888    0.0000 </r>
       <r>    1.3269    0.0000 </r>
       <r>    1.4030    0.0000 </r>
       <r>    1.6720    0.0000 </r>
       <r>    1.7344    0.0000 </r>
       <r>    1.8073    0.0000 </r>
       <r>    1.8833    0.0000 </r>
       <r>    2.0685    0.0000 </r>
       <r>    2.1686    0.0000 </r>
       <r>    2.2400    0.0000 </r>
       <r>    2.5156    0.0000 </r>
       <r>    2.6421    0.0000 </r>
      </set>
      <set comment="kpoint 9">
       <r>  -14.2678    1.0000 </r>
       <r>  -13.4268    1.0000 </r>
       <r>  -12.9734    1.0000 </r>
       <r>  -12.8436    1.0000 </r>
       <r>  -12.4514    1.0000 </r>
       <r>  -12.1602    1.0000 </r>
       <r>  -11.9185    1.0000 </r>
       <r>  -11.7852    1.0000 </r>
       <r>  -11.4549    1.0000 </r>
       <r>  -11.1631    1.0000 </r>
       <r>  -10.9734    1.0000 </r>
       <r>  -10.0500    1.0000 </r>
       <r>   -8.5941    1.0000 </r>
       <r>   -8.4852    1.0000 </r>
       <r>   -7.8378    1.0000 </r>
       <r>   -7.3576    1.0000 </r>
       <r>   -6.7689    1.0000 </r>
       <r>   -6.6964    1.0000 </r>
       <r>   -6.5465    1.0000 </r>
       <r>   -6.3830    1.0000 </r>
       <r>   -5.7188    1.0000 </r>
       <r>   -5.5713    1.0000 </r>
       <r>   -4.7172    1.0000 </r>
       <r>   -4.6113    1.0000 </r>
       <r>   -4.2873    1.0000 </r>
       <r>   -4.0964    1.0000 </r>
       <r>   -3.8844    1.0000 </r>
       <r>   -3.7380    1.0000 </r>
       <r>   -3.6348    1.0000 </r>
       <r>   -3.5017    1.0000 </r>
       <r>   -3.4060    1.0000 </r>
       <r>   -3.1147    1.0000 </r>
       <r>   -3.0497    1.0000 </r>
       <r>   -3.0130    1.0000 </r>
       <r>   -2.7449    1.0000 </r>
       <r>   -2.6708    1.0000 </r>
       <r>   -2.5775    1.0000 </r>
       <r>   -2.5121    1.0000 </r>
       <r>   -2.3600    1.0000 </r>
       <r>   -2.3174    1.0000 </r>
       <r>   -2.2321    1.0000 </r>
       <r>   -2.1447    1.0000 </r>
       <r>   -2.0243    1.0000 </r>
       <r>   -1.8582    1.0000 </r>
       <r>   -1.7820    1.0000 </r>
       <r>   -1.6987    1.0000 </r>
       <r>   -1.5261    1.0000 </r>
       <r>   -1.3448    1.0000 </r>
       <r>   -1.1117    1.0000 </r>
       <r>   -1.0059    1.0000 </r>
       <r>   -0.8867    1.0000 </r>
       <r>   -0.3533    0.9945 </r>
       <r>   -0.2580    0.8834 </r>
       <r>    0.0612    0.0004 </r>
       <r>    0.6678    0.0000 </r>
       <r>    1.1295    0.0000 </r>
       <r>    1.2109    0.0000 </r>
       <r>    1.5676    0.0000 </r>
       <r>    1.7611    0.0000 </r>
       <r>    1.9141    0.0000 </r>
       <r>    1.9319    0.0000 </r>
       <r>    2.0318    0.0000 </r>
       <r>    2.1883    0.0000 </r>
       <r>    2.2844    0.0000 </r>
       <r>    2.4956    0.0000 </r>
       <r>    2.5134    0.0000 </r>
       <r>    2.6374    0.0000 </r>
       <r>    2.8654    0.0000 </r>
      </set>
      <set comment="kpoint 10">
       <r>  -14.0859    1.0000 </r>
       <r>  -13.2303    1.0000 </r>
       <r>  -12.8368    1.0000 </r>
       <r>  -12.6837    1.0000 </r>
       <r>  -12.2850    1.0000 </r>
       <r>  -11.9967    1.0000 </r>
       <r>  -11.7407    1.0000 </r>
       <r>  -11.5875    1.0000 </r>
       <r>  -11.3155    1.0000 </r>
       <r>  -11.0312    1.0000 </r>
       <r>  -10.8322    1.0000 </r>
       <r>   -9.9600    1.0000 </r>
       <r>   -8.6589    1.0000 </r>
       <r>   -8.4329    1.0000 </r>
       <r>   -8.0041    1.0000 </r>
       <r>   -7.3263    1.0000 </r>
       <r>   -6.7880    1.0000 </r>
       <r>   -6.6750    1.0000 </r>
       <r>   -6.5206    1.0000 </r>
       <r>   -6.3761    1.0000 </r>
       <r>   -5.6775    1.0000 </r>
       <r>   -5.6055    1.0000 </r>
       <r>   -4.9525    1.0000 </r>
       <r>   -4.8600    1.0000 </r>
       <r>   -4.4881    1.0000 </r>
       <r>   -4.3936    1.0000 </r>
       <r>   -4.3113    1.0000 </r>
       <r>   -4.0549    1.0000 </r>
       <r>   -4.0021    1.0000 </r>
       <r>   -3.8782    1.0000 </r>
       <r>   -3.6750    1.0000 </r>
       <r>   -3.6281    1.0000 </r>
       <r>   -3.4765    1.0000 </r>
       <r>   -3.3389    1.0000 </r>
       <r>   -3.1268    1.0000 </r>
       <r>   -2.9864    1.0000 </r>
       <r>   -2.9519    1.0000 </r>
       <r>   -2.8762    1.0000 </r>
       <r>   -2.8191    1.0000 </r>
       <r>   -2.6723    1.0000 </r>
       <r>   -2.6086    1.0000 </r>
       <r>   -2.3892    1.0000 </r>
       <r>   -2.3141    1.0000 </r>
       <r>   -2.0167    1.0000 </r>
       <r>   -1.9151    1.0000 </r>
       <r>   -1.7962    1.0000 </r>
       <r>   -1.5616    1.0000 </r>
       <r>   -1.4668    1.0000 </r>
       <r>   -1.1612    1.0000 </r>
       <r>   -1.0008    1.0000 </r>
       <r>   -0.8429    1.0000 </r>
       <r>   -0.5965    1.0000 </r>
       <r>   -0.2774    0.9286 </r>
       <r>    0.0184    0.0033 </r>
       <r>    0.3694    0.0000 </r>
       <r>    0.9165    0.0000 </r>
       <r>    1.2783    0.0000 </r>
       <r>    1.6424    0.0000 </r>
       <r>    1.8778    0.0000 </r>
       <r>    2.0761    0.0000 </r>
       <r>    2.2616    0.0000 </r>
       <r>    2.3430    0.0000 </r>
       <r>    2.7202    0.0000 </r>
       <r>    2.7446    0.0000 </r>
       <r>    2.8405    0.0000 </r>
       <r>    2.9095    0.0000 </r>
       <r>    3.0305    0.0000 </r>
       <r>    3.0825    0.0000 </r>
      </set>
      <set comment="kpoint 11">
       <r>  -13.7877    1.0000 </r>
       <r>  -12.9189    1.0000 </r>
       <r>  -12.5854    1.0000 </r>
       <r>  -12.4148    1.0000 </r>
       <r>  -12.0170    1.0000 </r>
       <r>  -11.7347    1.0000 </r>
       <r>  -11.4712    1.0000 </r>
       <r>  -11.3109    1.0000 </r>
       <r>  -11.0938    1.0000 </r>
       <r>  -10.8296    1.0000 </r>
       <r>  -10.6148    1.0000 </r>
       <r>   -9.8494    1.0000 </r>
       <r>   -8.7902    1.0000 </r>
       <r>   -8.7056    1.0000 </r>
       <r>   -8.0136    1.0000 </r>
       <r>   -7.4128    1.0000 </r>
       <r>   -6.9768    1.0000 </r>
       <r>   -6.7151    1.0000 </r>
       <r>   -6.6642    1.0000 </r>
       <r>   -6.4523    1.0000 </r>
       <r>   -5.9001    1.0000 </r>
       <r>   -5.8328    1.0000 </r>
       <r>   -5.2281    1.0000 </r>
       <r>   -5.1013    1.0000 </r>
       <r>   -5.0459    1.0000 </r>
       <r>   -4.7716    1.0000 </r>
       <r>   -4.6861    1.0000 </r>
       <r>   -4.5930    1.0000 </r>
       <r>   -4.5648    1.0000 </r>
       <r>   -4.2936    1.0000 </r>
       <r>   -4.1834    1.0000 </r>
       <r>   -4.0283    1.0000 </r>
       <r>   -3.7567    1.0000 </r>
       <r>   -3.6420    1.0000 </r>
       <r>   -3.3346    1.0000 </r>
       <r>   -3.2247    1.0000 </r>
       <r>   -3.1596    1.0000 </r>
       <r>   -3.1087    1.0000 </r>
       <r>   -2.8073    1.0000 </r>
       <r>   -2.7450    1.0000 </r>
       <r>   -2.6661    1.0000 </r>
       <r>   -2.5472    1.0000 </r>
       <r>   -2.4476    1.0000 </r>
       <r>   -2.0183    1.0000 </r>
       <r>   -1.9706    1.0000 </r>
       <r>   -1.8447    1.0000 </r>
       <r>   -1.7908    1.0000 </r>
       <r>   -1.6697    1.0000 </r>
       <r>   -1.4076    1.0000 </r>
       <r>   -1.2692    1.0000 </r>
       <r>   -1.1117    1.0000 </r>
       <r>   -0.8250    1.0000 </r>
       <r>   -0.4911    1.0000 </r>
       <r>   -0.3077    0.9709 </r>
       <r>   -0.0944    0.1309 </r>
       <r>    0.8067    0.0000 </r>
       <r>    1.3053    0.0000 </r>
       <r>    1.4496    0.0000 </r>
       <r>    1.5828    0.0000 </r>
       <r>    1.8928    0.0000 </r>
       <r>    2.1236    0.0000 </r>
       <r>    2.2844    0.0000 </r>
       <r>    2.4949    0.0000 </r>
       <r>    2.6384    0.0000 </r>
       <r>    2.6772    0.0000 </r>
       <r>    2.7685    0.0000 </r>
       <r>    3.0185    0.0000 </r>
       <r>    3.1492    0.0000 </r>
      </set>
      <set comment="kpoint 12">
       <r>  -13.3822    1.0000 </r>
       <r>  -12.5022    1.0000 </r>
       <r>  -12.2262    1.0000 </r>
       <r>  -12.0496    1.0000 </r>
       <r>  -11.6650    1.0000 </r>
       <r>  -11.3960    1.0000 </r>
       <r>  -11.1413    1.0000 </r>
       <r>  -10.9975    1.0000 </r>
       <r>  -10.8301    1.0000 </r>
       <r>  -10.6182    1.0000 </r>
       <r>  -10.4092    1.0000 </r>
       <r>   -9.8005    1.0000 </r>
       <r>   -9.3053    1.0000 </r>
       <r>   -8.9890    1.0000 </r>
       <r>   -7.7947    1.0000 </r>
       <r>   -7.7259    1.0000 </r>
       <r>   -7.3827    1.0000 </r>
       <r>   -7.1307    1.0000 </r>
       <r>   -6.9809    1.0000 </r>
       <r>   -6.6703    1.0000 </r>
       <r>   -6.4186    1.0000 </r>
       <r>   -6.2070    1.0000 </r>
       <r>   -5.9365    1.0000 </r>
       <r>   -5.5635    1.0000 </r>
       <r>   -5.3986    1.0000 </r>
       <r>   -5.0861    1.0000 </r>
       <r>   -4.9580    1.0000 </r>
       <r>   -4.6316    1.0000 </r>
       <r>   -4.5577    1.0000 </r>
       <r>   -4.4278    1.0000 </r>
       <r>   -4.3498    1.0000 </r>
       <r>   -4.2608    1.0000 </r>
       <r>   -4.0272    1.0000 </r>
       <r>   -3.7669    1.0000 </r>
       <r>   -3.3603    1.0000 </r>
       <r>   -3.2396    1.0000 </r>
       <r>   -3.0903    1.0000 </r>
       <r>   -3.0191    1.0000 </r>
       <r>   -2.9393    1.0000 </r>
       <r>   -2.8753    1.0000 </r>
       <r>   -2.6298    1.0000 </r>
       <r>   -2.5508    1.0000 </r>
       <r>   -2.4518    1.0000 </r>
       <r>   -2.2917    1.0000 </r>
       <r>   -2.2058    1.0000 </r>
       <r>   -1.9805    1.0000 </r>
       <r>   -1.9088    1.0000 </r>
       <r>   -1.8670    1.0000 </r>
       <r>   -1.7609    1.0000 </r>
       <r>   -1.6246    1.0000 </r>
       <r>   -1.3423    1.0000 </r>
       <r>   -1.0670    1.0000 </r>
       <r>   -0.9442    1.0000 </r>
       <r>   -0.5340    1.0000 </r>
       <r>   -0.3526    0.9943 </r>
       <r>    0.6324    0.0000 </r>
       <r>    1.0372    0.0000 </r>
       <r>    1.2185    0.0000 </r>
       <r>    1.2868    0.0000 </r>
       <r>    1.8145    0.0000 </r>
       <r>    1.9965    0.0000 </r>
       <r>    2.1772    0.0000 </r>
       <r>    2.2344    0.0000 </r>
       <r>    2.3936    0.0000 </r>
       <r>    2.5097    0.0000 </r>
       <r>    2.5764    0.0000 </r>
       <r>    2.6710    0.0000 </r>
       <r>    2.9085    0.0000 </r>
      </set>
      <set comment="kpoint 13">
       <r>  -12.8932    1.0000 </r>
       <r>  -11.9987    1.0000 </r>
       <r>  -11.7760    1.0000 </r>
       <r>  -11.6183    1.0000 </r>
       <r>  -11.2688    1.0000 </r>
       <r>  -11.0499    1.0000 </r>
       <r>  -10.8716    1.0000 </r>
       <r>  -10.7416    1.0000 </r>
       <r>  -10.6194    1.0000 </r>
       <r>  -10.5537    1.0000 </r>
       <r>  -10.4854    1.0000 </r>
       <r>  -10.0083    1.0000 </r>
       <r>   -9.6252    1.0000 </r>
       <r>   -8.9790    1.0000 </r>
       <r>   -8.1305    1.0000 </r>
       <r>   -7.8260    1.0000 </r>
       <r>   -7.7958    1.0000 </r>
       <r>   -7.6648    1.0000 </r>
       <r>   -7.3765    1.0000 </r>
       <r>   -6.9563    1.0000 </r>
       <r>   -6.9190    1.0000 </r>
       <r>   -6.7120    1.0000 </r>
       <r>   -6.6759    1.0000 </r>
       <r>   -6.2357    1.0000 </r>
       <r>   -5.3617    1.0000 </r>
       <r>   -4.9700    1.0000 </r>
       <r>   -4.8043    1.0000 </r>
       <r>   -4.5982    1.0000 </r>
       <r>   -4.4681    1.0000 </r>
       <r>   -4.3732    1.0000 </r>
       <r>   -4.1716    1.0000 </r>
       <r>   -4.1266    1.0000 </r>
       <r>   -3.8793    1.0000 </r>
       <r>   -3.8064    1.0000 </r>
       <r>   -3.3712    1.0000 </r>
       <r>   -3.3244    1.0000 </r>
       <r>   -3.2914    1.0000 </r>
       <r>   -3.1961    1.0000 </r>
       <r>   -3.1405    1.0000 </r>
       <r>   -2.9481    1.0000 </r>
       <r>   -2.9074    1.0000 </r>
       <r>   -2.7129    1.0000 </r>
       <r>   -2.5744    1.0000 </r>
       <r>   -2.3795    1.0000 </r>
       <r>   -2.2813    1.0000 </r>
       <r>   -2.1086    1.0000 </r>
       <r>   -2.0754    1.0000 </r>
       <r>   -2.0218    1.0000 </r>
       <r>   -1.8756    1.0000 </r>
       <r>   -1.7715    1.0000 </r>
       <r>   -1.5480    1.0000 </r>
       <r>   -1.4836    1.0000 </r>
       <r>   -1.1067    1.0000 </r>
       <r>   -0.5911    1.0000 </r>
       <r>   -0.4309    0.9999 </r>
       <r>    0.4597    0.0000 </r>
       <r>    0.7658    0.0000 </r>
       <r>    1.1825    0.0000 </r>
       <r>    1.3074    0.0000 </r>
       <r>    1.5974    0.0000 </r>
       <r>    1.8032    0.0000 </r>
       <r>    1.8677    0.0000 </r>
       <r>    1.9953    0.0000 </r>
       <r>    2.1835    0.0000 </r>
       <r>    2.2691    0.0000 </r>
       <r>    2.5549    0.0000 </r>
       <r>    2.5915    0.0000 </r>
       <r>    2.7034    0.0000 </r>
      </set>
      <set comment="kpoint 14">
       <r>  -12.4217    1.0000 </r>
       <r>  -11.4494    1.0000 </r>
       <r>  -11.2887    1.0000 </r>
       <r>  -11.2807    1.0000 </r>
       <r>  -11.0861    1.0000 </r>
       <r>  -10.9779    1.0000 </r>
       <r>  -10.8826    1.0000 </r>
       <r>  -10.8143    1.0000 </r>
       <r>  -10.7173    1.0000 </r>
       <r>  -10.5986    1.0000 </r>
       <r>  -10.4832    1.0000 </r>
       <r>  -10.0366    1.0000 </r>
       <r>   -9.8068    1.0000 </r>
       <r>   -8.5724    1.0000 </r>
       <r>   -8.4176    1.0000 </r>
       <r>   -8.3468    1.0000 </r>
       <r>   -7.9929    1.0000 </r>
       <r>   -7.8399    1.0000 </r>
       <r>   -7.5350    1.0000 </r>
       <r>   -7.3351    1.0000 </r>
       <r>   -7.2345    1.0000 </r>
       <r>   -7.1553    1.0000 </r>
       <r>   -7.0173    1.0000 </r>
       <r>   -6.5839    1.0000 </r>
       <r>   -5.0374    1.0000 </r>
       <r>   -4.6591    1.0000 </r>
       <r>   -4.5882    1.0000 </r>
       <r>   -4.4884    1.0000 </r>
       <r>   -4.3918    1.0000 </r>
       <r>   -4.2395    1.0000 </r>
       <r>   -4.1636    1.0000 </r>
       <r>   -3.9875    1.0000 </r>
       <r>   -3.9340    1.0000 </r>
       <r>   -3.7038    1.0000 </r>
       <r>   -3.6763    1.0000 </r>
       <r>   -3.5220    1.0000 </r>
       <r>   -3.4900    1.0000 </r>
       <r>   -3.3922    1.0000 </r>
       <r>   -3.2765    1.0000 </r>
       <r>   -3.0985    1.0000 </r>
       <r>   -3.0049    1.0000 </r>
       <r>   -2.8890    1.0000 </r>
       <r>   -2.6527    1.0000 </r>
       <r>   -2.6141    1.0000 </r>
       <r>   -2.2525    1.0000 </r>
       <r>   -2.2072    1.0000 </r>
       <r>   -2.1386    1.0000 </r>
       <r>   -2.0183    1.0000 </r>
       <r>   -1.9479    1.0000 </r>
       <r>   -1.7404    1.0000 </r>
       <r>   -1.6821    1.0000 </r>
       <r>   -1.5615    1.0000 </r>
       <r>   -0.9706    1.0000 </r>
       <r>   -0.7292    1.0000 </r>
       <r>   -0.4255    0.9998 </r>
       <r>    0.3283    0.0000 </r>
       <r>    0.7250    0.0000 </r>
       <r>    1.3403    0.0000 </r>
       <r>    1.4106    0.0000 </r>
       <r>    1.5171    0.0000 </r>
       <r>    1.5903    0.0000 </r>
       <r>    1.7337    0.0000 </r>
       <r>    1.8216    0.0000 </r>
       <r>    2.0706    0.0000 </r>
       <r>    2.2318    0.0000 </r>
       <r>    2.4145    0.0000 </r>
       <r>    2.4713    0.0000 </r>
       <r>    2.5963    0.0000 </r>
      </set>
      <set comment="kpoint 15">
       <r>  -12.4276    1.0000 </r>
       <r>  -11.5533    1.0000 </r>
       <r>  -11.2548    1.0000 </r>
       <r>  -11.0881    1.0000 </r>
       <r>  -11.0733    1.0000 </r>
       <r>  -10.9516    1.0000 </r>
       <r>  -10.8255    1.0000 </r>
       <r>  -10.8217    1.0000 </r>
       <r>  -10.7751    1.0000 </r>
       <r>  -10.7213    1.0000 </r>
       <r>  -10.5223    1.0000 </r>
       <r>  -10.0704    1.0000 </r>
       <r>   -9.7882    1.0000 </r>
       <r>   -8.7744    1.0000 </r>
       <r>   -8.4522    1.0000 </r>
       <r>   -8.0036    1.0000 </r>
       <r>   -7.9609    1.0000 </r>
       <r>   -7.7272    1.0000 </r>
       <r>   -7.6223    1.0000 </r>
       <r>   -7.3753    1.0000 </r>
       <r>   -7.2970    1.0000 </r>
       <r>   -7.2349    1.0000 </r>
       <r>   -6.9833    1.0000 </r>
       <r>   -6.5233    1.0000 </r>
       <r>   -4.7613    1.0000 </r>
       <r>   -4.7470    1.0000 </r>
       <r>   -4.5976    1.0000 </r>
       <r>   -4.5724    1.0000 </r>
       <r>   -4.3908    1.0000 </r>
       <r>   -4.2118    1.0000 </r>
       <r>   -4.0811    1.0000 </r>
       <r>   -4.0263    1.0000 </r>
       <r>   -3.9603    1.0000 </r>
       <r>   -3.8989    1.0000 </r>
       <r>   -3.8184    1.0000 </r>
       <r>   -3.6769    1.0000 </r>
       <r>   -3.5658    1.0000 </r>
       <r>   -3.4246    1.0000 </r>
       <r>   -3.3532    1.0000 </r>
       <r>   -2.9998    1.0000 </r>
       <r>   -2.8539    1.0000 </r>
       <r>   -2.8092    1.0000 </r>
       <r>   -2.6953    1.0000 </r>
       <r>   -2.4086    1.0000 </r>
       <r>   -2.3526    1.0000 </r>
       <r>   -2.2750    1.0000 </r>
       <r>   -2.1796    1.0000 </r>
       <r>   -2.0973    1.0000 </r>
       <r>   -1.9260    1.0000 </r>
       <r>   -1.6996    1.0000 </r>
       <r>   -1.5717    1.0000 </r>
       <r>   -1.5100    1.0000 </r>
       <r>   -0.9061    1.0000 </r>
       <r>   -0.7386    1.0000 </r>
       <r>   -0.3809    0.9983 </r>
       <r>    0.3518    0.0000 </r>
       <r>    0.8106    0.0000 </r>
       <r>    1.3233    0.0000 </r>
       <r>    1.4259    0.0000 </r>
       <r>    1.6356    0.0000 </r>
       <r>    1.7184    0.0000 </r>
       <r>    1.7939    0.0000 </r>
       <r>    1.9451    0.0000 </r>
       <r>    2.2013    0.0000 </r>
       <r>    2.2897    0.0000 </r>
       <r>    2.3673    0.0000 </r>
       <r>    2.4969    0.0000 </r>
       <r>    2.5918    0.0000 </r>
      </set>
      <set comment="kpoint 16">
       <r>  -12.9026    1.0000 </r>
       <r>  -12.1199    1.0000 </r>
       <r>  -11.5251    1.0000 </r>
       <r>  -11.5022    1.0000 </r>
       <r>  -11.2685    1.0000 </r>
       <r>  -11.1094    1.0000 </r>
       <r>  -10.9564    1.0000 </r>
       <r>  -10.9057    1.0000 </r>
       <r>  -10.6469    1.0000 </r>
       <r>  -10.5540    1.0000 </r>
       <r>  -10.4683    1.0000 </r>
       <r>  -10.0379    1.0000 </r>
       <r>   -9.6099    1.0000 </r>
       <r>   -8.7600    1.0000 </r>
       <r>   -8.5094    1.0000 </r>
       <r>   -7.8509    1.0000 </r>
       <r>   -7.4795    1.0000 </r>
       <r>   -7.4448    1.0000 </r>
       <r>   -7.3475    1.0000 </r>
       <r>   -7.1337    1.0000 </r>
       <r>   -6.8669    1.0000 </r>
       <r>   -6.8255    1.0000 </r>
       <r>   -6.6820    1.0000 </r>
       <r>   -6.1694    1.0000 </r>
       <r>   -5.0759    1.0000 </r>
       <r>   -4.9522    1.0000 </r>
       <r>   -4.8672    1.0000 </r>
       <r>   -4.7764    1.0000 </r>
       <r>   -4.4396    1.0000 </r>
       <r>   -4.3574    1.0000 </r>
       <r>   -4.2569    1.0000 </r>
       <r>   -4.1099    1.0000 </r>
       <r>   -4.0146    1.0000 </r>
       <r>   -3.7730    1.0000 </r>
       <r>   -3.7383    1.0000 </r>
       <r>   -3.4574    1.0000 </r>
       <r>   -3.4094    1.0000 </r>
       <r>   -3.2836    1.0000 </r>
       <r>   -3.1853    1.0000 </r>
       <r>   -2.9108    1.0000 </r>
       <r>   -2.7677    1.0000 </r>
       <r>   -2.6068    1.0000 </r>
       <r>   -2.5516    1.0000 </r>
       <r>   -2.4263    1.0000 </r>
       <r>   -2.2504    1.0000 </r>
       <r>   -2.1546    1.0000 </r>
       <r>   -2.0880    1.0000 </r>
       <r>   -1.9607    1.0000 </r>
       <r>   -1.8688    1.0000 </r>
       <r>   -1.7738    1.0000 </r>
       <r>   -1.4803    1.0000 </r>
       <r>   -1.3887    1.0000 </r>
       <r>   -0.8854    1.0000 </r>
       <r>   -0.6062    1.0000 </r>
       <r>   -0.2952    0.9570 </r>
       <r>    0.5078    0.0000 </r>
       <r>    1.0061    0.0000 </r>
       <r>    1.3504    0.0000 </r>
       <r>    1.5731    0.0000 </r>
       <r>    1.8048    0.0000 </r>
       <r>    1.8981    0.0000 </r>
       <r>    2.0014    0.0000 </r>
       <r>    2.1204    0.0000 </r>
       <r>    2.2614    0.0000 </r>
       <r>    2.3907    0.0000 </r>
       <r>    2.4237    0.0000 </r>
       <r>    2.5566    0.0000 </r>
       <r>    2.6071    0.0000 </r>
      </set>
      <set comment="kpoint 17">
       <r>  -13.3911    1.0000 </r>
       <r>  -12.6140    1.0000 </r>
       <r>  -11.9681    1.0000 </r>
       <r>  -11.9635    1.0000 </r>
       <r>  -11.6690    1.0000 </r>
       <r>  -11.4063    1.0000 </r>
       <r>  -11.2768    1.0000 </r>
       <r>  -11.2382    1.0000 </r>
       <r>  -10.7907    1.0000 </r>
       <r>  -10.5800    1.0000 </r>
       <r>  -10.4387    1.0000 </r>
       <r>   -9.8548    1.0000 </r>
       <r>   -9.2527    1.0000 </r>
       <r>   -8.5733    1.0000 </r>
       <r>   -8.2056    1.0000 </r>
       <r>   -7.7060    1.0000 </r>
       <r>   -7.3320    1.0000 </r>
       <r>   -7.0199    1.0000 </r>
       <r>   -6.8880    1.0000 </r>
       <r>   -6.6809    1.0000 </r>
       <r>   -6.4935    1.0000 </r>
       <r>   -6.1725    1.0000 </r>
       <r>   -5.9907    1.0000 </r>
       <r>   -5.5742    1.0000 </r>
       <r>   -5.1714    1.0000 </r>
       <r>   -5.0745    1.0000 </r>
       <r>   -4.9110    1.0000 </r>
       <r>   -4.8991    1.0000 </r>
       <r>   -4.6663    1.0000 </r>
       <r>   -4.4382    1.0000 </r>
       <r>   -4.3239    1.0000 </r>
       <r>   -4.2513    1.0000 </r>
       <r>   -4.1485    1.0000 </r>
       <r>   -3.5360    1.0000 </r>
       <r>   -3.4709    1.0000 </r>
       <r>   -3.4271    1.0000 </r>
       <r>   -3.1307    1.0000 </r>
       <r>   -3.0885    1.0000 </r>
       <r>   -3.0028    1.0000 </r>
       <r>   -2.8847    1.0000 </r>
       <r>   -2.7488    1.0000 </r>
       <r>   -2.6112    1.0000 </r>
       <r>   -2.4240    1.0000 </r>
       <r>   -2.2486    1.0000 </r>
       <r>   -2.0414    1.0000 </r>
       <r>   -1.9417    1.0000 </r>
       <r>   -1.8793    1.0000 </r>
       <r>   -1.8233    1.0000 </r>
       <r>   -1.7212    1.0000 </r>
       <r>   -1.6370    1.0000 </r>
       <r>   -1.3545    1.0000 </r>
       <r>   -1.1754    1.0000 </r>
       <r>   -0.7887    1.0000 </r>
       <r>   -0.5197    1.0000 </r>
       <r>   -0.1187    0.2184 </r>
       <r>    0.7041    0.0000 </r>
       <r>    1.3001    0.0000 </r>
       <r>    1.5936    0.0000 </r>
       <r>    1.7452    0.0000 </r>
       <r>    1.9245    0.0000 </r>
       <r>    2.0022    0.0000 </r>
       <r>    2.1373    0.0000 </r>
       <r>    2.2618    0.0000 </r>
       <r>    2.3579    0.0000 </r>
       <r>    2.4418    0.0000 </r>
       <r>    2.6235    0.0000 </r>
       <r>    2.6935    0.0000 </r>
       <r>    2.8214    0.0000 </r>
      </set>
      <set comment="kpoint 18">
       <r>  -13.7950    1.0000 </r>
       <r>  -13.0093    1.0000 </r>
       <r>  -12.3695    1.0000 </r>
       <r>  -12.3477    1.0000 </r>
       <r>  -12.0222    1.0000 </r>
       <r>  -11.7384    1.0000 </r>
       <r>  -11.5846    1.0000 </r>
       <r>  -11.5401    1.0000 </r>
       <r>  -11.0471    1.0000 </r>
       <r>  -10.7940    1.0000 </r>
       <r>  -10.6171    1.0000 </r>
       <r>   -9.8973    1.0000 </r>
       <r>   -8.6323    1.0000 </r>
       <r>   -8.4175    1.0000 </r>
       <r>   -7.9045    1.0000 </r>
       <r>   -7.8006    1.0000 </r>
       <r>   -6.9952    1.0000 </r>
       <r>   -6.7122    1.0000 </r>
       <r>   -6.6550    1.0000 </r>
       <r>   -6.4769    1.0000 </r>
       <r>   -5.9662    1.0000 </r>
       <r>   -5.7562    1.0000 </r>
       <r>   -5.3761    1.0000 </r>
       <r>   -5.3508    1.0000 </r>
       <r>   -4.8550    1.0000 </r>
       <r>   -4.7528    1.0000 </r>
       <r>   -4.6224    1.0000 </r>
       <r>   -4.5503    1.0000 </r>
       <r>   -4.5193    1.0000 </r>
       <r>   -4.2295    1.0000 </r>
       <r>   -4.2030    1.0000 </r>
       <r>   -3.9823    1.0000 </r>
       <r>   -3.7858    1.0000 </r>
       <r>   -3.5927    1.0000 </r>
       <r>   -3.4659    1.0000 </r>
       <r>   -3.4404    1.0000 </r>
       <r>   -3.2254    1.0000 </r>
       <r>   -3.0126    1.0000 </r>
       <r>   -2.8802    1.0000 </r>
       <r>   -2.7425    1.0000 </r>
       <r>   -2.6111    1.0000 </r>
       <r>   -2.4618    1.0000 </r>
       <r>   -2.2778    1.0000 </r>
       <r>   -2.0096    1.0000 </r>
       <r>   -1.9242    1.0000 </r>
       <r>   -1.8482    1.0000 </r>
       <r>   -1.7804    1.0000 </r>
       <r>   -1.6757    1.0000 </r>
       <r>   -1.4824    1.0000 </r>
       <r>   -1.2570    1.0000 </r>
       <r>   -1.1505    1.0000 </r>
       <r>   -0.8905    1.0000 </r>
       <r>   -0.5023    1.0000 </r>
       <r>   -0.3742    0.9977 </r>
       <r>    0.0907    0.0001 </r>
       <r>    0.8615    0.0000 </r>
       <r>    1.5253    0.0000 </r>
       <r>    1.7726    0.0000 </r>
       <r>    1.8856    0.0000 </r>
       <r>    1.9911    0.0000 </r>
       <r>    2.1924    0.0000 </r>
       <r>    2.2241    0.0000 </r>
       <r>    2.3807    0.0000 </r>
       <r>    2.4557    0.0000 </r>
       <r>    2.6996    0.0000 </r>
       <r>    2.8875    0.0000 </r>
       <r>    2.9322    0.0000 </r>
       <r>    2.9733    0.0000 </r>
      </set>
      <set comment="kpoint 19">
       <r>  -14.0910    1.0000 </r>
       <r>  -13.2932    1.0000 </r>
       <r>  -12.6846    1.0000 </r>
       <r>  -12.6366    1.0000 </r>
       <r>  -12.2893    1.0000 </r>
       <r>  -11.9991    1.0000 </r>
       <r>  -11.8199    1.0000 </r>
       <r>  -11.7596    1.0000 </r>
       <r>  -11.2796    1.0000 </r>
       <r>  -11.0050    1.0000 </r>
       <r>  -10.8196    1.0000 </r>
       <r>   -9.9964    1.0000 </r>
       <r>   -8.3996    1.0000 </r>
[...]
       <r>    2.7370    0.0000 </r>
      </set>
      <set comment="kpoint 54">
       <r>  -12.4240    1.0000 </r>
       <r>  -11.5084    1.0000 </r>
       <r>  -11.2718    1.0000 </r>
       <r>  -11.1865    1.0000 </r>
       <r>  -11.0897    1.0000 </r>
       <r>  -10.9684    1.0000 </r>
       <r>  -10.8671    1.0000 </r>
       <r>  -10.8125    1.0000 </r>
       <r>  -10.7400    1.0000 </r>
       <r>  -10.6394    1.0000 </r>
       <r>  -10.4924    1.0000 </r>
       <r>  -10.0674    1.0000 </r>
       <r>   -9.7913    1.0000 </r>
       <r>   -8.6829    1.0000 </r>
       <r>   -8.4589    1.0000 </r>
       <r>   -8.1376    1.0000 </r>
       <r>   -7.9787    1.0000 </r>
       <r>   -7.7904    1.0000 </r>
       <r>   -7.5788    1.0000 </r>
       <r>   -7.3109    1.0000 </r>
       <r>   -7.2478    1.0000 </r>
       <r>   -7.1848    1.0000 </r>
       <r>   -7.0658    1.0000 </r>
       <r>   -6.5882    1.0000 </r>
       <r>   -4.9648    1.0000 </r>
       <r>   -4.7213    1.0000 </r>
       <r>   -4.6190    1.0000 </r>
       <r>   -4.4974    1.0000 </r>
       <r>   -4.3333    1.0000 </r>
       <r>   -4.2075    1.0000 </r>
       <r>   -4.0906    1.0000 </r>
       <r>   -3.9860    1.0000 </r>
       <r>   -3.9274    1.0000 </r>
       <r>   -3.7887    1.0000 </r>
       <r>   -3.6807    1.0000 </r>
       <r>   -3.5640    1.0000 </r>
       <r>   -3.5278    1.0000 </r>
       <r>   -3.3624    1.0000 </r>
       <r>   -3.2736    1.0000 </r>
       <r>   -3.1602    1.0000 </r>
       <r>   -3.0399    1.0000 </r>
       <r>   -2.8972    1.0000 </r>
       <r>   -2.7037    1.0000 </r>
       <r>   -2.3952    1.0000 </r>
       <r>   -2.3662    1.0000 </r>
       <r>   -2.2655    1.0000 </r>
       <r>   -2.1673    1.0000 </r>
       <r>   -2.0647    1.0000 </r>
       <r>   -1.8903    1.0000 </r>
       <r>   -1.7111    1.0000 </r>
       <r>   -1.6125    1.0000 </r>
       <r>   -1.5385    1.0000 </r>
       <r>   -0.9397    1.0000 </r>
       <r>   -0.7768    1.0000 </r>
       <r>   -0.3991    0.9993 </r>
       <r>    0.3260    0.0000 </r>
       <r>    0.6457    0.0000 </r>
       <r>    1.3131    0.0000 </r>
       <r>    1.4155    0.0000 </r>
       <r>    1.5535    0.0000 </r>
       <r>    1.6725    0.0000 </r>
       <r>    1.7868    0.0000 </r>
       <r>    1.8940    0.0000 </r>
       <r>    2.0456    0.0000 </r>
       <r>    2.3499    0.0000 </r>
       <r>    2.4067    0.0000 </r>
       <r>    2.4729    0.0000 </r>
       <r>    2.7529    0.0000 </r>
      </set>
     </set>
    </set>
   </array>
  </eigenvalues>
  <separator name="orbital magnetization" >
   <v name="MAGDIPOLOUT">      0.00000000      0.00000000      0.00000000</v>
  </separator>
  <dos>
   <i name="efermi">     -0.17373691 </i>
   <total>
    <array>
     <dimension dim="1">gridpoints</dimension>
     <dimension dim="2">spin</dimension>
     <field>energy</field>
     <field>total</field>
     <field>integrated</field>
     <set>
      <set comment="spin 1">
       <r>   -15.3354     0.0000     0.0000 </r>
       <r>   -15.2704     0.0000     0.0000 </r>
       <r>   -15.2055     0.0000     0.0000 </r>
       <r>   -15.1405     0.0000     0.0000 </r>
       <r>   -15.0756     0.0000     0.0000 </r>
       <r>   -15.0106     0.0000     0.0000 </r>
       <r>   -14.9457     0.0000     0.0000 </r>
       <r>   -14.8807     0.0000     0.0000 </r>
       <r>   -14.8158     0.0000     0.0000 </r>
       <r>   -14.7508     0.0000     0.0000 </r>
       <r>   -14.6858     0.0000     0.0000 </r>
       <r>   -14.6209     0.0000     0.0000 </r>
       <r>   -14.5559     0.0017     0.0001 </r>
       <r>   -14.4910     0.0293     0.0020 </r>
       <r>   -14.4260     0.2381     0.0175 </r>
       <r>   -14.3611     0.9702     0.0805 </r>
       <r>   -14.2961     2.0501     0.2137 </r>
       <r>   -14.2312     2.3236     0.3646 </r>
       <r>   -14.1662     1.7660     0.4793 </r>
       <r>   -14.1013     1.7112     0.5904 </r>
       <r>   -14.0363     1.6578     0.6981 </r>
       <r>   -13.9714     0.8880     0.7558 </r>
       <r>   -13.9064     0.4297     0.7837 </r>
       <r>   -13.8415     0.9114     0.8429 </r>
       <r>   -13.7765     1.6286     0.9487 </r>
       <r>   -13.7116     1.3718     1.0378 </r>
       <r>   -13.6466     0.6223     1.0782 </r>
       <r>   -13.5817     0.5783     1.1158 </r>
       <r>   -13.5167     1.3774     1.2052 </r>
       <r>   -13.4517     2.5828     1.3730 </r>
       <r>   -13.3868     3.5287     1.6022 </r>
       <r>   -13.3218     3.4243     1.8246 </r>
       <r>   -13.2569     2.5073     1.9875 </r>
       <r>   -13.1919     1.8060     2.1048 </r>
       <r>   -13.1270     1.5061     2.2026 </r>
       <r>   -13.0620     1.6732     2.3113 </r>
       <r>   -12.9971     2.8506     2.4964 </r>
       <r>   -12.9321     4.9374     2.8171 </r>
       <r>   -12.8672     6.3295     3.2282 </r>
       <r>   -12.8022     5.5091     3.5861 </r>
       <r>   -12.7373     3.9154     3.8404 </r>
       <r>   -12.6723     3.6033     4.0744 </r>
       <r>   -12.6074     4.3087     4.3543 </r>
       <r>   -12.5424     4.8445     4.6689 </r>
       <r>   -12.4775     5.5634     5.0303 </r>
       <r>   -12.4125     6.3822     5.4448 </r>
       <r>   -12.3476     5.9777     5.8331 </r>
       <r>   -12.2826     5.0247     6.1595 </r>
       <r>   -12.2177     4.7357     6.4671 </r>
       <r>   -12.1527     5.1313     6.8004 </r>
       <r>   -12.0877     6.3283     7.2114 </r>
       <r>   -12.0228     8.5215     7.7649 </r>
       <r>   -11.9578     9.2095     8.3631 </r>
       <r>   -11.8929     7.1867     8.8299 </r>
       <r>   -11.8279     5.5071     9.1876 </r>
       <r>   -11.7630     5.6730     9.5560 </r>
       <r>   -11.6980     6.6695     9.9892 </r>
       <r>   -11.6331     7.3335    10.4656 </r>
       <r>   -11.5681     7.9495    10.9819 </r>
       <r>   -11.5032     8.5381    11.5365 </r>
       <r>   -11.4382     8.1794    12.0678 </r>
       <r>   -11.3733     7.3624    12.5460 </r>
       <r>   -11.3083     8.1181    13.0733 </r>
       <r>   -11.2434     9.7765    13.7083 </r>
       <r>   -11.1784     9.9225    14.3527 </r>
       <r>   -11.1135    10.1778    15.0138 </r>
       <r>   -11.0485    11.5212    15.7622 </r>
       <r>   -10.9836    11.8202    16.5299 </r>
       <r>   -10.9186    10.7243    17.2265 </r>
       <r>   -10.8537    11.0060    17.9413 </r>
       <r>   -10.7887    11.8678    18.7122 </r>
       <r>   -10.7237    10.0853    19.3672 </r>
       <r>   -10.6588     8.4703    19.9174 </r>
       <r>   -10.5938     8.8457    20.4920 </r>
       <r>   -10.5289     8.4930    21.0436 </r>
       <r>   -10.4639     7.0355    21.5006 </r>
       <r>   -10.3990     4.8085    21.8129 </r>
       <r>   -10.3340     2.2121    21.9566 </r>
       <r>   -10.2691     0.6346    21.9978 </r>
       <r>   -10.2041     0.4905    22.0297 </r>
       <r>   -10.1392     1.8566    22.1502 </r>
       <r>   -10.0742     4.6751    22.4539 </r>
       <r>   -10.0093     6.6720    22.8873 </r>
       <r>    -9.9443     5.9943    23.2766 </r>
       <r>    -9.8794     4.9881    23.6006 </r>
       <r>    -9.8144     4.9684    23.9233 </r>
       <r>    -9.7495     3.9898    24.1825 </r>
       <r>    -9.6845     2.3553    24.3354 </r>
       <r>    -9.6196     1.8322    24.4545 </r>
       <r>    -9.5546     1.5451    24.5548 </r>
       <r>    -9.4896     0.7502    24.6035 </r>
       <r>    -9.4247     0.2739    24.6213 </r>
       <r>    -9.3597     0.5443    24.6567 </r>
       <r>    -9.2948     1.3057    24.7415 </r>
       <r>    -9.2298     1.5744    24.8438 </r>
       <r>    -9.1649     0.9366    24.9046 </r>
       <r>    -9.0999     0.3909    24.9300 </r>
       <r>    -9.0350     0.6375    24.9714 </r>
       <r>    -8.9700     1.4197    25.0636 </r>
       <r>    -8.9051     1.9639    25.1912 </r>
       <r>    -8.8401     2.4319    25.3491 </r>
       <r>    -8.7752     3.6308    25.5849 </r>
       <r>    -8.7102     4.9298    25.9051 </r>
       <r>    -8.6453     5.2986    26.2493 </r>
       <r>    -8.5803     5.0526    26.5775 </r>
       <r>    -8.5154     5.4139    26.9291 </r>
       <r>    -8.4504     6.5895    27.3571 </r>
       <r>    -8.3855     7.0328    27.8139 </r>
       <r>    -8.3205     5.4915    28.1706 </r>
       <r>    -8.2556     3.3543    28.3885 </r>
       <r>    -8.1906     2.7447    28.5668 </r>
       <r>    -8.1256     3.6348    28.8029 </r>
       <r>    -8.0607     4.6466    29.1047 </r>
       <r>    -7.9957     5.2701    29.4470 </r>
       <r>    -7.9308     5.7039    29.8175 </r>
       <r>    -7.8658     7.0374    30.2745 </r>
       <r>    -7.8009     9.1475    30.8687 </r>
       <r>    -7.7359     8.6599    31.4312 </r>
       <r>    -7.6710     6.2372    31.8363 </r>
       <r>    -7.6060     5.1511    32.1709 </r>
       <r>    -7.5411     5.0477    32.4987 </r>
       <r>    -7.4761     5.2927    32.8425 </r>
       <r>    -7.4112     6.7966    33.2840 </r>
       <r>    -7.3462     8.4507    33.8329 </r>
       <r>    -7.2813     8.1024    34.3591 </r>
       <r>    -7.2163     6.2216    34.7632 </r>
       <r>    -7.1514     4.7974    35.0749 </r>
       <r>    -7.0864     4.9126    35.3939 </r>
       <r>    -7.0215     6.3702    35.8077 </r>
       <r>    -6.9565     7.7745    36.3127 </r>
       <r>    -6.8916     8.0995    36.8388 </r>
       <r>    -6.8266     8.6519    37.4007 </r>
       <r>    -6.7616    10.5892    38.0885 </r>
       <r>    -6.6967    12.7643    38.9176 </r>
       <r>    -6.6317    12.6639    39.7401 </r>
       <r>    -6.5668    10.4652    40.4199 </r>
       <r>    -6.5018     9.0514    41.0078 </r>
       <r>    -6.4369     7.9739    41.5257 </r>
       <r>    -6.3719     6.0440    41.9183 </r>
       <r>    -6.3070     4.1283    42.1864 </r>
       <r>    -6.2420     3.7938    42.4328 </r>
       <r>    -6.1771     4.4404    42.7212 </r>
       <r>    -6.1121     3.7158    42.9626 </r>
       <r>    -6.0472     2.3575    43.1157 </r>
       <r>    -5.9822     2.6124    43.2854 </r>
       <r>    -5.9173     3.5723    43.5174 </r>
       <r>    -5.8523     3.9161    43.7718 </r>
       <r>    -5.7874     4.5217    44.0655 </r>
       <r>    -5.7224     5.7296    44.4376 </r>
       <r>    -5.6575     6.4739    44.8581 </r>
       <r>    -5.5925     6.1738    45.2591 </r>
       <r>    -5.5275     4.6661    45.5622 </r>
       <r>    -5.4626     2.9969    45.7569 </r>
       <r>    -5.3976     3.1232    45.9597 </r>
       <r>    -5.3327     4.0604    46.2235 </r>
       <r>    -5.2677     4.0357    46.4856 </r>
       <r>    -5.2028     3.9490    46.7421 </r>
       <r>    -5.1378     4.6248    47.0425 </r>
       <r>    -5.0729     5.8385    47.4217 </r>
       <r>    -5.0079     6.9998    47.8764 </r>
       <r>    -4.9430     8.2459    48.4120 </r>
       <r>    -4.8780     9.2990    49.0160 </r>
       <r>    -4.8131     9.7254    49.6476 </r>
       <r>    -4.7481    10.6065    50.3366 </r>
       <r>    -4.6832    12.2106    51.1297 </r>
       <r>    -4.6182    13.5293    52.0084 </r>
       <r>    -4.5533    13.4132    52.8796 </r>
       <r>    -4.4883    11.7743    53.6444 </r>
       <r>    -4.4234    10.7365    54.3418 </r>
       <r>    -4.3584    11.4470    55.0853 </r>
       <r>    -4.2935    12.8508    55.9200 </r>
       <r>    -4.2285    13.9228    56.8243 </r>
       <r>    -4.1635    14.3544    57.7566 </r>
       <r>    -4.0986    14.7378    58.7139 </r>
       <r>    -4.0336    14.9831    59.6871 </r>
       <r>    -3.9687    13.4221    60.5589 </r>
       <r>    -3.9037    10.8011    61.2604 </r>
       <r>    -3.8388     9.9145    61.9044 </r>
       <r>    -3.7738    11.3824    62.6437 </r>
       <r>    -3.7089    12.8983    63.4815 </r>
       <r>    -3.6439    12.9963    64.3256 </r>
       <r>    -3.5790    12.9910    65.1694 </r>
       <r>    -3.5140    13.7316    66.0613 </r>
       <r>    -3.4491    14.7847    67.0216 </r>
       <r>    -3.3841    15.2214    68.0103 </r>
       <r>    -3.3192    14.6261    68.9603 </r>
       <r>    -3.2542    13.9008    69.8632 </r>
       <r>    -3.1893    14.3190    70.7932 </r>
       <r>    -3.1243    16.0854    71.8380 </r>
       <r>    -3.0594    17.7040    72.9880 </r>
       <r>    -2.9944    17.5030    74.1248 </r>
       <r>    -2.9295    16.1019    75.1707 </r>
       <r>    -2.8645    14.8254    76.1336 </r>
       <r>    -2.7995    13.9343    77.0387 </r>
       <r>    -2.7346    14.4773    77.9790 </r>
       <r>    -2.6696    15.9616    79.0158 </r>
       <r>    -2.6047    16.3044    80.0748 </r>
       <r>    -2.5397    15.3645    81.0727 </r>
       <r>    -2.4748    14.7555    82.0312 </r>
       <r>    -2.4098    15.1579    83.0157 </r>
       <r>    -2.3449    15.0103    83.9906 </r>
       <r>    -2.2799    15.0060    84.9653 </r>
       <r>    -2.2150    16.0656    86.0088 </r>
       <r>    -2.1500    16.2321    87.0631 </r>
       <r>    -2.0851    16.0272    88.1041 </r>
       <r>    -2.0201    17.3072    89.2283 </r>
       <r>    -1.9552    18.9999    90.4624 </r>
       <r>    -1.8902    19.4050    91.7228 </r>
       <r>    -1.8253    18.9214    92.9518 </r>
       <r>    -1.7603    18.1075    94.1279 </r>
       <r>    -1.6954    16.4911    95.1990 </r>
       <r>    -1.6304    13.9756    96.1068 </r>
       <r>    -1.5654    11.9669    96.8841 </r>
       <r>    -1.5005    11.3964    97.6243 </r>
       <r>    -1.4355    10.9749    98.3371 </r>
       <r>    -1.3706     9.9598    98.9841 </r>
       <r>    -1.3056     8.5548    99.5397 </r>
       <r>    -1.2407     7.4154   100.0214 </r>
       <r>    -1.1757     7.7086   100.5221 </r>
       <r>    -1.1108     8.7522   101.0905 </r>
       <r>    -1.0458     8.9168   101.6697 </r>
       <r>    -0.9809     9.0399   102.2569 </r>
       <r>    -0.9159     9.9975   102.9062 </r>
       <r>    -0.8510     9.7160   103.5373 </r>
       <r>    -0.7860     7.2135   104.0058 </r>
       <r>    -0.7211     4.6297   104.3065 </r>
       <r>    -0.6561     4.1345   104.5751 </r>
       <r>    -0.5912     5.6296   104.9408 </r>
       <r>    -0.5262     6.9747   105.3938 </r>
       <r>    -0.4613     7.1882   105.8607 </r>
       <r>    -0.3963     7.5724   106.3525 </r>
       <r>    -0.3314     8.4640   106.9023 </r>
       <r>    -0.2664     8.4532   107.4513 </r>
       <r>    -0.2014     6.4559   107.8707 </r>
       <r>    -0.1365     4.2963   108.1497 </r>
       <r>    -0.0715     4.0242   108.4111 </r>
       <r>    -0.0066     4.2571   108.6876 </r>
       <r>     0.0584     3.8264   108.9361 </r>
       <r>     0.1233     2.8256   109.1197 </r>
       <r>     0.1883     1.7564   109.2337 </r>
       <r>     0.2532     1.4686   109.3291 </r>
       <r>     0.3182     2.1599   109.4694 </r>
       <r>     0.3831     2.8921   109.6573 </r>
       <r>     0.4481     2.9074   109.8461 </r>
       <r>     0.5130     2.7425   110.0243 </r>
       <r>     0.5780     2.5929   110.1927 </r>
       <r>     0.6429     3.0960   110.3938 </r>
       <r>     0.7079     4.3131   110.6739 </r>
       <r>     0.7728     5.2952   111.0178 </r>
       <r>     0.8378     5.3041   111.3624 </r>
       <r>     0.9027     4.5961   111.6609 </r>
       <r>     0.9677     4.4777   111.9517 </r>
       <r>     1.0326     4.7510   112.2603 </r>
       <r>     1.0976     4.3257   112.5413 </r>
       <r>     1.1626     4.4089   112.8276 </r>
       <r>     1.2275     6.2933   113.2364 </r>
       <r>     1.2925     9.3257   113.8421 </r>
       <r>     1.3574    10.9775   114.5551 </r>
       <r>     1.4224     9.7466   115.1882 </r>
       <r>     1.4873     8.2252   115.7225 </r>
       <r>     1.5523     8.8732   116.2988 </r>
       <r>     1.6172    10.3259   116.9695 </r>
       <r>     1.6822    10.9462   117.6805 </r>
       <r>     1.7471    12.3337   118.4816 </r>
       <r>     1.8121    14.3144   119.4113 </r>
       <r>     1.8770    14.5573   120.3569 </r>
       <r>     1.9420    13.5402   121.2363 </r>
       <r>     2.0069    13.0435   122.0835 </r>
       <r>     2.0719    13.6070   122.9673 </r>
       <r>     2.1368    14.9632   123.9392 </r>
       <r>     2.2018    16.7089   125.0245 </r>
       <r>     2.2667    17.4136   126.1556 </r>
       <r>     2.3317    16.0369   127.1972 </r>
       <r>     2.3967    14.4057   128.1329 </r>
       <r>     2.4616    13.8708   129.0339 </r>
       <r>     2.5266    14.0247   129.9448 </r>
       <r>     2.5915    14.2161   130.8682 </r>
       <r>     2.6565    13.7197   131.7593 </r>
       <r>     2.7214    12.7008   132.5842 </r>
       <r>     2.7864    11.5365   133.3336 </r>
       <r>     2.8513    10.1716   133.9942 </r>
       <r>     2.9163     8.8266   134.5675 </r>
       <r>     2.9812     7.4189   135.0494 </r>
       <r>     3.0462     6.0338   135.4413 </r>
       <r>     3.1111     4.5651   135.7378 </r>
       <r>     3.1761     2.7132   135.9141 </r>
       <r>     3.2410     1.0590   135.9829 </r>
       <r>     3.3060     0.2354   135.9981 </r>
       <r>     3.3709     0.0271   135.9999 </r>
       <r>     3.4359     0.0015   136.0000 </r>
       <r>     3.5008     0.0000   136.0000 </r>
       <r>     3.5658     0.0000   136.0000 </r>
       <r>     3.6307     0.0000   136.0000 </r>
       <r>     3.6957     0.0000   136.0000 </r>
       <r>     3.7607     0.0000   136.0000 </r>
       <r>     3.8256     0.0000   136.0000 </r>
       <r>     3.8906     0.0000   136.0000 </r>
       <r>     3.9555     0.0000   136.0000 </r>
       <r>     4.0205     0.0000   136.0000 </r>
       <r>     4.0854     0.0000   136.0000 </r>
       <r>     4.1504     0.0000   136.0000 </r>
      </set>
     </set>
    </array>
   </total>
  </dos>
 </calculation>
 <structure name="finalpos" >
  <crystal>
   <varray name="basis" >
    <v>       3.54040000       0.00000000       0.00000000 </v>
    <v>      -1.77020000      10.29434800       0.00000000 </v>
    <v>       0.00000000       0.00000000      27.50142900 </v>
   </varray>
   <i name="volume">   1002.32009712 </i>
   <varray name="rec_basis" >
    <v>       0.28245396       0.04857034       0.00000000 </v>
    <v>       0.00000000       0.09714068       0.00000000 </v>
    <v>       0.00000000       0.00000000       0.03636175 </v>
   </varray>
  </crystal>
  <varray name="positions" >
   <v>       0.11402300       0.22804500       0.23316207 </v>
   <v>       0.61402300       0.42804500       0.51499159 </v>
   <v>       0.45808900       0.91617900       0.20939482 </v>
   <v>       0.95808900       0.11617900       0.49122434 </v>
   <v>       0.31085400       0.62170900       0.08414979 </v>
   <v>       0.31085400       0.62170900       0.36597930 </v>
   <v>       0.99923000       0.99846000       0.08631254 </v>
   <v>       0.99923000       0.99846000       0.36814206 </v>
   <v>       0.65492700       0.30985400       0.06041748 </v>
   <v>       0.65492700       0.30985400       0.34224700 </v>
   <v>       0.76973800       0.53947500       0.20725292 </v>
   <v>       0.26973800       0.73947500       0.48908244 </v>
   <v>       0.93971600       0.87943300       0.15783749 </v>
   <v>       0.43971600       0.07943300       0.43966701 </v>
   <v>       0.20515200       0.41030300       0.18578822 </v>
   <v>       0.70515200       0.61030300       0.46761774 </v>
   <v>       0.20184900       0.40369900       0.09969156 </v>
   <v>       0.20184900       0.40369900       0.38152107 </v>
   <v>       0.56380500       0.12761000       0.10779021 </v>
   <v>       0.56380500       0.12761000       0.38961973 </v>
   <v>       0.56710600       0.13421200       0.19387616 </v>
   <v>       0.06710600       0.33421200       0.47570568 </v>
   <v>       0.82923400       0.65846800       0.13571444 </v>
   <v>       0.32923400       0.85846800       0.41754396 </v>
  </varray>
 </structure>
</modeling>
