<?xml version="1.0" encoding="ISO-8859-1"?>
<modeling>
 <generator>
  <i name="program" type="string">vasp </i>
  <i name="version" type="string">5.3.5  </i>
  <i name="subversion" type="string">31Mar14 (build Oct 29 2014 16:16:03) complex                          parallel </i>
  <i name="platform" type="string">Linux-UFHPC </i>
  <i name="date" type="string">2016 02 09 </i>
  <i name="time" type="string">18:19:53 </i>
 </generator>
 <incar>
  <i type="string" name="PREC">accurate</i>
  <i type="int" name="IBRION">     2</i>
  <i name="EDIFF">      0.00000100</i>
  <i type="int" name="NSW">     0</i>
  <i type="int" name="ISIF">     3</i>
  <i name="ENCUT">    300.00000000</i>
  <i type="string" name="LREAL"> Auto</i>
  <i type="int" name="ISMEAR">     0</i>
  <i name="SIGMA">      0.10000000</i>
  <i type="logical" name="LWAVE"> F  </i>
  <i type="logical" name="LCHARG"> F  </i>
  <i type="logical" name="LAECHG"> F  </i>
  <i type="string" name="GGA"> Bo</i>
  <i name="PARAM1">      0.18333333</i>
  <i name="PARAM2">      0.22000000</i>
  <i type="logical" name="LUSE_VDW"> T  </i>
  <i name="AGGAC">      0.00000000</i>
 </incar>
 <kpoints>
  <generation param="Gamma">
   <v type="int" name="divisions">      13        4        2 </v>
   <v name="usershift">      0.00000000       0.00000000       0.00000000 </v>
   <v name="genvec1">      0.07692308      -0.00000000       0.00000000 </v>
   <v name="genvec2">      0.00000000       0.25000000       0.00000000 </v>
   <v name="genvec3">      0.00000000       0.00000000       0.50000000 </v>
   <v name="shift">      0.00000000       0.00000000       0.00000000 </v>
  </generation>
  <varray name="kpointlist" >
   <v>       0.00000000       0.00000000       0.00000000 </v>
   <v>       0.07692308      -0.00000000       0.00000000 </v>
   <v>       0.15384615      -0.00000000       0.00000000 </v>
   <v>       0.23076923      -0.00000000       0.00000000 </v>
   <v>       0.30769231      -0.00000000       0.00000000 </v>
   <v>       0.38461538      -0.00000000       0.00000000 </v>
   <v>       0.46153846      -0.00000000       0.00000000 </v>
   <v>       0.00000000       0.25000000       0.00000000 </v>
   <v>       0.07692308       0.25000000       0.00000000 </v>
   <v>       0.15384615       0.25000000       0.00000000 </v>
   <v>       0.23076923       0.25000000       0.00000000 </v>
   <v>       0.30769231       0.25000000       0.00000000 </v>
   <v>       0.38461538       0.25000000       0.00000000 </v>
   <v>       0.46153846       0.25000000       0.00000000 </v>
   <v>      -0.46153846       0.25000000       0.00000000 </v>
   <v>      -0.38461538       0.25000000       0.00000000 </v>
   <v>      -0.30769231       0.25000000       0.00000000 </v>
   <v>      -0.23076923       0.25000000       0.00000000 </v>
   <v>      -0.15384615       0.25000000       0.00000000 </v>
   <v>      -0.07692308       0.25000000       0.00000000 </v>
   <v>       0.00000000       0.50000000       0.00000000 </v>
   <v>       0.07692308       0.50000000       0.00000000 </v>
   <v>       0.15384615       0.50000000       0.00000000 </v>
   <v>       0.23076923       0.50000000       0.00000000 </v>
   <v>       0.30769231       0.50000000       0.00000000 </v>
   <v>       0.38461538       0.50000000       0.00000000 </v>
   <v>       0.46153846       0.50000000       0.00000000 </v>
   <v>       0.00000000       0.00000000       0.50000000 </v>
   <v>       0.07692308      -0.00000000       0.50000000 </v>
   <v>       0.15384615      -0.00000000       0.50000000 </v>
   <v>       0.23076923      -0.00000000       0.50000000 </v>
   <v>       0.30769231      -0.00000000       0.50000000 </v>
   <v>       0.38461538      -0.00000000       0.50000000 </v>
   <v>       0.46153846      -0.00000000       0.50000000 </v>
   <v>       0.00000000       0.25000000       0.50000000 </v>
   <v>       0.07692308       0.25000000       0.50000000 </v>
   <v>       0.15384615       0.25000000       0.50000000 </v>
   <v>       0.23076923       0.25000000       0.50000000 </v>
   <v>       0.30769231       0.25000000       0.50000000 </v>
   <v>       0.38461538       0.25000000       0.50000000 </v>
   <v>       0.46153846       0.25000000       0.50000000 </v>
   <v>      -0.46153846       0.25000000       0.50000000 </v>
   <v>      -0.38461538       0.25000000       0.50000000 </v>
   <v>      -0.30769231       0.25000000       0.50000000 </v>
   <v>      -0.23076923       0.25000000       0.50000000 </v>
   <v>      -0.15384615       0.25000000       0.50000000 </v>
   <v>      -0.07692308       0.25000000       0.50000000 </v>
   <v>       0.00000000       0.50000000       0.50000000 </v>
   <v>       0.07692308       0.50000000       0.50000000 </v>
   <v>       0.15384615       0.50000000       0.50000000 </v>
   <v>       0.23076923       0.50000000       0.50000000 </v>
   <v>       0.30769231       0.50000000       0.50000000 </v>
   <v>       0.38461538       0.50000000       0.50000000 </v>
   <v>       0.46153846       0.50000000       0.50000000 </v>
  </varray>
  <varray name="weights" >
   <v>       0.00961538 </v>
   <v>       0.01923077 </v>
   <v>       0.01923077 </v>
   <v>       0.01923077 </v>
   <v>       0.01923077 </v>
   <v>       0.01923077 </v>
   <v>       0.01923077 </v>
   <v>       0.01923077 </v>
   <v>       0.01923077 </v>
   <v>       0.01923077 </v>
   <v>       0.01923077 </v>
   <v>       0.01923077 </v>
   <v>       0.01923077 </v>
   <v>       0.01923077 </v>
   <v>       0.01923077 </v>
   <v>       0.01923077 </v>
   <v>       0.01923077 </v>
   <v>       0.01923077 </v>
   <v>       0.01923077 </v>
   <v>       0.01923077 </v>
   <v>       0.00961538 </v>
   <v>       0.01923077 </v>
   <v>       0.01923077 </v>
   <v>       0.01923077 </v>
   <v>       0.01923077 </v>
   <v>       0.01923077 </v>
   <v>       0.01923077 </v>
   <v>       0.00961538 </v>
   <v>       0.01923077 </v>
   <v>       0.01923077 </v>
   <v>       0.01923077 </v>
   <v>       0.01923077 </v>
   <v>       0.01923077 </v>
   <v>       0.01923077 </v>
   <v>       0.01923077 </v>
   <v>       0.01923077 </v>
   <v>       0.01923077 </v>
   <v>       0.01923077 </v>
   <v>       0.01923077 </v>
   <v>       0.01923077 </v>
   <v>       0.01923077 </v>
   <v>       0.01923077 </v>
   <v>       0.01923077 </v>
   <v>       0.01923077 </v>
   <v>       0.01923077 </v>
   <v>       0.01923077 </v>
   <v>       0.01923077 </v>
   <v>       0.00961538 </v>
   <v>       0.01923077 </v>
   <v>       0.01923077 </v>
   <v>       0.01923077 </v>
   <v>       0.01923077 </v>
   <v>       0.01923077 </v>
   <v>       0.01923077 </v>
  </varray>
 </kpoints>
 <parameters>
  <separator name="general" >
   <i type="string" name="SYSTEM">unknown system</i>
   <i type="logical" name="LCOMPAT"> F  </i>
  </separator>
  <separator name="electronic" >
   <i type="string" name="PREC">accura</i>
   <i name="ENMAX">    300.00000000</i>
   <i name="ENAUG">    342.92400000</i>
   <i name="EDIFF">      0.00000100</i>
   <i type="int" name="IALGO">    38</i>
   <i type="int" name="IWAVPR">    10</i>
   <i type="int" name="NBANDS">    68</i>
   <i name="NELECT">    108.00000000</i>
   <i type="int" name="TURBO">     0</i>
   <i type="int" name="IRESTART">     0</i>
   <i type="int" name="NREBOOT">     0</i>
   <i type="int" name="NMIN">     0</i>
   <i name="EREF">      0.00000000</i>
   <separator name="electronic smearing" >
    <i type="int" name="ISMEAR">     0</i>
    <i name="SIGMA">      0.10000000</i>
    <i name="KSPACING">      0.50000000</i>
    <i type="logical" name="KGAMMA"> T  </i>
   </separator>
   <separator name="electronic projectors" >
    <i type="logical" name="LREAL"> T  </i>
    <v name="ROPT">     -0.00025000     -0.00025000</v>
    <i type="int" name="LMAXPAW">  -100</i>
    <i type="int" name="LMAXMIX">     2</i>
    <i type="logical" name="NLSPLINE"> F  </i>
   </separator>
   <separator name="electronic startup" >
    <i type="int" name="ISTART">     0</i>
    <i type="int" name="ICHARG">     2</i>
    <i type="int" name="INIWAV">     1</i>
   </separator>
   <separator name="electronic spin" >
    <i type="int" name="ISPIN">     1</i>
    <i type="logical" name="LNONCOLLINEAR"> F  </i>
    <v name="MAGMOM">      1.00000000      1.00000000      1.00000000      1.00000000      1.00000000      1.00000000      1.00000000      1.00000000      1.00000000      1.00000000      1.00000000      1.00000000      1.00000000      1.00000000      1.00000000      1.00000000      1.00000000      1.00000000      1.00000000      1.00000000
      1.00000000      1.00000000      1.00000000      1.00000000</v>
    <i name="NUPDOWN">     -1.00000000</i>
    <i type="logical" name="LSORBIT"> F  </i>
    <v name="SAXIS">      0.00000000      0.00000000      1.00000000</v>
    <i type="logical" name="LSPIRAL"> F  </i>
    <v name="QSPIRAL">      0.00000000      0.00000000      0.00000000</v>
    <i type="logical" name="LZEROZ"> F  </i>
   </separator>
   <separator name="electronic exchange-correlation" >
    <i type="logical" name="LASPH"> F  </i>
    <i type="logical" name="LMETAGGA"> F  </i>
   </separator>
   <separator name="electronic convergence" >
    <i type="int" name="NELM">    60</i>
    <i type="int" name="NELMDL">    -5</i>
    <i type="int" name="NELMIN">     2</i>
    <i name="ENINI">    300.00000000</i>
    <separator name="electronic convergence detail" >
     <i type="logical" name="LDIAG"> T  </i>
     <i type="logical" name="LSUBROT"> F  </i>
     <i name="WEIMIN">      0.00000000</i>
     <i name="EBREAK">      0.00000000</i>
     <i name="DEPER">      0.30000000</i>
     <i type="int" name="NRMM">     4</i>
     <i name="TIME">      0.40000000</i>
    </separator>
   </separator>
   <separator name="electronic mixer" >
    <i name="AMIX">      0.40000000</i>
    <i name="BMIX">      1.00000000</i>
    <i name="AMIN">      0.10000000</i>
    <i name="AMIX_MAG">      1.60000000</i>
    <i name="BMIX_MAG">      1.00000000</i>
    <separator name="electronic mixer details" >
     <i type="int" name="IMIX">     4</i>
     <i type="int" name="MAXMIX">   -45</i>
     <i name="WC">    100.00000000</i>
     <i type="int" name="INIMIX">     1</i>
     <i type="int" name="MIXPRE">     1</i>
     <i type="int" name="MREMOVE">     5</i>
    </separator>
   </separator>
   <separator name="electronic dipolcorrection" >
    <i type="logical" name="LDIPOL"> F  </i>
    <i type="logical" name="LMONO"> F  </i>
    <i type="int" name="IDIPOL">     0</i>
    <i name="EPSILON">      1.00000000</i>
    <v name="DIPOL">   -100.00000000   -100.00000000   -100.00000000</v>
    <i name="EFIELD">      0.00000000</i>
   </separator>
  </separator>
  <separator name="grids" >
   <i type="int" name="NGX">    20</i>
   <i type="int" name="NGY">    60</i>
   <i type="int" name="NGZ">   160</i>
   <i type="int" name="NGXF">    40</i>
   <i type="int" name="NGYF">   120</i>
   <i type="int" name="NGZF">   320</i>
   <i type="logical" name="ADDGRID"> F  </i>
  </separator>
  <separator name="ionic" >
   <i type="int" name="NSW">     0</i>
   <i type="int" name="IBRION">    -1</i>
   <i type="int" name="ISIF">     3</i>
   <i name="PSTRESS">      0.00000000</i>
   <i name="EDIFFG">      0.00001000</i>
   <i type="int" name="NFREE">     1</i>
   <i name="POTIM">      0.50000000</i>
   <i name="SMASS">     -3.00000000</i>
   <i name="SCALEE">      1.00000000</i>
  </separator>
  <separator name="ionic md" >
   <i name="TEBEG">      0.00010000</i>
   <i name="TEEND">      0.00010000</i>
   <i type="int" name="NBLOCK">     1</i>
   <i type="int" name="KBLOCK">     1</i>
   <i type="int" name="NPACO">   256</i>
   <i name="APACO">     16.00000000</i>
  </separator>
  <separator name="symmetry" >
   <i type="int" name="ISYM">     2</i>
   <i name="SYMPREC">      0.00001000</i>
  </separator>
  <separator name="dos" >
   <i type="logical" name="LORBIT"> F  </i>
   <v name="RWIGS">     -1.00000000     -1.00000000</v>
   <i type="int" name="NEDOS">   301</i>
   <i name="EMIN">     10.00000000</i>
   <i name="EMAX">    -10.00000000</i>
   <i name="EFERMI">      0.00000000</i>
  </separator>
  <separator name="writing" >
   <i type="int" name="NWRITE">     2</i>
   <i type="logical" name="LWAVE"> F  </i>
   <i type="logical" name="LCHARG"> F  </i>
   <i type="logical" name="LPARD"> F  </i>
   <i type="logical" name="LVTOT"> F  </i>
   <i type="logical" name="LVHAR"> F  </i>
   <i type="logical" name="LELF"> F  </i>
   <i type="logical" name="LOPTICS"> F  </i>
   <v name="STM">      0.00000000      0.00000000      0.00000000      0.00000000      0.00000000      0.00000000      0.00000000</v>
  </separator>
  <separator name="performance" >
   <i type="int" name="NPAR">     4</i>
   <i type="int" name="NSIM">     4</i>
   <i type="int" name="NBLK">    -1</i>
   <i type="logical" name="LPLANE"> T  </i>
   <i type="logical" name="LSCALAPACK"> T  </i>
   <i type="logical" name="LSCAAWARE"> F  </i>
   <i type="logical" name="LSCALU"> F  </i>
   <i type="logical" name="LASYNC"> F  </i>
   <i type="logical" name="LORBITALREAL"> F  </i>
  </separator>
  <separator name="miscellaneous" >
   <i type="int" name="IDIOT">     3</i>
   <i type="logical" name="LMUSIC"> F  </i>
   <v name="POMASS">     30.97400000     28.08500000</v>
   <v name="DARWINR">      0.00000000      0.00000000</v>
   <v name="DARWINV">      1.00000000      1.00000000</v>
   <i type="logical" name="LCORR"> T  </i>
  </separator>
  <i type="logical" name="GGA_COMPAT"> T  </i>
  <i type="logical" name="LBERRY"> F  </i>
  <i type="int" name="ICORELEVEL">     0</i>
  <i type="logical" name="LDAU"> F  </i>
  <i type="int" name="I_CONSTRAINED_M">     0</i>
  <separator name="electronic exchange-correlation" >
   <i type="string" name="GGA">BO</i>
   <i type="int" name="VOSKOWN">     0</i>
   <i type="logical" name="LHFCALC"> F  </i>
   <i type="string" name="PRECFOCK"></i>
   <i type="logical" name="LSYMGRAD"> F  </i>
   <i type="logical" name="LHFONE"> F  </i>
   <i type="logical" name="LRHFCALC"> F  </i>
   <i type="logical" name="LTHOMAS"> F  </i>
   <i type="logical" name="LMODELHF"> F  </i>
   <i name="ENCUT4O">     -1.00000000</i>
   <i type="int" name="EXXOEP">     0</i>
   <i type="int" name="FOURORBIT">     0</i>
   <i name="AEXX">      0.00000000</i>
   <i name="HFALPHA">      0.00000000</i>
   <i name="MCALPHA">      0.00000000</i>
   <i name="ALDAX">      1.00000000</i>
   <i name="AGGAX">      1.00000000</i>
   <i name="ALDAC">      1.00000000</i>
   <i name="AGGAC">      0.00000000</i>
   <i type="int" name="NKREDX">     1</i>
   <i type="int" name="NKREDY">     1</i>
   <i type="int" name="NKREDZ">     1</i>
   <i type="logical" name="SHIFTRED"> F  </i>
   <i type="logical" name="ODDONLY"> F  </i>
   <i type="logical" name="EVENONLY"> F  </i>
   <i type="int" name="LMAXFOCK">     0</i>
   <i type="int" name="NMAXFOCKAE">     0</i>
   <i type="logical" name="LFOCKAEDFT"> F  </i>
   <i name="HFSCREEN">      0.00000000</i>
   <i name="HFSCREENC">      0.00000000</i>
   <i type="int" name="NBANDSGWLOW">     0</i>
  </separator>
  <separator name="vdW DFT" >
   <i type="logical" name="LUSE_VDW"> T  </i>
   <i name="Zab_VDW">     -0.84910000</i>
   <i name="PARAM1">      0.18333333</i>
   <i name="PARAM2">      0.22000000</i>
   <i name="PARAM3">      0.00000000</i>
  </separator>
  <separator name="model GW" >
   <i type="int" name="MODEL_GW">     0</i>
   <i name="MODEL_EPS0">     25.05800243</i>
   <i name="MODEL_ALPHA">      1.00000000</i>
  </separator>
  <separator name="linear response parameters" >
   <i type="logical" name="LEPSILON"> F  </i>
   <i type="logical" name="LRPA"> F  </i>
   <i type="logical" name="LNABLA"> F  </i>
   <i type="logical" name="LVEL"> F  </i>
   <i type="int" name="KINTER">     0</i>
   <i name="CSHIFT">      0.10000000</i>
   <i name="OMEGAMAX">     -1.00000000</i>
   <i name="DEG_THRESHOLD">      0.00200000</i>
  </separator>
  <separator name="orbital magnetization" >
   <i type="logical" name="NUCIND"> F  </i>
   <v name="MAGPOS">      0.00000000      0.00000000      0.00000000</v>
   <i type="logical" name="LNICSALL"> T  </i>
   <i type="logical" name="ORBITALMAG"> F  </i>
   <i type="logical" name="LMAGBLOCH"> F  </i>
   <i type="logical" name="LCHIMAG"> F  </i>
   <i type="logical" name="LGAUGE"> T  </i>
   <i type="int" name="MAGATOM">     0</i>
   <v name="MAGDIPOL">      0.00000000      0.00000000      0.00000000</v>
   <v name="AVECCONST">      0.00000000      0.00000000      0.00000000</v>
  </separator>
  <separator name="response functions" >
   <i type="logical" name="LADDER"> F  </i>
   <i type="logical" name="LFXC"> F  </i>
   <i type="logical" name="LHARTREE"> T  </i>
   <i type="int" name="IBSE">     0</i>
   <i type="logical" name="LTCTE"> F  </i>
   <i type="logical" name="LTETE"> F  </i>
   <i type="logical" name="LTRIPLET"> F  </i>
   <i type="logical" name="LFXCEPS"> F  </i>
   <i type="logical" name="LFXHEG"> F  </i>
   <i type="logical" name="L2ORDER"> F  </i>
   <i type="logical" name="LUSEW"> F  </i>
   <i name="ENCUTGW">     -2.00000000</i>
   <i name="ENCUTGWSOFT">     -2.00000000</i>
   <i name="ENCUTLF">     -1.00000000</i>
   <i type="int" name="LMAXMP2">    -1</i>
   <i name="SCISSOR">      0.00000000</i>
   <i type="int" name="NOMEGA">     0</i>
   <i type="int" name="NOMEGAR">     0</i>
   <i type="int" name="NBANDSGW">    -1</i>
   <i type="int" name="NBANDSO">    -1</i>
   <i type="int" name="NBANDSV">    -1</i>
   <i type="int" name="NELM">     1</i>
   <i type="int" name="DIM">     3</i>
   <i type="int" name="ANTIRES">     0</i>
   <i name="OMEGAMAX">    -30.00000000</i>
   <i name="OMEGAMIN">    -30.00000000</i>
   <i name="OMEGATL">   -200.00000000</i>
   <i type="int" name="OMEGAGRID">     0</i>
   <i name="CSHIFT">     -0.10000000</i>
   <i type="logical" name="SELFENERGY"> F  </i>
   <i type="logical" name="LSPECTRAL"> F  </i>
   <i type="logical" name="ODDONLYGW"> F  </i>
   <i type="logical" name="EVENONLYGW"> F  </i>
   <i type="int" name="NKREDLFX">     1</i>
   <i type="int" name="NKREDLFY">     1</i>
   <i type="int" name="NKREDLFZ">     1</i>
   <i type="int" name="MAXMEM">  1800</i>
   <i type="int" name="TELESCOPE">     0</i>
   <i type="int" name="TAUPAR">     1</i>
  </separator>
  <separator name="External order field" >
   <i name="OFIELD_KAPPA">      0.00000000</i>
   <v name="OFIELD_K">      0.00000000      0.00000000      0.00000000</v>
   <i name="OFIELD_Q6_NEAR">      0.00000000</i>
   <i name="OFIELD_Q6_FAR">      0.00000000</i>
   <i name="OFIELD_A">      0.00000000</i>
  </separator>
 </parameters>
 <atominfo>
  <atoms>      24 </atoms>
  <types>       2 </types>
  <array name="atoms" >
   <dimension dim="1">ion</dimension>
   <field type="string">element</field>
   <field type="int">atomtype</field>
   <set>
    <rc><c>P </c><c>   1</c></rc>
    <rc><c>P </c><c>   1</c></rc>
    <rc><c>P </c><c>   1</c></rc>
    <rc><c>P </c><c>   1</c></rc>
    <rc><c>P </c><c>   1</c></rc>
    <rc><c>P </c><c>   1</c></rc>
    <rc><c>P </c><c>   1</c></rc>
    <rc><c>P </c><c>   1</c></rc>
    <rc><c>P </c><c>   1</c></rc>
    <rc><c>P </c><c>   1</c></rc>
    <rc><c>P </c><c>   1</c></rc>
    <rc><c>P </c><c>   1</c></rc>
    <rc><c>Si</c><c>   2</c></rc>
    <rc><c>Si</c><c>   2</c></rc>
    <rc><c>Si</c><c>   2</c></rc>
    <rc><c>Si</c><c>   2</c></rc>
    <rc><c>Si</c><c>   2</c></rc>
    <rc><c>Si</c><c>   2</c></rc>
    <rc><c>Si</c><c>   2</c></rc>
    <rc><c>Si</c><c>   2</c></rc>
    <rc><c>Si</c><c>   2</c></rc>
    <rc><c>Si</c><c>   2</c></rc>
    <rc><c>Si</c><c>   2</c></rc>
    <rc><c>Si</c><c>   2</c></rc>
   </set>
  </array>
  <array name="atomtypes" >
   <dimension dim="1">type</dimension>
   <field type="int">atomspertype</field>
   <field type="string">element</field>
   <field>mass</field>
   <field>valence</field>
   <field type="string">pseudopotential</field>
   <set>
    <rc><c>  12</c><c>P </c><c>     30.97400000</c><c>      5.00000000</c><c>  PAW_PBE P 17Jan2003                   </c></rc>
    <rc><c>  12</c><c>Si</c><c>     28.08500000</c><c>      4.00000000</c><c> PAW_PBE Si 05Jan2001                   </c></rc>
   </set>
  </array>
 </atominfo>
 <structure name="initialpos" >
  <crystal>
   <varray name="basis" >
    <v>       3.54040000       0.00000000       0.00000000 </v>
    <v>      -1.77020000      10.29434800       0.00000000 </v>
    <v>       0.00000000       0.00000000      27.50142900 </v>
   </varray>
   <i name="volume">   1002.32009712 </i>
   <varray name="rec_basis" >
    <v>       0.28245396       0.04857034       0.00000000 </v>
    <v>       0.00000000       0.09714068       0.00000000 </v>
    <v>       0.00000000       0.00000000       0.03636175 </v>
   </varray>
  </crystal>
  <varray name="positions" >
   <v>       0.11402300       0.22804500       0.23316207 </v>
   <v>       0.71402300       0.82804500       0.51499159 </v>
   <v>       0.45808900       0.91617900       0.20939482 </v>
   <v>       0.05808900       0.51617900       0.49122434 </v>
   <v>       0.31085400       0.62170900       0.08414979 </v>
   <v>       0.31085400       0.62170900       0.36597930 </v>
   <v>       0.99923000       0.99846000       0.08631254 </v>
   <v>       0.99923000       0.99846000       0.36814206 </v>
   <v>       0.65492700       0.30985400       0.06041748 </v>
   <v>       0.65492700       0.30985400       0.34224700 </v>
   <v>       0.76973800       0.53947500       0.20725292 </v>
   <v>       0.36973800       0.13947500       0.48908244 </v>
   <v>       0.93971600       0.87943300       0.15783749 </v>
   <v>       0.53971600       0.47943300       0.43966701 </v>
   <v>       0.20515200       0.41030300       0.18578822 </v>
   <v>       0.80515200       0.01030300       0.46761774 </v>
   <v>       0.20184900       0.40369900       0.09969156 </v>
   <v>       0.20184900       0.40369900       0.38152107 </v>
   <v>       0.56380500       0.12761000       0.10779021 </v>
   <v>       0.56380500       0.12761000       0.38961973 </v>
   <v>       0.56710600       0.13421200       0.19387616 </v>
   <v>       0.16710600       0.73421200       0.47570568 </v>
   <v>       0.82923400       0.65846800       0.13571444 </v>
   <v>       0.42923400       0.25846800       0.41754396 </v>
  </varray>
 </structure>
 <calculation>
  <scstep>
   <time name="dav">   72.41   72.44</time>
   <time name="total">   88.84   88.91</time>
   <energy>
    <i name="alphaZ">     36.80884744 </i>
    <i name="ewald">  12026.68859221 </i>
    <i name="hartreedc"> -15058.26833571 </i>
    <i name="XCdc">    -86.96215573 </i>
    <i name="pawpsdc">   1056.43050070 </i>
    <i name="pawaedc">   -732.41190547 </i>
    <i name="eentropy">     -0.04285491 </i>
    <i name="bandstr">    -95.34441960 </i>
    <i name="atom">   3354.04126044 </i>
    <i name="e_fr_energy">    500.93952937 </i>
    <i name="e_wo_entrp">    500.98238429 </i>
    <i name="e_0_energy">    500.96095683 </i>
   </energy>
  </scstep>
  <scstep>
   <time name="dav">   93.36   93.40</time>
   <time name="total">   93.37   93.41</time>
   <energy>
    <i name="e_fr_energy">    -63.38837443 </i>
    <i name="e_wo_entrp">    -63.37249453 </i>
    <i name="e_0_energy">    -63.38043448 </i>
   </energy>
  </scstep>
  <scstep>
   <time name="dav">   74.89   74.91</time>
   <time name="total">   74.90   74.93</time>
   <energy>
    <i name="e_fr_energy">   -119.59645270 </i>
    <i name="e_wo_entrp">   -119.57214267 </i>
    <i name="e_0_energy">   -119.58429769 </i>
   </energy>
  </scstep>
  <scstep>
   <time name="dav">   91.69   91.72</time>
   <time name="total">   91.70   91.73</time>
   <energy>
    <i name="e_fr_energy">   -122.23082564 </i>
    <i name="e_wo_entrp">   -122.20352387 </i>
    <i name="e_0_energy">   -122.21717475 </i>
   </energy>
  </scstep>
  <scstep>
   <time name="dav">   90.90   90.93</time>
   <time name="total">   95.25   95.29</time>
   <energy>
    <i name="e_fr_energy">   -122.29398655 </i>
    <i name="e_wo_entrp">   -122.26659209 </i>
    <i name="e_0_energy">   -122.28028932 </i>
   </energy>
  </scstep>
  <scstep>
   <time name="dav">   86.69   86.71</time>
   <time name="total">  106.02  106.05</time>
   <energy>
    <i name="e_fr_energy">   -118.69321881 </i>
    <i name="e_wo_entrp">   -118.66314251 </i>
    <i name="e_0_energy">   -118.67818066 </i>
   </energy>
  </scstep>
  <scstep>
   <time name="dav">   85.30   85.33</time>
   <time name="total">  104.66  104.69</time>
   <energy>
    <i name="e_fr_energy">   -118.59612408 </i>
    <i name="e_wo_entrp">   -118.57716402 </i>
    <i name="e_0_energy">   -118.58664405 </i>
   </energy>
  </scstep>
  <scstep>
   <time name="dav">   91.83   91.85</time>
   <time name="total">  111.21  111.24</time>
   <energy>
    <i name="e_fr_energy">   -118.62655043 </i>
    <i name="e_wo_entrp">   -118.60701678 </i>
    <i name="e_0_energy">   -118.61678361 </i>
   </energy>
  </scstep>
  <scstep>
   <time name="dav">   89.93   89.95</time>
   <time name="total">  109.30  109.33</time>
   <energy>
    <i name="e_fr_energy">   -118.61859720 </i>
    <i name="e_wo_entrp">   -118.59692748 </i>
    <i name="e_0_energy">   -118.60776234 </i>
   </energy>
  </scstep>
  <scstep>
   <time name="dav">   90.63   90.65</time>
   <time name="total">  110.03  110.06</time>
   <energy>
    <i name="e_fr_energy">   -118.60809800 </i>
    <i name="e_wo_entrp">   -118.58781835 </i>
    <i name="e_0_energy">   -118.59795818 </i>
   </energy>
  </scstep>
  <scstep>
   <time name="dav">   82.96   82.98</time>
   <time name="total">  102.32  102.34</time>
   <energy>
    <i name="e_fr_energy">   -118.60085542 </i>
    <i name="e_wo_entrp">   -118.58054118 </i>
    <i name="e_0_energy">   -118.59069830 </i>
   </energy>
  </scstep>
  <scstep>
   <time name="dav">   92.68   92.71</time>
   <time name="total">  112.06  112.09</time>
   <energy>
    <i name="e_fr_energy">   -118.59395596 </i>
    <i name="e_wo_entrp">   -118.57350652 </i>
    <i name="e_0_energy">   -118.58373124 </i>
   </energy>
  </scstep>
  <scstep>
   <time name="dav">   86.53   86.57</time>
   <time name="total">  105.93  105.97</time>
   <energy>
    <i name="e_fr_energy">   -118.59060291 </i>
    <i name="e_wo_entrp">   -118.57026900 </i>
    <i name="e_0_energy">   -118.58043596 </i>
   </energy>
  </scstep>
  <scstep>
   <time name="dav">   87.01   87.04</time>
   <time name="total">  106.34  106.38</time>
   <energy>
    <i name="e_fr_energy">   -118.58835472 </i>
    <i name="e_wo_entrp">   -118.56792671 </i>
    <i name="e_0_energy">   -118.57814071 </i>
   </energy>
  </scstep>
  <scstep>
   <time name="dav">   88.18   88.21</time>
   <time name="total">  107.55  107.60</time>
   <energy>
    <i name="e_fr_energy">   -118.58787818 </i>
    <i name="e_wo_entrp">   -118.56750007 </i>
    <i name="e_0_energy">   -118.57768912 </i>
   </energy>
  </scstep>
  <scstep>
   <time name="dav">   71.06   71.08</time>
   <time name="total">   90.40   90.42</time>
   <energy>
    <i name="e_fr_energy">   -118.58815657 </i>
    <i name="e_wo_entrp">   -118.56776636 </i>
    <i name="e_0_energy">   -118.57796146 </i>
   </energy>
  </scstep>
  <scstep>
   <time name="dav">   83.01   83.03</time>
   <time name="total">  102.38  102.41</time>
   <energy>
    <i name="e_fr_energy">   -118.58856067 </i>
    <i name="e_wo_entrp">   -118.56817684 </i>
    <i name="e_0_energy">   -118.57836876 </i>
   </energy>
  </scstep>
  <scstep>
   <time name="dav">   78.02   78.04</time>
   <time name="total">   97.37   97.40</time>
   <energy>
    <i name="e_fr_energy">   -118.58880959 </i>
    <i name="e_wo_entrp">   -118.56841681 </i>
    <i name="e_0_energy">   -118.57861320 </i>
   </energy>
  </scstep>
  <scstep>
   <time name="dav">   74.00   74.02</time>
   <time name="total">   93.40   93.43</time>
   <energy>
    <i name="e_fr_energy">   -118.58887934 </i>
    <i name="e_wo_entrp">   -118.56848924 </i>
    <i name="e_0_energy">   -118.57868429 </i>
   </energy>
  </scstep>
  <scstep>
   <time name="dav">   75.10   75.14</time>
   <time name="total">   94.47   94.51</time>
   <energy>
    <i name="e_fr_energy">   -118.58891352 </i>
    <i name="e_wo_entrp">   -118.56852403 </i>
    <i name="e_0_energy">   -118.57871877 </i>
   </energy>
  </scstep>
  <scstep>
   <time name="dav">   74.92   74.96</time>
   <time name="total">   94.29   94.34</time>
   <energy>
    <i name="e_fr_energy">   -118.58890114 </i>
    <i name="e_wo_entrp">   -118.56850888 </i>
    <i name="e_0_energy">   -118.57870501 </i>
   </energy>
  </scstep>
  <scstep>
   <time name="dav">   70.90   70.92</time>
   <time name="total">   90.30   90.34</time>
   <energy>
    <i name="e_fr_energy">   -118.58882795 </i>
    <i name="e_wo_entrp">   -118.56843649 </i>
    <i name="e_0_energy">   -118.57863222 </i>
   </energy>
  </scstep>
  <scstep>
   <time name="dav">   69.17   69.20</time>
   <time name="total">   88.53   88.57</time>
   <energy>
    <i name="e_fr_energy">   -118.58877390 </i>
    <i name="e_wo_entrp">   -118.56838218 </i>
    <i name="e_0_energy">   -118.57857804 </i>
   </energy>
  </scstep>
  <scstep>
   <time name="dav">   74.88   74.91</time>
   <time name="total">   94.28   94.32</time>
   <energy>
    <i name="e_fr_energy">   -118.58875133 </i>
    <i name="e_wo_entrp">   -118.56835947 </i>
    <i name="e_0_energy">   -118.57855540 </i>
   </energy>
  </scstep>
  <scstep>
   <time name="dav">   69.19   69.21</time>
   <time name="total">   88.61   88.64</time>
   <energy>
    <i name="e_fr_energy">   -118.58874907 </i>
    <i name="e_wo_entrp">   -118.56835715 </i>
    <i name="e_0_energy">   -118.57855311 </i>
   </energy>
  </scstep>
  <scstep>
   <time name="dav">   67.86   67.90</time>
   <time name="total">   87.32   87.36</time>
   <energy>
    <i name="e_fr_energy">   -118.58874643 </i>
    <i name="e_wo_entrp">   -118.56835475 </i>
    <i name="e_0_energy">   -118.57855059 </i>
   </energy>
  </scstep>
  <scstep>
   <time name="dav">   65.68   65.72</time>
   <time name="total">   85.04   85.09</time>
   <energy>
    <i name="e_fr_energy">   -118.58874278 </i>
    <i name="e_wo_entrp">   -118.56835111 </i>
    <i name="e_0_energy">   -118.57854694 </i>
   </energy>
  </scstep>
  <scstep>
   <time name="dav">   67.89   67.93</time>
   <time name="total">   82.97   83.01</time>
   <energy>
    <i name="alphaZ">     36.80884744 </i>
    <i name="ewald">  12026.68859221 </i>
    <i name="hartreedc"> -15158.67266422 </i>
    <i name="XCdc">    -79.37104236 </i>
    <i name="pawpsdc">   1169.02246430 </i>
    <i name="pawaedc">   -848.35218313 </i>
    <i name="eentropy">     -0.02039158 </i>
    <i name="bandstr">   -618.73362525 </i>
    <i name="atom">   3354.04126044 </i>
    <i name="e_fr_energy">   -118.58874213 </i>
    <i name="e_wo_entrp">   -118.56835055 </i>
    <i name="e_0_energy">   -118.57854634 </i>
   </energy>
  </scstep>
  <structure>
   <crystal>
    <varray name="basis" >
     <v>       3.54040000       0.00000000       0.00000000 </v>
     <v>      -1.77020000      10.29434800       0.00000000 </v>
     <v>       0.00000000       0.00000000      27.50142900 </v>
    </varray>
    <i name="volume">   1002.32009712 </i>
    <varray name="rec_basis" >
     <v>       0.28245396       0.04857034       0.00000000 </v>
     <v>       0.00000000       0.09714068       0.00000000 </v>
     <v>       0.00000000       0.00000000       0.03636175 </v>
    </varray>
   </crystal>
   <varray name="positions" >
    <v>       0.11402300       0.22804500       0.23316207 </v>
    <v>       0.71402300       0.82804500       0.51499159 </v>
    <v>       0.45808900       0.91617900       0.20939482 </v>
    <v>       0.05808900       0.51617900       0.49122434 </v>
    <v>       0.31085400       0.62170900       0.08414979 </v>
    <v>       0.31085400       0.62170900       0.36597930 </v>
    <v>       0.99923000       0.99846000       0.08631254 </v>
    <v>       0.99923000       0.99846000       0.36814206 </v>
    <v>       0.65492700       0.30985400       0.06041748 </v>
    <v>       0.65492700       0.30985400       0.34224700 </v>
    <v>       0.76973800       0.53947500       0.20725292 </v>
    <v>       0.36973800       0.13947500       0.48908244 </v>
    <v>       0.93971600       0.87943300       0.15783749 </v>
    <v>       0.53971600       0.47943300       0.43966701 </v>
    <v>       0.20515200       0.41030300       0.18578822 </v>
    <v>       0.80515200       0.01030300       0.46761774 </v>
    <v>       0.20184900       0.40369900       0.09969156 </v>
    <v>       0.20184900       0.40369900       0.38152107 </v>
    <v>       0.56380500       0.12761000       0.10779021 </v>
    <v>       0.56380500       0.12761000       0.38961973 </v>
    <v>       0.56710600       0.13421200       0.19387616 </v>
    <v>       0.16710600       0.73421200       0.47570568 </v>
    <v>       0.82923400       0.65846800       0.13571444 </v>
    <v>       0.42923400       0.25846800       0.41754396 </v>
   </varray>
  </structure>
  <varray name="forces" >
   <v>      -0.01622428      -0.03081681       0.02126961 </v>
   <v>      -0.02772583      -0.07727173      -0.44302256 </v>
   <v>      -0.00238936      -0.01118327       0.07505410 </v>
   <v>      -0.09697210       0.13635451       0.78386632 </v>
   <v>      -0.00117283      -0.00030627       0.00179093 </v>
   <v>       0.75446634      -0.77669454       1.19430739 </v>
   <v>      -0.00431837      -0.00423066       0.00107843 </v>
   <v>      -0.54496766      -0.07794799       0.94362434 </v>
   <v>       0.00109882      -0.00225796       0.00669633 </v>
   <v>       0.24463745       0.85593657      -3.00735034 </v>
   <v>       0.00262903       0.01062958       0.08968734 </v>
   <v>      -0.73686882      -0.07774568       1.72377372 </v>
   <v>       0.00371215      -0.00651252       0.00484380 </v>
   <v>       2.07968272       3.18081712       4.06058832 </v>
   <v>      -0.00470572       0.01300145       0.05120997 </v>
   <v>       0.91778439       0.05400747      -0.13365523 </v>
   <v>       0.00150936       0.00227062      -0.01410239 </v>
   <v>      -4.34114301       0.75785499      -6.35453017 </v>
   <v>      -0.00683773      -0.00977229      -0.01090179 </v>
   <v>       8.55132377     -16.55682155     -10.99349309 </v>
   <v>       0.00204342      -0.01096915       0.00557610 </v>
   <v>       0.11066583      -0.34737014      -0.37968778 </v>
   <v>       0.00185797       0.00026539      -0.00163318 </v>
   <v>      -6.88808551      12.97876284      12.37500982 </v>
  </varray>
  <varray name="stress" >
   <v>      16.05033401     -15.45753371      -3.18204725 </v>
   <v>     -15.45753362      40.85322911      20.96623382 </v>
   <v>      -3.18204707      20.96623384      33.64826140 </v>
  </varray>
  <energy>
   <i name="e_fr_energy">   -118.58874213 </i>
   <i name="e_wo_entrp">   -118.57854634 </i>
   <i name="e_0_energy">     -0.02039158 </i>
  </energy>
  <time name="totalsc"> 2832.42 2833.50</time>
  <eigenvalues>
   <array>
    <dimension dim="1">band</dimension>
    <dimension dim="2">kpoint</dimension>
    <dimension dim="3">spin</dimension>
    <field>eigene</field>
    <field>occ</field>
    <set>
     <set comment="spin 1">
      <set comment="kpoint 1">
       <r>  -14.8578    1.0000 </r>
       <r>  -13.5131    1.0000 </r>
       <r>  -13.0820    1.0000 </r>
       <r>  -12.9290    1.0000 </r>
       <r>  -12.7751    1.0000 </r>
       <r>  -12.4521    1.0000 </r>
       <r>  -12.0604    1.0000 </r>
       <r>  -11.7174    1.0000 </r>
       <r>  -11.4079    1.0000 </r>
       <r>  -11.3574    1.0000 </r>
       <r>  -10.9659    1.0000 </r>
       <r>  -10.5533    1.0000 </r>
       <r>   -9.0446    1.0000 </r>
       <r>   -8.5209    1.0000 </r>
       <r>   -8.0016    1.0000 </r>
       <r>   -7.8002    1.0000 </r>
       <r>   -6.8085    1.0000 </r>
       <r>   -6.6943    1.0000 </r>
       <r>   -6.4652    1.0000 </r>
       <r>   -6.0291    1.0000 </r>
       <r>   -5.7986    1.0000 </r>
       <r>   -5.3234    1.0000 </r>
       <r>   -5.0658    1.0000 </r>
       <r>   -4.7767    1.0000 </r>
       <r>   -4.6199    1.0000 </r>
       <r>   -3.7524    1.0000 </r>
       <r>   -3.6453    1.0000 </r>
       <r>   -3.4169    1.0000 </r>
       <r>   -3.2555    1.0000 </r>
       <r>   -3.1234    1.0000 </r>
       <r>   -3.0286    1.0000 </r>
       <r>   -3.0133    1.0000 </r>
       <r>   -2.8761    1.0000 </r>
       <r>   -2.8194    1.0000 </r>
       <r>   -2.7109    1.0000 </r>
       <r>   -2.4320    1.0000 </r>
       <r>   -2.3586    1.0000 </r>
       <r>   -2.3100    1.0000 </r>
       <r>   -2.2338    1.0000 </r>
       <r>   -2.1456    1.0000 </r>
       <r>   -1.9641    1.0000 </r>
       <r>   -1.8391    1.0000 </r>
       <r>   -1.7296    1.0000 </r>
       <r>   -1.7051    1.0000 </r>
       <r>   -1.6147    1.0000 </r>
       <r>   -1.5608    1.0000 </r>
       <r>   -1.4630    1.0000 </r>
       <r>   -1.4056    1.0000 </r>
       <r>   -1.2304    1.0000 </r>
       <r>   -1.1211    1.0000 </r>
       <r>   -0.9664    1.0000 </r>
       <r>   -0.8022    1.0000 </r>
       <r>   -0.2830    0.9992 </r>
       <r>    0.0724    0.0313 </r>
       <r>    0.5892    0.0000 </r>
       <r>    0.7477    0.0000 </r>
       <r>    1.1620    0.0000 </r>
       <r>    1.3045    0.0000 </r>
       <r>    1.3462    0.0000 </r>
       <r>    1.4988    0.0000 </r>
       <r>    1.7422    0.0000 </r>
       <r>    1.8610    0.0000 </r>
       <r>    1.9424    0.0000 </r>
       <r>    2.0081    0.0000 </r>
       <r>    2.1574    0.0000 </r>
       <r>    2.3979    0.0000 </r>
       <r>    2.4552    0.0000 </r>
       <r>    2.6106    0.0000 </r>
      </set>
      <set comment="kpoint 2">
       <r>  -14.8042    1.0000 </r>
       <r>  -13.4517    1.0000 </r>
       <r>  -13.0328    1.0000 </r>
       <r>  -12.8629    1.0000 </r>
       <r>  -12.7230    1.0000 </r>
       <r>  -12.3965    1.0000 </r>
       <r>  -11.9981    1.0000 </r>
       <r>  -11.6759    1.0000 </r>
       <r>  -11.3587    1.0000 </r>
       <r>  -11.3001    1.0000 </r>
       <r>  -10.9175    1.0000 </r>
       <r>  -10.5234    1.0000 </r>
       <r>   -9.0275    1.0000 </r>
       <r>   -8.5012    1.0000 </r>
       <r>   -8.0395    1.0000 </r>
       <r>   -7.7624    1.0000 </r>
       <r>   -6.7786    1.0000 </r>
       <r>   -6.7013    1.0000 </r>
       <r>   -6.4594    1.0000 </r>
       <r>   -6.0071    1.0000 </r>
       <r>   -5.7653    1.0000 </r>
       <r>   -5.3522    1.0000 </r>
       <r>   -5.0728    1.0000 </r>
       <r>   -4.7711    1.0000 </r>
       <r>   -4.6519    1.0000 </r>
       <r>   -4.1099    1.0000 </r>
       <r>   -3.7231    1.0000 </r>
       <r>   -3.6294    1.0000 </r>
       <r>   -3.5338    1.0000 </r>
       <r>   -3.3944    1.0000 </r>
       <r>   -3.2425    1.0000 </r>
       <r>   -3.1612    1.0000 </r>
       <r>   -3.1040    1.0000 </r>
       <r>   -2.9649    1.0000 </r>
       <r>   -2.8141    1.0000 </r>
       <r>   -2.6997    1.0000 </r>
       <r>   -2.4914    1.0000 </r>
       <r>   -2.4539    1.0000 </r>
       <r>   -2.3597    1.0000 </r>
       <r>   -2.2044    1.0000 </r>
       <r>   -2.1486    1.0000 </r>
       <r>   -2.0264    1.0000 </r>
       <r>   -1.9411    1.0000 </r>
       <r>   -1.8901    1.0000 </r>
       <r>   -1.7830    1.0000 </r>
       <r>   -1.7273    1.0000 </r>
       <r>   -1.4959    1.0000 </r>
       <r>   -1.4741    1.0000 </r>
       <r>   -1.1676    1.0000 </r>
       <r>   -1.0890    1.0000 </r>
       <r>   -0.9188    1.0000 </r>
       <r>   -0.6523    1.0000 </r>
       <r>   -0.2731    0.9988 </r>
       <r>    0.0454    0.0696 </r>
       <r>    0.6218    0.0000 </r>
       <r>    0.7835    0.0000 </r>
       <r>    1.3747    0.0000 </r>
       <r>    1.5633    0.0000 </r>
       <r>    1.6471    0.0000 </r>
       <r>    1.7905    0.0000 </r>
       <r>    1.9537    0.0000 </r>
       <r>    2.1334    0.0000 </r>
       <r>    2.2235    0.0000 </r>
       <r>    2.2503    0.0000 </r>
       <r>    2.3215    0.0000 </r>
       <r>    2.4991    0.0000 </r>
       <r>    2.6317    0.0000 </r>
       <r>    2.7139    0.0000 </r>
      </set>
      <set comment="kpoint 3">
       <r>  -14.6459    1.0000 </r>
       <r>  -13.2687    1.0000 </r>
       <r>  -12.8818    1.0000 </r>
       <r>  -12.6725    1.0000 </r>
       <r>  -12.5672    1.0000 </r>
       <r>  -12.2318    1.0000 </r>
       <r>  -11.8156    1.0000 </r>
       <r>  -11.5534    1.0000 </r>
       <r>  -11.2164    1.0000 </r>
       <r>  -11.1361    1.0000 </r>
       <r>  -10.7786    1.0000 </r>
       <r>  -10.4441    1.0000 </r>
       <r>   -8.9910    1.0000 </r>
       <r>   -8.4586    1.0000 </r>
       <r>   -8.1374    1.0000 </r>
       <r>   -7.7200    1.0000 </r>
       <r>   -6.7871    1.0000 </r>
       <r>   -6.6882    1.0000 </r>
       <r>   -6.4714    1.0000 </r>
       <r>   -6.0020    1.0000 </r>
       <r>   -5.7128    1.0000 </r>
       <r>   -5.6767    1.0000 </r>
       <r>   -5.0865    1.0000 </r>
       <r>   -4.8822    1.0000 </r>
       <r>   -4.8290    1.0000 </r>
       <r>   -4.5049    1.0000 </r>
       <r>   -4.1935    1.0000 </r>
       <r>   -4.1485    1.0000 </r>
       <r>   -4.0540    1.0000 </r>
       <r>   -3.9442    1.0000 </r>
       <r>   -3.7203    1.0000 </r>
       <r>   -3.6270    1.0000 </r>
       <r>   -3.4495    1.0000 </r>
       <r>   -3.2832    1.0000 </r>
       <r>   -3.1277    1.0000 </r>
       <r>   -3.0311    1.0000 </r>
       <r>   -2.9487    1.0000 </r>
       <r>   -2.9218    1.0000 </r>
       <r>   -2.8029    1.0000 </r>
       <r>   -2.5932    1.0000 </r>
       <r>   -2.3678    1.0000 </r>
       <r>   -2.2900    1.0000 </r>
       <r>   -2.1387    1.0000 </r>
       <r>   -2.0778    1.0000 </r>
       <r>   -1.8653    1.0000 </r>
       <r>   -1.7592    1.0000 </r>
       <r>   -1.6248    1.0000 </r>
       <r>   -1.5222    1.0000 </r>
       <r>   -1.2190    1.0000 </r>
       <r>   -1.1491    1.0000 </r>
       <r>   -0.9557    1.0000 </r>
       <r>   -0.4965    1.0000 </r>
       <r>   -0.3150    0.9999 </r>
       <r>   -0.1213    0.8102 </r>
       <r>    0.5124    0.0000 </r>
       <r>    0.9181    0.0000 </r>
       <r>    1.4723    0.0000 </r>
       <r>    1.6072    0.0000 </r>
       <r>    1.9516    0.0000 </r>
       <r>    2.1434    0.0000 </r>
       <r>    2.2772    0.0000 </r>
       <r>    2.4257    0.0000 </r>
       <r>    2.5257    0.0000 </r>
       <r>    2.6436    0.0000 </r>
       <r>    2.6991    0.0000 </r>
       <r>    2.8551    0.0000 </r>
       <r>    2.9454    0.0000 </r>
       <r>    3.0010    0.0000 </r>
      </set>
      <set comment="kpoint 4">
       <r>  -14.3928    1.0000 </r>
       <r>  -12.9677    1.0000 </r>
       <r>  -12.6267    1.0000 </r>
       <r>  -12.3764    1.0000 </r>
       <r>  -12.3110    1.0000 </r>
       <r>  -11.9652    1.0000 </r>
       <r>  -11.5280    1.0000 </r>
       <r>  -11.3605    1.0000 </r>
       <r>  -10.9995    1.0000 </r>
       <r>  -10.8925    1.0000 </r>
       <r>  -10.5753    1.0000 </r>
       <r>  -10.3521    1.0000 </r>
       <r>   -8.9783    1.0000 </r>
       <r>   -8.4467    1.0000 </r>
       <r>   -8.3288    1.0000 </r>
       <r>   -7.7948    1.0000 </r>
       <r>   -7.0203    1.0000 </r>
       <r>   -6.6646    1.0000 </r>
       <r>   -6.6059    1.0000 </r>
       <r>   -6.4591    1.0000 </r>
       <r>   -6.0528    1.0000 </r>
       <r>   -5.7118    1.0000 </r>
       <r>   -5.3727    1.0000 </r>
       <r>   -5.3068    1.0000 </r>
       <r>   -4.9452    1.0000 </r>
       <r>   -4.8827    1.0000 </r>
       <r>   -4.7750    1.0000 </r>
       <r>   -4.5796    1.0000 </r>
       <r>   -4.4826    1.0000 </r>
       <r>   -4.3505    1.0000 </r>
       <r>   -4.1698    1.0000 </r>
       <r>   -4.0560    1.0000 </r>
       <r>   -3.8650    1.0000 </r>
       <r>   -3.7670    1.0000 </r>
       <r>   -3.6347    1.0000 </r>
       <r>   -3.4400    1.0000 </r>
       <r>   -3.0732    1.0000 </r>
       <r>   -3.0066    1.0000 </r>
       <r>   -2.9629    1.0000 </r>
       <r>   -2.7388    1.0000 </r>
       <r>   -2.5673    1.0000 </r>
       <r>   -2.4308    1.0000 </r>
       <r>   -2.3994    1.0000 </r>
       <r>   -2.1836    1.0000 </r>
       <r>   -1.8840    1.0000 </r>
       <r>   -1.8129    1.0000 </r>
       <r>   -1.7175    1.0000 </r>
       <r>   -1.5794    1.0000 </r>
       <r>   -1.4404    1.0000 </r>
       <r>   -1.3641    1.0000 </r>
       <r>   -1.0813    1.0000 </r>
       <r>   -0.6937    1.0000 </r>
       <r>   -0.5377    1.0000 </r>
       <r>   -0.2381    0.9943 </r>
       <r>    0.3612    0.0000 </r>
       <r>    0.8845    0.0000 </r>
       <r>    1.2956    0.0000 </r>
       <r>    1.4736    0.0000 </r>
       <r>    1.8723    0.0000 </r>
       <r>    1.9985    0.0000 </r>
       <r>    2.1889    0.0000 </r>
       <r>    2.2763    0.0000 </r>
       <r>    2.4047    0.0000 </r>
       <r>    2.5480    0.0000 </r>
       <r>    2.7118    0.0000 </r>
       <r>    2.8864    0.0000 </r>
       <r>    2.9281    0.0000 </r>
       <r>    2.9936    0.0000 </r>
      </set>
      <set comment="kpoint 5">
       <r>  -14.0671    1.0000 </r>
       <r>  -12.5558    1.0000 </r>
       <r>  -12.2757    1.0000 </r>
       <r>  -12.0071    1.0000 </r>
       <r>  -11.9628    1.0000 </r>
       <r>  -11.6136    1.0000 </r>
       <r>  -11.1741    1.0000 </r>
       <r>  -11.1315    1.0000 </r>
       <r>  -10.7554    1.0000 </r>
       <r>  -10.6392    1.0000 </r>
       <r>  -10.3888    1.0000 </r>
       <r>  -10.3098    1.0000 </r>
       <r>   -9.0177    1.0000 </r>
       <r>   -8.6279    1.0000 </r>
       <r>   -8.5246    1.0000 </r>
       <r>   -8.0565    1.0000 </r>
       <r>   -7.4196    1.0000 </r>
       <r>   -7.0765    1.0000 </r>
       <r>   -6.9651    1.0000 </r>
       <r>   -6.8713    1.0000 </r>
       <r>   -6.4577    1.0000 </r>
       <r>   -6.1389    1.0000 </r>
       <r>   -5.9348    1.0000 </r>
       <r>   -5.8273    1.0000 </r>
       <r>   -5.3557    1.0000 </r>
       <r>   -5.1820    1.0000 </r>
       <r>   -4.8175    1.0000 </r>
       <r>   -4.7414    1.0000 </r>
       <r>   -4.6730    1.0000 </r>
       <r>   -4.4213    1.0000 </r>
       <r>   -4.2871    1.0000 </r>
       <r>   -4.2387    1.0000 </r>
       <r>   -4.1858    1.0000 </r>
       <r>   -3.9503    1.0000 </r>
       <r>   -3.7693    1.0000 </r>
       <r>   -3.3905    1.0000 </r>
       <r>   -3.3617    1.0000 </r>
       <r>   -3.0903    1.0000 </r>
       <r>   -3.0390    1.0000 </r>
       <r>   -2.8813    1.0000 </r>
       <r>   -2.7045    1.0000 </r>
       <r>   -2.5676    1.0000 </r>
       <r>   -2.4848    1.0000 </r>
       <r>   -2.2924    1.0000 </r>
       <r>   -2.0412    1.0000 </r>
       <r>   -1.8880    1.0000 </r>
       <r>   -1.8526    1.0000 </r>
       <r>   -1.7879    1.0000 </r>
       <r>   -1.6929    1.0000 </r>
       <r>   -1.5382    1.0000 </r>
       <r>   -1.2840    1.0000 </r>
       <r>   -0.8353    1.0000 </r>
       <r>   -0.7218    1.0000 </r>
       <r>   -0.2938    0.9995 </r>
       <r>    0.1103    0.0082 </r>
       <r>    0.7689    0.0000 </r>
       <r>    0.9864    0.0000 </r>
       <r>    1.2294    0.0000 </r>
       <r>    1.6115    0.0000 </r>
       <r>    1.7928    0.0000 </r>
       <r>    1.9737    0.0000 </r>
       <r>    2.0657    0.0000 </r>
       <r>    2.2391    0.0000 </r>
       <r>    2.3506    0.0000 </r>
       <r>    2.4276    0.0000 </r>
       <r>    2.6694    0.0000 </r>
       <r>    2.7465    0.0000 </r>
       <r>    2.8508    0.0000 </r>
      </set>
      <set comment="kpoint 6">
       <r>  -13.7196    1.0000 </r>
       <r>  -12.0474    1.0000 </r>
       <r>  -11.8624    1.0000 </r>
       <r>  -11.6397    1.0000 </r>
       <r>  -11.5439    1.0000 </r>
       <r>  -11.2164    1.0000 </r>
       <r>  -10.9854    1.0000 </r>
       <r>  -10.8224    1.0000 </r>
       <r>  -10.6010    1.0000 </r>
       <r>  -10.5354    1.0000 </r>
       <r>  -10.4282    1.0000 </r>
       <r>  -10.2940    1.0000 </r>
       <r>   -9.0585    1.0000 </r>
       <r>   -8.8036    1.0000 </r>
       <r>   -8.6231    1.0000 </r>
       <r>   -8.3495    1.0000 </r>
       <r>   -7.9382    1.0000 </r>
       <r>   -7.4741    1.0000 </r>
       <r>   -7.4311    1.0000 </r>
       <r>   -7.3841    1.0000 </r>
       <r>   -6.9614    1.0000 </r>
       <r>   -6.7356    1.0000 </r>
       <r>   -6.6329    1.0000 </r>
       <r>   -6.2124    1.0000 </r>
       <r>   -5.5651    1.0000 </r>
       <r>   -5.1838    1.0000 </r>
       <r>   -4.6562    1.0000 </r>
       <r>   -4.6254    1.0000 </r>
       <r>   -4.5207    1.0000 </r>
       <r>   -4.4816    1.0000 </r>
       <r>   -4.2256    1.0000 </r>
       <r>   -4.1728    1.0000 </r>
       <r>   -4.0879    1.0000 </r>
       <r>   -4.0183    1.0000 </r>
       <r>   -3.7302    1.0000 </r>
       <r>   -3.6284    1.0000 </r>
       <r>   -3.5111    1.0000 </r>
       <r>   -3.2426    1.0000 </r>
       <r>   -3.1459    1.0000 </r>
       <r>   -3.0649    1.0000 </r>
       <r>   -2.7814    1.0000 </r>
       <r>   -2.6352    1.0000 </r>
       <r>   -2.5166    1.0000 </r>
       <r>   -2.3737    1.0000 </r>
       <r>   -2.2537    1.0000 </r>
       <r>   -2.1267    1.0000 </r>
       <r>   -2.0097    1.0000 </r>
       <r>   -1.9638    1.0000 </r>
       <r>   -1.8096    1.0000 </r>
       <r>   -1.7005    1.0000 </r>
       <r>   -1.3953    1.0000 </r>
       <r>   -0.9355    1.0000 </r>
       <r>   -0.8605    1.0000 </r>
       <r>   -0.2909    0.9995 </r>
       <r>   -0.1020    0.7272 </r>
       <r>    0.6630    0.0000 </r>
       <r>    0.7266    0.0000 </r>
       <r>    1.0161    0.0000 </r>
       <r>    1.4303    0.0000 </r>
       <r>    1.7022    0.0000 </r>
       <r>    1.7501    0.0000 </r>
       <r>    1.9327    0.0000 </r>
       <r>    2.0795    0.0000 </r>
       <r>    2.2302    0.0000 </r>
       <r>    2.2931    0.0000 </r>
       <r>    2.3900    0.0000 </r>
       <r>    2.5437    0.0000 </r>
       <r>    2.7054    0.0000 </r>
      </set>
      <set comment="kpoint 7">
       <r>  -13.4638    1.0000 </r>
       <r>  -11.5892    1.0000 </r>
       <r>  -11.4734    1.0000 </r>
       <r>  -11.3077    1.0000 </r>
       <r>  -11.1218    1.0000 </r>
       <r>  -10.9933    1.0000 </r>
       <r>  -10.9142    1.0000 </r>
       <r>  -10.8164    1.0000 </r>
       <r>  -10.7034    1.0000 </r>
       <r>  -10.6299    1.0000 </r>
       <r>  -10.6052    1.0000 </r>
       <r>  -10.2254    1.0000 </r>
       <r>   -9.0946    1.0000 </r>
       <r>   -8.6716    1.0000 </r>
       <r>   -8.6485    1.0000 </r>
       <r>   -8.4118    1.0000 </r>
       <r>   -8.1396    1.0000 </r>
       <r>   -8.0515    1.0000 </r>
       <r>   -7.7365    1.0000 </r>
       <r>   -7.5449    1.0000 </r>
       <r>   -7.4705    1.0000 </r>
       <r>   -7.2574    1.0000 </r>
       <r>   -7.1556    1.0000 </r>
       <r>   -6.3323    1.0000 </r>
       <r>   -5.4903    1.0000 </r>
       <r>   -4.8979    1.0000 </r>
       <r>   -4.8306    1.0000 </r>
       <r>   -4.6622    1.0000 </r>
       <r>   -4.4719    1.0000 </r>
       <r>   -4.2521    1.0000 </r>
       <r>   -4.0913    1.0000 </r>
       <r>   -4.0343    1.0000 </r>
       <r>   -3.9622    1.0000 </r>
       <r>   -3.9040    1.0000 </r>
       <r>   -3.8041    1.0000 </r>
       <r>   -3.6475    1.0000 </r>
       <r>   -3.5507    1.0000 </r>
       <r>   -3.4083    1.0000 </r>
       <r>   -3.2365    1.0000 </r>
       <r>   -3.2044    1.0000 </r>
       <r>   -2.9801    1.0000 </r>
       <r>   -2.8783    1.0000 </r>
       <r>   -2.6690    1.0000 </r>
       <r>   -2.4255    1.0000 </r>
       <r>   -2.3063    1.0000 </r>
       <r>   -2.1704    1.0000 </r>
       <r>   -2.1085    1.0000 </r>
       <r>   -2.0167    1.0000 </r>
       <r>   -1.8352    1.0000 </r>
       <r>   -1.6879    1.0000 </r>
       <r>   -1.5049    1.0000 </r>
       <r>   -1.0791    1.0000 </r>
       <r>   -0.8994    1.0000 </r>
       <r>   -0.3689    1.0000 </r>
       <r>   -0.1208    0.8079 </r>
       <r>    0.5357    0.0000 </r>
       <r>    0.6509    0.0000 </r>
       <r>    0.9544    0.0000 </r>
       <r>    1.3944    0.0000 </r>
       <r>    1.5613    0.0000 </r>
       <r>    1.6615    0.0000 </r>
       <r>    1.8112    0.0000 </r>
       <r>    1.9103    0.0000 </r>
       <r>    2.0955    0.0000 </r>
       <r>    2.2392    0.0000 </r>
       <r>    2.4268    0.0000 </r>
       <r>    2.4664    0.0000 </r>
       <r>    2.5865    0.0000 </r>
      </set>
      <set comment="kpoint 8">
       <r>  -14.8543    1.0000 </r>
       <r>  -13.4574    1.0000 </r>
       <r>  -13.2337    1.0000 </r>
       <r>  -12.9491    1.0000 </r>
       <r>  -12.6872    1.0000 </r>
       <r>  -12.4500    1.0000 </r>
       <r>  -11.9487    1.0000 </r>
       <r>  -11.8445    1.0000 </r>
       <r>  -11.4516    1.0000 </r>
       <r>  -11.2166    1.0000 </r>
       <r>  -10.9743    1.0000 </r>
       <r>  -10.4995    1.0000 </r>
       <r>   -9.1928    1.0000 </r>
       <r>   -8.4928    1.0000 </r>
       <r>   -8.4504    1.0000 </r>
       <r>   -7.3516    1.0000 </r>
       <r>   -6.7744    1.0000 </r>
       <r>   -6.6437    1.0000 </r>
       <r>   -6.5736    1.0000 </r>
       <r>   -5.9320    1.0000 </r>
       <r>   -5.7224    1.0000 </r>
       <r>   -5.3443    1.0000 </r>
       <r>   -5.0262    1.0000 </r>
       <r>   -4.6380    1.0000 </r>
       <r>   -4.4229    1.0000 </r>
       <r>   -4.0003    1.0000 </r>
       <r>   -3.6840    1.0000 </r>
       <r>   -3.5005    1.0000 </r>
       <r>   -3.3846    1.0000 </r>
       <r>   -3.2117    1.0000 </r>
       <r>   -3.1003    1.0000 </r>
       <r>   -3.0678    1.0000 </r>
       <r>   -2.9070    1.0000 </r>
       <r>   -2.7190    1.0000 </r>
       <r>   -2.6834    1.0000 </r>
       <r>   -2.4407    1.0000 </r>
       <r>   -2.3612    1.0000 </r>
       <r>   -2.3208    1.0000 </r>
       <r>   -2.2532    1.0000 </r>
       <r>   -2.1386    1.0000 </r>
       <r>   -2.0091    1.0000 </r>
       <r>   -1.8762    1.0000 </r>
       <r>   -1.8572    1.0000 </r>
       <r>   -1.7688    1.0000 </r>
       <r>   -1.6004    1.0000 </r>
       <r>   -1.5161    1.0000 </r>
       <r>   -1.3739    1.0000 </r>
       <r>   -1.3369    1.0000 </r>
       <r>   -1.2191    1.0000 </r>
       <r>   -1.0839    1.0000 </r>
       <r>   -0.9412    1.0000 </r>
       <r>   -0.8274    1.0000 </r>
       <r>   -0.2840    0.9993 </r>
       <r>    0.0608    0.0448 </r>
       <r>    0.6330    0.0000 </r>
       <r>    0.8515    0.0000 </r>
       <r>    1.2057    0.0000 </r>
       <r>    1.3106    0.0000 </r>
       <r>    1.4092    0.0000 </r>
       <r>    1.5877    0.0000 </r>
       <r>    1.7457    0.0000 </r>
       <r>    1.7636    0.0000 </r>
       <r>    1.8579    0.0000 </r>
       <r>    1.9797    0.0000 </r>
       <r>    2.2646    0.0000 </r>
       <r>    2.3682    0.0000 </r>
       <r>    2.5745    0.0000 </r>
       <r>    2.6681    0.0000 </r>
      </set>
      <set comment="kpoint 9">
       <r>  -14.8000    1.0000 </r>
       <r>  -13.3805    1.0000 </r>
       <r>  -13.1953    1.0000 </r>
       <r>  -12.9300    1.0000 </r>
       <r>  -12.5842    1.0000 </r>
       <r>  -12.3926    1.0000 </r>
       <r>  -11.9477    1.0000 </r>
       <r>  -11.7456    1.0000 </r>
       <r>  -11.4102    1.0000 </r>
       <r>  -11.1455    1.0000 </r>
       <r>  -10.9299    1.0000 </r>
       <r>  -10.4558    1.0000 </r>
       <r>   -9.1944    1.0000 </r>
       <r>   -8.5478    1.0000 </r>
       <r>   -8.4348    1.0000 </r>
       <r>   -7.3028    1.0000 </r>
       <r>   -6.7818    1.0000 </r>
       <r>   -6.6517    1.0000 </r>
       <r>   -6.5034    1.0000 </r>
       <r>   -5.8898    1.0000 </r>
       <r>   -5.6752    1.0000 </r>
       <r>   -5.3917    1.0000 </r>
       <r>   -5.0515    1.0000 </r>
       <r>   -4.6702    1.0000 </r>
       <r>   -4.4125    1.0000 </r>
       <r>   -4.1526    1.0000 </r>
       <r>   -4.0160    1.0000 </r>
       <r>   -3.6979    1.0000 </r>
       <r>   -3.5881    1.0000 </r>
       <r>   -3.3773    1.0000 </r>
       <r>   -3.3164    1.0000 </r>
       <r>   -3.1784    1.0000 </r>
       <r>   -3.0844    1.0000 </r>
       <r>   -2.9944    1.0000 </r>
       <r>   -2.9183    1.0000 </r>
       <r>   -2.6646    1.0000 </r>
       <r>   -2.5186    1.0000 </r>
       <r>   -2.4675    1.0000 </r>
       <r>   -2.3597    1.0000 </r>
       <r>   -2.2735    1.0000 </r>
       <r>   -2.1640    1.0000 </r>
       <r>   -2.0993    1.0000 </r>
       <r>   -2.0054    1.0000 </r>
       <r>   -1.8722    1.0000 </r>
       <r>   -1.7873    1.0000 </r>
       <r>   -1.7177    1.0000 </r>
       <r>   -1.5061    1.0000 </r>
       <r>   -1.3149    1.0000 </r>
       <r>   -1.1958    1.0000 </r>
       <r>   -1.0369    1.0000 </r>
       <r>   -0.8588    1.0000 </r>
       <r>   -0.7050    1.0000 </r>
       <r>   -0.2926    0.9995 </r>
       <r>    0.0712    0.0325 </r>
       <r>    0.5620    0.0000 </r>
       <r>    0.9882    0.0000 </r>
       <r>    1.3798    0.0000 </r>
       <r>    1.5844    0.0000 </r>
       <r>    1.7220    0.0000 </r>
       <r>    1.8053    0.0000 </r>
       <r>    1.9607    0.0000 </r>
       <r>    1.9869    0.0000 </r>
       <r>    2.1856    0.0000 </r>
       <r>    2.2479    0.0000 </r>
       <r>    2.4570    0.0000 </r>
       <r>    2.5607    0.0000 </r>
       <r>    2.6770    0.0000 </r>
       <r>    2.7301    0.0000 </r>
      </set>
      <set comment="kpoint 10">
       <r>  -14.6416    1.0000 </r>
       <r>  -13.1838    1.0000 </r>
       <r>  -13.0392    1.0000 </r>
       <r>  -12.7937    1.0000 </r>
       <r>  -12.3752    1.0000 </r>
       <r>  -12.2258    1.0000 </r>
       <r>  -11.8465    1.0000 </r>
       <r>  -11.5478    1.0000 </r>
       <r>  -11.2707    1.0000 </r>
       <r>  -10.9872    1.0000 </r>
       <r>  -10.7886    1.0000 </r>
       <r>  -10.3692    1.0000 </r>
       <r>   -9.1520    1.0000 </r>
       <r>   -8.6132    1.0000 </r>
       <r>   -8.4025    1.0000 </r>
       <r>   -7.2740    1.0000 </r>
       <r>   -6.8332    1.0000 </r>
       <r>   -6.6292    1.0000 </r>
       <r>   -6.4722    1.0000 </r>
       <r>   -5.9214    1.0000 </r>
       <r>   -5.7126    1.0000 </r>
       <r>   -5.6203    1.0000 </r>
       <r>   -5.0807    1.0000 </r>
       <r>   -4.8258    1.0000 </r>
       <r>   -4.7757    1.0000 </r>
       <r>   -4.4619    1.0000 </r>
       <r>   -4.3499    1.0000 </r>
       <r>   -4.2527    1.0000 </r>
       <r>   -4.0097    1.0000 </r>
       <r>   -3.9379    1.0000 </r>
       <r>   -3.8149    1.0000 </r>
       <r>   -3.5843    1.0000 </r>
       <r>   -3.5020    1.0000 </r>
       <r>   -3.2829    1.0000 </r>
       <r>   -3.1035    1.0000 </r>
       <r>   -2.9879    1.0000 </r>
       <r>   -2.9341    1.0000 </r>
       <r>   -2.8611    1.0000 </r>
       <r>   -2.7392    1.0000 </r>
       <r>   -2.5827    1.0000 </r>
       <r>   -2.5247    1.0000 </r>
       <r>   -2.4332    1.0000 </r>
       <r>   -2.2946    1.0000 </r>
       <r>   -2.0422    1.0000 </r>
       <r>   -1.8822    1.0000 </r>
       <r>   -1.8129    1.0000 </r>
       <r>   -1.5154    1.0000 </r>
       <r>   -1.4367    1.0000 </r>
       <r>   -1.2372    1.0000 </r>
       <r>   -1.1010    1.0000 </r>
       <r>   -0.8955    1.0000 </r>
       <r>   -0.5660    1.0000 </r>
       <r>   -0.3332    0.9999 </r>
       <r>   -0.0700    0.5604 </r>
       <r>    0.3846    0.0000 </r>
       <r>    1.0252    0.0000 </r>
       <r>    1.4756    0.0000 </r>
       <r>    1.5894    0.0000 </r>
       <r>    1.7457    0.0000 </r>
       <r>    2.1197    0.0000 </r>
       <r>    2.1496    0.0000 </r>
       <r>    2.3599    0.0000 </r>
       <r>    2.5005    0.0000 </r>
       <r>    2.7175    0.0000 </r>
       <r>    2.7779    0.0000 </r>
       <r>    2.8978    0.0000 </r>
       <r>    2.9956    0.0000 </r>
       <r>    3.1025    0.0000 </r>
      </set>
      <set comment="kpoint 11">
       <r>  -14.3887    1.0000 </r>
       <r>  -12.8722    1.0000 </r>
       <r>  -12.7704    1.0000 </r>
       <r>  -12.5424    1.0000 </r>
       <r>  -12.0747    1.0000 </r>
       <r>  -11.9578    1.0000 </r>
       <r>  -11.6545    1.0000 </r>
       <r>  -11.2711    1.0000 </r>
       <r>  -11.0489    1.0000 </r>
       <r>  -10.7701    1.0000 </r>
       <r>  -10.5711    1.0000 </r>
       <r>  -10.2795    1.0000 </r>
       <r>   -9.1005    1.0000 </r>
       <r>   -8.7445    1.0000 </r>
       <r>   -8.4007    1.0000 </r>
       <r>   -7.3642    1.0000 </r>
       <r>   -7.0630    1.0000 </r>
       <r>   -6.6689    1.0000 </r>
       <r>   -6.6184    1.0000 </r>
       <r>   -6.4927    1.0000 </r>
       <r>   -5.9600    1.0000 </r>
       <r>   -5.7968    1.0000 </r>
       <r>   -5.2810    1.0000 </r>
       <r>   -5.1763    1.0000 </r>
       <r>   -5.1190    1.0000 </r>
       <r>   -5.0064    1.0000 </r>
       <r>   -4.7247    1.0000 </r>
       <r>   -4.6372    1.0000 </r>
       <r>   -4.5240    1.0000 </r>
       <r>   -4.4325    1.0000 </r>
       <r>   -4.1861    1.0000 </r>
       <r>   -3.9882    1.0000 </r>
       <r>   -3.7368    1.0000 </r>
       <r>   -3.6740    1.0000 </r>
       <r>   -3.4965    1.0000 </r>
       <r>   -3.2067    1.0000 </r>
       <r>   -3.1747    1.0000 </r>
       <r>   -3.0658    1.0000 </r>
       <r>   -2.9333    1.0000 </r>
       <r>   -2.7310    1.0000 </r>
       <r>   -2.6057    1.0000 </r>
       <r>   -2.5283    1.0000 </r>
       <r>   -2.4932    1.0000 </r>
       <r>   -2.1389    1.0000 </r>
       <r>   -1.9558    1.0000 </r>
       <r>   -1.8704    1.0000 </r>
       <r>   -1.7521    1.0000 </r>
       <r>   -1.5515    1.0000 </r>
       <r>   -1.3753    1.0000 </r>
       <r>   -1.3109    1.0000 </r>
       <r>   -1.0541    1.0000 </r>
       <r>   -0.7031    1.0000 </r>
       <r>   -0.6063    1.0000 </r>
       <r>   -0.2445    0.9956 </r>
       <r>    0.2400    0.0000 </r>
       <r>    0.8094    0.0000 </r>
       <r>    1.3145    0.0000 </r>
       <r>    1.4218    0.0000 </r>
       <r>    1.5274    0.0000 </r>
       <r>    1.6456    0.0000 </r>
       <r>    2.0777    0.0000 </r>
       <r>    2.2366    0.0000 </r>
       <r>    2.4488    0.0000 </r>
       <r>    2.6116    0.0000 </r>
       <r>    2.7106    0.0000 </r>
       <r>    2.8684    0.0000 </r>
       <r>    3.0478    0.0000 </r>
       <r>    3.1788    0.0000 </r>
      </set>
      <set comment="kpoint 12">
       <r>  -14.0639    1.0000 </r>
       <r>  -12.4552    1.0000 </r>
       <r>  -12.4011    1.0000 </r>
       <r>  -12.1836    1.0000 </r>
       <r>  -11.7199    1.0000 </r>
       <r>  -11.6074    1.0000 </r>
       <r>  -11.3981    1.0000 </r>
       <r>  -10.9574    1.0000 </r>
       <r>  -10.7852    1.0000 </r>
       <r>  -10.5740    1.0000 </r>
       <r>  -10.3652    1.0000 </r>
       <r>  -10.2459    1.0000 </r>
       <r>   -9.0723    1.0000 </r>
       <r>   -8.9437    1.0000 </r>
       <r>   -8.4749    1.0000 </r>
       <r>   -7.6790    1.0000 </r>
       <r>   -7.5294    1.0000 </r>
       <r>   -7.0861    1.0000 </r>
       <r>   -7.0398    1.0000 </r>
       <r>   -6.9307    1.0000 </r>
       <r>   -6.4241    1.0000 </r>
       <r>   -6.1668    1.0000 </r>
       <r>   -5.8901    1.0000 </r>
       <r>   -5.7693    1.0000 </r>
       <r>   -5.4652    1.0000 </r>
       <r>   -5.3530    1.0000 </r>
       <r>   -4.9136    1.0000 </r>
       <r>   -4.7652    1.0000 </r>
       <r>   -4.5925    1.0000 </r>
       <r>   -4.3960    1.0000 </r>
       <r>   -4.2935    1.0000 </r>
       <r>   -4.1921    1.0000 </r>
       <r>   -3.9855    1.0000 </r>
       <r>   -3.8821    1.0000 </r>
       <r>   -3.6256    1.0000 </r>
       <r>   -3.3193    1.0000 </r>
       <r>   -3.2907    1.0000 </r>
       <r>   -3.0296    1.0000 </r>
       <r>   -2.9756    1.0000 </r>
       <r>   -2.8465    1.0000 </r>
       <r>   -2.7084    1.0000 </r>
       <r>   -2.5943    1.0000 </r>
       <r>   -2.4697    1.0000 </r>
       <r>   -2.3665    1.0000 </r>
       <r>   -2.2500    1.0000 </r>
       <r>   -1.9429    1.0000 </r>
       <r>   -1.8662    1.0000 </r>
       <r>   -1.7389    1.0000 </r>
       <r>   -1.7123    1.0000 </r>
       <r>   -1.5003    1.0000 </r>
       <r>   -1.2976    1.0000 </r>
       <r>   -0.9000    1.0000 </r>
       <r>   -0.7753    1.0000 </r>
       <r>   -0.2750    0.9989 </r>
       <r>    0.0535    0.0554 </r>
       <r>    0.5783    0.0000 </r>
       <r>    0.9656    0.0000 </r>
       <r>    1.1654    0.0000 </r>
       <r>    1.2744    0.0000 </r>
       <r>    1.3442    0.0000 </r>
       <r>    1.9089    0.0000 </r>
       <r>    2.1701    0.0000 </r>
       <r>    2.2335    0.0000 </r>
       <r>    2.3705    0.0000 </r>
       <r>    2.4851    0.0000 </r>
       <r>    2.6331    0.0000 </r>
       <r>    2.7214    0.0000 </r>
       <r>    2.9663    0.0000 </r>
      </set>
      <set comment="kpoint 13">
       <r>  -13.7175    1.0000 </r>
       <r>  -11.9655    1.0000 </r>
       <r>  -11.9510    1.0000 </r>
       <r>  -11.7337    1.0000 </r>
       <r>  -11.4229    1.0000 </r>
       <r>  -11.2161    1.0000 </r>
       <r>  -11.1331    1.0000 </r>
       <r>  -10.6994    1.0000 </r>
       <r>  -10.5754    1.0000 </r>
       <r>  -10.5492    1.0000 </r>
       <r>  -10.4409    1.0000 </r>
       <r>  -10.2361    1.0000 </r>
       <r>   -9.0548    1.0000 </r>
       <r>   -8.9340    1.0000 </r>
       <r>   -8.6089    1.0000 </r>
       <r>   -8.0841    1.0000 </r>
       <r>   -7.9885    1.0000 </r>
       <r>   -7.7530    1.0000 </r>
       <r>   -7.4018    1.0000 </r>
       <r>   -7.3223    1.0000 </r>
       <r>   -7.0389    1.0000 </r>
       <r>   -6.6680    1.0000 </r>
       <r>   -6.6350    1.0000 </r>
       <r>   -6.1995    1.0000 </r>
       <r>   -5.6142    1.0000 </r>
       <r>   -5.3170    1.0000 </r>
       <r>   -4.7677    1.0000 </r>
       <r>   -4.6768    1.0000 </r>
       <r>   -4.5412    1.0000 </r>
       <r>   -4.4030    1.0000 </r>
       <r>   -4.2151    1.0000 </r>
       <r>   -4.0853    1.0000 </r>
       <r>   -4.0497    1.0000 </r>
       <r>   -3.8325    1.0000 </r>
       <r>   -3.6063    1.0000 </r>
       <r>   -3.4082    1.0000 </r>
       <r>   -3.3266    1.0000 </r>
       <r>   -3.2530    1.0000 </r>
       <r>   -3.1066    1.0000 </r>
       <r>   -3.0472    1.0000 </r>
       <r>   -2.9045    1.0000 </r>
       <r>   -2.7180    1.0000 </r>
       <r>   -2.6083    1.0000 </r>
       <r>   -2.4251    1.0000 </r>
       <r>   -2.2675    1.0000 </r>
       <r>   -2.1398    1.0000 </r>
       <r>   -2.0457    1.0000 </r>
       <r>   -1.9064    1.0000 </r>
       <r>   -1.8228    1.0000 </r>
       <r>   -1.7372    1.0000 </r>
       <r>   -1.4520    1.0000 </r>
       <r>   -1.0566    1.0000 </r>
       <r>   -0.8419    1.0000 </r>
       <r>   -0.2798    0.9991 </r>
       <r>   -0.1093    0.7607 </r>
       <r>    0.5306    0.0000 </r>
       <r>    0.7141    0.0000 </r>
       <r>    0.9523    0.0000 </r>
       <r>    1.2323    0.0000 </r>
       <r>    1.3583    0.0000 </r>
       <r>    1.7346    0.0000 </r>
       <r>    1.8569    0.0000 </r>
       <r>    2.0442    0.0000 </r>
       <r>    2.1402    0.0000 </r>
       <r>    2.2804    0.0000 </r>
       <r>    2.4647    0.0000 </r>
       <r>    2.6430    0.0000 </r>
       <r>    2.6844    0.0000 </r>
      </set>
      <set comment="kpoint 14">
       <r>  -13.4630    1.0000 </r>
       <r>  -11.6167    1.0000 </r>
       <r>  -11.4018    1.0000 </r>
       <r>  -11.2698    1.0000 </r>
       <r>  -11.2389    1.0000 </r>
       <r>  -11.0073    1.0000 </r>
       <r>  -10.9278    1.0000 </r>
       <r>  -10.8363    1.0000 </r>
       <r>  -10.6746    1.0000 </r>
       <r>  -10.6130    1.0000 </r>
       <r>  -10.5516    1.0000 </r>
       <r>  -10.2361    1.0000 </r>
       <r>   -9.0843    1.0000 </r>
       <r>   -8.6854    1.0000 </r>
       <r>   -8.5279    1.0000 </r>
       <r>   -8.3732    1.0000 </r>
       <r>   -8.3000    1.0000 </r>
       <r>   -8.0952    1.0000 </r>
       <r>   -7.7608    1.0000 </r>
       <r>   -7.4944    1.0000 </r>
       <r>   -7.4815    1.0000 </r>
       <r>   -7.2860    1.0000 </r>
       <r>   -7.1159    1.0000 </r>
       <r>   -6.3085    1.0000 </r>
       <r>   -5.5514    1.0000 </r>
       <r>   -4.9940    1.0000 </r>
       <r>   -4.8466    1.0000 </r>
       <r>   -4.6508    1.0000 </r>
       <r>   -4.4432    1.0000 </r>
       <r>   -4.2222    1.0000 </r>
       <r>   -4.1112    1.0000 </r>
       <r>   -4.0464    1.0000 </r>
       <r>   -3.9406    1.0000 </r>
       <r>   -3.8976    1.0000 </r>
       <r>   -3.6365    1.0000 </r>
       <r>   -3.5901    1.0000 </r>
       <r>   -3.4702    1.0000 </r>
       <r>   -3.3396    1.0000 </r>
       <r>   -3.2446    1.0000 </r>
       <r>   -3.1831    1.0000 </r>
       <r>   -2.9678    1.0000 </r>
       <r>   -2.8869    1.0000 </r>
       <r>   -2.6321    1.0000 </r>
       <r>   -2.5796    1.0000 </r>
       <r>   -2.4611    1.0000 </r>
       <r>   -2.1709    1.0000 </r>
       <r>   -2.1102    1.0000 </r>
       <r>   -2.0668    1.0000 </r>
       <r>   -1.8105    1.0000 </r>
       <r>   -1.6816    1.0000 </r>
       <r>   -1.5336    1.0000 </r>
       <r>   -1.0874    1.0000 </r>
       <r>   -0.8642    1.0000 </r>
       <r>   -0.3539    1.0000 </r>
       <r>   -0.1549    0.9119 </r>
       <r>    0.5096    0.0000 </r>
       <r>    0.7345    0.0000 </r>
       <r>    0.8727    0.0000 </r>
       <r>    1.4421    0.0000 </r>
       <r>    1.5094    0.0000 </r>
       <r>    1.5672    0.0000 </r>
       <r>    1.6529    0.0000 </r>
       <r>    1.8394    0.0000 </r>
       <r>    2.0761    0.0000 </r>
       <r>    2.1847    0.0000 </r>
       <r>    2.4295    0.0000 </r>
       <r>    2.4780    0.0000 </r>
       <r>    2.5157    0.0000 </r>
      </set>
      <set comment="kpoint 15">
       <r>  -13.4637    1.0000 </r>
       <r>  -11.6087    1.0000 </r>
       <r>  -11.5073    1.0000 </r>
       <r>  -11.2712    1.0000 </r>
       <r>  -11.0456    1.0000 </r>
       <r>  -10.9860    1.0000 </r>
       <r>  -10.9007    1.0000 </r>
       <r>  -10.7821    1.0000 </r>
       <r>  -10.7293    1.0000 </r>
       <r>  -10.6770    1.0000 </r>
       <r>  -10.6688    1.0000 </r>
       <r>  -10.2067    1.0000 </r>
       <r>   -9.0894    1.0000 </r>
       <r>   -8.7320    1.0000 </r>
       <r>   -8.6268    1.0000 </r>
       <r>   -8.4048    1.0000 </r>
       <r>   -8.2009    1.0000 </r>
       <r>   -7.9168    1.0000 </r>
       <r>   -7.8075    1.0000 </r>
       <r>   -7.5764    1.0000 </r>
       <r>   -7.3777    1.0000 </r>
       <r>   -7.2538    1.0000 </r>
       <r>   -7.1925    1.0000 </r>
       <r>   -6.2646    1.0000 </r>
       <r>   -5.5795    1.0000 </r>
       <r>   -4.9001    1.0000 </r>
       <r>   -4.7022    1.0000 </r>
       <r>   -4.6004    1.0000 </r>
       <r>   -4.5481    1.0000 </r>
       <r>   -4.3364    1.0000 </r>
       <r>   -4.0747    1.0000 </r>
       <r>   -4.0040    1.0000 </r>
       <r>   -3.9734    1.0000 </r>
       <r>   -3.9017    1.0000 </r>
       <r>   -3.8565    1.0000 </r>
       <r>   -3.6268    1.0000 </r>
       <r>   -3.5731    1.0000 </r>
       <r>   -3.4191    1.0000 </r>
       <r>   -3.3274    1.0000 </r>
       <r>   -3.1626    1.0000 </r>
       <r>   -2.9019    1.0000 </r>
       <r>   -2.7934    1.0000 </r>
       <r>   -2.6676    1.0000 </r>
       <r>   -2.5597    1.0000 </r>
       <r>   -2.3590    1.0000 </r>
       <r>   -2.2452    1.0000 </r>
       <r>   -2.1366    1.0000 </r>
       <r>   -2.0833    1.0000 </r>
       <r>   -1.7406    1.0000 </r>
       <r>   -1.6653    1.0000 </r>
       <r>   -1.4825    1.0000 </r>
       <r>   -1.0213    1.0000 </r>
       <r>   -0.8094    1.0000 </r>
       <r>   -0.3671    1.0000 </r>
       <r>   -0.1752    0.9495 </r>
       <r>    0.5555    0.0000 </r>
       <r>    0.7766    0.0000 </r>
       <r>    0.9256    0.0000 </r>
       <r>    1.3912    0.0000 </r>
       <r>    1.5700    0.0000 </r>
       <r>    1.7011    0.0000 </r>
       <r>    1.7839    0.0000 </r>
       <r>    1.8534    0.0000 </r>
       <r>    2.2315    0.0000 </r>
       <r>    2.2874    0.0000 </r>
       <r>    2.3931    0.0000 </r>
       <r>    2.4883    0.0000 </r>
       <r>    2.5958    0.0000 </r>
      </set>
      <set comment="kpoint 16">
       <r>  -13.7198    1.0000 </r>
       <r>  -12.0740    1.0000 </r>
       <r>  -11.8535    1.0000 </r>
       <r>  -11.6551    1.0000 </r>
       <r>  -11.4596    1.0000 </r>
       <r>  -11.2134    1.0000 </r>
       <r>  -10.9538    1.0000 </r>
       <r>  -10.9017    1.0000 </r>
       <r>  -10.6041    1.0000 </r>
       <r>  -10.5829    1.0000 </r>
       <r>  -10.4236    1.0000 </r>
       <r>  -10.2683    1.0000 </r>
       <r>   -9.0834    1.0000 </r>
       <r>   -8.7156    1.0000 </r>
       <r>   -8.6338    1.0000 </r>
       <r>   -8.4621    1.0000 </r>
       <r>   -7.8011    1.0000 </r>
       <r>   -7.6087    1.0000 </r>
       <r>   -7.4110    1.0000 </r>
       <r>   -7.3016    1.0000 </r>
       <r>   -6.9558    1.0000 </r>
       <r>   -6.7853    1.0000 </r>
       <r>   -6.6364    1.0000 </r>
       <r>   -6.1004    1.0000 </r>
       <r>   -5.6879    1.0000 </r>
       <r>   -5.0231    1.0000 </r>
       <r>   -4.8235    1.0000 </r>
       <r>   -4.6307    1.0000 </r>
       <r>   -4.4114    1.0000 </r>
       <r>   -4.3642    1.0000 </r>
       <r>   -4.2647    1.0000 </r>
       <r>   -4.2085    1.0000 </r>
       <r>   -4.1006    1.0000 </r>
       <r>   -4.0451    1.0000 </r>
       <r>   -3.7034    1.0000 </r>
       <r>   -3.6704    1.0000 </r>
       <r>   -3.4551    1.0000 </r>
       <r>   -3.3758    1.0000 </r>
       <r>   -3.2591    1.0000 </r>
       <r>   -3.1275    1.0000 </r>
       <r>   -2.7826    1.0000 </r>
       <r>   -2.6862    1.0000 </r>
       <r>   -2.4976    1.0000 </r>
       <r>   -2.3265    1.0000 </r>
       <r>   -2.2285    1.0000 </r>
       <r>   -2.1763    1.0000 </r>
       <r>   -2.0240    1.0000 </r>
       <r>   -1.9168    1.0000 </r>
       <r>   -1.7951    1.0000 </r>
       <r>   -1.6370    1.0000 </r>
       <r>   -1.3856    1.0000 </r>
       <r>   -0.9601    1.0000 </r>
       <r>   -0.7380    1.0000 </r>
       <r>   -0.3075    0.9998 </r>
       <r>   -0.1213    0.8101 </r>
       <r>    0.6793    0.0000 </r>
       <r>    0.8514    0.0000 </r>
       <r>    1.0049    0.0000 </r>
       <r>    1.4176    0.0000 </r>
       <r>    1.7483    0.0000 </r>
       <r>    1.8087    0.0000 </r>
       <r>    1.9357    0.0000 </r>
       <r>    2.1576    0.0000 </r>
       <r>    2.2946    0.0000 </r>
       <r>    2.4137    0.0000 </r>
       <r>    2.4960    0.0000 </r>
       <r>    2.6417    0.0000 </r>
       <r>    2.6623    0.0000 </r>
      </set>
      <set comment="kpoint 17">
       <r>  -14.0672    1.0000 </r>
       <r>  -12.5681    1.0000 </r>
       <r>  -12.2692    1.0000 </r>
       <r>  -12.0209    1.0000 </r>
       <r>  -11.9214    1.0000 </r>
       <r>  -11.6129    1.0000 </r>
       <r>  -11.2158    1.0000 </r>
       <r>  -11.1135    1.0000 </r>
       <r>  -10.7471    1.0000 </r>
       <r>  -10.6250    1.0000 </r>
       <r>  -10.3951    1.0000 </r>
       <r>  -10.3481    1.0000 </r>
       <r>   -9.0518    1.0000 </r>
       <r>   -8.5305    1.0000 </r>
       <r>   -8.4651    1.0000 </r>
       <r>   -8.1584    1.0000 </r>
       <r>   -7.4002    1.0000 </r>
       <r>   -7.0855    1.0000 </r>
       <r>   -6.9695    1.0000 </r>
       <r>   -6.8432    1.0000 </r>
       <r>   -6.5226    1.0000 </r>
       <r>   -6.1317    1.0000 </r>
       <r>   -5.9437    1.0000 </r>
       <r>   -5.7525    1.0000 </r>
       <r>   -5.4539    1.0000 </r>
       <r>   -5.1210    1.0000 </r>
       <r>   -4.8658    1.0000 </r>
       <r>   -4.7070    1.0000 </r>
       <r>   -4.6163    1.0000 </r>
       <r>   -4.3584    1.0000 </r>
       <r>   -4.2957    1.0000 </r>
       <r>   -4.2402    1.0000 </r>
       <r>   -4.1789    1.0000 </r>
       <r>   -3.8925    1.0000 </r>
       <r>   -3.8526    1.0000 </r>
       <r>   -3.4349    1.0000 </r>
       <r>   -3.3877    1.0000 </r>
       <r>   -3.1778    1.0000 </r>
       <r>   -3.0551    1.0000 </r>
       <r>   -2.9076    1.0000 </r>
       <r>   -2.7492    1.0000 </r>
       <r>   -2.5981    1.0000 </r>
       <r>   -2.5158    1.0000 </r>
       <r>   -2.1489    1.0000 </r>
       <r>   -1.9999    1.0000 </r>
       <r>   -1.8853    1.0000 </r>
       <r>   -1.8505    1.0000 </r>
       <r>   -1.7714    1.0000 </r>
       <r>   -1.6855    1.0000 </r>
       <r>   -1.5118    1.0000 </r>
       <r>   -1.2885    1.0000 </r>
       <r>   -0.9056    1.0000 </r>
       <r>   -0.6941    1.0000 </r>
       <r>   -0.3154    0.9999 </r>
       <r>    0.1440    0.0020 </r>
       <r>    0.7864    0.0000 </r>
       <r>    1.0380    0.0000 </r>
       <r>    1.1805    0.0000 </r>
       <r>    1.6575    0.0000 </r>
       <r>    1.9123    0.0000 </r>
       <r>    2.0000    0.0000 </r>
       <r>    2.0570    0.0000 </r>
       <r>    2.2788    0.0000 </r>
       <r>    2.4159    0.0000 </r>
       <r>    2.6194    0.0000 </r>
       <r>    2.6999    0.0000 </r>
       <r>    2.7619    0.0000 </r>
       <r>    2.8588    0.0000 </r>
      </set>
      <set comment="kpoint 18">
       <r>  -14.3922    1.0000 </r>
       <r>  -12.9634    1.0000 </r>
       <r>  -12.6574    1.0000 </r>
       <r>  -12.3355    1.0000 </r>
       <r>  -12.3247    1.0000 </r>
       <r>  -11.9650    1.0000 </r>
       <r>  -11.5109    1.0000 </r>
       <r>  -11.3867    1.0000 </r>
       <r>  -11.0030    1.0000 </r>
       <r>  -10.8624    1.0000 </r>
       <r>  -10.5739    1.0000 </r>
       <r>  -10.3668    1.0000 </r>
       <r>   -9.0224    1.0000 </r>
       <r>   -8.3957    1.0000 </r>
       <r>   -8.3584    1.0000 </r>
       <r>   -7.7527    1.0000 </r>
       <r>   -7.0300    1.0000 </r>
       <r>   -6.6678    1.0000 </r>
       <r>   -6.6085    1.0000 </r>
       <r>   -6.4982    1.0000 </r>
       <r>   -6.0250    1.0000 </r>
       <r>   -5.7146    1.0000 </r>
       <r>   -5.3426    1.0000 </r>
       <r>   -5.3003    1.0000 </r>
       <r>   -5.0441    1.0000 </r>
       <r>   -4.8533    1.0000 </r>
       <r>   -4.7947    1.0000 </r>
       <r>   -4.5713    1.0000 </r>
       <r>   -4.4879    1.0000 </r>
       <r>   -4.3259    1.0000 </r>
       <r>   -4.1609    1.0000 </r>
       <r>   -3.9108    1.0000 </r>
       <r>   -3.8426    1.0000 </r>
       <r>   -3.7825    1.0000 </r>
       <r>   -3.6710    1.0000 </r>
       <r>   -3.4225    1.0000 </r>
       <r>   -3.2077    1.0000 </r>
       <r>   -2.9991    1.0000 </r>
       <r>   -2.9609    1.0000 </r>
       <r>   -2.7628    1.0000 </r>
       <r>   -2.5984    1.0000 </r>
       <r>   -2.5207    1.0000 </r>
       <r>   -2.4076    1.0000 </r>
       <r>   -2.0069    1.0000 </r>
       <r>   -1.8686    1.0000 </r>
       <r>   -1.8069    1.0000 </r>
       <r>   -1.7387    1.0000 </r>
       <r>   -1.5825    1.0000 </r>
       <r>   -1.4412    1.0000 </r>
       <r>   -1.2870    1.0000 </r>
       <r>   -1.0821    1.0000 </r>
       <r>   -0.7324    1.0000 </r>
       <r>   -0.5966    1.0000 </r>
       <r>   -0.2629    0.9980 </r>
       <r>    0.3650    0.0000 </r>
       <r>    0.8914    0.0000 </r>
       <r>    1.2969    0.0000 </r>
       <r>    1.4035    0.0000 </r>
       <r>    1.8507    0.0000 </r>
[...]
       <r>    2.7433    0.0000 </r>
      </set>
      <set comment="kpoint 54">
       <r>  -13.4629    1.0000 </r>
       <r>  -11.6325    1.0000 </r>
       <r>  -11.4620    1.0000 </r>
       <r>  -11.2346    1.0000 </r>
       <r>  -11.1439    1.0000 </r>
       <r>  -11.0037    1.0000 </r>
       <r>  -10.9177    1.0000 </r>
       <r>  -10.8222    1.0000 </r>
       <r>  -10.6974    1.0000 </r>
       <r>  -10.6540    1.0000 </r>
       <r>  -10.5928    1.0000 </r>
       <r>  -10.2162    1.0000 </r>
       <r>   -9.0782    1.0000 </r>
       <r>   -8.6647    1.0000 </r>
       <r>   -8.6370    1.0000 </r>
       <r>   -8.4114    1.0000 </r>
       <r>   -8.1450    1.0000 </r>
       <r>   -8.0909    1.0000 </r>
       <r>   -7.8469    1.0000 </r>
       <r>   -7.5322    1.0000 </r>
       <r>   -7.3829    1.0000 </r>
       <r>   -7.2608    1.0000 </r>
       <r>   -7.1458    1.0000 </r>
       <r>   -6.2356    1.0000 </r>
       <r>   -5.6481    1.0000 </r>
       <r>   -4.9291    1.0000 </r>
       <r>   -4.8961    1.0000 </r>
       <r>   -4.5770    1.0000 </r>
       <r>   -4.4525    1.0000 </r>
       <r>   -4.2589    1.0000 </r>
       <r>   -4.0632    1.0000 </r>
       <r>   -4.0387    1.0000 </r>
       <r>   -3.9357    1.0000 </r>
       <r>   -3.8810    1.0000 </r>
       <r>   -3.7444    1.0000 </r>
       <r>   -3.5756    1.0000 </r>
       <r>   -3.5196    1.0000 </r>
       <r>   -3.3066    1.0000 </r>
       <r>   -3.2330    1.0000 </r>
       <r>   -3.1826    1.0000 </r>
       <r>   -3.0049    1.0000 </r>
       <r>   -2.8698    1.0000 </r>
       <r>   -2.6916    1.0000 </r>
       <r>   -2.6163    1.0000 </r>
       <r>   -2.3619    1.0000 </r>
       <r>   -2.3144    1.0000 </r>
       <r>   -2.1507    1.0000 </r>
       <r>   -2.0787    1.0000 </r>
       <r>   -1.7249    1.0000 </r>
       <r>   -1.6874    1.0000 </r>
       <r>   -1.5112    1.0000 </r>
       <r>   -1.0618    1.0000 </r>
       <r>   -0.7563    1.0000 </r>
       <r>   -0.3409    1.0000 </r>
       <r>   -0.2177    0.9875 </r>
       <r>    0.5898    0.0000 </r>
       <r>    0.7416    0.0000 </r>
       <r>    0.9130    0.0000 </r>
       <r>    1.3588    0.0000 </r>
       <r>    1.4674    0.0000 </r>
       <r>    1.6287    0.0000 </r>
       <r>    1.7099    0.0000 </r>
       <r>    1.9298    0.0000 </r>
       <r>    2.0292    0.0000 </r>
       <r>    2.1065    0.0000 </r>
       <r>    2.3875    0.0000 </r>
       <r>    2.4901    0.0000 </r>
       <r>    2.6683    0.0000 </r>
      </set>
     </set>
    </set>
   </array>
  </eigenvalues>
  <separator name="orbital magnetization" >
   <v name="MAGDIPOLOUT">      0.00000000      0.00000000      0.00000000</v>
  </separator>
  <dos>
   <i name="efermi">     -0.05922576 </i>
   <total>
    <array>
     <dimension dim="1">gridpoints</dimension>
     <dimension dim="2">spin</dimension>
     <field>energy</field>
     <field>total</field>
     <field>integrated</field>
     <set>
      <set comment="spin 1">
       <r>   -15.8578     0.0000     0.0000 </r>
       <r>   -15.7908     0.0000     0.0000 </r>
       <r>   -15.7238     0.0000     0.0000 </r>
       <r>   -15.6568     0.0000     0.0000 </r>
       <r>   -15.5897     0.0000     0.0000 </r>
       <r>   -15.5227     0.0000     0.0000 </r>
       <r>   -15.4557     0.0000     0.0000 </r>
       <r>   -15.3887     0.0000     0.0000 </r>
       <r>   -15.3216     0.0000     0.0000 </r>
       <r>   -15.2546     0.0000     0.0000 </r>
       <r>   -15.1876     0.0000     0.0000 </r>
       <r>   -15.1206     0.0002     0.0000 </r>
       <r>   -15.0535     0.0062     0.0004 </r>
       <r>   -14.9865     0.0843     0.0061 </r>
       <r>   -14.9195     0.5335     0.0418 </r>
       <r>   -14.8525     1.6220     0.1506 </r>
       <r>   -14.7854     2.4606     0.3155 </r>
       <r>   -14.7184     2.2125     0.4638 </r>
       <r>   -14.6514     1.9605     0.5952 </r>
       <r>   -14.5844     1.6703     0.7071 </r>
       <r>   -14.5173     0.9198     0.7688 </r>
       <r>   -14.4503     0.9047     0.8294 </r>
       <r>   -14.3833     1.5828     0.9355 </r>
       <r>   -14.3162     1.4357     1.0317 </r>
       <r>   -14.2492     0.5904     1.0713 </r>
       <r>   -14.1822     0.3037     1.0917 </r>
       <r>   -14.1152     0.8882     1.1512 </r>
       <r>   -14.0481     1.6332     1.2607 </r>
       <r>   -13.9811     1.3158     1.3489 </r>
       <r>   -13.9141     0.4726     1.3805 </r>
       <r>   -13.8471     0.2157     1.3950 </r>
       <r>   -13.7800     0.7303     1.4439 </r>
       <r>   -13.7130     1.5596     1.5485 </r>
       <r>   -13.6460     1.4966     1.6488 </r>
       <r>   -13.5790     0.9787     1.7144 </r>
       <r>   -13.5119     1.7034     1.8286 </r>
       <r>   -13.4449     3.1896     2.0423 </r>
       <r>   -13.3779     3.4412     2.2730 </r>
       <r>   -13.3109     2.9831     2.4729 </r>
       <r>   -13.2438     3.2120     2.6882 </r>
       <r>   -13.1768     3.4938     2.9224 </r>
       <r>   -13.1098     3.3955     3.1500 </r>
       <r>   -13.0428     3.4237     3.3795 </r>
       <r>   -12.9757     3.8465     3.6373 </r>
       <r>   -12.9087     4.4914     3.9383 </r>
       <r>   -12.8417     4.6642     4.2510 </r>
       <r>   -12.7746     4.1373     4.5283 </r>
       <r>   -12.7076     3.8334     4.7852 </r>
       <r>   -12.6406     4.2576     5.0706 </r>
       <r>   -12.5736     4.7910     5.3917 </r>
       <r>   -12.5065     4.9222     5.7216 </r>
       <r>   -12.4395     5.3905     6.0829 </r>
       <r>   -12.3725     6.3534     6.5088 </r>
       <r>   -12.3055     6.2800     6.9297 </r>
       <r>   -12.2384     5.5061     7.2987 </r>
       <r>   -12.1714     4.6085     7.6076 </r>
       <r>   -12.1044     4.0367     7.8782 </r>
       <r>   -12.0374     5.3257     8.2351 </r>
       <r>   -11.9703     7.5740     8.7428 </r>
       <r>   -11.9033     7.7186     9.2602 </r>
       <r>   -11.8363     6.0536     9.6659 </r>
       <r>   -11.7693     5.1643    10.0120 </r>
       <r>   -11.7022     6.1091    10.4215 </r>
       <r>   -11.6352     8.0628    10.9619 </r>
       <r>   -11.5682     8.6653    11.5427 </r>
       <r>   -11.5012     7.9618    12.0764 </r>
       <r>   -11.4341     7.9334    12.6081 </r>
       <r>   -11.3671     7.9711    13.1424 </r>
       <r>   -11.3001     7.9797    13.6772 </r>
       <r>   -11.2330     9.0565    14.2843 </r>
       <r>   -11.1660     9.5144    14.9220 </r>
       <r>   -11.0990     8.8322    15.5140 </r>
       <r>   -11.0320     9.0991    16.1238 </r>
       <r>   -10.9649    10.4521    16.8244 </r>
       <r>   -10.8979    10.4046    17.5218 </r>
       <r>   -10.8309     9.2661    18.1428 </r>
       <r>   -10.7639     9.2240    18.7611 </r>
       <r>   -10.6968     9.4713    19.3959 </r>
       <r>   -10.6298    10.2207    20.0810 </r>
       <r>   -10.5628    11.1979    20.8315 </r>
       <r>   -10.4958    10.0687    21.5064 </r>
       <r>   -10.4287     8.6861    22.0886 </r>
       <r>   -10.3617     8.4665    22.6561 </r>
       <r>   -10.2947     7.8522    23.1824 </r>
       <r>   -10.2277     6.4672    23.6158 </r>
       <r>   -10.1606     4.0021    23.8841 </r>
       <r>   -10.0936     1.4456    23.9810 </r>
       <r>   -10.0266     0.2611    23.9985 </r>
       <r>    -9.9596     0.0219    23.9999 </r>
       <r>    -9.8925     0.0008    24.0000 </r>
       <r>    -9.8255     0.0000    24.0000 </r>
       <r>    -9.7585     0.0000    24.0000 </r>
       <r>    -9.6914     0.0000    24.0000 </r>
       <r>    -9.6244     0.0000    24.0000 </r>
       <r>    -9.5574     0.0003    24.0000 </r>
       <r>    -9.4904     0.0063    24.0004 </r>
       <r>    -9.4233     0.0663    24.0049 </r>
       <r>    -9.3563     0.3353    24.0274 </r>
       <r>    -9.2893     0.9727    24.0926 </r>
       <r>    -9.2223     2.1677    24.2379 </r>
       <r>    -9.1552     4.4084    24.5333 </r>
       <r>    -9.0882     7.2608    25.0200 </r>
       <r>    -9.0212     8.0543    25.5598 </r>
       <r>    -8.9542     5.8798    25.9539 </r>
       <r>    -8.8871     3.4979    26.1884 </r>
       <r>    -8.8201     2.5737    26.3609 </r>
       <r>    -8.7531     3.5108    26.5962 </r>
       <r>    -8.6861     5.7072    26.9787 </r>
       <r>    -8.6190     7.1029    27.4548 </r>
       <r>    -8.5520     7.0962    27.9305 </r>
       <r>    -8.4850     8.0973    28.4732 </r>
       <r>    -8.4180    10.2159    29.1579 </r>
       <r>    -8.3509     9.7159    29.8091 </r>
       <r>    -8.2839     6.1127    30.2189 </r>
       <r>    -8.2169     3.4364    30.4492 </r>
       <r>    -8.1498     3.4254    30.6788 </r>
       <r>    -8.0828     4.1333    30.9558 </r>
       <r>    -8.0158     3.8476    31.2137 </r>
       <r>    -7.9488     2.9973    31.4146 </r>
       <r>    -7.8817     2.8260    31.6040 </r>
       <r>    -7.8147     3.7610    31.8561 </r>
       <r>    -7.7477     4.7864    32.1769 </r>
       <r>    -7.6807     4.2520    32.4619 </r>
       <r>    -7.6136     3.4314    32.6919 </r>
       <r>    -7.5466     4.3857    32.9859 </r>
       <r>    -7.4796     6.1212    33.3961 </r>
       <r>    -7.4126     7.2982    33.8853 </r>
       <r>    -7.3455     7.7058    34.4018 </r>
       <r>    -7.2785     7.0411    34.8737 </r>
       <r>    -7.2115     5.8002    35.2625 </r>
       <r>    -7.1445     5.0717    35.6024 </r>
       <r>    -7.0774     5.8032    35.9914 </r>
       <r>    -7.0104     6.6789    36.4391 </r>
       <r>    -6.9434     6.0465    36.8443 </r>
       <r>    -6.8764     5.3396    37.2022 </r>
       <r>    -6.8093     6.3309    37.6266 </r>
       <r>    -6.7423     8.1719    38.1743 </r>
       <r>    -6.6753    10.1252    38.8529 </r>
       <r>    -6.6082    10.9795    39.5889 </r>
       <r>    -6.5412     9.2952    40.2119 </r>
       <r>    -6.4742     7.3614    40.7053 </r>
       <r>    -6.4072     5.4421    41.0700 </r>
       <r>    -6.3401     3.5661    41.3091 </r>
       <r>    -6.2731     3.1999    41.5235 </r>
       <r>    -6.2061     3.7188    41.7728 </r>
       <r>    -6.1391     4.1141    42.0486 </r>
       <r>    -6.0720     4.4466    42.3466 </r>
       <r>    -6.0050     5.1745    42.6934 </r>
       <r>    -5.9380     6.0521    43.0991 </r>
       <r>    -5.8710     6.1219    43.5094 </r>
       <r>    -5.8039     5.9076    43.9054 </r>
       <r>    -5.7369     6.8273    44.3630 </r>
       <r>    -5.6699     7.8302    44.8878 </r>
       <r>    -5.6029     7.4524    45.3873 </r>
       <r>    -5.5358     6.1086    45.7967 </r>
       <r>    -5.4688     4.5619    46.1025 </r>
       <r>    -5.4018     4.5799    46.4095 </r>
       <r>    -5.3348     6.3961    46.8382 </r>
       <r>    -5.2677     6.7164    47.2883 </r>
       <r>    -5.2007     5.2041    47.6372 </r>
       <r>    -5.1337     5.2027    47.9859 </r>
       <r>    -5.0666     6.9276    48.4502 </r>
       <r>    -4.9996     8.1925    48.9993 </r>
       <r>    -4.9326     8.6183    49.5770 </r>
       <r>    -4.8656     9.7517    50.2306 </r>
       <r>    -4.7985    10.6548    50.9447 </r>
       <r>    -4.7315    10.6621    51.6594 </r>
       <r>    -4.6645    11.3886    52.4227 </r>
       <r>    -4.5975    11.9777    53.2255 </r>
       <r>    -4.5304    11.2898    53.9822 </r>
       <r>    -4.4634    11.1328    54.7284 </r>
       <r>    -4.3964    11.3365    55.4883 </r>
       <r>    -4.3294    10.9172    56.2200 </r>
       <r>    -4.2623    11.2521    56.9742 </r>
       <r>    -4.1953    12.6662    57.8231 </r>
       <r>    -4.1283    13.7896    58.7474 </r>
       <r>    -4.0613    14.7596    59.7367 </r>
       <r>    -3.9942    15.0522    60.7456 </r>
       <r>    -3.9272    14.0095    61.6846 </r>
       <r>    -3.8602    12.0244    62.4905 </r>
       <r>    -3.7932    10.1311    63.1696 </r>
       <r>    -3.7261    10.3364    63.8624 </r>
       <r>    -3.6591    12.4722    64.6983 </r>
       <r>    -3.5921    13.9628    65.6342 </r>
       <r>    -3.5251    13.4453    66.5354 </r>
       <r>    -3.4580    12.8842    67.3990 </r>
       <r>    -3.3910    13.4378    68.2997 </r>
       <r>    -3.3240    13.6602    69.2153 </r>
       <r>    -3.2569    13.9417    70.1497 </r>
       <r>    -3.1899    15.0581    71.1590 </r>
       <r>    -3.1229    16.0458    72.2345 </r>
       <r>    -3.0559    17.0035    73.3742 </r>
       <r>    -2.9888    17.5972    74.5536 </r>
       <r>    -2.9218    16.8925    75.6859 </r>
       <r>    -2.8548    14.9242    76.6862 </r>
       <r>    -2.7878    13.2355    77.5733 </r>
       <r>    -2.7207    13.6902    78.4909 </r>
       <r>    -2.6537    14.8444    79.4859 </r>
       <r>    -2.5867    15.1361    80.5004 </r>
       <r>    -2.5197    15.2435    81.5221 </r>
       <r>    -2.4526    15.0807    82.5329 </r>
       <r>    -2.3856    14.6446    83.5145 </r>
       <r>    -2.3186    14.3522    84.4764 </r>
       <r>    -2.2516    13.9693    85.4128 </r>
       <r>    -2.1845    14.3119    86.3720 </r>
       <r>    -2.1175    15.4299    87.4062 </r>
       <r>    -2.0505    15.4346    88.4407 </r>
       <r>    -1.9835    15.0841    89.4518 </r>
       <r>    -1.9164    15.5242    90.4923 </r>
       <r>    -1.8494    17.1315    91.6406 </r>
       <r>    -1.7824    18.6664    92.8917 </r>
       <r>    -1.7153    18.1204    94.1062 </r>
       <r>    -1.6483    14.5909    95.0842 </r>
       <r>    -1.5813    11.5140    95.8559 </r>
       <r>    -1.5143    11.9077    96.6541 </r>
       <r>    -1.4472    12.2446    97.4748 </r>
       <r>    -1.3802    10.5712    98.1833 </r>
       <r>    -1.3132     9.2820    98.8055 </r>
       <r>    -1.2462     9.0119    99.4095 </r>
       <r>    -1.1791     8.4266    99.9743 </r>
       <r>    -1.1121     8.2031   100.5241 </r>
       <r>    -1.0451     8.8530   101.1175 </r>
       <r>    -0.9781     8.6974   101.7004 </r>
       <r>    -0.9110     9.0336   102.3059 </r>
       <r>    -0.8440     9.8209   102.9642 </r>
       <r>    -0.7770     9.4528   103.5978 </r>
       <r>    -0.7100     8.2654   104.1518 </r>
       <r>    -0.6429     6.3060   104.5744 </r>
       <r>    -0.5759     4.4110   104.8701 </r>
       <r>    -0.5089     3.2335   105.0868 </r>
       <r>    -0.4419     2.8689   105.2791 </r>
       <r>    -0.3748     4.7988   105.6008 </r>
       <r>    -0.3078     8.5866   106.1763 </r>
       <r>    -0.2408    10.0197   106.8479 </r>
       <r>    -0.1737     8.0327   107.3863 </r>
       <r>    -0.1067     5.9231   107.7833 </r>
       <r>    -0.0397     4.3809   108.0769 </r>
       <r>     0.0273     3.8221   108.3331 </r>
       <r>     0.0944     4.2150   108.6156 </r>
       <r>     0.1614     3.3993   108.8434 </r>
       <r>     0.2284     2.0895   108.9835 </r>
       <r>     0.2954     1.7547   109.1011 </r>
       <r>     0.3625     2.1085   109.2424 </r>
       <r>     0.4295     2.5838   109.4156 </r>
       <r>     0.4965     3.6174   109.6581 </r>
       <r>     0.5635     5.3024   110.0135 </r>
       <r>     0.6306     6.2101   110.4297 </r>
       <r>     0.6976     6.2525   110.8488 </r>
       <r>     0.7646     6.3514   111.2745 </r>
       <r>     0.8316     6.7048   111.7239 </r>
       <r>     0.8987     7.2415   112.2093 </r>
       <r>     0.9657     7.6319   112.7208 </r>
       <r>     1.0327     6.6925   113.1694 </r>
       <r>     1.0997     4.5938   113.4773 </r>
       <r>     1.1668     3.7315   113.7274 </r>
       <r>     1.2338     4.9201   114.0571 </r>
       <r>     1.3008     7.1479   114.5362 </r>
       <r>     1.3679     9.5899   115.1790 </r>
       <r>     1.4349    11.0407   115.9190 </r>
       <r>     1.5019    11.1564   116.6668 </r>
       <r>     1.5689    11.0153   117.4051 </r>
       <r>     1.6360    11.0451   118.1454 </r>
       <r>     1.7030    11.2734   118.9010 </r>
       <r>     1.7700    11.7103   119.6859 </r>
       <r>     1.8370    11.8668   120.4813 </r>
       <r>     1.9041    11.8219   121.2737 </r>
       <r>     1.9711    11.3706   122.0358 </r>
       <r>     2.0381    10.6130   122.7472 </r>
       <r>     2.1051    11.3004   123.5046 </r>
       <r>     2.1722    13.7937   124.4291 </r>
       <r>     2.2392    16.1543   125.5119 </r>
       <r>     2.3062    15.8251   126.5726 </r>
       <r>     2.3732    13.9088   127.5048 </r>
       <r>     2.4403    14.0124   128.4440 </r>
       <r>     2.5073    14.7626   129.4335 </r>
       <r>     2.5743    14.3260   130.3937 </r>
       <r>     2.6413    14.4397   131.3615 </r>
       <r>     2.7084    15.1214   132.3751 </r>
       <r>     2.7754    13.4121   133.2740 </r>
       <r>     2.8424    10.0547   133.9480 </r>
       <r>     2.9095     8.2439   134.5005 </r>
       <r>     2.9765     7.5000   135.0032 </r>
       <r>     3.0435     6.2463   135.4219 </r>
       <r>     3.1105     4.2180   135.7046 </r>
       <r>     3.1776     2.3140   135.8597 </r>
       <r>     3.2446     1.2263   135.9419 </r>
       <r>     3.3116     0.6189   135.9834 </r>
       <r>     3.3786     0.2089   135.9974 </r>
       <r>     3.4457     0.0362   135.9998 </r>
       <r>     3.5127     0.0029   136.0000 </r>
       <r>     3.5797     0.0001   136.0000 </r>
       <r>     3.6467     0.0000   136.0000 </r>
       <r>     3.7138     0.0000   136.0000 </r>
       <r>     3.7808     0.0000   136.0000 </r>
       <r>     3.8478     0.0000   136.0000 </r>
       <r>     3.9148     0.0000   136.0000 </r>
       <r>     3.9819     0.0000   136.0000 </r>
       <r>     4.0489     0.0000   136.0000 </r>
       <r>     4.1159     0.0000   136.0000 </r>
       <r>     4.1829     0.0000   136.0000 </r>
       <r>     4.2500     0.0000   136.0000 </r>
      </set>
     </set>
    </array>
   </total>
  </dos>
 </calculation>
 <structure name="finalpos" >
  <crystal>
   <varray name="basis" >
    <v>       3.54040000       0.00000000       0.00000000 </v>
    <v>      -1.77020000      10.29434800       0.00000000 </v>
    <v>       0.00000000       0.00000000      27.50142900 </v>
   </varray>
   <i name="volume">   1002.32009712 </i>
   <varray name="rec_basis" >
    <v>       0.28245396       0.04857034       0.00000000 </v>
    <v>       0.00000000       0.09714068       0.00000000 </v>
    <v>       0.00000000       0.00000000       0.03636175 </v>
   </varray>
  </crystal>
  <varray name="positions" >
   <v>       0.11402300       0.22804500       0.23316207 </v>
   <v>       0.71402300       0.82804500       0.51499159 </v>
   <v>       0.45808900       0.91617900       0.20939482 </v>
   <v>       0.05808900       0.51617900       0.49122434 </v>
   <v>       0.31085400       0.62170900       0.08414979 </v>
   <v>       0.31085400       0.62170900       0.36597930 </v>
   <v>       0.99923000       0.99846000       0.08631254 </v>
   <v>       0.99923000       0.99846000       0.36814206 </v>
   <v>       0.65492700       0.30985400       0.06041748 </v>
   <v>       0.65492700       0.30985400       0.34224700 </v>
   <v>       0.76973800       0.53947500       0.20725292 </v>
   <v>       0.36973800       0.13947500       0.48908244 </v>
   <v>       0.93971600       0.87943300       0.15783749 </v>
   <v>       0.53971600       0.47943300       0.43966701 </v>
   <v>       0.20515200       0.41030300       0.18578822 </v>
   <v>       0.80515200       0.01030300       0.46761774 </v>
   <v>       0.20184900       0.40369900       0.09969156 </v>
   <v>       0.20184900       0.40369900       0.38152107 </v>
   <v>       0.56380500       0.12761000       0.10779021 </v>
   <v>       0.56380500       0.12761000       0.38961973 </v>
   <v>       0.56710600       0.13421200       0.19387616 </v>
   <v>       0.16710600       0.73421200       0.47570568 </v>
   <v>       0.82923400       0.65846800       0.13571444 </v>
   <v>       0.42923400       0.25846800       0.41754396 </v>
  </varray>
 </structure>
</modeling>
