   24   24    1    1
  0.4176334E+02  0.3540400E-09  0.1044544E-08  0.2750143E-08  0.5000000E-15
  1.000000000000000E-004
  CAR 
 unknown system                          
    108     54     68
 
  0.0000000E+00  0.0000000E+00  0.0000000E+00  0.9615385E-02
    1      -14.980687
    2      -13.704932
    3      -12.961175
    4      -12.889482
    5      -12.653242
    6      -12.361864
    7      -12.251587
    8      -11.599907
    9      -11.572242
   10      -11.234594
   11      -11.152481
   12      -10.149638
   13       -8.713340
   14       -8.190739
   15       -7.992297
   16       -7.187210
   17       -6.989562
   18       -6.874009
   19       -6.656989
   20       -6.251480
   21       -5.973322
   22       -5.069206
   23       -4.895513
   24       -4.829683
   25       -4.530332
   26       -4.027999
   27       -3.868947
   28       -3.797350
   29       -3.266628
   30       -3.246737
   31       -3.224646
   32       -3.001940
   33       -2.846031
   34       -2.764901
   35       -2.600712
   36       -2.562874
   37       -2.219015
   38       -2.168811
   39       -2.123370
   40       -2.034562
   41       -1.943085
   42       -1.892312
   43       -1.804793
   44       -1.733534
   45       -1.675591
   46       -1.594118
   47       -1.414506
   48       -1.402314
   49       -1.281300
   50       -1.060226
   51       -0.990762
   52       -0.615766
   53        0.322630
   54        0.403548
   55        0.682655
   56        0.947481
   57        1.014442
   58        1.147416
   59        1.182821
   60        1.361020
   61        1.529445
   62        1.637272
   63        1.716015
   64        1.858098
   65        2.021873
   66        2.267369
   67        2.370231
   68        2.510956
 
  0.7692308E-01 -0.1387779E-16  0.0000000E+00  0.1923077E-01
    1      -14.926039
    2      -13.643586
    3      -12.908999
    4      -12.832112
    5      -12.597720
    6      -12.303545
    7      -12.189268
    8      -11.550136
    9      -11.521937
   10      -11.179490
   11      -11.104105
   12      -10.115743
   13       -8.673793
   14       -8.228050
   15       -7.954923
   16       -7.165131
   17       -6.960583
   18       -6.861090
   19       -6.651254
   20       -6.269726
   21       -5.943240
   22       -5.337028
   23       -5.022015
   24       -4.865825
   25       -4.481942
   26       -4.012256
   27       -3.912087
   28       -3.816729
   29       -3.605919
   30       -3.420390
   31       -3.328722
   32       -3.314748
   33       -3.172318
   34       -2.936280
   35       -2.818506
   36       -2.634357
   37       -2.466932
   38       -2.358504
   39       -2.241162
   40       -2.177654
   41       -2.121021
   42       -2.059740
   43       -1.986398
   44       -1.965012
   45       -1.874019
   46       -1.704651
   47       -1.666532
   48       -1.333607
   49       -1.180218
   50       -1.015188
   51       -0.828440
   52       -0.595771
   53        0.093523
   54        0.468703
   55        0.661913
   56        0.909265
   57        1.073049
   58        1.377237
   59        1.602877
   60        1.689767
   61        1.923269
   62        1.993938
   63        2.078351
   64        2.113261
   65        2.213843
   66        2.451890
   67        2.598791
   68        2.622076
 
  0.1538462E+00 -0.2775558E-16  0.0000000E+00  0.1923077E-01
    1      -14.764881
    2      -13.460617
    3      -12.753180
    4      -12.661494
    5      -12.433169
    6      -12.131338
    7      -12.006599
    8      -11.405775
    9      -11.374429
   10      -11.017843
   11      -10.965293
   12      -10.025874
   13       -8.565921
   14       -8.323677
   15       -7.913212
   16       -7.145046
   17       -6.921054
   18       -6.837248
   19       -6.663579
   20       -6.563788
   21       -5.908529
   22       -5.830968
   23       -5.075142
   24       -4.985439
   25       -4.436484
   26       -4.353748
   27       -4.267099
   28       -4.240106
   29       -4.119311
   30       -3.907801
   31       -3.778989
   32       -3.689399
   33       -3.484975
   34       -3.283390
   35       -3.124704
   36       -3.055907
   37       -2.974942
   38       -2.895479
   39       -2.668814
   40       -2.542955
   41       -2.493062
   42       -2.306413
   43       -2.172524
   44       -2.073913
   45       -1.929161
   46       -1.819288
   47       -1.808459
   48       -1.382637
   49       -1.228545
   50       -1.132900
   51       -0.994623
   52       -0.621728
   53       -0.015594
   54        0.486818
   55        0.800107
   56        0.861342
   57        1.113074
   58        1.767197
   59        2.084356
   60        2.199816
   61        2.294464
   62        2.359817
   63        2.461057
   64        2.545646
   65        2.619756
   66        2.782381
   67        2.888641
   68        2.910842
 
  0.2307692E+00 -0.4163336E-16  0.0000000E+00  0.1923077E-01
    1      -14.507362
    2      -13.159608
    3      -12.496782
    4      -12.382824
    5      -12.166799
    6      -11.855182
    7      -11.718502
    8      -11.185852
    9      -11.143157
   10      -10.763623
   11      -10.761271
   12       -9.926610
   13       -8.529634
   14       -8.415043
   15       -7.988460
   16       -7.564536
   17       -7.023253
   18       -6.908788
   19       -6.826835
   20       -6.793823
   21       -6.063112
   22       -5.891459
   23       -5.501715
   24       -5.344010
   25       -4.975450
   26       -4.911898
   27       -4.780711
   28       -4.668927
   29       -4.447800
   30       -4.329917
   31       -4.182614
   32       -3.926054
   33       -3.840356
   34       -3.630707
   35       -3.491486
   36       -3.259223
   37       -3.171371
   38       -3.124189
   39       -2.799570
   40       -2.734748
   41       -2.643826
   42       -2.565369
   43       -2.427913
   44       -2.067104
   45       -2.000843
   46       -1.974829
   47       -1.888623
   48       -1.734319
   49       -1.612437
   50       -1.278958
   51       -1.101483
   52       -0.905922
   53       -0.196352
   54        0.419663
   55        0.764282
   56        1.055024
   57        1.297416
   58        1.722317
   59        1.872780
   60        1.978687
   61        2.133841
   62        2.237150
   63        2.401003
   64        2.520790
   65        2.575481
   66        2.721319
   67        2.811830
   68        2.984985
 
  0.3076923E+00 -0.5551115E-16  0.0000000E+00  0.1923077E-01
    1      -14.176959
    2      -12.747885
    3      -12.148254
    4      -12.008166
    5      -11.815549
    6      -11.499825
    7      -11.359937
    8      -10.939029
    9      -10.870938
   10      -10.576174
   11      -10.443709
   12       -9.928895
   13       -8.818270
   14       -8.404474
   15       -8.251566
   16       -8.140254
   17       -7.353758
   18       -7.162533
   19       -7.074976
   20       -6.958317
   21       -6.477789
   22       -6.315091
   23       -6.132163
   24       -5.905910
   25       -5.372663
   26       -5.208699
   27       -4.968070
   28       -4.862073
   29       -4.751345
   30       -4.472403
   31       -4.374405
   32       -4.160822
   33       -3.946077
   34       -3.560115
   35       -3.513719
   36       -3.423083
   37       -3.244595
   38       -3.162699
   39       -3.078228
   40       -2.904397
   41       -2.773213
   42       -2.644622
   43       -2.516644
   44       -2.245999
   45       -2.201687
   46       -2.054618
   47       -2.033694
   48       -1.993961
   49       -1.865221
   50       -1.604190
   51       -1.399870
   52       -0.922429
   53       -0.189273
   54        0.143306
   55        0.589768
   56        0.972759
   57        1.237611
   58        1.510254
   59        1.646801
   60        1.847968
   61        1.872940
   62        2.026053
   63        2.108186
   64        2.209519
   65        2.295714
   66        2.523574
   67        2.661088
   68        2.852652
 
  0.3846154E+00 -0.8326673E-16  0.0000000E+00  0.1923077E-01
    1      -13.826987
    2      -12.239720
    3      -11.728791
    4      -11.566536
    5      -11.418939
    6      -11.134117
    7      -11.016758
    8      -10.783029
    9      -10.698600
   10      -10.615613
   11      -10.135231
   12      -10.069434
   13       -8.993780
   14       -8.623956
   15       -8.541861
   16       -8.376703
   17       -7.697617
   18       -7.619714
   19       -7.583848
   20       -7.238858
   21       -6.924495
   22       -6.883875
   23       -6.824187
   24       -6.475931
   25       -5.373842
   26       -5.249935
   27       -4.845387
   28       -4.744664
   29       -4.684297
   30       -4.405257
   31       -4.236329
   32       -4.207849
   33       -3.975302
   34       -3.817567
   35       -3.571970
   36       -3.520889
   37       -3.427774
   38       -3.309885
   39       -3.096037
   40       -2.983803
   41       -2.849091
   42       -2.665247
   43       -2.572750
   44       -2.435838
   45       -2.341477
   46       -2.260911
   47       -2.224643
   48       -2.165761
   49       -2.016084
   50       -1.869945
   51       -1.559442
   52       -0.869700
   53       -0.281545
   54        0.077981
   55        0.382985
   56        0.831152
   57        1.163206
   58        1.368060
   59        1.488409
   60        1.535759
   61        1.645872
   62        1.913379
   63        1.930280
   64        2.091609
   65        2.122635
   66        2.237693
   67        2.375328
   68        2.606486
 
  0.4615385E+00 -0.8326673E-16  0.0000000E+00  0.1923077E-01
    1      -13.573298
    2      -11.666936
    3      -11.307078
    4      -11.149638
    5      -11.124063
    6      -11.002105
    7      -10.964514
    8      -10.890571
    9      -10.792501
   10      -10.715984
   11      -10.255512
   12       -9.792288
   13       -8.897736
   14       -8.848568
   15       -8.606645
   16       -8.412729
   17       -8.241587
   18       -7.810806
   19       -7.741641
   20       -7.632181
   21       -7.452275
   22       -7.338542
   23       -7.238415
   24       -6.596201
   25       -5.247828
   26       -5.081367
   27       -4.771389
   28       -4.644867
   29       -4.528071
   30       -4.363777
   31       -4.217419
   32       -4.101823
   33       -3.988089
   34       -3.801689
   35       -3.745337
   36       -3.513963
   37       -3.437736
   38       -3.397498
   39       -3.179689
   40       -3.141162
   41       -3.025166
   42       -2.853796
   43       -2.731761
   44       -2.564853
   45       -2.491209
   46       -2.339664
   47       -2.243161
   48       -2.156578
   49       -2.029096
   50       -1.861154
   51       -1.670463
   52       -0.858174
   53       -0.306112
   54        0.082428
   55        0.280447
   56        0.702938
   57        1.136919
   58        1.185420
   59        1.283965
   60        1.432032
   61        1.611194
   62        1.794165
   63        1.865734
   64        1.917485
   65        2.036474
   66        2.164555
   67        2.248690
   68        2.429515
 
  0.0000000E+00  0.2500000E+00  0.0000000E+00  0.1923077E-01
    1      -14.979519
    2      -13.650096
    3      -13.134537
    4      -12.911905
    5      -12.653688
    6      -12.335885
    7      -12.037275
    8      -11.640230
    9      -11.583016
   10      -11.227915
   11      -11.161667
   12      -10.113361
   13       -8.796534
   14       -8.667034
   15       -7.557564
   16       -7.211443
   17       -6.935821
   18       -6.834202
   19       -6.752071
   20       -6.049450
   21       -5.896429
   22       -5.184459
   23       -4.818553
   24       -4.796176
   25       -4.414907
   26       -4.166245
   27       -3.933424
   28       -3.672454
   29       -3.470079
   30       -3.368492
   31       -3.294058
   32       -2.870010
   33       -2.849013
   34       -2.759796
   35       -2.563996
   36       -2.519942
   37       -2.416238
   38       -2.252515
   39       -2.175522
   40       -2.107809
   41       -2.047083
   42       -1.799121
   43       -1.787666
   44       -1.644089
   45       -1.581908
   46       -1.524759
   47       -1.484852
   48       -1.349456
   49       -1.299475
   50       -1.109694
   51       -0.944315
   52       -0.643577
   53        0.221874
   54        0.426133
   55        0.683845
   56        0.959877
   57        1.049351
   58        1.184468
   59        1.236691
   60        1.434869
   61        1.533505
   62        1.587396
   63        1.740169
   64        1.821083
   65        2.098826
   66        2.430219
   67        2.480990
   68        2.544385
 
  0.7692308E-01  0.2500000E+00  0.0000000E+00  0.1923077E-01
    1      -14.924666
    2      -13.573468
    3      -13.115217
    4      -12.858254
    5      -12.596921
    6      -12.273691
    7      -11.936892
    8      -11.598459
    9      -11.532361
   10      -11.173027
   11      -11.117369
   12      -10.070967
   13       -8.784844
   14       -8.712924
   15       -7.510057
   16       -7.192705
   17       -6.943936
   18       -6.842474
   19       -6.683241
   20       -5.992615
   21       -5.850674
   22       -5.414562
   23       -5.072842
   24       -4.833908
   25       -4.393594
   26       -4.199650
   27       -3.917214
   28       -3.792516
   29       -3.584252
   30       -3.512547
   31       -3.424210
   32       -3.226339
   33       -3.179498
   34       -2.889815
   35       -2.784555
   36       -2.657697
   37       -2.585871
   38       -2.447304
   39       -2.367460
   40       -2.264041
   41       -2.151564
   42       -2.042818
   43       -1.996406
   44       -1.922169
   45       -1.891572
   46       -1.633298
   47       -1.509262
   48       -1.301322
   49       -1.226415
   50       -1.046377
   51       -0.819408
   52       -0.578704
   53        0.090993
   54        0.332061
   55        0.673467
   56        0.932476
   57        1.169755
   58        1.421671
   59        1.596279
   60        1.764003
   61        1.788486
   62        1.928644
   63        2.090245
   64        2.165206
   65        2.373968
   66        2.499254
   67        2.778438
   68        2.820323
 
  0.1538462E+00  0.2500000E+00  0.0000000E+00  0.1923077E-01
    1      -14.763454
    2      -13.377200
    3      -12.978376
    4      -12.688116
    5      -12.430868
    6      -12.103614
    7      -11.738343
    8      -11.458276
    9      -11.374249
   10      -11.020230
   11      -10.976014
   12       -9.975192
   13       -8.808117
   14       -8.652253
   15       -7.478469
   16       -7.204159
   17       -6.979170
   18       -6.820229
   19       -6.653311
   20       -6.264701
   21       -5.862933
   22       -5.801553
   23       -5.198971
   24       -4.990549
   25       -4.548519
   26       -4.478754
   27       -4.275275
   28       -4.232290
   29       -4.106613
   30       -3.906038
   31       -3.768476
   32       -3.578274
   33       -3.377208
   34       -3.191373
   35       -3.117591
   36       -3.089124
   37       -2.933031
   38       -2.828985
   39       -2.756256
   40       -2.616479
   41       -2.551246
   42       -2.464223
   43       -2.260657
   44       -2.079298
   45       -2.038476
   46       -1.781493
   47       -1.650182
   48       -1.318198
   49       -1.293095
   50       -1.081688
   51       -1.016141
   52       -0.607709
   53        0.019692
   54        0.419072
   55        0.724024
   56        0.824911
   57        1.191611
   58        1.512601
   59        1.940602
   60        2.097854
   61        2.217030
   62        2.256639
   63        2.592474
   64        2.632148
   65        2.734779
   66        2.904800
   67        2.943434
   68        2.961397
 
  0.2307692E+00  0.2500000E+00  0.0000000E+00  0.1923077E-01
    1      -14.506047
    2      -13.066174
    3      -12.726528
    4      -12.406218
    5      -12.163439
    6      -11.836772
    7      -11.461129
    8      -11.235618
    9      -11.119060
   10      -10.789056
   11      -10.758268
   12       -9.871160
   13       -8.935157
   14       -8.509586
   15       -7.648112
   16       -7.561369
   17       -6.999656
   18       -6.862216
   19       -6.807068
   20       -6.731425
   21       -6.070685
   22       -5.974019
   23       -5.442066
   24       -5.366930
   25       -5.186896
   26       -4.897838
   27       -4.826589
   28       -4.722104
   29       -4.435640
   30       -4.272212
   31       -4.132717
   32       -3.883383
   33       -3.737940
   34       -3.439823
   35       -3.361135
   36       -3.291092
   37       -3.252962
   38       -3.035323
   39       -2.814499
   40       -2.753316
   41       -2.689785
   42       -2.615706
   43       -2.362873
   44       -2.155667
   45       -2.065728
   46       -1.965650
   47       -1.930589
   48       -1.866912
   49       -1.546166
   50       -1.221149
   51       -1.077674
   52       -0.935782
   53       -0.156685
   54        0.368167
   55        0.673148
   56        1.043916
   57        1.162757
   58        1.355355
   59        1.487161
   60        1.880641
   61        2.089065
   62        2.192116
   63        2.411044
   64        2.556832
   65        2.619971
   66        2.857513
   67        2.933921
   68        3.099289
 
  0.3076923E+00  0.2500000E+00  0.0000000E+00  0.1923077E-01
    1      -14.175913
    2      -12.649951
    3      -12.366852
    4      -12.024318
    5      -11.812422
    6      -11.497548
    7      -11.147044
    8      -10.970996
    9      -10.815565
   10      -10.553346
   11      -10.512497
   12       -9.864430
   13       -9.133878
   14       -8.460677
   15       -8.163027
   16       -7.874024
   17       -7.312114
   18       -7.272008
   19       -7.129383
   20       -6.922647
   21       -6.577507
   22       -6.342384
   23       -6.086106
   24       -5.859828
   25       -5.540572
   26       -5.255226
   27       -5.101214
   28       -4.849857
   29       -4.592756
   30       -4.502338
   31       -4.179766
   32       -4.121563
   33       -3.860186
   34       -3.526023
   35       -3.500572
   36       -3.349429
   37       -3.167005
   38       -3.096802
   39       -3.031104
   40       -2.905776
   41       -2.656502
   42       -2.594390
   43       -2.487323
   44       -2.454847
   45       -2.286888
   46       -2.127280
   47       -2.079747
   48       -2.011836
   49       -1.896545
   50       -1.613946
   51       -1.451207
   52       -0.899155
   53       -0.163508
   54        0.114583
   55        0.458302
   56        0.936552
   57        1.067213
   58        1.108052
   59        1.389074
   60        1.709050
   61        1.954564
   62        2.026159
   63        2.129972
   64        2.247949
   65        2.297709
   66        2.461992
   67        2.531052
   68        2.816826
 
  0.3846154E+00  0.2500000E+00  0.0000000E+00  0.1923077E-01
    1      -13.826394
    2      -12.147128
    3      -11.916098
    4      -11.570949
    5      -11.418131
    6      -11.147873
    7      -10.889057
    8      -10.759500
    9      -10.675547
   10      -10.628134
   11      -10.190941
   12      -10.006752
   13       -9.124060
   14       -8.621226
   15       -8.367762
   16       -8.276487
   17       -7.941689
   18       -7.705314
   19       -7.528100
   20       -7.234677
   21       -6.960066
   22       -6.860929
   23       -6.814631
   24       -6.431574
   25       -5.504563
   26       -5.244621
   27       -4.980950
   28       -4.920128
   29       -4.628543
   30       -4.277319
   31       -4.086155
   32       -4.023233
   33       -3.936467
   34       -3.684258
   35       -3.512513
   36       -3.451226
   37       -3.312151
   38       -3.268275
   39       -3.106948
   40       -3.062335
   41       -2.880374
   42       -2.729810
   43       -2.611884
   44       -2.461297
   45       -2.318309
   46       -2.301783
   47       -2.217625
   48       -2.194238
   49       -2.052369
   50       -1.951824
   51       -1.622019
   52       -0.830180
   53       -0.253883
   54       -0.025641
   55        0.362034
   56        0.841970
   57        1.051058
   58        1.147958
   59        1.319484
   60        1.447679
   61        1.675046
   62        1.760711
   63        1.892618
   64        1.971570
   65        2.036714
   66        2.186479
   67        2.470200
   68        2.531111
 
  0.4615385E+00  0.2500000E+00  0.0000000E+00  0.1923077E-01
    1      -13.573118
    2      -11.598937
    3      -11.420911
    4      -11.137760
    5      -11.133438
    6      -11.024413
    7      -10.974325
    8      -10.860630
    9      -10.749027
   10      -10.738431
   11      -10.209179
   12       -9.805094
   13       -8.887885
   14       -8.715425
   15       -8.564336
   16       -8.494095
   17       -8.428219
   18       -7.779744
   19       -7.690292
   20       -7.662418
   21       -7.480975
   22       -7.296736
   23       -7.227992
   24       -6.613841
   25       -5.227783
   26       -5.181686
   27       -4.887493
   28       -4.627634
   29       -4.454061
   30       -4.299707
   31       -4.235575
   32       -4.093685
   33       -3.886484
   34       -3.817001
   35       -3.668194
   36       -3.505499
   37       -3.419667
   38       -3.245144
   39       -3.161434
   40       -3.151899
   41       -3.023355
   42       -2.868960
   43       -2.775463
   44       -2.745029
   45       -2.533166
   46       -2.309067
   47       -2.250610
   48       -2.166583
   49       -2.019152
   50       -1.844817
   51       -1.699572
   52       -0.836992
   53       -0.309625
   54       -0.004793
   55        0.337860
   56        0.705246
   57        1.130079
   58        1.231178
   59        1.293331
   60        1.350098
   61        1.412649
   62        1.715135
   63        1.837581
   64        1.871892
   65        1.977898
   66        2.209728
   67        2.313079
   68        2.358880
 
 -0.4615385E+00  0.2500000E+00  0.0000000E+00  0.1923077E-01
    1      -13.573367
    2      -11.700035
    3      -11.231064
    4      -11.154486
    5      -11.112645
    6      -10.984206
    7      -10.965633
    8      -10.919902
    9      -10.857683
   10      -10.647592
   11      -10.313693
   12       -9.774058
   13       -8.923444
   14       -8.905192
   15       -8.600433
   16       -8.417461
   17       -8.106670
   18       -7.858354
   19       -7.774267
   20       -7.567276
   21       -7.443858
   22       -7.381217
   23       -7.207073
   24       -6.631951
   25       -5.231517
   26       -4.925739
   27       -4.775923
   28       -4.732993
   29       -4.536043
   30       -4.368479
   31       -4.160538
   32       -4.142669
   33       -4.046097
   34       -3.860788
   35       -3.810219
   36       -3.565342
   37       -3.517657
   38       -3.351008
   39       -3.137880
   40       -3.105649
   41       -2.965857
   42       -2.834812
   43       -2.747405
   44       -2.587756
   45       -2.490111
   46       -2.327385
   47       -2.261224
   48       -2.232093
   49       -1.932696
   50       -1.843052
   51       -1.647019
   52       -0.837420
   53       -0.341961
   54        0.101713
   55        0.293801
   56        0.689539
   57        1.125472
   58        1.176927
   59        1.282785
   60        1.546006
   61        1.591375
   62        1.739719
   63        1.945753
   64        2.019315
   65        2.169918
   66        2.233321
   67        2.285633
   68        2.399133
 
 -0.3846154E+00  0.2500000E+00  0.0000000E+00  0.1923077E-01
    1      -13.827188
    2      -12.265990
    3      -11.643869
    4      -11.566446
    5      -11.416762
    6      -11.143136
    7      -11.097608
    8      -10.785779
    9      -10.642529
   10      -10.611144
   11      -10.251858
   12      -10.007820
   13       -8.905079
   14       -8.660682
   15       -8.624022
   16       -8.370463
   17       -7.681137
   18       -7.606794
   19       -7.492550
   20       -7.294292
   21       -6.965199
   22       -6.838687
   23       -6.768689
   24       -6.540997
   25       -5.245901
   26       -5.214710
   27       -5.012556
   28       -4.730070
   29       -4.571342
   30       -4.436113
   31       -4.251858
   32       -4.224468
   33       -3.986050
   34       -3.884183
   35       -3.659613
   36       -3.563082
   37       -3.420219
   38       -3.329030
   39       -3.121545
   40       -2.948964
   41       -2.841990
   42       -2.683099
   43       -2.651624
   44       -2.415342
   45       -2.342581
   46       -2.255945
   47       -2.239380
   48       -2.093774
   49       -1.985586
   50       -1.797623
   51       -1.534117
   52       -0.851811
   53       -0.305805
   54        0.095474
   55        0.441894
   56        0.777996
   57        1.115598
   58        1.431610
   59        1.477096
   60        1.619602
   61        1.746655
   62        1.981753
   63        2.062333
   64        2.118581
   65        2.215438
   66        2.270628
   67        2.433687
   68        2.546608
 
 -0.3076923E+00  0.2500000E+00  0.0000000E+00  0.1923077E-01
    1      -14.177076
    2      -12.760068
    3      -12.106677
    4      -12.006622
    5      -11.814778
    6      -11.504158
    7      -11.406744
    8      -10.930632
    9      -10.856463
   10      -10.582252
   11      -10.445552
   12       -9.953530
   13       -8.719769
   14       -8.402008
   15       -8.347400
   16       -8.099129
   17       -7.397261
   18       -7.167262
   19       -7.049675
   20       -6.973519
   21       -6.446554
   22       -6.310072
   23       -6.141286
   24       -5.892756
   25       -5.313671
   26       -5.215070
   27       -5.056044
   28       -4.810062
   29       -4.757417
   30       -4.472069
   31       -4.398080
   32       -4.135422
   33       -3.921870
   34       -3.624837
   35       -3.606167
   36       -3.355152
   37       -3.242652
   38       -3.174923
   39       -3.095100
   40       -2.912942
   41       -2.780549
   42       -2.674515
   43       -2.492551
   44       -2.246526
   45       -2.174168
   46       -2.047360
   47       -2.018191
   48       -1.986753
   49       -1.857978
   50       -1.628251
   51       -1.405986
   52       -0.899726
   53       -0.185555
   54        0.131383
   55        0.679378
   56        0.914294
   57        1.260559
   58        1.569218
   59        1.761484
   60        1.834722
   61        1.894380
   62        2.071096
   63        2.173562
   64        2.227857
   65        2.333035
   66        2.498938
   67        2.604210
   68        2.810802
 
 -0.2307692E+00  0.2500000E+00  0.0000000E+00  0.1923077E-01
    1      -14.507236
    2      -13.155406
    3      -12.511397
    4      -12.385166
    5      -12.167099
    6      -11.855471
    7      -11.700944
    8      -11.188996
    9      -11.132351
   10      -10.768483
   11      -10.760590
   12       -9.932040
   13       -8.567418
   14       -8.420374
   15       -7.947001
   16       -7.527024
   17       -7.105532
   18       -6.875151
   19       -6.818407
   20       -6.795972
   21       -6.055489
   22       -5.894284
   23       -5.497253
   24       -5.329391
   25       -4.993687
   26       -4.932381
   27       -4.774400
   28       -4.673529
   29       -4.460184
   30       -4.339569
   31       -4.149007
   32       -3.905751
   33       -3.843102
   34       -3.611036
   35       -3.486714
   36       -3.260851
   37       -3.162112
   38       -3.126183
   39       -2.835166
   40       -2.754184
   41       -2.661086
   42       -2.593789
   43       -2.309948
   44       -2.065001
   45       -2.026560
   46       -1.979643
   47       -1.899122
   48       -1.756177
   49       -1.611373
   50       -1.278707
   51       -1.136739
   52       -0.896299
   53       -0.180518
   54        0.388296
   55        0.826560
   56        1.078932
   57        1.261922
   58        1.677147
   59        1.858534
   60        1.985701
   61        2.112921
   62        2.240966
   63        2.459922
   64        2.564616
   65        2.598590
   66        2.754627
   67        2.815688
   68        2.885796
 
 -0.1538462E+00  0.2500000E+00  0.0000000E+00  0.1923077E-01
    1      -14.764407
    2      -13.439313
    3      -12.826663
    4      -12.670531
    5      -12.434086
    6      -12.123213
    7      -11.916583
    8      -11.422918
    9      -11.369978
   10      -11.021331
   11      -10.963437
   12      -10.014564
   13       -8.606106
   14       -8.523710
   15       -7.703481
   16       -7.159865
   17       -6.926498
   18       -6.811816
   19       -6.715437
   20       -6.498008
   21       -5.875257
   22       -5.806006
   23       -5.106869
   24       -4.984754
   25       -4.467708
   26       -4.366951
   27       -4.323301
   28       -4.253470
   29       -4.070612
   30       -3.899898
   31       -3.796375
   32       -3.647662
   33       -3.463474
   34       -3.239948
   35       -3.083075
   36       -3.052261
   37       -3.001791
   38       -2.913164
   39       -2.707821
   40       -2.640222
   41       -2.506930
   42       -2.331595
   43       -2.154655
   44       -2.047569
   45       -1.930677
   46       -1.789444
   47       -1.746054
   48       -1.367171
   49       -1.325055
   50       -1.104049
   51       -0.993096
   52       -0.646678
   53       -0.012024
   54        0.471976
   55        0.749126
   56        0.874894
   57        1.197662
   58        1.631111
   59        2.026879
   60        2.158515
   61        2.296843
   62        2.401521
   63        2.553160
   64        2.609023
   65        2.640758
   66        2.804900
   67        2.973277
   68        3.059741
 
 -0.7692308E-01  0.2500000E+00  0.0000000E+00  0.1923077E-01
    1      -14.925193
    2      -13.605224
    3      -13.037077
    4      -12.848427
    5      -12.598748