 running on    8 total cores
 distrk:  each k-point on    8 cores,    1 groups
 distr:  one band on    2 cores,    4 groups
 using from now: INCAR     
 vasp.5.3.5 31Mar14 (build Oct 29 2014 16:16:03) complex                        
  
 POSCAR found type information on POSCAR  P  Si
 POSCAR found :  2 types and      24 ions
 scaLAPACK will be used

 ----------------------------------------------------------------------------- 
|                                                                             |
|  ADVICE TO THIS USER RUNNING 'VASP/VAMP'   (HEAR YOUR MASTER'S VOICE ...):  |
|                                                                             |
|      You have switched on vdW-DFT.                                          |
|      This routine was written and supplied by Jiri Klimes.                  |
|      We recommed that you carefully read and cite the following             |
|      publication                                                            |
|      J. Klimes, D.R. Bowler, A. Michelides                                  |
|        J. Phys.: Cond Matt. 22 022201 (2010)                                |
|      J. Klimes, D.R. Bowler, A. Michelides                                  |
|        Phys. Rev. B. 83, 195131 (2011)                                      |
|      and references therein.                                                |
|                                                                             |
 ----------------------------------------------------------------------------- 


 ----------------------------------------------------------------------------- 
|                                                                             |
|  ADVICE TO THIS USER RUNNING 'VASP/VAMP'   (HEAR YOUR MASTER'S VOICE ...):  |
|                                                                             |
|      You enforced a specific xc-type in the INCAR file,                     |
|      a different type was found on the POTCAR file                          |
|          I HOPE YOU KNOW, WHAT YOU ARE  DOING                               |
|                                                                             |
 ----------------------------------------------------------------------------- 

 LDA part: xc-table for Pade appr. of Perdew


 VERY BAD NEWS! internal error in subroutine IBZKPT:
 Reciprocal lattice and k-lattice belong to different class of lattices. Often results are still useful...      96


 VERY BAD NEWS! internal error in subroutine IBZKPT:
 Reciprocal lattice and k-lattice belong to different class of lattices. Often results are still useful...      96


 VERY BAD NEWS! internal error in subroutine IBZKPT:
 Reciprocal lattice and k-lattice belong to different class of lattices. Often results are still useful...      96


 VERY BAD NEWS! internal error in subroutine IBZKPT:
 Reciprocal lattice and k-lattice belong to different class of lattices. Often results are still useful...      96


 VERY BAD NEWS! internal error in subroutine IBZKPT:
 Reciprocal lattice and k-lattice belong to different class of lattices. Often results are still useful...      96


 VERY BAD NEWS! internal error in subroutine IBZKPT:
 Reciprocal lattice and k-lattice belong to different class of lattices. Often results are still useful...      96


 VERY BAD NEWS! internal error in subroutine IBZKPT:
 Reciprocal lattice and k-lattice belong to different class of lattices. Often results are still useful...      96


 VERY BAD NEWS! internal error in subroutine IBZKPT:
 Reciprocal lattice and k-lattice belong to different class of lattices. Often results are still useful...      96
 POSCAR, INCAR and KPOINTS ok, starting setup
 WARNING: small aliasing (wrap around) errors must be expected
 FFT: planning ...
 WAVECAR not read
 entering main loop
       N       E                     dE             d eps       ncg     rms          rms(c)
Total vdW correction in eV:     15.8651952
DAV:   1     0.492461911235E+03    0.49246E+03   -0.28693E+04  7368   0.790E+02
DAV:   2    -0.673406691310E+02   -0.55980E+03   -0.54466E+03  9772   0.190E+02
DAV:   3    -0.122937868201E+03   -0.55597E+02   -0.54748E+02  8816   0.619E+01
DAV:   4    -0.125437354492E+03   -0.24995E+01   -0.24800E+01 11024   0.139E+01
DAV:   5    -0.125496234494E+03   -0.58880E-01   -0.58781E-01 10000   0.209E+00    0.994E+00
Total vdW correction in eV:     16.2368898
DAV:   6    -0.123194894446E+03    0.23013E+01   -0.85535E+00  8704   0.700E+00    0.554E+00
Total vdW correction in eV:     16.6064182
DAV:   7    -0.123005965238E+03    0.18893E+00   -0.47806E+00  9176   0.605E+00    0.268E+00
Total vdW correction in eV:     16.8223535
DAV:   8    -0.122930491913E+03    0.75473E-01   -0.17167E+00  9008   0.371E+00    0.110E+00
Total vdW correction in eV:     16.9112166
DAV:   9    -0.122925192589E+03    0.52993E-02   -0.23360E-01  8664   0.145E+00    0.546E-01
Total vdW correction in eV:     16.9383765
DAV:  10    -0.122901046027E+03    0.24147E-01   -0.44480E-02  9080   0.658E-01    0.198E-01
Total vdW correction in eV:     16.9568306
DAV:  11    -0.122892325285E+03    0.87207E-02   -0.13497E-02  9136   0.348E-01    0.877E-02
Total vdW correction in eV:     16.9619442
DAV:  12    -0.122887869692E+03    0.44556E-02   -0.20388E-03  9072   0.143E-01    0.486E-02
Total vdW correction in eV:     16.9668117
DAV:  13    -0.122883134817E+03    0.47349E-02   -0.50202E-04  9456   0.869E-02    0.243E-02
Total vdW correction in eV:     16.9709426
DAV:  14    -0.122880724446E+03    0.24104E-02   -0.25767E-04  9312   0.538E-02    0.138E-02
Total vdW correction in eV:     16.9742839
DAV:  15    -0.122880249639E+03    0.47481E-03   -0.93138E-05  9128   0.365E-02    0.783E-03
Total vdW correction in eV:     16.9762950
DAV:  16    -0.122880558062E+03   -0.30842E-03   -0.78538E-05  8200   0.247E-02    0.469E-03
Total vdW correction in eV:     16.9772897
DAV:  17    -0.122881001754E+03   -0.44369E-03   -0.10682E-04  8392   0.214E-02    0.274E-03
Total vdW correction in eV:     16.9774022
DAV:  18    -0.122881226687E+03   -0.22493E-03   -0.71576E-05  7704   0.158E-02    0.165E-03
Total vdW correction in eV:     16.9772769
DAV:  19    -0.122881241429E+03   -0.14742E-04   -0.29505E-05  7088   0.117E-02    0.104E-03
Total vdW correction in eV:     16.9771344
DAV:  20    -0.122881220472E+03    0.20956E-04   -0.18170E-05  6732   0.938E-03    0.697E-04
Total vdW correction in eV:     16.9770672
DAV:  21    -0.122881208797E+03    0.11675E-04   -0.90154E-06  6224   0.818E-03    0.469E-04
Total vdW correction in eV:     16.9770113
DAV:  22    -0.122881190163E+03    0.18634E-04   -0.71908E-06  6136   0.767E-03    0.271E-04
Total vdW correction in eV:     16.9769865
DAV:  23    -0.122881164680E+03    0.25482E-04   -0.37499E-06  5984   0.612E-03    0.167E-04
Total vdW correction in eV:     16.9769585
DAV:  24    -0.122881130811E+03    0.33870E-04   -0.41969E-06  6528   0.641E-03    0.937E-05
Total vdW correction in eV:     16.9769460
DAV:  25    -0.122881110354E+03    0.20456E-04   -0.27495E-06  6344   0.584E-03    0.457E-05
Total vdW correction in eV:     16.9769382
DAV:  26    -0.122881101616E+03    0.87386E-05   -0.19781E-06  6176   0.520E-03    0.216E-05
Total vdW correction in eV:     16.9769357
DAV:  27    -0.122881105154E+03   -0.35386E-05   -0.15048E-06  6120   0.451E-03    0.128E-05
Total vdW correction in eV:     16.9769345
DAV:  28    -0.122881107482E+03   -0.23280E-05   -0.10857E-06  5172   0.426E-03    0.635E-06
Total vdW correction in eV:     16.9769342
DAV:  29    -0.122881107637E+03   -0.15471E-06   -0.10272E-06  5292   0.379E-03
Total vdW correction in eV:     16.9769341
Total vdW correction in eV:     16.9769341
   1 F= -.12288111E+03 E0= -.12286212E+03  d E =-.379669E-01
